G4.5-PAMAM in water
123569
    1aaa     C1    1   0.308   6.638   6.218 -0.2278  0.0106 -0.0598
    1aaa     H1    2   0.211   6.630   6.167 -1.0585 -0.5699  1.5231
    1aaa     H2    3   0.275   6.623   6.322 -1.8508 -1.4629 -0.7347
    1aaa     C2    4   0.352   6.786   6.207  0.0374 -0.9207 -0.4709
    1aaa     H3    5   0.446   6.792   6.263 -0.3234 -0.8072  0.1419
    1aaa     H4    6   0.366   6.817   6.103  0.6319 -1.3824 -0.5294
    1aaa     N1    7   0.255   6.887   6.272 -0.4733 -0.2108 -0.2228
    1aaa     N2    8   0.418   6.542   6.164 -0.0710 -0.4264 -0.1761
    1aaa     C3    9   0.474   6.580   6.035 -0.3934 -0.3376 -0.4045
    1aaa     H5   10   0.535   6.492   6.011  0.4696 -0.5995  2.3404
    1aaa     H6   11   0.539   6.669   6.037  0.9628 -1.2874  1.8256
    1aaa     C4   12   0.370   6.405   6.165 -0.0699 -0.0692  0.0133
    1aaa     H7   13   0.276   6.399   6.109  0.2749 -1.4496 -0.4645
    1aaa     H8   14   0.438   6.336   6.113  0.7822 -0.7044  1.9069
    1aaa     C5   15   0.107   6.866   6.241  0.1789 -0.6388  0.1119
    1aaa     H9   16   0.101   6.840   6.135 -1.5027  1.0437 -0.2482
    1aaa    H10   17   0.068   6.785   6.304  0.1413 -1.3535 -0.8117
    1aaa     C6   18   0.270   6.902   6.420 -0.3171 -0.2330  0.3165
    1aaa    H11   19   0.246   6.803   6.461  1.3140 -0.7438  0.1057
    1aaa    H12   20   0.199   6.978   6.454 -1.1531  0.0744 -1.9582
    1aaa     C7   21   0.035   6.996   6.255  0.1648 -0.4785 -0.3152
    1aaa    H13   22   0.036   7.029   6.359  1.3512 -2.1081  0.2282
    1aaa    H14   23   0.066   7.080   6.191 -0.9823  1.2626  1.3171
    1aaa     C8   24   0.407   6.941   6.470 -0.0491  0.5167  0.4588
    1aaa    H15   25   0.476   6.856   6.458 -1.8452 -1.6065  3.6262
    1aaa    H16   26   0.447   7.024   6.411  1.0898  0.7833  1.5529
    1aaa     C9   27   0.361   6.345   6.305 -0.1981  0.3107 -0.7075
    1aaa    H17   28   0.458   6.323   6.351 -1.7905 -0.4631  2.6036
    1aaa    H18   29   0.299   6.415   6.362 -1.1906 -0.1534 -1.1808
    1aaa    C10   30   0.369   6.594   5.928 -0.3938  0.4463 -0.2459
    1aaa    H19   31   0.329   6.493   5.912  1.2877 -0.2917 -0.0513
    1aaa    H20   32   0.290   6.666   5.953  0.1766  0.7762  0.6577
    1aaa    C11   33   0.284   6.214   6.304 -0.0530 -0.0529  0.3566
    1aaa    C12   34   0.438   6.625   5.802 -0.0390  0.1360 -0.5189
    1aaa    C13   35  -0.110   6.975   6.221  0.4660 -0.2102 -0.3633
    1aaa    C14   36   0.414   6.991   6.616 -0.3405  0.6796 -0.0491
    1aaa     O1   37   0.338   6.115   6.249 -0.2299  0.4651 -0.3396
    1aaa     O2   38  -0.150   6.994   6.110  0.0735  0.3615  0.4899
    1aaa     O3   39   0.332   7.066   6.657  0.4158 -0.0445 -0.2536
    1aaa     O4   40   0.537   6.699   5.806  0.0517 -0.0332 -0.1656
    2bbb     C1   41  -0.076   6.137   6.409  0.4142 -0.1945 -0.0879
    2bbb     H1   42  -0.120   6.211   6.341  0.2078 -1.6617 -1.6142
    2bbb     H2   43  -0.058   6.188   6.505 -1.1764  2.8861 -1.2888
    2bbb     C2   44   0.060   6.109   6.348  0.0094  0.3765  0.5455
    2bbb     H3   45   0.114   6.034   6.407 -0.0058 -1.5657 -1.7648
    2bbb     H4   46   0.050   6.053   6.254 -0.2316  0.7118  0.3664
    2bbb     N1   47  -0.149   6.016   6.426  0.2531 -0.5804  0.3510
    2bbb     C3   48  -0.271   6.011   6.347  0.4370  0.8876  0.1723
    2bbb     H5   49  -0.336   6.092   6.383  0.4358  0.6441  0.7232
    2bbb     H6   50  -0.314   5.911   6.340 -0.0834  1.1046  0.2608
    2bbb     C4   51  -0.162   5.965   6.563 -0.1488 -0.2263 -0.4681
    2bbb     H7   52  -0.202   6.042   6.631  0.4995  0.5543 -0.9630
    2bbb     H8   53  -0.242   5.890   6.559 -0.2679 -0.0807 -0.8064
    2bbb     C5   54  -0.026   5.908   6.611 -0.1667  0.2210 -0.6619
    2bbb     H9   55   0.009   5.837   6.535 -1.5929 -1.0439 -0.1938
    2bbb    H10   56   0.030   5.999   6.634 -0.5875  1.1529 -3.0799
    2bbb     C6   57  -0.252   6.055   6.203  0.6657 -0.5076  0.9380
    2bbb    H11   58  -0.275   6.161   6.187 -0.1595 -0.9277 -0.9021
    2bbb    H12   59  -0.150   6.040   6.165  0.3470 -1.1290  0.3170
    2bbb     C7   60  -0.036   5.831   6.738  0.1255  0.1761  0.3173
    2bbb     C8   61  -0.344   5.981   6.110 -0.8717 -0.1910 -0.2350
    2bbb     O1   62  -0.134   5.824   6.804  0.8575 -0.0210  0.2539
    2bbb     O2   63  -0.452   5.943   6.146 -0.3217 -0.2660 -0.5030
    2bbb     N4   64   0.157   6.222   6.343  0.0464  0.4942  0.0003
    2bbb    H21   65   0.129   6.319   6.354  3.2196  1.6575 -1.0448
    3bbb     C1   66   0.497   6.404   5.534 -0.4775 -0.1704 -0.2848
    3bbb     H1   67   0.432   6.335   5.591 -0.8103  0.8582  0.6241
    3bbb     H2   68   0.593   6.392   5.585 -0.1886  3.2711  0.1873
    3bbb     C2   69   0.453   6.549   5.552  0.1583 -1.0239 -0.0300
    3bbb     H3   70   0.540   6.615   5.545 -1.4498  1.2964  0.7782
    3bbb     H4   71   0.382   6.574   5.473 -0.4376  0.5710  0.9519
    3bbb     N1   72   0.507   6.377   5.391  0.2540  0.3243 -0.0082
    3bbb     C3   73   0.380   6.310   5.350  0.5565 -0.6062 -0.2453
    3bbb     H5   74   0.290   6.339   5.406  1.9330  2.5695  0.5705
    3bbb     H6   75   0.401   6.204   5.370  0.0345 -0.3713  1.7438
    3bbb     C4   76   0.625   6.296   5.367  0.7072  0.2413 -0.1725
    3bbb     H7   77   0.643   6.236   5.458 -0.2359  1.5523  0.9228
    3bbb     H8   78   0.617   6.234   5.277  3.2238 -0.0149 -0.2987
    3bbb     C5   79   0.749   6.385   5.347  0.2265  0.2629 -0.2771
    3bbb     H9   80   0.747   6.448   5.257  2.4807  1.9346  0.7379
    3bbb    H10   81   0.755   6.455   5.431 -1.4648 -0.5849  0.5969
    3bbb     C6   82   0.349   6.331   5.205 -0.2552  0.4655 -0.1119
    3bbb    H11   83   0.335   6.437   5.184  1.2136  0.9919  1.3689
    3bbb    H12   84   0.422   6.279   5.142  0.3897 -0.7749  1.5762
    3bbb     C7   85   0.870   6.299   5.344 -0.1704  0.2453 -0.3894
    3bbb     C8   86   0.220   6.261   5.188  0.6344  0.7040 -0.2636
    3bbb     O1   87   0.864   6.182   5.366  0.3632 -0.6866 -0.1962
    3bbb     O2   88   0.221   6.146   5.142  0.3687  0.5308 -0.2834
    3bbb     N4   89   0.385   6.574   5.683  0.0897  0.1851 -0.3217
    3bbb    H21   90   0.293   6.534   5.691 -0.8052  1.6452 -2.3531
    4bbb     C1   91  -0.396   6.823   6.447 -0.1397 -0.3409  0.6448
    4bbb     H1   92  -0.313   6.823   6.519 -0.2449 -1.5028  0.7869
    4bbb     H2   93  -0.408   6.716   6.424 -0.1049  0.0136 -1.1982
    4bbb     C2   94  -0.335   6.916   6.332  0.9156  0.0040  0.0596
    4bbb     H3   95  -0.373   6.892   6.232 -2.1695 -0.4339  1.2500
    4bbb     H4   96  -0.382   7.015   6.345 -1.4552 -1.0740  0.1641
    4bbb     N1   97  -0.526   6.875   6.495  0.0944 -0.9404  0.0870
    4bbb     C3   98  -0.577   6.810   6.614 -0.2023  0.5318 -0.1959
    4bbb     H5   99  -0.597   6.703   6.601  2.4872 -0.3585  1.9168
    4bbb     H6  100  -0.672   6.855   6.643 -0.8419 -0.2072 -1.0937
    4bbb     C4  101  -0.628   6.880   6.390  0.2226 -0.1126 -0.4892
    4bbb     H7  102  -0.586   6.924   6.299  0.3829  1.1219  0.1634
    4bbb     H8  103  -0.672   6.780   6.377 -1.8286  0.0456  3.6384
    4bbb     C5  104  -0.751   6.962   6.436  0.3595 -0.4513 -0.0180
    4bbb     H9  105  -0.824   6.904   6.494 -1.6186  0.6977 -1.2414
    4bbb    H10  106  -0.714   7.054   6.481 -0.7015  0.1311 -0.3035
    4bbb     C6  107  -0.485   6.834   6.735  1.0521 -0.2398  0.2548
    4bbb    H11  108  -0.402   6.763   6.728 -1.9434 -4.0921  0.4479
    4bbb    H12  109  -0.453   6.938   6.740 -1.4642  0.5845  0.7066
    4bbb     C7  110  -0.835   6.993   6.318  0.0847  0.0186  0.6846
    4bbb     C8  111  -0.553   6.798   6.864  0.4471 -0.2877  0.5465
    4bbb     O1  112  -0.870   6.908   6.232  0.0025 -0.0957  0.5431
    4bbb     O2  113  -0.654   6.728   6.874 -0.0387  0.0108  0.5761
    4bbb     N4  114  -0.186   6.933   6.328 -0.2311 -0.2745 -0.7123
    4bbb    H21  115  -0.123   6.906   6.403  1.1010 -0.1128 -1.7317
    5bbb     C1  116   0.570   6.976   6.928 -0.4739 -0.3235  0.2538
    5bbb     H1  117   0.552   7.084   6.922  2.5416  0.3283  1.1401
    5bbb     H2  118   0.663   6.945   6.879  0.3197  2.4845 -0.1853
    5bbb     C2  119   0.467   6.896   6.848  0.5029  0.0963  0.3624
    5bbb     H3  120   0.479   6.789   6.872  0.2199  0.0103  0.1278
    5bbb     H4  121   0.364   6.920   6.877  0.5264  0.0716  0.4647
    5bbb     N1  122   0.580   6.943   7.072 -0.1950 -0.0724  0.1917
    5bbb     C3  123   0.455   6.972   7.137  0.2163 -0.9368  0.2121
    5bbb     H5  124   0.370   6.928   7.084 -0.2790  2.4588 -2.1550
    5bbb     H6  125   0.429   7.079   7.133 -2.6361 -1.5792 -1.8453
    5bbb     C4  126   0.708   6.977   7.140 -0.1797  0.2688  0.5246
    5bbb     H7  127   0.715   6.935   7.241 -2.7136 -1.0212  0.2254
    5bbb     H8  128   0.790   6.935   7.081 -0.3102 -0.5849  0.9442
    5bbb     C5  129   0.726   7.126   7.152 -0.1931  0.3326  0.0085
    5bbb     H9  130   0.731   7.172   7.053 -0.0600 -0.4395 -0.3546
    5bbb    H10  131   0.654   7.162   7.226  0.6715  0.4229  0.8285
    5bbb     C6  132   0.452   6.919   7.281 -0.6292 -0.1096 -0.6857
    5bbb    H11  133   0.476   6.812   7.276 -0.4940 -0.0399 -2.2170
    5bbb    H12  134   0.537   6.957   7.339 -0.0327  1.0155 -2.2281
    5bbb     C7  135   0.856   7.154   7.218 -0.3391 -0.3273  0.0186
    5bbb     C8  136   0.320   6.948   7.346 -0.6825 -0.4895 -0.1835
    5bbb     O1  137   0.907   7.073   7.292  0.0805 -0.1933  0.3759
    5bbb     O2  138   0.230   6.870   7.340 -0.6220 -0.0219 -0.3385
    5bbb     N4  139   0.489   6.914   6.697 -0.3485  0.4450 -0.4751
    5bbb    H21  140   0.564   6.862   6.654 -0.4016 -0.7052  0.7650
    6bbb     C1  141   0.205   5.553   6.867 -0.1961 -0.2948  0.5896
    6bbb     H1  142   0.288   5.620   6.840  0.0928 -0.4748  1.0234
    6bbb     H2  143   0.191   5.482   6.784  0.0966 -0.6238  0.8208
    6bbb     C2  144   0.079   5.645   6.870  0.2322  0.3434 -0.1720
    6bbb     H3  145  -0.009   5.580   6.857 -0.3686  1.3735 -1.3923
    6bbb     H4  146   0.069   5.681   6.973  0.7824  0.7957 -0.2731
    6bbb     N1  147   0.222   5.482   6.999 -0.1792  0.2020  0.6812
    6bbb     C3  148   0.350   5.401   6.995 -0.6416 -0.6849 -0.4033
    6bbb     H5  149   0.343   5.323   6.918 -1.1852 -1.0480  0.0114
    6bbb     H6  150   0.364   5.347   7.089 -2.3759 -1.5270 -0.5831
    6bbb     C4  151   0.107   5.399   7.041 -0.2465 -0.7036 -0.1920
    6bbb     H7  152   0.012   5.449   7.018  0.0184 -0.7866 -1.5272
    6bbb     H8  153   0.099   5.304   6.987 -2.3467 -1.2149  0.9258
    6bbb     C5  154   0.108   5.387   7.192 -0.4855 -0.1400 -0.3706
    6bbb     H9  155   0.195   5.330   7.224 -0.6741  0.3021  0.9747
    6bbb    H10  156   0.115   5.484   7.243  0.2283 -0.2696 -0.2176
    6bbb     C6  157   0.475   5.492   6.973 -0.2495 -0.5153  0.4926
    6bbb    H11  158   0.482   5.507   6.865 -1.0794 -1.3259  0.3173
    6bbb    H12  159   0.462   5.592   7.017 -2.7565  0.2278 -1.7067
    6bbb     C7  160  -0.013   5.317   7.237 -0.0978  0.0825 -0.3148
    6bbb     C8  161   0.597   5.438   7.047 -0.9933  0.1349 -0.1184
    6bbb     O1  162  -0.068   5.229   7.173 -0.9267 -0.3340  0.1577
    6bbb     O2  163   0.636   5.325   7.021 -0.4458 -0.0660  0.0087
    6bbb     N4  164   0.074   5.751   6.770 -0.4765 -0.9889  0.2724
    6bbb    H21  165   0.148   5.753   6.701 -0.6939 -2.1137 -0.0196
    7bbb     C1  166  -0.453   6.033   5.782 -0.3207  0.7483  0.0055
    7bbb     H1  167  -0.525   5.991   5.712 -0.8183 -0.0981  1.0006
    7bbb     H2  168  -0.366   6.086   5.741  2.3788 -1.5877  2.2333
    7bbb     C2  169  -0.392   5.919   5.865 -0.1622  0.3510  0.2027
    7bbb     H3  170  -0.469   5.856   5.910 -1.0994  1.4112  0.1467
    7bbb     H4  171  -0.344   5.847   5.798  0.0960 -0.1698  0.9409
    7bbb     N1  172  -0.519   6.136   5.866  1.0467  0.1860  0.2580
    7bbb     C3  173  -0.656   6.096   5.912  0.0010 -0.0854 -0.2199
    7bbb     H5  174  -0.665   5.989   5.937 -0.9762  0.1395  0.4519
    7bbb     H6  175  -0.737   6.110   5.839 -0.0242 -2.0807 -0.6233
    7bbb     C4  176  -0.512   6.270   5.800  0.0983  0.5618 -0.4524
    7bbb     H7  177  -0.533   6.349   5.873  1.7516  0.6366 -0.0114
    7bbb     H8  178  -0.407   6.288   5.774  0.1025  0.2335 -0.6656
    7bbb     C5  179  -0.591   6.271   5.673  0.5087 -0.1402  0.1128
    7bbb     H9  180  -0.584   6.185   5.604 -1.5218  0.4134 -0.8751
    7bbb    H10  181  -0.698   6.277   5.697  0.0368  1.0109 -2.0040
    7bbb     C6  182  -0.691   6.161   6.043  0.6034  0.4247 -0.4180
    7bbb    H11  183  -0.606   6.162   6.112  1.2376  1.6062 -1.1817
    7bbb    H12  184  -0.733   6.262   6.029 -2.8717 -0.8796 -0.3418
    7bbb     C7  185  -0.566   6.396   5.595 -0.1875  0.2146 -0.9092
    7bbb     C8  186  -0.798   6.086   6.111  0.0650  0.2063 -0.9272
    7bbb     O1  187  -0.486   6.395   5.505 -0.5292  0.6643  0.5475
    7bbb     O2  188  -0.913   6.126   6.107 -0.6450  0.0466 -0.0838
    7bbb     N4  189  -0.306   5.971   5.974  0.4511 -0.3349  0.0193
    7bbb    H21  190  -0.217   6.009   5.943  0.0795  0.9243  0.4163
    8bbb     C1  191   1.226   6.402   5.307  0.4064 -0.0197 -0.4283
    8bbb     H1  192   1.231   6.388   5.416  1.7161  1.1715 -0.3101
    8bbb     H2  193   1.205   6.507   5.284 -0.9024 -0.2166 -0.2060
    8bbb     C2  194   1.107   6.310   5.257 -0.2942 -0.9675 -0.4586
    8bbb     H3  195   1.111   6.316   5.147  2.7308 -0.3532 -0.4113
    8bbb     H4  196   1.120   6.207   5.293 -0.2548 -0.8372 -0.0952
    8bbb     N1  197   1.353   6.359   5.245 -0.1003 -0.4030 -0.0956
    8bbb     C3  198   1.400   6.230   5.287  0.0612  0.9865 -0.1232
    8bbb     H5  199   1.491   6.203   5.232 -0.1883  1.1076 -0.6057
    8bbb     H6  200   1.327   6.148   5.286 -0.5009  1.4849 -0.6154
    8bbb     C4  201   1.454   6.469   5.242  0.6731 -0.3594  0.4261
    8bbb     H7  202   1.466   6.515   5.341  2.9636  1.1116 -0.4488
    8bbb     H8  203   1.556   6.436   5.220  0.3472 -1.7780  0.9771
    8bbb     C5  204   1.413   6.569   5.140 -1.0178 -1.0460  0.4377
    8bbb     H9  205   1.414   6.524   5.040 -0.4951  1.4988 -0.7958
    8bbb    H10  206   1.315   6.617   5.152  0.6991  2.5006  1.7939
    8bbb     C6  207   1.442   6.232   5.432  0.0691  0.1370 -0.5034
    8bbb    H11  208   1.508   6.315   5.459  2.0627 -1.0940 -1.3607
    8bbb    H12  209   1.348   6.242   5.487 -1.0105  2.2253 -2.5548
    8bbb     C7  210   1.510   6.689   5.140 -0.3022  0.0519  0.0884
    8bbb     C8  211   1.513   6.096   5.466 -0.1509  0.1647 -0.1683
    8bbb     O1  212   1.494   6.777   5.225 -0.1095  0.1817 -0.3911
    8bbb     O2  213   1.631   6.076   5.460 -0.2178 -0.2799 -0.0793
    8bbb     N4  214   0.981   6.371   5.308 -0.1182 -0.0965  0.1615
    8bbb    H21  215   0.965   6.471   5.303 -0.8474 -0.0883  1.9447
    9bbb     C1  216  -0.142   6.379   5.184 -0.1514 -0.5832  0.4419
    9bbb     H1  217  -0.170   6.425   5.280 -0.0381 -2.7090  1.5595
    9bbb     H2  218  -0.231   6.324   5.154 -0.0869  0.3725 -1.6509
    9bbb     C2  219  -0.033   6.272   5.201 -1.0654 -0.2821  0.1270
    9bbb     H3  220  -0.049   6.224   5.298 -0.9322 -0.6391 -0.0245
    9bbb     H4  221  -0.030   6.197   5.120  2.0503 -0.4594  0.2681
    9bbb     N1  222  -0.125   6.474   5.080 -0.5229 -0.0397 -0.1933
    9bbb     C3  223  -0.095   6.417   4.948 -0.1603  0.1089  0.5808
    9bbb     H5  224  -0.006   6.353   4.945  0.6809  1.1736  1.6145
    9bbb     H6  225  -0.075   6.490   4.868 -1.3612 -0.7781 -0.5685
    9bbb     C4  226  -0.031   6.581   5.120 -0.3787 -0.2738 -0.1269
    9bbb     H7  227  -0.058   6.612   5.221 -2.3897  0.6319 -0.8739
    9bbb     H8  228   0.074   6.551   5.125 -0.4985 -0.5627  0.7751
    9bbb     C5  229  -0.056   6.706   5.040 -0.0226  0.8683  0.4283
    9bbb     H9  230  -0.027   6.685   4.936  3.2680  2.4764  0.8802
    9bbb    H10  231  -0.163   6.728   5.045  0.0114  2.1457 -2.2916
    9bbb     C6  232  -0.211   6.335   4.902  0.1499  0.4262 -0.7293
    9bbb    H11  233  -0.198   6.235   4.944 -1.2654  0.8147  0.7591
    9bbb    H12  234  -0.308   6.376   4.933  0.0444 -1.1446  1.2237
    9bbb     C7  235   0.036   6.823   5.081  0.6260 -0.3211  0.3662
    9bbb     C8  236  -0.209   6.327   4.752  0.1705 -0.0008 -0.4435
    9bbb     O1  237   0.155   6.822   5.080 -0.2681  0.5202  0.2004
    9bbb     O2  238  -0.286   6.398   4.688  0.1213  0.5560  0.8401
    9bbb     N4  239   0.100   6.329   5.222 -0.4936  0.1576  0.0096
    9bbb    H21  240   0.102   6.427   5.246 -0.3904 -0.2429  1.7826
   10bbb     C1  241  -0.931   7.352   6.193  0.5180  0.1188  0.6490
   10bbb     H1  242  -0.839   7.367   6.135  1.0213  1.8745  1.8083
   10bbb     H2  243  -0.915   7.385   6.297 -3.3135 -0.2498  1.4918
   10bbb     C2  244  -0.927   7.199   6.203  0.3001  0.1111  0.7036
   10bbb     H3  245  -1.029   7.162   6.184 -0.1705  1.0309  1.4001
   10bbb     H4  246  -0.870   7.169   6.114 -0.2856 -1.0809  0.7062
   10bbb     N1  247  -1.063   7.393   6.146  0.0553 -0.3641 -0.0957
   10bbb     C3  248  -1.042   7.524   6.082 -0.1852  0.4133  0.2756
   10bbb     H5  249  -0.968   7.581   6.140  0.6569  0.0205 -0.3858
   10bbb     H6  250  -1.134   7.583   6.076 -0.8845 -0.6288  0.5479
   10bbb     C4  251  -1.154   7.424   6.259  0.7365  0.0727  0.1267
   10bbb     H7  252  -1.115   7.499   6.329  2.6488 -0.1789 -0.5992
   10bbb     H8  253  -1.249   7.460   6.218  1.4837  2.1846  0.1051
   10bbb     C5  254  -1.182   7.301   6.339  0.1665  0.2044  0.7215
   10bbb     H9  255  -1.195   7.208   6.281  1.3874 -0.4194  1.3967
   10bbb    H10  256  -1.098   7.280   6.407 -0.3372 -0.0661  1.2673
   10bbb     C6  257  -0.977   7.507   5.948  0.8051  0.0427  0.3500
   10bbb    H11  258  -0.870   7.501   5.970  1.3114  0.6217 -1.7297
   10bbb    H12  259  -1.018   7.421   5.894 -1.4792  0.7136  0.8868
   10bbb     C7  260  -1.307   7.310   6.419  0.0789 -0.0406 -0.4398
   10bbb     C8  261  -0.991   7.629   5.858  0.2917  0.6236 -0.6059
   10bbb     O1  262  -1.371   7.412   6.421  0.4005 -0.4152 -0.6151
   10bbb     O2  263  -0.994   7.742   5.908  0.0001 -0.0581  0.5228
   10bbb     N4  264  -0.874   7.127   6.318  0.2809  0.6299  0.1251
   10bbb    H21  265  -0.864   7.176   6.406 -0.6215 -0.4561  0.8611
   11bbb     C1  266  -0.526   6.667   7.165 -0.6538  0.7486 -0.4243
   11bbb     H1  267  -0.419   6.644   7.157 -0.1766  3.0244 -1.3995
   11bbb     H2  268  -0.577   6.590   7.105 -1.9348 -0.6153  2.2696
   11bbb     C2  269  -0.549   6.803   7.110  0.1000  0.3862  0.4291
   11bbb     H3  270  -0.659   6.805   7.101  0.1659  1.2088 -0.4691
   11bbb     H4  271  -0.519   6.886   7.175  0.6559  0.1810  0.4342
   11bbb     N1  272  -0.581   6.642   7.305 -0.3959 -0.6035  0.1246
   11bbb     C3  273  -0.722   6.663   7.316 -0.0203  0.2806  0.0466
   11bbb     H5  274  -0.757   6.766   7.297 -2.1287 -0.2866  0.5771
   11bbb     H6  275  -0.749   6.636   7.419 -1.7036 -0.8141 -0.6301
   11bbb     C4  276  -0.509   6.702   7.418  0.3900  0.0266  0.1667
   11bbb     H7  277  -0.446   6.785   7.386  0.5196 -0.6721 -1.4939
   11bbb     H8  278  -0.584   6.729   7.494 -0.6621  1.2478 -1.2492
   11bbb     C5  279  -0.420   6.598   7.473 -0.2879  0.1089 -0.4644
   11bbb     H9  280  -0.375   6.627   7.569 -1.4709 -3.8561  1.5479
   11bbb    H10  281  -0.480   6.510   7.501  0.6654 -0.7646 -1.1005
   11bbb     C6  282  -0.796   6.562   7.233 -0.1587  1.2428  0.2517
   11bbb    H11  283  -0.779   6.577   7.126  0.2732  0.8387  0.2593
   11bbb    H12  284  -0.756   6.461   7.252 -0.8637  1.1771  1.6077
   11bbb     C7  285  -0.302   6.560   7.384 -0.0597 -0.1375 -0.5453
   11bbb     C8  286  -0.943   6.569   7.243  0.3665 -0.6531 -0.5843
   11bbb     O1  287  -0.219   6.651   7.348  0.2135  0.2566 -0.5047
   11bbb     O2  288  -0.995   6.621   7.339 -0.6828  0.2304  0.0617
   11bbb     N4  289  -0.487   6.827   6.980  0.4397 -0.4530  0.1021
   11bbb    H21  290  -0.399   6.877   6.984 -0.5988  1.4442  4.0030
   12bbb     C1  291   1.071   7.467   7.218 -0.0105  0.9142  0.5423
   12bbb     H1  292   1.086   7.471   7.109  0.7266  1.7073  0.6620
   12bbb     H2  293   1.169   7.484   7.265  0.4786 -1.8371  0.6953
   12bbb     C2  294   1.040   7.321   7.237  0.0286  0.0227  0.4958
   12bbb     H3  295   1.097   7.259   7.168 -0.6834 -1.2234  0.9953
   12bbb     H4  296   1.047   7.295   7.344 -5.5321 -0.7371  0.9813
   12bbb     N1  297   0.969   7.556   7.266 -0.2126 -0.6706 -0.0745
   12bbb     C3  298   0.993   7.691   7.204  0.7220 -0.1625 -0.1446
   12bbb     H5  299   1.094   7.701   7.162  0.3512  1.6037 -0.7127
   12bbb     H6  300   0.983   7.768   7.281 -1.5099 -0.7909  0.2590
   12bbb     C4  301   0.943   7.560   7.405 -0.2100 -0.1913 -0.6636
   12bbb     H7  302   0.941   7.454   7.436 -0.6237 -0.3008 -1.0405
   12bbb     H8  303   1.015   7.632   7.445  0.9882 -0.7960 -1.6546
   12bbb     C5  304   0.812   7.618   7.436 -0.1272  0.0474  0.6186
   12bbb     H9  305   0.803   7.720   7.397 -3.4054 -0.8391 -1.3810
   12bbb    H10  306   0.737   7.561   7.379 -0.3522  1.7337 -0.8707
   12bbb     C6  307   0.891   7.726   7.091 -1.0025  0.4359  0.2096
   12bbb    H11  308   0.913   7.652   7.014  1.7403  1.2919  0.0951
   12bbb    H12  309   0.788   7.706   7.124 -1.5774 -1.7091 -2.4761
   12bbb     C7  310   0.780   7.626   7.577 -0.2892  0.3596 -0.2062
   12bbb     C8  311   0.909   7.868   7.038 -0.2203  0.2991 -0.2485
   12bbb     O1  312   0.830   7.553   7.660  0.0573 -0.4224  0.3774
   12bbb     O2  313   0.937   7.966   7.111  0.2134 -0.0124 -0.2863
   12bbb     N4  314   0.901   7.280   7.203 -0.1639 -0.1532  0.1127
   12bbb    H21  315   0.842   7.327   7.136 -1.1939 -3.1279 -1.2393
   13bbb     C1  316   0.187   7.211   7.580 -0.0415 -0.9176  0.0075
   13bbb     H1  317   0.105   7.284   7.579  1.1653  0.4719 -1.1566
   13bbb     H2  318   0.277   7.272   7.595 -1.8002  2.2875 -1.4270
   13bbb     C2  319   0.185   7.139   7.440  0.3676  0.7619 -0.5165
   13bbb     H3  320   0.107   7.061   7.436  0.4842  0.5762  0.6584
   13bbb     H4  321   0.145   7.211   7.367 -1.8848  1.4817  1.3030
   13bbb     N1  322   0.165   7.115   7.697 -0.0929  0.0605 -0.4862
   13bbb     C3  323   0.107   7.177   7.814  0.4856  0.6063  0.6166
   13bbb     H5  324   0.164   7.262   7.854 -1.2038  1.0567  2.1601
   13bbb     H6  325   0.098   7.098   7.889  0.4397 -0.6821 -0.6914
   13bbb     C4  326   0.286   7.033   7.731  0.0641  0.4293 -0.5638
   13bbb     H7  327   0.363   7.054   7.656 -0.1258  0.5450 -0.7257
   13bbb     H8  328   0.323   7.061   7.831  0.3393 -2.1695  0.1258
   13bbb     C5  329   0.234   6.886   7.744  1.1633 -0.6386  0.2965
   13bbb     H9  330   0.146   6.874   7.809  1.1070  2.5931  0.9905
   13bbb    H10  331   0.210   6.848   7.644  0.0657 -3.1216  1.4155
   13bbb     C6  332  -0.042   7.212   7.782  0.6603 -0.4847  0.2059
   13bbb    H11  333  -0.059   7.298   7.716 -1.4490  0.5356  1.9824
   13bbb    H12  334  -0.091   7.122   7.744  0.9581 -1.6202  2.3595
   13bbb     C7  335   0.337   6.802   7.807 -0.9484 -0.3146  0.1079
   13bbb     C8  336  -0.113   7.244   7.908  0.5641 -0.3228  0.7812
   13bbb     O1  337   0.425   6.847   7.874 -0.3962 -0.0572 -0.0820
   13bbb     O2  338  -0.058   7.304   7.996  0.1427  0.2744  0.1503
   13bbb     N4  339   0.312   7.070   7.412 -0.5948 -0.1101 -0.0984
   13bbb    H21  340   0.396   7.127   7.408  0.8563 -2.1979 -1.4820
   14bbb     C1  341  -0.185   5.314   7.571 -0.0675  0.2526  0.1123
   14bbb     H1  342  -0.190   5.420   7.598 -2.2169 -0.1660  1.6200
   14bbb     H2  343  -0.090   5.276   7.607  1.6348  3.6765 -0.3105
   14bbb     C2  344  -0.179   5.300   7.417 -0.0945 -0.1110 -0.5807
   14bbb     H3  345  -0.174   5.191   7.404 -1.7484 -0.1775 -0.8709
   14bbb     H4  346  -0.265   5.325   7.354  0.1043 -0.3468 -0.9483
   14bbb     N1  347  -0.303   5.247   7.623 -0.3130 -0.2759  0.5510
   14bbb     C3  348  -0.430   5.284   7.571  0.1320 -0.2061 -0.0854
   14bbb     H5  349  -0.426   5.295   7.462  0.2542 -0.9492 -0.1600
   14bbb     H6  350  -0.454   5.384   7.611 -0.0293  0.1632 -1.0776
   14bbb     C4  351  -0.298   5.241   7.773 -0.3061  0.4088  0.5148
   14bbb     H7  352  -0.304   5.337   7.825  0.0691  0.9074 -0.3315
   14bbb     H8  353  -0.384   5.191   7.819 -1.6624  0.7821 -1.4910
   14bbb     C5  354  -0.168   5.169   7.824 -0.2932 -0.0296 -0.3856
   14bbb     H9  355  -0.137   5.085   7.761  1.3345 -0.4889  0.9424
   14bbb    H10  356  -0.081   5.235   7.820 -0.3145  0.1715  1.4218
   14bbb     C6  357  -0.542   5.181   7.600  0.1003 -0.0674  0.2534
   14bbb    H11  358  -0.495   5.083   7.583  1.0790  0.3185  0.6247
   14bbb    H12  359  -0.575   5.192   7.704 -2.4125 -2.0090 -0.2434
   14bbb     C7  360  -0.180   5.142   7.975  0.0715 -0.1427 -0.8069
   14bbb     C8  361  -0.646   5.220   7.500  0.1268  0.7912 -0.7354
   14bbb     O1  362  -0.230   5.224   8.053 -0.3196  0.3801 -0.3590
   14bbb     O2  363  -0.704   5.328   7.508  0.4298  0.7129  0.3518
   14bbb     N4  364  -0.065   5.362   7.356  0.3127  0.2130  0.0884
   14bbb    H21  365  -0.009   5.429   7.406  2.1328 -2.0144  1.2531
   15bbb     C1  366   0.919   5.518   7.181  0.7070  0.2294  0.4943
   15bbb     H1  367   0.923   5.622   7.146 -0.1602  0.6799  1.6770
   15bbb     H2  368   0.944   5.447   7.101 -0.0993 -0.6030  0.9767
   15bbb     C2  369   0.779   5.486   7.229  0.6444 -0.5048 -0.0475
   15bbb     H3  370   0.775   5.381   7.259 -0.4678 -0.5970 -0.4603
   15bbb     H4  371   0.758   5.531   7.327 -1.6186  1.6788 -1.4076
   15bbb     N1  372   1.019   5.498   7.289 -0.2075 -0.5255  0.7351
   15bbb     C3  373   1.152   5.478   7.234  0.2796  0.6161  0.0359
   15bbb     H5  374   1.229   5.513   7.304  0.6374  0.7930 -0.4395
   15bbb     H6  375   1.170   5.537   7.142 -1.8721  0.6335 -0.4248
   15bbb     C4  376   1.005   5.587   7.396  0.3283  0.8647  0.4037
   15bbb     H7  377   1.050   5.683   7.367 -0.7570  0.9244 -1.2404
   15bbb     H8  378   0.899   5.602   7.419 -0.3381 -1.0546 -1.1050
   15bbb     C5  379   1.067   5.546   7.524 -0.0375 -0.5131 -0.7082
   15bbb     H9  380   1.016   5.463   7.574 -0.4930  0.4780  0.5495
   15bbb    H10  381   1.169   5.507   7.517  0.8117  1.4242  0.0635
   15bbb     C6  382   1.156   5.323   7.191  0.2104 -0.5558 -0.8192
   15bbb    H11  383   1.180   5.265   7.281 -0.3844 -2.0483 -1.5966
   15bbb    H12  384   1.060   5.292   7.148 -0.7347  1.5638 -0.3531
   15bbb     C7  385   1.059   5.655   7.633 -0.1100 -0.1871  0.4709
   15bbb     C8  386   1.265   5.303   7.093  0.1608 -0.4697 -0.4916
   15bbb     O1  387   0.966   5.739   7.641 -0.2201  0.2279 -0.4893
   15bbb     O2  388   1.256   5.327   6.976 -0.6442 -0.1230  0.6689
   15bbb     N4  389   0.672   5.521   7.131  0.4294 -0.3154 -0.2236
   15bbb    H21  390   0.649   5.619   7.117 -0.9153 -0.6197 -0.3533
   16bbb     C1  391  -0.794   6.708   5.570  0.3248 -0.2717  0.0051
   16bbb     H1  392  -0.823   6.712   5.676 -0.1682  1.4714 -0.1600
   16bbb     H2  393  -0.859   6.648   5.504  0.8276  1.3781 -2.1003
   16bbb     C2  394  -0.651   6.644   5.559  0.0859 -0.4567 -0.0167
   16bbb     H3  395  -0.616   6.638   5.456  0.8619  2.2985 -0.0082
   16bbb     H4  396  -0.582   6.712   5.611 -1.4483  0.0919  1.4065
   16bbb     N1  397  -0.785   6.847   5.513 -0.5096 -0.1094  0.0340
   16bbb     C3  398  -0.812   6.941   5.620  0.1896  0.8914 -0.2131
   16bbb     H5  399  -0.894   6.901   5.682  1.1630 -0.4719  0.2546
   16bbb     H6  400  -0.842   7.038   5.580  0.6552  0.1774 -2.4374
   16bbb     C4  401  -0.898   6.874   5.421 -0.2230 -0.2273  0.0664
   16bbb     H7  402  -0.990   6.820   5.444 -0.2638 -0.8325 -1.3920
   16bbb     H8  403  -0.919   6.981   5.408  1.1148  0.0494  0.0133
   16bbb     C5  404  -0.860   6.814   5.284  0.2653 -0.4125  0.6471
   16bbb     H9  405  -0.773   6.866   5.241  0.2343  0.2984  1.4119
   16bbb    H10  406  -0.824   6.710   5.284 -1.3165 -1.0251 -1.3279
   16bbb     C6  407  -0.694   6.955   5.712 -0.4090  0.5206 -0.1125
   16bbb    H11  408  -0.652   6.859   5.746 -1.4764  0.2985  0.6130
   16bbb    H12  409  -0.613   6.998   5.652  0.4500 -3.6055 -2.3079
   16bbb     C7  410  -0.966   6.832   5.179  0.1463 -0.4838  0.3070
   16bbb     C8  411  -0.721   7.043   5.830 -0.1538 -0.8015 -0.1761
   16bbb     O1  412  -0.957   6.920   5.102 -0.4501  0.0659  0.3523
   16bbb     O2  413  -0.831   7.055   5.877  0.1149 -0.1607 -0.6133
   16bbb     N4  414  -0.637   6.511   5.635 -0.5931  0.3585  0.1603
   16bbb    H21  415  -0.687   6.502   5.723 -1.6246  1.1236 -0.3272
   17bbb     C1  416  -0.829   5.779   6.330  0.3285 -0.0155  0.9055
   17bbb     H1  417  -0.730   5.748   6.363 -0.8512 -0.8570  4.0036
   17bbb     H2  418  -0.840   5.720   6.237  1.7973 -0.9577  1.3046
   17bbb     C2  419  -0.838   5.929   6.304  0.0316  0.8455  0.2775
   17bbb     H3  420  -0.943   5.952   6.282 -0.2452  0.8300  1.5193
   17bbb     H4  421  -0.802   5.973   6.398  1.6119 -1.4673  0.8493
   17bbb     N1  422  -0.926   5.727   6.426  0.7554 -0.0478 -0.5108
   17bbb     C3  423  -1.073   5.744   6.399 -0.1728  0.3364 -0.5855
   17bbb     H5  424  -1.100   5.850   6.386 -1.0424  0.3284  0.9803
   17bbb     H6  425  -1.130   5.699   6.481  1.8836 -3.2223 -0.9297
   17bbb     C4  426  -0.885   5.586   6.466 -0.5341 -0.2903 -0.0722
   17bbb     H7  427  -0.893   5.526   6.375  0.0521  1.1112 -1.0983
   17bbb     H8  428  -0.781   5.585   6.501 -0.4336 -0.7578 -0.3706
   17bbb     C5  429  -0.971   5.530   6.574  0.4054 -0.2858  0.3378
   17bbb     H9  430  -0.969   5.597   6.661 -2.0263 -0.8740  0.9212
   17bbb    H10  431  -1.075   5.518   6.541  0.9502 -0.6294 -1.3542
   17bbb     C6  432  -1.118   5.661   6.278 -0.7563  0.4363  0.1338
   17bbb    H11  433  -1.060   5.677   6.187 -2.2178  0.7179 -0.7687
   17bbb    H12  434  -1.111   5.554   6.304  0.8030  1.0931  2.8831
   17bbb     C7  435  -0.901   5.405   6.621  0.0042  0.0874  0.5160
   17bbb     C8  436  -1.266   5.674   6.254  0.3111  0.2279 -0.0172
   17bbb     O1  437  -0.933   5.299   6.570  0.1194 -0.2940 -0.4176
   17bbb     O2  438  -1.341   5.719   6.337 -0.2543  1.0436 -0.1833
   17bbb     N4  439  -0.753   5.985   6.192  0.0764 -0.7022  0.1030
   17bbb    H21  440  -0.655   5.968   6.176  0.5095  1.7611 -0.3058
   18bbb     C1  441   1.826   6.762   5.075  0.2208 -0.1971  0.3451
   18bbb     H1  442   1.874   6.672   5.036 -1.3886 -0.7312 -0.4809
   18bbb     H2  443   1.802   6.749   5.181  1.3801  1.6595  0.8831
   18bbb     C2  444   1.700   6.796   5.012  0.4639 -0.9319 -0.6606
   18bbb     H3  445   1.660   6.891   5.048 -0.8183 -1.4760 -0.5842
   18bbb     H4  446   1.704   6.809   4.903  0.9640  1.7991 -0.3699
   18bbb     N1  447   1.930   6.869   5.067  0.8185  0.1807 -0.4751
   18bbb     C3  448   1.982   6.871   4.932  0.3773  0.0377  0.2002
   18bbb     H5  449   1.901   6.840   4.865  2.2152 -2.2991 -1.1001
   18bbb     H6  450   2.075   6.815   4.917 -0.6664 -1.1791 -2.5355
   18bbb     C4  451   2.034   6.839   5.167  0.5488 -0.6192  0.0531
   18bbb     H7  452   2.050   6.730   5.172 -3.4622 -1.3549  0.8787
   18bbb     H8  453   2.125   6.893   5.141 -0.9327  1.3317 -1.3593
   18bbb     C5  454   1.991   6.901   5.306  0.1904 -0.1248  0.1515
   18bbb     H9  455   2.039   6.999   5.316  3.4044 -1.4277 -1.1630
   18bbb    H10  456   1.881   6.905   5.306  0.1661 -0.4953 -0.6256
   18bbb     C6  457   2.013   7.012   4.897 -0.0306  0.1972 -0.6936
   18bbb    H11  458   1.913   7.056   4.886  0.1932  1.3275  1.3344
   18bbb    H12  459   2.080   7.065   4.965  0.4494 -0.0271 -0.9797
   18bbb     C7  460   2.031   6.811   5.419 -0.5138 -0.3313 -0.6018
   18bbb     C8  461   2.076   7.002   4.768 -0.0889 -0.1857 -0.0589
   18bbb     O1  462   1.981   6.702   5.419 -0.5072 -0.1011 -0.4075
   18bbb     O2  463   2.195   7.015   4.744 -0.4494 -0.1867  0.1935
   18bbb     N4  464   1.594   6.698   5.031 -0.1616 -0.1034 -0.4141
   18bbb    H21  465   1.591   6.626   4.960  2.4721  0.2373 -0.9634
   19bbb     C1  466   1.338   5.753   5.545  1.0267  0.1709  0.2706
   19bbb     H1  467   1.372   5.652   5.573 -3.2358 -1.0388  1.7331
   19bbb     H2  468   1.285   5.748   5.449  0.9690  0.0638  0.3076
   19bbb     C2  469   1.457   5.848   5.525  0.5000 -0.1947  0.3403
   19bbb     H3  470   1.523   5.843   5.613  2.4941 -0.2971 -1.0785
   19bbb     H4  471   1.515   5.797   5.446 -1.3480  0.6222 -1.6314
   19bbb     N1  472   1.241   5.797   5.653 -0.2447  0.3811  0.6707
   19bbb     C3  473   1.300   5.779   5.785  0.2564 -0.4197 -0.0526
   19bbb     H5  474   1.404   5.748   5.770  0.5940  1.7157 -3.2546
   19bbb     H6  475   1.248   5.704   5.846  0.3212 -1.2221 -0.9590
   19bbb     C4  476   1.116   5.727   5.638 -0.5199  0.3323 -0.4071
   19bbb     H7  477   1.094   5.720   5.530  2.5303 -0.4814 -1.0616
   19bbb     H8  478   1.123   5.626   5.678 -0.8220  0.2092 -0.6537
   19bbb     C5  479   1.010   5.790   5.723  0.0482 -0.7348  0.7323
   19bbb     H9  480   1.059   5.826   5.814  1.0744  0.7558 -0.3787
   19bbb    H10  481   0.969   5.877   5.670 -0.9511 -1.3799  0.4027
   19bbb     C6  482   1.307   5.918   5.841 -0.9167 -0.1051 -0.7546
   19bbb    H11  483   1.378   5.968   5.774 -0.4622 -1.3520 -1.2422
   19bbb    H12  484   1.209   5.965   5.857  0.6032  3.3877 -0.8317
   19bbb     C7  485   0.904   5.682   5.729  0.2489 -0.1115  0.0589
   19bbb     C8  486   1.376   5.898   5.974 -0.0282 -0.2164  0.6349
   19bbb     O1  487   0.848   5.632   5.630  0.5296  0.4544 -0.1887
   19bbb     O2  488   1.349   5.815   6.058 -0.2965  0.0143 -0.4569
   19bbb     N4  489   1.421   5.990   5.486 -0.1463 -0.4026 -0.4042
   19bbb    H21  490   1.325   6.021   5.491 -0.3442 -1.2022  1.7605
   20bbb     C1  491   0.108   7.070   5.293 -0.3764 -0.6541  0.0285
   20bbb     H1  492   0.196   7.135   5.289 -0.8020  0.0708  1.5849
   20bbb     H2  493   0.147   6.971   5.320 -0.9462 -1.3953 -1.6866
   20bbb     C2  494   0.052   7.057   5.154 -0.1168  0.1104  0.2275
   20bbb     H3  495  -0.018   7.141   5.141 -0.1045  0.0215 -0.4855
   20bbb     H4  496   0.121   7.071   5.070 -2.3803  0.2132 -1.7314
   20bbb     N1  497   0.008   7.128   5.381 -0.0659  0.5144  0.0038
   20bbb     C3  498   0.054   7.253   5.440 -1.4377  0.2482  0.2823
   20bbb     H5  499   0.154   7.239   5.483 -0.8064 -1.1630 -1.5106
   20bbb     H6  500  -0.021   7.280   5.515 -3.3681 -0.0188 -1.4444
   20bbb     C4  501  -0.053   7.044   5.480 -0.9486  0.2605  0.5739
   20bbb     H7  502   0.027   6.999   5.542  0.1544  1.8698  0.3644
   20bbb     H8  503  -0.113   7.108   5.546  1.0387  2.5624  0.2652
   20bbb     C5  504  -0.143   6.932   5.419 -0.6767 -0.3059  0.0625
   20bbb     H9  505  -0.220   6.982   5.358  1.4106  0.8424 -1.7828
   20bbb    H10  506  -0.085   6.869   5.350  0.7554  1.8622 -0.8241
   20bbb     C6  507   0.055   7.363   5.337 -0.2320  0.0763 -0.0409
   20bbb    H11  508   0.120   7.330   5.254 -1.3769  1.2255 -1.4325
   20bbb    H12  509  -0.045   7.388   5.300  1.2414  2.6156 -2.7479
   20bbb     C7  510  -0.224   6.863   5.524 -0.2155 -0.7101  0.2155
   20bbb     C8  511   0.115   7.490   5.394  0.0409  1.0221 -0.7684
   20bbb     O1  512  -0.304   6.917   5.601 -0.4146 -0.8927  0.2042
   20bbb     O2  513   0.108   7.521   5.511 -0.0507  0.0766 -0.5496
   20bbb     N4  514  -0.023   6.936   5.130 -0.3785  0.3842  0.5374
   20bbb    H21  515  -0.124   6.944   5.136 -0.5300  0.8568 -1.7789
   21bbb     C1  516   0.072   6.277   4.547  1.2905 -0.9927  0.0478
   21bbb     H1  517   0.105   6.249   4.446 -0.6414 -0.1366 -0.8737
   21bbb     H2  518   0.128   6.212   4.615  1.5483 -0.1370  0.6719
   21bbb     C2  519  -0.068   6.245   4.562 -0.1828  0.0754 -0.0017
   21bbb     H3  520  -0.133   6.306   4.497 -1.7212  0.9347  2.2069
   21bbb     H4  521  -0.078   6.142   4.526  0.1980  0.3109 -0.8094
   21bbb     N1  522   0.108   6.422   4.567 -0.0086  0.0646 -0.0311
   21bbb     C3  523   0.090   6.500   4.452 -0.5215  0.1512  0.4665
   21bbb     H5  524   0.023   6.452   4.379  2.8364 -1.9274 -1.5189
   21bbb     H6  525   0.185   6.518   4.401 -0.1960  1.0993  1.3592
   21bbb     C4  526   0.241   6.442   4.628  0.3291  0.1987  0.1480
   21bbb     H7  527   0.316   6.371   4.591  0.2260  0.1225  0.0851
   21bbb     H8  528   0.268   6.546   4.606 -2.0832  0.4991 -1.8338
   21bbb     C5  529   0.221   6.427   4.779 -0.4624  0.2597 -0.2776
   21bbb     H9  530   0.132   6.488   4.796 -1.2260  0.4088 -3.9680
   21bbb    H10  531   0.203   6.320   4.792 -0.2257  0.3572  0.9640
   21bbb     C6  532   0.030   6.635   4.489  0.5588 -0.6319 -0.0825
   21bbb    H11  533  -0.055   6.639   4.559  1.3749 -1.4999  0.9922
   21bbb    H12  534   0.110   6.703   4.519  1.4423 -1.5753 -0.2174
   21bbb     C7  535   0.339   6.481   4.849  0.1466  0.1226  0.3116
   21bbb     C8  536  -0.015   6.684   4.358 -0.1606  0.0569  0.1576
   21bbb     O1  537   0.330   6.585   4.913  0.1576  0.0201  0.0353
   21bbb     O2  538   0.064   6.742   4.280 -0.2372 -0.3938 -0.2374
   21bbb     N4  539  -0.113   6.246   4.702  0.2811 -0.0136  0.3970
   21bbb    H21  540  -0.059   6.182   4.758 -1.8435 -2.5234 -0.2392
   22bbb     C1  541  -1.596   7.128   6.452 -0.3174 -0.7029 -0.3086
   22bbb     H1  542  -1.574   7.025   6.424  2.8778  0.4196 -2.5317
   22bbb     H2  543  -1.596   7.181   6.356  0.1473 -0.8017 -0.3659
   22bbb     C2  544  -1.483   7.179   6.541 -0.3377 -0.1891  0.6270
   22bbb     H3  545  -1.513   7.278   6.577  0.0552  0.2820 -0.3058
   22bbb     H4  546  -1.486   7.126   6.638  0.5050  0.2599  0.9065
   22bbb     N1  547  -1.725   7.148   6.524 -0.0380 -0.3941 -0.1334
   22bbb     C3  548  -1.763   7.037   6.603  0.4404 -0.4435  0.0427
   22bbb     H5  549  -1.677   6.982   6.645 -1.5105 -2.2956  1.8472
   22bbb     H6  550  -1.821   6.964   6.546 -1.2061  1.6206 -1.0666
   22bbb     C4  551  -1.823   7.168   6.422  0.9213 -0.0134  0.9440
   22bbb     H7  552  -1.804   7.091   6.346  1.1102  0.5535  0.4085
   22bbb     H8  553  -1.926   7.144   6.449 -0.2741  1.1599 -2.1567
   22bbb     C5  554  -1.820   7.309   6.366  0.0500  0.1012  0.2863
   22bbb     H9  555  -1.817   7.388   6.442 -0.8354 -0.7717  1.2533
   22bbb    H10  556  -1.741   7.323   6.292 -0.5682  0.7847 -0.2645
   22bbb     C6  557  -1.841   7.092   6.720  0.3729 -0.2513 -0.2004
   22bbb    H11  558  -1.773   7.160   6.774 -0.1868 -0.6167  1.0143
   22bbb    H12  559  -1.933   7.144   6.692  0.1231 -0.7514 -0.3174
   22bbb     C7  560  -1.952   7.337   6.298 -0.9121  0.6549 -0.2544
   22bbb     C8  561  -1.883   6.977   6.806 -0.4946  0.7219  0.2366
   22bbb     O1  562  -2.056   7.341   6.363 -0.4576 -0.5472 -0.3056
   22bbb     O2  563  -1.960   6.893   6.765 -0.4252 -0.2501 -0.2431
   22bbb     N4  564  -1.348   7.190   6.482 -0.3605 -0.1584 -0.3995
   22bbb    H21  565  -1.290   7.111   6.458  1.6612  1.1440 -0.0579
   23bbb     C1  566  -0.788   7.739   5.626 -0.1119 -0.2194  0.2184
   23bbb     H1  567  -0.736   7.643   5.631  1.7100  0.8003  1.9828
   23bbb     H2  568  -0.765   7.790   5.720  0.9112  1.9792 -1.1239
   23bbb     C2  569  -0.938   7.707   5.631  0.0033  0.8707  0.3648
   23bbb     H3  570  -0.997   7.796   5.655  0.4114  0.7094  2.1097
   23bbb     H4  571  -0.970   7.676   5.531 -0.4835 -1.6610  1.2203
   23bbb     N1  572  -0.750   7.821   5.509  0.3479 -0.3640  0.0483
   23bbb     C3  573  -0.824   7.945   5.495  0.3957 -0.4196 -0.4276
   23bbb     H5  574  -0.931   7.926   5.487 -0.0980  1.6276  0.5580
   23bbb     H6  575  -0.794   7.988   5.398  3.6253 -0.7849  0.3018
   23bbb     C4  576  -0.605   7.816   5.496 -0.3451 -0.6971 -0.3455
   23bbb     H7  577  -0.556   7.828   5.593  0.3371 -2.3735 -0.4535
   23bbb     H8  578  -0.588   7.716   5.455  0.6020 -0.3818 -0.7668
   23bbb     C5  579  -0.552   7.907   5.387 -0.0012  0.2669  0.4533
   23bbb     H9  580  -0.590   7.884   5.287  0.0725 -0.0175  0.4920
   23bbb    H10  581  -0.583   8.008   5.419  0.6040 -0.1402  2.4605
   23bbb     C6  582  -0.793   8.046   5.604  0.1209  0.0101 -0.4078
   23bbb    H11  583  -0.837   8.014   5.699 -0.0594  0.2995 -0.3924
   23bbb    H12  584  -0.685   8.057   5.618  0.0809  1.7449 -1.1832
   23bbb     C7  585  -0.403   7.916   5.392  0.5493 -0.1664  0.1195
   23bbb     C8  586  -0.839   8.191   5.569 -0.1333 -0.3355  0.4697
   23bbb     O1  587  -0.337   7.827   5.430 -0.1393  0.0836 -0.3741
   23bbb     O2  588  -0.880   8.229   5.457 -0.0776  0.0652 -0.2118
   23bbb     N4  589  -0.975   7.600   5.728  0.1690 -0.3262  0.0590
   23bbb    H21  590  -0.963   7.502   5.705  0.0946  0.0411 -1.7218
   24bbb     C1  591  -0.106   6.259   7.458  0.1763 -0.2765 -0.3726
   24bbb     H1  592  -0.178   6.177   7.470  1.1214 -1.2052 -0.9021
   24bbb     H2  593  -0.106   6.309   7.556  0.0588 -1.1750  0.1046
   24bbb     C2  594  -0.143   6.365   7.353  0.2043  0.4851 -0.2974
   24bbb     H3  595  -0.064   6.440   7.339  1.5841 -0.5274  1.6543
   24bbb     H4  596  -0.161   6.305   7.263  0.8822  0.7604 -0.6235
   24bbb     N1  597   0.020   6.187   7.445 -0.8174 -0.0301 -0.6563
   24bbb     C3  598   0.028   6.103   7.328  0.0899 -0.2415  0.0915
   24bbb     H5  599  -0.003   6.155   7.236  2.0881  0.3243 -0.3179
   24bbb     H6  600  -0.038   6.017   7.341 -1.1354  0.7439  0.6452
   24bbb     C4  601   0.054   6.110   7.574  0.4155 -1.0384 -0.2155
   24bbb     H7  602  -0.034   6.075   7.630  1.3613  1.4462  3.1931
   24bbb     H8  603   0.129   6.031   7.556  1.8096  0.7783 -3.0285
   24bbb     C5  604   0.120   6.204   7.670 -0.2805 -0.1461 -0.3687
   24bbb     H9  605   0.218   6.224   7.626 -0.3479 -0.3062 -0.5895
   24bbb    H10  606   0.065   6.299   7.668 -0.2373 -0.0875  0.6788
   24bbb     C6  607   0.173   6.064   7.302 -0.5213 -0.0207  0.1595
   24bbb    H11  608   0.245   6.146   7.310 -0.9299  0.4903 -1.1022
   24bbb    H12  609   0.204   5.976   7.360 -0.8357  0.5150  1.1605
   24bbb     C7  610   0.151   6.145   7.806  0.0687  0.4750  0.2096
   24bbb     C8  611   0.184   6.014   7.165 -1.2089 -0.2064  0.6014
   24bbb     O1  612   0.267   6.114   7.829 -0.4883 -0.0888  0.1235
   24bbb     O2  613   0.139   5.903   7.139 -0.2895 -0.4803 -0.3307
   24bbb     N4  614  -0.278   6.426   7.381  0.2418 -0.2252  0.4574
   24bbb    H21  615  -0.349   6.362   7.415 -0.8249 -0.4674 -2.0336
   25bbb     C1  616  -1.215   6.392   7.058  0.1200  0.0714  0.2581
   25bbb     H1  617  -1.145   6.310   7.080 -0.3070 -0.4040 -0.1353
   25bbb     H2  618  -1.196   6.437   6.960 -1.0644 -0.4749 -0.2425
   25bbb     C2  619  -1.171   6.502   7.148 -0.0188  0.3698 -0.4794
   25bbb     H3  620  -1.219   6.598   7.124 -2.1578 -0.5456 -0.0724
   25bbb     H4  621  -1.182   6.481   7.255  1.8516 -2.0516 -0.6742
   25bbb     N1  622  -1.358   6.347   7.080 -0.5889 -0.0016 -0.1424
   25bbb     C3  623  -1.371   6.257   7.193 -0.1924  0.0543 -0.3682
   25bbb     H5  624  -1.306   6.293   7.274 -1.5802  2.2875 -0.1561
   25bbb     H6  625  -1.349   6.154   7.162  2.8034  0.0481  1.4183
   25bbb     C4  626  -1.414   6.292   6.957 -0.9312 -0.4143 -0.3900
   25bbb     H7  627  -1.344   6.226   6.904  0.4649 -0.3087  1.2770
   25bbb     H8  628  -1.503   6.231   6.978 -2.1598  1.3343 -0.2656
   25bbb     C5  629  -1.449   6.409   6.871 -0.3247  0.1055 -0.0515
   25bbb     H9  630  -1.504   6.475   6.939 -0.2356 -0.0172  0.1412
   25bbb    H10  631  -1.355   6.442   6.826 -0.7775 -0.8106 -1.7523
   25bbb     C6  632  -1.512   6.273   7.251  0.1652  0.3341  0.1381
   25bbb    H11  633  -1.540   6.378   7.270  0.3383  0.1275  1.6289
   25bbb    H12  634  -1.588   6.229   7.185  2.5345 -0.6288 -2.0820
   25bbb     C7  635  -1.545   6.381   6.761 -0.3218 -0.2775  0.3764
   25bbb     C8  636  -1.512   6.193   7.381  0.5887  0.4981  0.2723
   25bbb     O1  637  -1.615   6.287   6.757  0.3310  0.3934 -0.2380
   25bbb     O2  638  -1.552   6.077   7.390 -0.4441 -0.3345 -0.4579
   25bbb     N4  639  -1.022   6.519   7.143  0.4273 -0.9327 -0.3643
   25bbb    H21  640  -0.973   6.491   7.059 -0.6476 -0.7549 -1.0665
   26bbb     C1  641   0.818   7.845   7.772  0.0722  0.0467  0.1894
   26bbb     H1  642   0.868   7.754   7.807 -0.1598 -0.5164 -0.9132
   26bbb     H2  643   0.802   7.921   7.850  0.4566 -0.2097  0.5267
   26bbb     C2  644   0.679   7.783   7.733  0.0061 -0.3555  0.3024
   26bbb     H3  645   0.650   7.718   7.816 -1.9477 -2.1960 -1.6825
   26bbb     H4  646   0.609   7.867   7.724  1.3557  1.0352  1.8897
   26bbb     N1  647   0.886   7.902   7.656 -0.2503  0.0964 -0.0086
   26bbb     C3  648   1.029   7.929   7.688 -0.3536 -0.0220 -0.8325
   26bbb     H5  649   1.044   7.989   7.778 -0.4975 -0.3551 -0.5830
   26bbb     H6  650   1.076   7.980   7.604 -0.2549  0.7713 -0.3028
   26bbb     C4  651   0.815   8.016   7.595  0.3411 -0.2603 -0.5496
   26bbb     H7  652   0.709   7.995   7.573 -0.1347  1.4316 -0.0598
   26bbb     H8  653   0.807   8.105   7.659  0.7929 -0.2368 -0.5229
   26bbb     C5  654   0.885   8.059   7.466 -1.5351  0.0931  0.2053
   26bbb     H9  655   0.981   8.103   7.496 -0.9522 -1.3504  0.5751
   26bbb    H10  656   0.911   7.968   7.412 -1.4865 -1.4401  2.6427
   26bbb     C6  657   1.107   7.806   7.709  0.0127 -0.5515 -0.0711
   26bbb    H11  658   1.082   7.759   7.805  0.5685 -0.7746 -0.0314
   26bbb    H12  659   1.070   7.739   7.630  1.5083 -1.2664 -0.1992
   26bbb     C7  660   0.803   8.170   7.407 -0.6475 -0.4945 -0.0525
   26bbb     C8  661   1.252   7.822   7.700 -0.2151 -0.3686  0.1534
   26bbb     O1  662   0.744   8.249   7.469  0.3182 -0.2334  0.1234
   26bbb     O2  663   1.314   7.828   7.594 -0.3428  0.3522  0.0974
   26bbb     N4  664   0.684   7.718   7.603  0.1305 -0.1252 -0.0718
   26bbb    H21  665   0.644   7.765   7.523 -0.7751  2.7036  1.8566
   27bbb     C1  666   0.874   8.050   6.722  0.0034 -0.0037 -0.4699
   27bbb     H1  667   0.922   8.139   6.681 -0.1379  2.1173  3.4399
   27bbb     H2  668   0.792   8.101   6.774  0.8413  1.4672 -0.5519
   27bbb     C2  669   0.960   7.996   6.829 -0.0832 -0.5130  0.2025
   27bbb     H3  670   1.056   7.974   6.781  0.2054  0.6983  0.2023
   27bbb     H4  671   0.982   8.075   6.901  1.4072 -0.6808 -0.0372
   27bbb     N1  672   0.837   7.950   6.621 -0.0587 -0.5437  0.7687
   27bbb     C3  673   0.944   7.910   6.530 -0.6238 -0.0243  0.4066
   27bbb     H5  674   1.041   7.960   6.542 -0.1941 -0.8105  0.2783
   27bbb     H6  675   0.912   7.949   6.432  0.1722 -0.7096 -0.1418
   27bbb     C4  676   0.715   7.984   6.545  0.1654  0.1605  0.8827
   27bbb     H7  677   0.723   8.091   6.521 -0.0454  0.5173  2.3139
   27bbb     H8  678   0.709   7.913   6.462 -0.6165 -0.6088  1.5730
   27bbb     C5  679   0.588   7.952   6.628 -0.0497 -0.8025 -0.5559
   27bbb     H9  680   0.606   7.858   6.683 -0.7278 -0.7818 -0.2922
   27bbb    H10  681   0.572   8.023   6.709 -0.3965 -2.7912  1.2187
   27bbb     C6  682   0.955   7.761   6.507 -0.0169  0.6764  0.0573
   27bbb    H11  683   0.858   7.713   6.522  0.2915 -0.0503 -0.2257
   27bbb    H12  684   0.978   7.745   6.401  2.4419 -2.6510  0.9350
   27bbb     C7  685   0.464   7.956   6.554  0.5530 -0.1510 -0.0880
   27bbb     C8  686   1.048   7.697   6.608  0.1888  0.0444  0.2197
   27bbb     O1  687   0.450   8.053   6.478 -0.1004  0.0987  0.1317
   27bbb     O2  688   1.001   7.649   6.709  0.3288  0.0022  0.1858
   27bbb     N4  689   0.917   7.877   6.900 -0.2234  0.3186 -0.2143
   27bbb    H21  690   0.913   7.796   6.839  1.0441  0.9873 -1.2504
   28bbb     C1  691   0.425   6.442   7.746  0.1554 -0.7924 -0.1436
   28bbb     H1  692   0.328   6.391   7.741  0.0423 -0.4593 -2.8565
   28bbb     H2  693   0.487   6.367   7.797  2.1424 -0.3069 -1.7212
   28bbb     C2  694   0.423   6.568   7.829 -0.1642 -0.0730 -0.3590
   28bbb     H3  695   0.393   6.539   7.930  1.8230 -2.2395 -0.3230
   28bbb     H4  696   0.527   6.602   7.829 -0.5380  1.1578 -1.4892
   28bbb     N1  697   0.476   6.460   7.606 -0.3470  0.1435  0.0998
   28bbb     C3  698   0.625   6.457   7.581  0.0843  0.3216  0.5093
   28bbb     H5  699   0.679   6.514   7.657 -0.7779 -1.0537  2.2433
   28bbb     H6  700   0.638   6.510   7.486 -0.5398 -0.9340 -0.3116
   28bbb     C4  701   0.388   6.400   7.504 -0.3894 -0.6451  0.2822
   28bbb     H7  702   0.412   6.294   7.488 -0.2567 -0.2359 -2.9788
   28bbb     H8  703   0.281   6.406   7.527 -0.8180 -0.8752 -1.4904
   28bbb     C5  704   0.418   6.465   7.366 -0.1663  0.1278  0.8235
   28bbb     H9  705   0.392   6.571   7.380  1.5148  0.7268 -0.2836
   28bbb    H10  706   0.524   6.460   7.339 -0.5265  0.7713 -0.8481
   28bbb     C6  707   0.693   6.323   7.584 -0.5717 -0.1462 -0.2037
   28bbb    H11  708   0.690   6.276   7.683  0.3757 -1.2193 -0.6638
   28bbb    H12  709   0.637   6.257   7.517 -0.1750 -0.9282  0.2183
   28bbb     C7  710   0.334   6.398   7.262 -0.5631  0.2900  0.1773
   28bbb     C8  711   0.834   6.329   7.532  0.4155 -0.4733 -0.0824
   28bbb     O1  712   0.390   6.327   7.177  0.6637  0.4046 -0.0263
   28bbb     O2  713   0.869   6.423   7.461 -0.3181  0.2469 -0.1799
   28bbb     N4  714   0.324   6.670   7.783  0.4476  0.3772 -0.0273
   28bbb    H21  715   0.239   6.633   7.743  0.2308 -1.4735  1.9622
   29bbb     C1  716  -0.469   7.231   8.028  0.3435 -0.5722  0.0477
   29bbb     H1  717  -0.463   7.134   8.079 -1.2878 -0.6394  0.1622
   29bbb     H2  718  -0.502   7.216   7.924  0.2007  2.5067 -0.4423
   29bbb     C2  719  -0.331   7.285   8.014  0.4585 -0.4791 -0.2171
   29bbb     H3  720  -0.348   7.387   7.979 -1.8234 -1.4603 -2.2392
   29bbb     H4  721  -0.271   7.290   8.106  0.8144 -2.0870 -0.3202
   29bbb     N1  722  -0.562   7.320   8.099  0.0434 -0.1283 -0.0307
   29bbb     C3  723  -0.513   7.339   8.236  0.0267  0.2053 -0.6655
   29bbb     H5  724  -0.405   7.346   8.251 -0.1327  1.1056  0.1344
   29bbb     H6  725  -0.548   7.256   8.300 -0.6623  1.6974  0.9606
   29bbb     C4  726  -0.703   7.273   8.099  0.5047 -0.0533 -0.0626
   29bbb     H7  727  -0.704   7.168   8.131 -2.3929 -0.2547 -0.5417
   29bbb     H8  728  -0.765   7.334   8.165 -0.1450  1.2106 -1.7651
   29bbb     C5  729  -0.778   7.261   7.964  0.1717 -1.3489 -0.1154
   29bbb     H9  730  -0.713   7.213   7.889  0.3037  0.4138 -1.1992
   29bbb    H10  731  -0.875   7.210   7.966 -1.0143  0.8415  0.2891
   29bbb     C6  732  -0.577   7.463   8.297  0.0192 -0.3125  0.4547
   29bbb    H11  733  -0.595   7.533   8.214 -1.1884 -1.8658 -0.6559
   29bbb    H12  734  -0.676   7.439   8.337  0.2338 -1.6082  0.2468
   29bbb     C7  735  -0.810   7.399   7.904 -0.2382  0.7392  0.2527
   29bbb     C8  736  -0.496   7.519   8.410 -0.2753  0.7573  0.6900
   29bbb     O1  737  -0.926   7.433   7.887  0.3539 -0.0247  0.3830
   29bbb     O2  738  -0.452   7.631   8.395  0.2858  0.5101  0.1058
   29bbb     N4  739  -0.249   7.221   7.912 -0.0036  0.4500 -0.3168
   29bbb    H21  740  -0.272   7.149   7.844  0.3297 -2.7370  2.6733
   30bbb     C1  741   0.012   4.883   8.167  0.5984 -0.0385  0.3034
   30bbb     H1  742   0.012   4.823   8.075 -1.2755 -1.6425  1.2488
   30bbb     H2  743  -0.019   4.813   8.246 -0.4139 -0.6052 -0.5603
   30bbb     C2  744  -0.113   4.971   8.147  0.0466 -0.2565 -0.0198
   30bbb     H3  745  -0.190   4.895   8.166 -0.5557  0.4101  0.2795
   30bbb     H4  746  -0.121   5.050   8.223  0.0983  0.0576 -0.3385
   30bbb     N1  747   0.140   4.945   8.194  0.7533 -0.2695 -0.4405
   30bbb     C3  748   0.192   5.024   8.090 -0.4199  0.3017 -0.3395
   30bbb     H5  749   0.278   5.077   8.133 -0.4539  0.0419  0.0544
   30bbb     H6  750   0.123   5.098   8.047 -0.1236  0.0212 -1.3076
   30bbb     C4  751   0.144   5.015   8.327  0.5259  0.5115 -0.0357
   30bbb     H7  752   0.250   5.015   8.354  0.4885 -2.0661  0.3569
   30bbb     H8  753   0.105   5.117   8.322  1.1783  0.9063  2.0347
   30bbb     C5  754   0.080   4.946   8.452  0.4536 -0.1732 -0.1065
   30bbb     H9  755  -0.027   4.930   8.435  0.7427 -0.3826 -1.9942
   30bbb    H10  756   0.123   4.846   8.464  0.8190  0.0781  0.6966
   30bbb     C6  757   0.247   4.924   7.982 -0.3681 -0.1186 -0.0912
   30bbb    H11  758   0.327   4.859   8.018 -1.6444 -1.3883  0.5473
   30bbb    H12  759   0.166   4.863   7.942 -1.6147  0.9575  0.6910
   30bbb     C7  760   0.116   5.033   8.579 -0.3256  0.3908 -0.0809
   30bbb     C8  761   0.298   5.014   7.872  0.5784  0.1707 -0.1909
   30bbb     O1  762   0.223   5.036   8.639 -0.3885 -0.5971  0.2846
   30bbb     O2  763   0.230   5.066   7.786 -0.4757  0.0187 -0.6117
   30bbb     N4  764  -0.133   5.018   8.013 -0.1951  0.1376 -0.2432
   30bbb    H21  765  -0.098   4.969   7.931  0.7924  0.5419 -0.0788
   31bbb     C1  766  -0.868   4.981   7.346  0.0906 -0.2203  0.3605
   31bbb     H1  767  -0.869   4.959   7.453 -0.7959 -3.1433 -0.1586
   31bbb     H2  768  -0.803   4.908   7.297  1.9892  1.5946  0.0741
   31bbb     C2  769  -0.800   5.118   7.325  0.0976 -0.5236 -0.3796
   31bbb     H3  770  -0.776   5.140   7.221 -0.5101  1.6580 -0.1131
   31bbb     H4  771  -0.865   5.202   7.353  1.1297  0.2076 -0.1644
   31bbb     N1  772  -1.009   4.982   7.296  0.7162 -0.0173 -0.1550
   31bbb     C3  773  -1.093   4.885   7.374 -0.0297 -0.3312 -0.2690
   31bbb     H5  774  -1.046   4.787   7.392 -0.4692 -1.0269 -2.5160
   31bbb     H6  775  -1.189   4.863   7.327 -0.2943  0.4123 -0.0902
   31bbb     C4  776  -1.014   4.975   7.147  0.2224  0.5546 -0.5459
   31bbb     H7  777  -0.941   5.043   7.102  0.0474  0.6182 -0.7361
   31bbb     H8  778  -0.994   4.871   7.119 -0.4066  0.2355  0.1337
   31bbb     C5  779  -1.157   5.017   7.100 -0.2917  1.4158 -0.1786
   31bbb     H9  780  -1.226   4.933   7.113  0.9783  0.2307 -0.8587
   31bbb    H10  781  -1.194   5.109   7.147  1.9347  0.8318  2.9983
   31bbb     C6  782  -1.120   4.950   7.510  0.1797  0.4718  0.0464
   31bbb    H11  783  -1.029   4.938   7.571 -0.3177 -0.4862  0.6281
   31bbb    H12  784  -1.143   5.057   7.508 -0.3518  0.3632  0.1827
   31bbb     C7  785  -1.142   5.045   6.954  0.3643 -0.2820  0.0794
   31bbb     C8  786  -1.238   4.883   7.568 -0.0319  0.3579  0.5151
   31bbb     O1  787  -1.094   4.955   6.880  0.1683 -0.4904 -0.4182
   31bbb     O2  788  -1.350   4.903   7.519 -0.5152  0.0089 -0.3376
   31bbb     N4  789  -0.675   5.125   7.407 -0.2939  0.4978 -0.0152
   31bbb    H21  790  -0.625   5.037   7.404 -0.9895  0.0912  0.1212
   32bbb     C1  791   1.242   5.838   7.862 -0.1695 -0.2847 -0.3905
   32bbb     H1  792   1.194   5.901   7.785  2.0767  1.2083 -0.6609
   32bbb     H2  793   1.345   5.818   7.831 -0.7929 -1.6870 -1.6966
   32bbb     C2  794   1.172   5.707   7.857  0.6423 -0.4696 -0.3717
   32bbb     H3  795   1.226   5.638   7.923 -0.0926 -1.6232 -0.9436
   32bbb     H4  796   1.071   5.709   7.900  0.7492 -1.3467 -0.0564
   32bbb     N1  797   1.236   5.899   7.998  0.2237 -0.6916  0.6598
   32bbb     C3  798   1.280   6.039   7.985 -0.1767 -0.0392 -0.4267
   32bbb     H5  799   1.343   6.046   7.895  1.6202  0.8478  0.8266
   32bbb     H6  800   1.343   6.073   8.069 -1.6178 -2.0199  1.5707
   32bbb     C4  801   1.303   5.830   8.103 -0.3476  0.1146  0.8900
   32bbb     H7  802   1.285   5.723   8.085  2.0041 -0.0029 -1.5177
   32bbb     H8  803   1.410   5.846   8.085 -0.7483  0.1883 -1.9830
   32bbb     C5  804   1.270   5.886   8.242 -0.1049 -0.0347  0.3482
   32bbb     H9  805   1.330   5.841   8.322  0.5775  3.0968  1.7345
   32bbb    H10  806   1.297   5.991   8.257 -2.4199  0.5876  0.5598
   32bbb     C6  807   1.165   6.135   7.955 -0.6929  0.9948  1.1282
   32bbb    H11  808   1.108   6.094   7.870  0.9542 -1.4602  1.0999
   32bbb    H12  809   1.101   6.136   8.044 -1.9587  1.1592  0.2470
   32bbb     C7  810   1.126   5.860   8.269 -0.2138  0.0786 -0.7741
   32bbb     C8  811   1.202   6.272   7.923 -0.1458 -0.3535 -0.1879
   32bbb     O1  812   1.034   5.937   8.238  0.0016  0.0414  0.4833
   32bbb     O2  813   1.317   6.305   7.891 -0.1241 -0.0262 -0.2586
   32bbb     N4  814   1.155   5.634   7.727  0.1695 -0.4618  0.1814
   32bbb    H21  815   1.229   5.573   7.694 -0.2113  0.2999 -2.3755
   33bbb     C1  816   1.539   5.137   6.990  0.3541 -0.2341 -0.0217
   33bbb     H1  817   1.471   5.146   6.904 -1.5844 -1.8679  1.2292
   33bbb     H2  818   1.514   5.045   7.044  0.8048 -0.6657 -0.5309
   33bbb     C2  819   1.512   5.255   7.083 -0.0086  0.3585  0.6797
   33bbb     H3  820   1.593   5.282   7.152 -0.7791  3.2879  0.5510
   33bbb     H4  821   1.518   5.341   7.015 -0.6299 -0.6631 -0.7322
   33bbb     N1  822   1.684   5.134   6.949  0.2551 -0.1990  0.7057
   33bbb     C3  823   1.746   5.252   6.893  0.3159 -0.2458  0.3932
   33bbb     H5  824   1.679   5.338   6.905 -0.5301 -1.2113  3.3840
   33bbb     H6  825   1.749   5.240   6.784 -2.1302 -3.5682  0.5542
   33bbb     C4  826   1.717   5.013   6.864  0.7113 -0.5270  0.1160
   33bbb     H7  827   1.650   4.999   6.779 -0.7316 -0.9363  1.2738
   33bbb     H8  828   1.820   5.020   6.828  1.1373 -3.0286  0.7132
   33bbb     C5  829   1.718   4.886   6.946 -0.1769  0.0218  0.2116
   33bbb     H9  830   1.759   4.897   7.048  2.0672 -2.5808 -0.2843
   33bbb    H10  831   1.618   4.841   6.944  0.9749 -2.7386 -2.2299
   33bbb     C6  832   1.878   5.277   6.957 -0.0166  0.4486 -1.0548
   33bbb    H11  833   1.854   5.323   7.054 -1.5142  1.5441 -1.8988
   33bbb    H12  834   1.934   5.189   6.989 -2.4750  0.0301  2.8115
   33bbb     C7  835   1.803   4.790   6.873 -0.2233  0.3891 -0.0656
   33bbb     C8  836   1.950   5.379   6.878 -0.9653  0.9926 -0.8582
   33bbb     O1  837   1.778   4.759   6.757 -0.0095 -0.3228  0.6284
   33bbb     O2  838   1.903   5.445   6.789 -0.3668 -0.4334  0.5078
   33bbb     N4  839   1.382   5.260   7.149  0.4628  0.8750 -0.4951
   33bbb    H21  840   1.371   5.250   7.249 -0.4334  0.2160 -0.6458
   34bbb     C1  841  -1.285   6.638   5.105  0.2682 -0.1027 -0.2257
   34bbb     H1  842  -1.283   6.595   5.206 -0.5358 -0.5830 -0.4024
   34bbb     H2  843  -1.258   6.554   5.040  0.2391  0.9451 -1.6483
   34bbb     C2  844  -1.180   6.754   5.095  0.0351 -0.2426  0.0709
   34bbb     H3  845  -1.132   6.756   4.997 -0.6796 -0.3121 -0.2832
   34bbb     H4  846  -1.240   6.842   5.120  0.7941  0.2766  0.0740
   34bbb     N1  847  -1.423   6.686   5.075  0.5749 -0.0849  0.1691
   34bbb     C3  848  -1.520   6.592   5.128  0.5255 -0.4771 -0.4724
   34bbb     H5  849  -1.476   6.559   5.222  1.3960  0.4755 -0.5270
   34bbb     H6  850  -1.533   6.505   5.063 -1.9518  1.2126 -2.4828
   34bbb     C4  851  -1.445   6.692   4.934  0.7169 -0.7597  0.0925
   34bbb     H7  852  -1.380   6.617   4.887  1.8586 -0.7376  1.5578
   34bbb     H8  853  -1.550   6.672   4.907  0.5159 -1.2527  1.1861
   34bbb     C5  854  -1.409   6.831   4.887  0.1190 -0.0874  0.5564
   34bbb     H9  855  -1.419   6.901   4.970 -0.5644  0.8263 -0.2736
   34bbb    H10  856  -1.304   6.827   4.856  0.2023  0.6426  0.7391
   34bbb     C6  857  -1.658   6.660   5.153 -0.2965  0.9638  0.2434
   34bbb    H11  858  -1.656   6.738   5.230 -0.7228  3.6145 -2.2583
   34bbb    H12  859  -1.697   6.707   5.062 -0.6585  0.6138  0.2145
   34bbb     C7  860  -1.494   6.875   4.777  0.5815 -0.2378  0.7303
   34bbb     C8  861  -1.763   6.561   5.192 -0.1154 -0.0690  0.0730
   34bbb     O1  862  -1.457   6.868   4.664 -0.2600  0.3081  0.8321
   34bbb     O2  863  -1.807   6.483   5.110  0.1500  0.1282 -0.3452
   34bbb     N4  864  -1.076   6.747   5.191 -1.0585 -0.1816 -0.4510
   34bbb    H21  865  -1.074   6.675   5.263  0.3429  0.1763 -0.1002
   35bbb     C1  866  -0.472   7.203   6.091  0.2263  0.3967  0.2365
   35bbb     H1  867  -0.397   7.227   6.015 -1.4716  0.4346 -1.4941
   35bbb     H2  868  -0.443   7.105   6.130  2.0377  1.0230  0.5599
   35bbb     C2  869  -0.611   7.177   6.016 -0.8515 -0.7518 -0.5810
   35bbb     H3  870  -0.659   7.118   6.095  2.3008 -0.9127  1.3694
   35bbb     H4  871  -0.666   7.271   6.002  2.9281  1.4933 -1.6598
   35bbb     N1  872  -0.474   7.301   6.211 -0.2637  0.4319 -0.0657
   35bbb     C3  873  -0.339   7.300   6.264  0.0555  0.4252  0.2768
   35bbb     H5  874  -0.298   7.200   6.248 -1.5911 -0.0671 -1.2620
   35bbb     H6  875  -0.334   7.314   6.372  0.2954 -2.0232  0.6274
   35bbb     C4  876  -0.577   7.271   6.318 -0.0506 -0.2531  0.3333
   35bbb     H7  877  -0.668   7.242   6.264  1.0558 -2.5203 -0.4402
   35bbb     H8  878  -0.544   7.181   6.372 -0.5835 -2.0599 -2.1560
   35bbb     C5  879  -0.613   7.386   6.413  0.1001 -0.2094  0.3610
   35bbb     H9  880  -0.517   7.423   6.450  0.2623  1.0709 -1.2302
   35bbb    H10  881  -0.666   7.470   6.366 -1.9261  1.6496  5.3707
   35bbb     C6  882  -0.257   7.397   6.183 -0.0223 -0.2311  0.3148
   35bbb    H11  883  -0.260   7.383   6.074 -2.6678  0.0178  0.2866
   35bbb    H12  884  -0.285   7.500   6.206 -0.1530 -0.1730 -0.0833
   35bbb     C7  885  -0.704   7.328   6.521 -0.7129 -0.6026  0.1282
   35bbb     C8  886  -0.110   7.383   6.215 -0.6168 -0.0643  0.5823
   35bbb     O1  887  -0.826   7.318   6.509  0.3699  0.2142 -0.2258
   35bbb     O2  888  -0.067   7.341   6.324 -0.1679  0.1564 -0.3254
   35bbb     N4  889  -0.608   7.099   5.888  0.5807 -0.0430  0.3817
   35bbb    H21  890  -0.522   7.100   5.835  0.2272  0.2075 -0.1988
   36bbb     C1  891  -0.710   5.349   6.957  0.5646  0.1579  0.3653
   36bbb     H1  892  -0.607   5.374   6.931  0.2880  0.0772 -0.8945
   36bbb     H2  893  -0.699   5.257   7.016  0.1558 -0.0046  0.1902
   36bbb     C2  894  -0.793   5.317   6.832  0.7245 -0.5743 -0.2248
   36bbb     H3  895  -0.733   5.238   6.786 -2.0978 -2.3711 -1.0736
   36bbb     H4  896  -0.886   5.263   6.854 -0.2552  0.8885 -0.5815
   36bbb     N1  897  -0.775   5.442   7.044  0.4507  0.0240 -0.1734
   36bbb     C3  898  -0.694   5.489   7.162  0.1233  0.1796  0.3763
   36bbb     H5  899  -0.634   5.406   7.201  1.2271  0.0037 -1.5641
   36bbb     H6  900  -0.760   5.534   7.237  0.4607  2.1450 -0.4604
   36bbb     C4  901  -0.899   5.394   7.099  0.7240  0.1012  0.5490
   36bbb     H7  902  -0.937   5.307   7.043  2.3141 -0.9015  0.9587
   36bbb     H8  903  -0.890   5.364   7.204 -1.1005  2.5574  1.4817
   36bbb     C5  904  -1.009   5.500   7.098  0.5170  0.4727 -0.4640
   36bbb     H9  905  -0.978   5.584   7.161 -2.9893  0.5137  1.4701
   36bbb    H10  906  -1.038   5.541   7.000 -0.9295 -0.1026 -0.2957
   36bbb     C6  907  -0.590   5.588   7.118 -0.0820 -0.2675  0.6369
   36bbb    H11  908  -0.525   5.550   7.039 -3.3326  1.3669 -3.1985
   36bbb    H12  909  -0.631   5.677   7.068 -1.2394 -1.1737 -0.0870
   36bbb     C7  910  -1.131   5.444   7.171  0.3932  0.0717  0.0080
   36bbb     C8  911  -0.507   5.635   7.236 -0.6047  0.0069  0.9566
   36bbb     O1  912  -1.215   5.396   7.098 -0.1188  0.5506  0.4317
   36bbb     O2  913  -0.419   5.570   7.289  0.1878 -0.4722  0.2941
   36bbb     N4  914  -0.825   5.424   6.736 -0.3318  0.1843 -0.5885
   36bbb    H21  915  -0.836   5.519   6.768 -0.7468  0.1097 -0.5023
   37bbb     C1  916  -1.511   5.761   6.063  0.0215 -0.4556  0.3673
   37bbb     H1  917  -1.450   5.811   5.987 -1.0477  0.9398  0.3964
   37bbb     H2  918  -1.490   5.823   6.150  0.1551 -1.2341  0.8989
   37bbb     C2  919  -1.457   5.620   6.104  0.0012  0.0217  0.6324
   37bbb     H3  920  -1.510   5.583   6.192 -0.2661  0.6932  0.7635
   37bbb     H4  921  -1.482   5.554   6.020 -0.4086 -0.5944  1.2310
   37bbb     N1  922  -1.653   5.760   6.021 -0.2264 -0.0537  0.2326
   37bbb     C3  923  -1.755   5.703   6.116 -0.1714  0.0155 -0.2381
   37bbb     H5  924  -1.706   5.610   6.149 -0.3881 -0.6195 -1.6364
   37bbb     H6  925  -1.854   5.674   6.077  0.6989 -0.5132 -2.1729
   37bbb     C4  926  -1.700   5.880   5.955  0.2164  0.7325  0.6729
   37bbb     H7  927  -1.803   5.853   5.930  0.2245  0.0927  1.3028
   37bbb     H8  928  -1.687   5.972   6.013  0.7606  0.2458  1.3405
   37bbb     C5  929  -1.645   5.893   5.811 -0.1337 -0.1331 -0.2464
   37bbb     H9  930  -1.536   5.883   5.808 -0.2868 -2.7836  0.4662
   37bbb    H10  931  -1.684   5.813   5.746  0.9343  0.0925 -1.2061
   37bbb     C6  932  -1.776   5.788   6.240 -0.2616 -0.0633 -0.6263
   37bbb    H11  933  -1.681   5.818   6.285 -0.5956  0.8391 -0.4936
   37bbb    H12  934  -1.828   5.883   6.221 -2.5479 -0.8974  1.0139
   37bbb     C7  935  -1.683   6.035   5.773  0.5492 -0.3782  0.2464
   37bbb     C8  936  -1.864   5.718   6.339 -0.7282 -0.2562  0.7437
   37bbb     O1  937  -1.780   6.097   5.812 -0.0137 -0.6328  0.3472
   37bbb     O2  938  -1.984   5.721   6.323 -0.0664  0.2043 -0.1081
   37bbb     N4  939  -1.313   5.623   6.129 -0.2338  0.3075  0.1692
   37bbb    H21  940  -1.250   5.574   6.067 -1.0796 -0.6081  0.0071
   38bbb     C1  941   2.296   6.746   5.628 -0.2141 -0.0586  0.3646
   38bbb     H1  942   2.372   6.821   5.602 -1.8026  0.5106 -3.2171
   38bbb     H2  943   2.303   6.673   5.546 -1.6264  1.4310 -1.1626
   38bbb     C2  944   2.153   6.810   5.631  0.1601 -0.5654 -0.2973
   38bbb     H3  945   2.076   6.743   5.670  0.9117 -1.2178  0.0738
   38bbb     H4  946   2.156   6.893   5.703  0.8202 -1.1060  0.3074
   38bbb     N1  947   2.331   6.690   5.755  0.4286  0.1824 -0.2493
   38bbb     C3  948   2.413   6.568   5.757  0.1105 -0.4089 -0.1377
   38bbb     H5  949   2.421   6.522   5.857  1.1959 -1.0096 -0.4857
   38bbb     H6  950   2.511   6.598   5.720 -0.7859  0.9309 -1.5551
   38bbb     C4  951   2.396   6.790   5.843  0.4053 -0.0197 -0.6161
   38bbb     H7  952   2.498   6.813   5.810  0.8458  0.2212  0.8155
   38bbb     H8  953   2.340   6.884   5.841 -0.6099 -0.3514  3.5808
   38bbb     C5  954   2.401   6.747   5.992  0.1120  0.7639 -0.3470
   38bbb     H9  955   2.312   6.697   6.033  1.1745 -0.6511  0.3092
   38bbb    H10  956   2.482   6.673   5.997 -1.4418 -1.0837 -1.2519
   38bbb     C6  957   2.349   6.453   5.683 -0.5469  0.2536 -0.2643
   38bbb    H11  958   2.249   6.440   5.726 -0.8081  0.9279 -0.6495
   38bbb    H12  959   2.350   6.464   5.574  2.4449  0.5544 -0.2900
   38bbb     C7  960   2.424   6.867   6.081  0.0211 -0.1769  1.0286
   38bbb     C8  961   2.437   6.333   5.714  0.2537  0.4221 -0.2707
   38bbb     O1  962   2.527   6.879   6.149 -0.4268  0.2696 -0.1539
   38bbb     O2  963   2.536   6.312   5.648 -0.3920  0.3257  0.2648
   38bbb     N4  964   2.113   6.872   5.510  0.2578 -0.3168  0.4308
   38bbb    H21  965   2.129   6.971   5.500  0.1025 -0.2736  0.6062
   39bbb     C1  966   1.944   7.021   4.414 -0.1676 -0.3831 -0.2031
   39bbb     H1  967   1.985   7.015   4.313 -2.3088  0.6526 -1.2016
   39bbb     H2  968   1.930   7.127   4.441  2.4986  0.1944 -0.7692
   39bbb     C2  969   2.037   6.973   4.520  0.8360 -0.0611  0.5425
   39bbb     H3  970   2.055   6.866   4.508 -1.8318 -0.3855 -1.3126
   39bbb     H4  971   2.134   7.022   4.503  1.4705 -1.8183 -1.2485
   39bbb     N1  972   1.817   6.950   4.410  0.0155 -0.1188 -0.3228
   39bbb     C3  973   1.833   6.825   4.334  0.1534  1.2018  0.3009
   39bbb     H5  974   1.928   6.779   4.365 -1.1416 -1.5414  0.5140
   39bbb     H6  975   1.831   6.848   4.226 -0.1250  0.7378  0.2035
   39bbb     C4  976   1.710   7.034   4.348  0.2991 -0.6606 -0.4721
   39bbb     H7  977   1.751   7.093   4.265 -0.7731  1.5116  0.4529
   39bbb     H8  978   1.626   6.972   4.312  1.5927 -1.4607 -2.2410
   39bbb     C5  979   1.661   7.137   4.453  0.6949  0.5318 -0.1157
   39bbb     H9  980   1.673   7.097   4.555 -0.0332  1.9401  0.5557
   39bbb    H10  981   1.729   7.223   4.445  1.2127  0.1839  0.4722
   39bbb     C6  982   1.739   6.716   4.376  0.7390  0.1870  0.5624
   39bbb    H11  983   1.728   6.708   4.485 -0.1703  3.8964  0.8672
   39bbb    H12  984   1.638   6.747   4.347  0.2379  0.3693  2.3676
   39bbb     C7  985   1.521   7.188   4.423 -0.7818  0.2199  0.0500
   39bbb     C8  986   1.779   6.586   4.316 -0.4089 -0.5302  0.1491
   39bbb     O1  987   1.485   7.222   4.315 -0.5394 -0.2367 -0.2353
   39bbb     O2  988   1.839   6.502   4.373 -0.2898  0.3464  0.1209
   39bbb     N4  989   1.990   7.000   4.658 -0.0289 -0.2030  0.5814
   39bbb    H21  990   1.891   6.993   4.681  0.4334  1.2857  3.5067
   40bbb     C1  991   0.943   5.440   6.021  0.9616  0.2012 -0.3451
   40bbb     H1  992   1.050   5.462   6.015  0.7497  1.2775 -0.3721
   40bbb     H2  993   0.930   5.333   6.042 -0.7821  0.2759 -0.8864
   40bbb     C2  994   0.890   5.481   5.882  0.0411  0.2605 -0.2966
   40bbb     H3  995   0.952   5.430   5.807  0.6175 -1.1418  1.0925
   40bbb     H4  996   0.784   5.454   5.871 -0.4176  1.8848 -0.2695
   40bbb     N1  997   0.874   5.513   6.122  0.4811  1.1352  0.2892
   40bbb     C3  998   0.736   5.463   6.140 -0.3566 -0.7170 -0.2965
   40bbb     H5  999   0.726   5.395   6.226 -2.1900  2.2841  2.0710
   40bbb     H6 1000   0.697   5.403   6.056 -0.8467 -1.9423  0.7551
   40bbb     C4 1001   0.944   5.526   6.253  0.4977  0.4546 -0.0582
   40bbb     H7 1002   0.871   5.541   6.334  0.9430 -0.2059  0.4802
   40bbb     H8 1003   1.005   5.436   6.272  0.6907  0.3886 -0.9737
   40bbb     C5 1004   1.016   5.659   6.233 -0.5192  0.7807  0.6295
   40bbb     H9 1005   1.082   5.630   6.151 -2.6290 -0.3868 -0.7673
   40bbb    H10 1006   0.954   5.743   6.198 -1.8982 -0.8796 -1.1545
   40bbb     C6 1007   0.644   5.578   6.155 -0.1234  0.3037  0.6863
   40bbb    H11 1008   0.686   5.640   6.235  2.9456 -1.2499  0.4453
   40bbb    H12 1009   0.642   5.633   6.060  0.1999  0.6223  0.8616
   40bbb     C7 1010   1.096   5.689   6.355  0.6872  0.0878 -0.6840
   40bbb     C8 1011   0.500   5.537   6.186  0.5908 -0.0421  0.2211
   40bbb     O1 1012   1.217   5.668   6.365  0.6201  0.1040 -0.8499
   40bbb     O2 1013   0.457   5.532   6.298  0.5162  0.6293 -0.4568
   40bbb     N4 1014   0.895   5.631   5.857 -0.8312  0.1049 -0.2573
   40bbb    H21 1015   0.903   5.700   5.931 -0.8081 -0.1857  0.0128
   41bbb     C1 1016   1.706   5.904   6.031  0.3997  0.6713  0.0279
   41bbb     H1 1017   1.686   5.809   5.981  1.8051  0.3535  0.0245
   41bbb     H2 1018   1.772   5.873   6.113 -0.0614 -0.0969  0.1175
   41bbb     C2 1019   1.580   5.967   6.094 -0.2824 -0.0458  0.3986
   41bbb     H3 1020   1.535   5.903   6.171  1.2905  1.3056  2.5671
   41bbb     H4 1021   1.611   6.061   6.142  2.4346  0.0281 -1.2812
   41bbb     N1 1022   1.772   5.989   5.926  0.2858  0.1690  0.5885
   41bbb     C3 1023   1.855   5.910   5.832  0.1597  0.5020  0.2106
   41bbb     H5 1024   1.912   5.834   5.886 -2.0558 -0.3047  1.5572
   41bbb     H6 1025   1.923   5.980   5.783 -0.6102  1.1670  0.0618
   41bbb     C4 1026   1.855   6.093   5.990  0.5263  0.6890 -0.8113
   41bbb     H7 1027   1.814   6.104   6.091  0.2135 -2.6448 -0.4907
   41bbb     H8 1028   1.958   6.057   5.998  0.1670 -0.1330  0.1753
   41bbb     C5 1029   1.847   6.217   5.905  0.1046  0.6174 -0.0284
   41bbb     H9 1030   1.821   6.188   5.803 -1.5096 -0.9992  0.7749
   41bbb    H10 1031   1.764   6.281   5.939 -0.2991  0.2136 -0.2505
   41bbb     C6 1032   1.770   5.837   5.729  0.3700  0.1596  0.1858
   41bbb    H11 1033   1.699   5.772   5.783  0.0218  1.0265  0.7908
   41bbb    H12 1034   1.715   5.915   5.676  2.0290  2.4103  1.6216
   41bbb     C7 1035   1.970   6.291   5.916  0.3355  0.7541 -0.3705
   41bbb     C8 1036   1.848   5.745   5.637  0.2354  0.3773  0.0168
   41bbb     O1 1037   2.046   6.287   5.824 -0.5610 -0.2493  0.3252
   41bbb     O2 1038   1.844   5.625   5.626  0.2199  0.5732 -0.7458
   41bbb     N4 1039   1.478   5.994   5.993  0.0243  0.4837 -0.2456
   41bbb    H21 1040   1.492   6.070   5.929  0.5651  0.7305  0.1534
   42bbb     C1 1041  -0.207   6.555   5.728  0.3286  0.3944 -0.2252
   42bbb     H1 1042  -0.119   6.507   5.685 -0.0020  0.0831 -0.5708
   42bbb     H2 1043  -0.274   6.482   5.774  0.0886  0.6870 -0.1044
   42bbb     C2 1044  -0.275   6.623   5.611 -0.0134  0.2272 -0.1637
   42bbb     H3 1045  -0.305   6.537   5.549 -2.2864  0.5402  0.4181
   42bbb     H4 1046  -0.368   6.658   5.657 -0.2461 -0.7534  0.1428
   42bbb     N1 1047  -0.158   6.653   5.827  0.2354  0.5592  0.3419
   42bbb     C3 1048  -0.029   6.709   5.779  0.9023  0.1659  0.1537
   42bbb     H5 1049  -0.032   6.718   5.669 -0.0096 -3.1426 -0.2140
   42bbb     H6 1050   0.054   6.648   5.815 -1.1378 -1.3141  2.6872
   42bbb     C4 1051  -0.161   6.597   5.958 -0.5196 -0.6484 -0.0785
   42bbb     H7 1052  -0.119   6.497   5.945  1.1158 -0.1003  0.7040
   42bbb     H8 1053  -0.091   6.651   6.023 -0.9630  1.2574 -1.0870
   42bbb     C5 1054  -0.300   6.587   6.016  0.3879  0.0535 -0.0323
   42bbb     H9 1055  -0.330   6.686   6.052 -1.6161 -0.8939  1.1020
   42bbb    H10 1056  -0.373   6.554   5.941  0.7671 -2.8304  0.7571
   42bbb     C6 1057  -0.023   6.848   5.835 -0.0577  0.2218 -0.4951
   42bbb    H11 1058  -0.107   6.903   5.792 -0.9662 -2.9478 -3.2679
   42bbb    H12 1059  -0.018   6.841   5.945  1.8052 -0.6002 -0.6003
   42bbb     C7 1060  -0.310   6.506   6.138  0.3070 -0.7061  0.0905
   42bbb     C8 1061   0.105   6.918   5.795  0.1669  0.3345  0.0202
   42bbb     O1 1062  -0.229   6.514   6.229 -0.1018 -0.2027 -0.0848
   42bbb     O2 1063   0.196   6.852   5.741  0.2844  0.1567 -0.6658
   42bbb     N4 1064  -0.206   6.723   5.523 -0.0865 -0.6615 -0.2079
   42bbb    H21 1065  -0.142   6.687   5.453  2.5817  1.0851  1.1870
   43bbb     C1 1066   0.122   7.827   5.302 -0.2329 -0.2127  0.0819
   43bbb     H1 1067   0.029   7.823   5.360  0.2075 -0.8503  0.7613
   43bbb     H2 1068   0.090   7.819   5.197 -0.1444  0.5036 -0.0087
   43bbb     C2 1069   0.215   7.716   5.337  0.3835  0.8662  0.0203
   43bbb     H3 1070   0.306   7.731   5.278  0.0893  0.3793 -0.5739
   43bbb     H4 1071   0.236   7.725   5.444 -1.5630 -0.0120  0.5243
   43bbb     N1 1072   0.195   7.948   5.327 -0.4845  0.0769 -0.0799
   43bbb     C3 1073   0.211   7.988   5.467  0.4428  0.2092  0.5815
   43bbb     H5 1074   0.215   7.906   5.539 -2.0305 -1.1341 -0.6833
   43bbb     H6 1075   0.123   8.050   5.491  0.1417  0.2670 -0.6281
   43bbb     C4 1076   0.153   8.051   5.241 -0.1302 -0.4671  0.3238
   43bbb     H7 1077   0.046   8.044   5.217 -0.1064 -1.4693  0.4867
   43bbb     H8 1078   0.182   8.146   5.289  0.1468 -0.7245  0.6662
   43bbb     C5 1079   0.230   8.032   5.113 -0.6891 -0.5418 -0.0153
   43bbb     H9 1080   0.339   8.034   5.125 -0.5916 -0.6346 -0.8132
   43bbb    H10 1081   0.217   7.927   5.086  1.7084 -0.9660  0.2582
   43bbb     C6 1082   0.342   8.061   5.490  0.4934 -0.1236 -0.0204
   43bbb    H11 1083   0.429   7.994   5.486 -0.0803 -1.1173  2.4201
   43bbb    H12 1084   0.360   8.150   5.428 -0.5041 -0.0617 -0.2379
   43bbb     C7 1085   0.201   8.126   4.998  0.6885  0.4716  0.3204
   43bbb     C8 1086   0.342   8.107   5.634  0.1594  0.0389  0.5471
   43bbb     O1 1087   0.168   8.248   4.998  0.2214 -0.6912  0.6147
   43bbb     O2 1088   0.322   8.226   5.659  0.3977  0.6140 -0.5239
   43bbb     N4 1089   0.169   7.573   5.300  0.4666 -0.2866 -0.3003
   43bbb    H21 1090   0.172   7.538   5.205  1.6695  0.2949 -0.4931
   44bbb     C1 1091   0.653   6.321   4.940  0.0486  0.0394 -0.3335
   44bbb     H1 1092   0.618   6.236   4.881  0.3530  1.7527 -3.1479
   44bbb     H2 1093   0.615   6.335   5.042 -1.3364  0.4937 -0.8802
   44bbb     C2 1094   0.588   6.447   4.874 -0.1650  0.5716 -0.1302
   44bbb     H3 1095   0.574   6.526   4.950 -1.2251  0.8564 -0.6026
   44bbb     H4 1096   0.648   6.477   4.787 -1.3625  0.5208 -0.9862
   44bbb     N1 1097   0.797   6.316   4.935  0.1861  0.4603 -0.4345
   44bbb     C3 1098   0.856   6.186   4.990  0.1419 -0.2364 -0.0080
   44bbb     H5 1099   0.782   6.106   4.993 -0.9056  0.6249 -1.4300
   44bbb     H6 1100   0.890   6.207   5.092 -2.1588 -0.4863  0.8741
   44bbb     C4 1101   0.865   6.433   4.986 -0.0973  0.1652  0.0194
   44bbb     H7 1102   0.796   6.511   5.021  1.8776  1.4147  1.2909
   44bbb     H8 1103   0.934   6.404   5.066 -2.5586 -0.8468  1.8917
   44bbb     C5 1104   0.934   6.488   4.871 -0.3794 -0.0694  0.6829
   44bbb     H9 1105   0.979   6.413   4.805  0.0881 -0.9148  1.9135
   44bbb    H10 1106   0.861   6.547   4.816  0.8200 -0.8635 -1.9261
   44bbb     C6 1107   0.981   6.152   4.916 -0.7448 -0.1231  0.3597
   44bbb    H11 1108   0.965   6.145   4.808  1.3527 -0.1552  0.0045
   44bbb    H12 1109   1.056   6.228   4.940 -0.1399 -1.0096  1.3894
   44bbb     C7 1110   1.045   6.591   4.913 -0.3311 -0.0865  0.2827
   44bbb     C8 1111   1.047   6.026   4.966  0.1353 -0.6606 -0.2467
   44bbb     O1 1112   1.075   6.616   5.024 -0.0709  0.1881 -0.0261
   44bbb     O2 1113   1.052   5.989   5.082  0.1399 -0.5285  0.3094
   44bbb     N4 1114   0.457   6.417   4.826 -0.6333 -0.6104  0.0394
   44bbb    H21 1115   0.458   6.334   4.768  0.5039 -1.9931  1.9334
   45bbb     C1 1116  -0.213   6.511   4.148 -0.2869  0.4563 -0.1570
   45bbb     H1 1117  -0.114   6.494   4.103 -0.5316 -1.4143 -0.0564
   45bbb     H2 1118  -0.278   6.506   4.060  1.6553 -0.7680 -1.6304
   45bbb     C2 1119  -0.217   6.653   4.211 -0.0068 -0.0641 -0.3264
   45bbb     H3 1120  -0.157   6.719   4.146 -3.1471  0.3040 -3.0822
   45bbb     H4 1121  -0.319   6.693   4.208 -0.2766 -0.6027  0.9199
   45bbb     N1 1122  -0.251   6.406   4.243  0.0741 -0.2603  0.5799
   45bbb     C3 1123  -0.228   6.267   4.195 -0.0883  0.3831 -0.3145
   45bbb     H5 1124  -0.272   6.251   4.096  1.3771 -0.0873 -0.9299
   45bbb     H6 1125  -0.271   6.200   4.270 -2.3800  1.5646 -0.4886
   45bbb     C4 1126  -0.390   6.431   4.293  0.1689 -0.0298  0.1075
   45bbb     H7 1127  -0.403   6.525   4.349  0.7751  0.9307 -1.3174
   45bbb     H8 1128  -0.451   6.441   4.202  1.4366  4.0643 -0.4668
   45bbb     C5 1129  -0.455   6.316   4.374 -0.0486  0.5445 -0.4935
   45bbb     H9 1130  -0.478   6.234   4.305 -0.5975 -2.6355  3.1084
   45bbb    H10 1131  -0.383   6.279   4.448 -1.8981 -0.4150  0.9478
   45bbb     C6 1132  -0.083   6.244   4.162  0.6665 -0.2273  1.0973
   45bbb    H11 1133  -0.051   6.290   4.068 -0.9876 -0.3952  0.4249
   45bbb    H12 1134  -0.018   6.272   4.246  1.5181 -0.0600  0.4077
   45bbb     C7 1135  -0.578   6.358   4.451  0.2698  0.3918 -0.0353
   45bbb     C8 1136  -0.065   6.098   4.146  0.5643 -0.2221  0.7512
   45bbb     O1 1137  -0.688   6.370   4.395 -0.4031 -0.1652 -0.5249
   45bbb     O2 1138  -0.125   6.020   4.220  0.2661  0.4181  0.3289
   45bbb     N4 1139  -0.148   6.666   4.341 -0.3773  0.0435 -0.0906
   45bbb    H21 1140  -0.200   6.634   4.421 -0.2746 -1.1159 -0.4730
   46bbb     C1 1141  -2.000   7.451   5.926  0.0166 -0.7694  0.2787
   46bbb     H1 1142  -1.982   7.559   5.929  1.5674 -0.9564 -0.8322
   46bbb     H2 1143  -2.073   7.452   5.843  0.1920  1.1136  0.1080
   46bbb     C2 1144  -2.048   7.394   6.066 -0.1965 -0.5671  0.2670
   46bbb     H3 1145  -2.117   7.467   6.110 -2.3367 -0.4653 -2.9362
   46bbb     H4 1146  -2.108   7.305   6.044 -1.2303 -0.1671  1.3922
   46bbb     N1 1147  -1.885   7.381   5.869 -0.5977  0.2469 -0.1113
   46bbb     C3 1148  -1.824   7.458   5.758  0.3463 -0.2493 -0.8534
   46bbb     H5 1149  -1.732   7.408   5.727  0.1758  0.1498 -2.0403
   46bbb     H6 1150  -1.798   7.559   5.794  2.4391 -1.4943  1.4170
   46bbb     C4 1151  -1.928   7.247   5.836 -0.1357  0.3138 -0.5599
   46bbb     H7 1152  -1.977   7.196   5.920 -0.8522 -0.3738 -1.3766
   46bbb     H8 1153  -2.004   7.249   5.757  1.0873  0.4764 -1.7810
   46bbb     C5 1154  -1.815   7.168   5.785 -0.2990 -0.7289  0.4306
   46bbb     H9 1155  -1.762   7.201   5.695  0.5140 -0.5131  0.9758
   46bbb    H10 1156  -1.731   7.148   5.853 -0.0212  0.3613  0.4275
   46bbb     C6 1157  -1.911   7.479   5.635 -0.5310  0.1808 -0.0591
   46bbb    H11 1158  -1.920   7.383   5.582  2.2802 -0.0463 -0.2966
   46bbb    H12 1159  -2.016   7.509   5.645 -1.7399 -2.9055 -1.8107
   46bbb     C7 1160  -1.867   7.032   5.748 -0.5813  0.1993  0.3316
   46bbb     C8 1161  -1.847   7.570   5.537  0.4772  0.5213  0.4903
   46bbb     O1 1162  -1.856   6.997   5.633  0.0154 -0.1241  0.0554
   46bbb     O2 1163  -1.759   7.523   5.463  0.3863  0.3408  0.5032
   46bbb     N4 1164  -1.942   7.350   6.156 -0.2402 -0.4699 -0.5066
   46bbb    H21 1165  -1.848   7.346   6.117  0.5297  0.6180  1.1132
   47bbb     C1 1166  -1.717   6.741   6.963 -0.1675  0.5811  0.6097
   47bbb     H1 1167  -1.619   6.791   6.963  0.0800  0.1052  1.1050
   47bbb     H2 1168  -1.729   6.702   6.861 -0.1598 -2.5082  1.6975
   47bbb     C2 1169  -1.825   6.838   7.001  0.1888 -0.0004 -0.2864
   47bbb     H3 1170  -1.928   6.800   6.990 -0.0612  0.8524 -1.0140
   47bbb     H4 1171  -1.815   6.866   7.107  1.3965 -1.4968  0.0138
   47bbb     N1 1172  -1.712   6.624   7.054 -0.3641 -0.3628 -0.0328
   47bbb     C3 1173  -1.829   6.541   7.037  0.7504 -0.1492  0.2053
   47bbb     H5 1174  -1.852   6.537   6.930  0.6457  0.5232  0.1972
   47bbb     H6 1175  -1.912   6.580   7.098 -0.7458 -0.7407 -1.3965
   47bbb     C4 1176  -1.663   6.651   7.193  0.1318  0.1012 -0.2483
   47bbb     H7 1177  -1.727   6.715   7.255 -1.2315 -0.9694 -0.5151
   47bbb     H8 1178  -1.651   6.555   7.244  1.8749  0.5021  0.1830
   47bbb     C5 1179  -1.514   6.687   7.179  0.2786  0.0032  0.3219
   47bbb     H9 1180  -1.465   6.599   7.134  0.4907 -1.1067  2.5551
   47bbb    H10 1181  -1.494   6.777   7.121 -2.2009 -0.4987 -1.5018
   47bbb     C6 1182  -1.802   6.402   7.087 -0.8525  0.0733  0.6844
   47bbb    H11 1183  -1.708   6.367   7.042 -0.1458  1.4337  1.0537
   47bbb    H12 1184  -1.793   6.392   7.196  1.5997  2.4146  0.8028
   47bbb     C7 1185  -1.454   6.687   7.315  0.0368  0.2546  0.2118
   47bbb     C8 1186  -1.901   6.304   7.033  0.3595  0.1683 -0.2690
   47bbb     O1 1187  -1.428   6.587   7.379 -0.1216 -0.3444  0.4790
   47bbb     O2 1188  -2.002   6.279   7.094 -0.1855 -0.0266 -0.1635
   47bbb     N4 1189  -1.816   6.957   6.920  0.1666  0.2249  0.1247
   47bbb    H21 1190  -1.745   7.027   6.934 -0.6385  1.2535 -0.7629
   48bbb     C1 1191  -0.253   8.033   5.096 -0.6914  0.0197 -0.0021
   48bbb     H1 1192  -0.161   8.059   5.043  0.0435  0.4664  1.4412
   48bbb     H2 1193  -0.328   8.111   5.078  0.5448  1.0252 -0.9886
   48bbb     C2 1194  -0.223   8.040   5.246 -0.4691  0.5951  0.3952
   48bbb     H3 1195  -0.160   7.955   5.273 -1.1362  0.5242  1.8034
   48bbb     H4 1196  -0.173   8.137   5.260 -1.4768  0.9140  2.1133
   48bbb     N1 1197  -0.298   7.898   5.059 -0.2093 -0.6938  0.3506
   48bbb     C3 1198  -0.179   7.814   5.028  0.1672 -0.4325 -0.1323
   48bbb     H5 1199  -0.086   7.853   5.071  0.4970 -0.0433 -1.1875
   48bbb     H6 1200  -0.173   7.811   4.919 -1.1470 -2.9200 -0.2037
   48bbb     C4 1201  -0.394   7.900   4.943 -0.6832 -0.6869  0.2156
   48bbb     H7 1202  -0.357   7.970   4.867  1.7334 -1.2455  0.7783
   48bbb     H8 1203  -0.387   7.801   4.896  0.1481 -1.4900  1.9404
   48bbb     C5 1204  -0.538   7.933   4.981  0.5692  0.4901  0.4306
   48bbb     H9 1205  -0.560   7.865   5.064  1.0541 -1.5535 -1.0516
   48bbb    H10 1206  -0.550   8.040   5.002 -3.0286 -0.1593  2.5070
   48bbb     C6 1207  -0.206   7.684   5.089  0.3911  0.2081  0.3678
   48bbb    H11 1208  -0.199   7.701   5.197  1.4188  0.5420  0.2620
   48bbb    H12 1209  -0.308   7.652   5.066  0.8498 -0.8719 -0.2485
   48bbb     C7 1210  -0.620   7.901   4.863 -0.2019 -0.9186  0.2168
   48bbb     C8 1211  -0.100   7.585   5.047 -0.3712 -0.7367  0.4890
   48bbb     O1 1212  -0.602   7.942   4.748 -0.2331  0.0949  0.0574
   48bbb     O2 1213   0.014   7.607   5.031 -0.5519 -0.1605 -0.2310
   48bbb     N4 1214  -0.355   8.031   5.331 -0.1796  0.5128  0.4657
   48bbb    H21 1215  -0.430   8.097   5.317  1.2897  1.6427 -3.2761
   49bbb     C1 1216  -1.005   8.471   5.734  0.8755  0.3863  0.7027
   49bbb     H1 1217  -1.017   8.575   5.702 -1.2253 -0.2507 -0.8128
   49bbb     H2 1218  -0.995   8.474   5.843 -0.4923 -1.0350  0.9127
   49bbb     C2 1219  -0.872   8.416   5.670 -0.0137 -0.7911 -0.3508
   49bbb     H3 1220  -0.881   8.437   5.562 -3.1156  0.8414  0.1014
   49bbb     H4 1221  -0.793   8.482   5.708 -0.9334  2.3818 -3.3684
   49bbb     N1 1222  -1.123   8.388   5.698  0.4840  0.3225 -0.0585
   49bbb     C3 1223  -1.157   8.377   5.558  0.3428 -0.2618 -0.2976
   49bbb     H5 1224  -1.066   8.383   5.497  1.1457 -2.2195  0.6501
   49bbb     H6 1225  -1.234   8.450   5.529  0.0317  0.0875  1.3157
   49bbb     C4 1226  -1.243   8.430   5.774  0.6043  0.3555 -0.5895
   49bbb     H7 1227  -1.236   8.538   5.793  2.3095 -0.1411  2.2191
   49bbb     H8 1228  -1.337   8.414   5.720  0.1814  2.1455 -0.4319
   49bbb     C5 1229  -1.253   8.342   5.898 -0.0947 -0.7084 -0.6049
   49bbb     H9 1230  -1.258   8.240   5.860  1.3225 -0.3666 -1.7610
   49bbb    H10 1231  -1.166   8.360   5.962 -1.3310 -2.8831  1.8980
   49bbb     C6 1232  -1.209   8.235   5.535 -0.2778  0.2163 -0.2531
   49bbb    H11 1233  -1.139   8.163   5.579 -0.8833  1.1494  2.4161
   49bbb    H12 1234  -1.302   8.217   5.589  1.3500  1.4402  3.2350
   49bbb     C7 1235  -1.384   8.388   5.967 -0.3736  0.4972  0.9895
   49bbb     C8 1236  -1.235   8.215   5.391 -0.5606 -0.5957 -0.3689
   49bbb     O1 1237  -1.401   8.506   5.991  0.4558 -0.0192  0.1008
   49bbb     O2 1238  -1.340   8.165   5.354  0.4695  0.1180  0.0363
   49bbb     N4 1239  -0.841   8.271   5.675  0.0071 -0.2378  0.0174
   49bbb    H21 1240  -0.851   8.223   5.764  0.4531 -0.3435  0.0160
   50bbb     C1 1241  -0.080   6.044   8.090 -0.4256 -0.0535  0.3950
   50bbb     H1 1242  -0.123   6.142   8.117  0.1749  0.1331  0.7081
   50bbb     H2 1243  -0.055   6.016   8.194  0.7683  3.6020  1.2770
   50bbb     C2 1244   0.060   6.065   8.026  0.1648 -0.1185  0.3703
   50bbb     H3 1245   0.128   6.118   8.093 -0.7057  0.1288  1.0739
   50bbb     H4 1246   0.108   5.967   8.013  0.9915  0.5394 -2.1826
   50bbb     N1 1247  -0.179   5.952   8.024 -0.0109 -0.1195 -0.3793
   50bbb     C3 1248  -0.291   5.923   8.117 -0.5170  0.9520  0.1412
   50bbb     H5 1249  -0.264   5.901   8.221 -0.9668  0.1373  0.0960
   50bbb     H6 1250  -0.345   5.837   8.076 -0.5593 -0.2652  2.5860
   50bbb     C4 1251  -0.119   5.824   7.979  0.2858 -0.2621  0.6166
   50bbb     H7 1252  -0.185   5.766   7.913  1.2229  2.4637 -3.0021
   50bbb     H8 1253  -0.038   5.847   7.910 -1.9135 -1.8247 -2.7611
   50bbb     C5 1254  -0.070   5.740   8.099 -0.1423  0.7767 -0.1594
   50bbb     H9 1255   0.019   5.783   8.147 -0.1805 -0.5578  1.1801
   50bbb    H10 1256  -0.141   5.709   8.176  0.0718 -0.0776 -0.2899
   50bbb     C6 1257  -0.389   6.037   8.135 -0.0400 -0.5259 -0.0758
   50bbb    H11 1258  -0.355   6.123   8.195 -1.4730 -1.6208  2.4720
   50bbb    H12 1259  -0.413   6.071   8.033 -2.2421  0.3972  0.6929
   50bbb     C7 1260   0.000   5.614   8.046  0.4242 -0.1864 -0.8670
   50bbb     C8 1261  -0.515   5.982   8.193 -0.8906  0.1837 -0.4777
   50bbb     O1 1262   0.011   5.593   7.928 -0.1045 -0.4644  0.9514
   50bbb     O2 1263  -0.605   5.958   8.118  0.0440  0.8060  0.4631
   50bbb     N4 1264   0.048   6.122   7.888  0.6893  0.8099  0.5273
   50bbb    H21 1265  -0.041   6.146   7.846  0.7871 -2.0688 -1.5694
   51bbb     C1 1266   0.430   6.032   6.918  0.1707  0.0426  0.0828
   51bbb     H1 1267   0.451   5.935   6.963 -0.5976 -0.5871 -0.8722
   51bbb     H2 1268   0.492   6.114   6.957 -1.5415  1.1236  0.6952
   51bbb     C2 1269   0.276   6.064   6.939  0.2652 -0.5172 -0.6836
   51bbb     H3 1270   0.255   6.145   6.868  0.0416  0.4936  0.5165
   51bbb     H4 1271   0.216   5.974   6.919  0.1487  0.0080 -3.0303
   51bbb     N1 1272   0.462   6.034   6.775  0.1998  0.4828  1.0878
   51bbb     C3 1273   0.609   6.041   6.751  1.2103 -0.4773  0.5356
   51bbb     H5 1274   0.626   5.982   6.660 -2.1306  1.2295 -1.3817
   51bbb     H6 1275   0.668   6.001   6.835 -0.0893  1.6823  2.5930
   51bbb     C4 1276   0.399   5.926   6.705  0.0277  0.5067 -0.3725
   51bbb     H7 1277   0.455   5.833   6.720 -1.8160 -0.5307  0.4554
   51bbb     H8 1278   0.300   5.903   6.747 -0.4826 -0.7617 -2.1883
   51bbb     C5 1279   0.379   5.949   6.558 -0.0673 -0.1388  0.1927
   51bbb     H9 1280   0.322   6.042   6.544 -0.1749 -0.2522 -0.1365
   51bbb    H10 1281   0.475   5.970   6.508  0.0390 -0.1369  0.4000
   51bbb     C6 1282   0.644   6.188   6.727  0.7432  0.6577  0.1345
   51bbb    H11 1283   0.581   6.224   6.645  0.1721 -0.2634  0.1505
   51bbb    H12 1284   0.635   6.246   6.819  0.7672  0.4815  0.2481
   51bbb     C7 1285   0.295   5.844   6.493  0.1302 -0.2034 -0.1677
   51bbb     C8 1286   0.782   6.183   6.685  0.3857 -0.8039  0.2649
   51bbb     O1 1287   0.261   5.745   6.553  0.2630 -0.8273 -0.2856
   51bbb     O2 1288   0.808   6.149   6.571 -0.3205  0.1426 -0.3626
   51bbb     N4 1289   0.238   6.098   7.076 -0.3558 -0.1583  0.7712
   51bbb    H21 1290   0.272   6.187   7.111  1.4892 -0.1495 -0.8814
   52bbb     C1 1291  -1.692   6.662   6.546 -0.6348 -0.4396 -0.2420
   52bbb     H1 1292  -1.603   6.725   6.532  0.2981 -1.2509  1.6136
   52bbb     H2 1293  -1.747   6.692   6.636 -1.8085 -1.3621 -0.6242
   52bbb     C2 1294  -1.664   6.514   6.583 -0.1224  0.1996 -0.5051
   52bbb     H3 1295  -1.756   6.469   6.623  0.3616  1.2295  1.9503
   52bbb     H4 1296  -1.630   6.462   6.492  1.3697 -0.5162  0.4219
   52bbb     N1 1297  -1.778   6.659   6.424  0.2214 -0.3362 -0.4202
   52bbb     C3 1298  -1.741   6.768   6.329 -0.9694  0.1148  0.2595
   52bbb     H5 1299  -1.729   6.869   6.371 -1.8056  0.2791  0.1320
   52bbb     H6 1300  -1.825   6.784   6.261 -0.0299  1.6242 -0.6034
   52bbb     C4 1301  -1.917   6.648   6.453  0.2843  0.4463  0.4448
   52bbb     H7 1302  -1.933   6.579   6.536 -0.9043  0.4171  0.2076
   52bbb     H8 1303  -1.974   6.741   6.470  1.0276  0.9099  0.4850
   52bbb     C5 1304  -1.987   6.572   6.338 -0.1874 -0.2432 -0.0350
   52bbb     H9 1305  -1.969   6.629   6.247  1.0103  1.6381  1.3117
   52bbb    H10 1306  -1.958   6.469   6.314  0.1043 -0.1229 -0.1916
   52bbb     C6 1307  -1.625   6.716   6.243 -0.7529 -0.5707 -0.5046
   52bbb    H11 1308  -1.539   6.730   6.309 -0.1663  3.0750 -1.8080
   52bbb    H12 1309  -1.645   6.614   6.207 -2.1614 -0.2844 -0.5999
   52bbb     C7 1310  -2.131   6.567   6.347 -0.6020  0.2322 -0.4135
   52bbb     C8 1311  -1.605   6.805   6.122 -0.5823 -0.8340 -0.0785
   52bbb     O1 1312  -2.192   6.587   6.449 -0.1949  0.5238  0.3112
   52bbb     O2 1313  -1.618   6.927   6.141  0.1958  0.4740  0.7460
   52bbb     N4 1314  -1.560   6.495   6.686 -0.3913  0.4799  0.2852
   52bbb    H21 1315  -1.501   6.570   6.719  1.4022 -1.1971  1.0732
   53bbb     C1 1316  -1.350   6.286   7.717  0.1207  0.0593 -0.0522
   53bbb     H1 1317  -1.383   6.391   7.707  1.7020  0.7517  1.4726
   53bbb     H2 1318  -1.252   6.284   7.668 -1.2806 -0.6988 -2.9922
   53bbb     C2 1319  -1.445   6.202   7.625  0.1824 -0.5226  0.0501
   53bbb     H3 1320  -1.413   6.097   7.620 -0.6287 -0.7819  0.2081
   53bbb     H4 1321  -1.533   6.191   7.690  1.1179  1.0920  1.6702
   53bbb     N1 1322  -1.351   6.234   7.852 -0.3898 -0.5765 -0.4420
   53bbb     C3 1323  -1.454   6.296   7.933 -0.1998 -0.2827  0.0504
   53bbb     H5 1324  -1.544   6.312   7.873 -1.7464  0.1067  2.3554
   53bbb     H6 1325  -1.419   6.397   7.955 -1.2028  0.1484 -0.2668
   53bbb     C4 1326  -1.220   6.253   7.910  1.0479 -0.2518 -0.0520
   53bbb     H7 1327  -1.186   6.355   7.887 -0.5124  0.4315  0.5768
   53bbb     H8 1328  -1.232   6.255   8.019  2.0223 -1.5239  0.1023
   53bbb     C5 1329  -1.115   6.147   7.863  0.5839 -0.0266 -0.0517
   53bbb     H9 1330  -1.145   6.044   7.882 -2.6895  1.0505  1.4876
   53bbb    H10 1331  -1.102   6.148   7.754  0.5084  1.7436 -0.0839
   53bbb     C6 1332  -1.492   6.205   8.043  0.0378 -0.1435 -0.4501
   53bbb    H11 1333  -1.500   6.102   8.004 -2.5648  0.0171 -0.5007
   53bbb    H12 1334  -1.415   6.193   8.120  1.5606 -1.2775 -2.0591
   53bbb     C7 1335  -0.988   6.177   7.932  0.4960 -0.8685 -0.1830
   53bbb     C8 1336  -1.621   6.259   8.100 -0.8671  0.3928  0.0608
   53bbb     O1 1337  -0.917   6.263   7.899 -0.0582 -0.1396 -0.2200
   53bbb     O2 1338  -1.629   6.371   8.142  0.7523  0.0238  0.1865
   53bbb     N4 1339  -1.467   6.261   7.492 -0.1030  0.1698  0.3672
   53bbb    H21 1340  -1.463   6.362   7.484  0.9954  0.2373  1.4883
   54bbb     C1 1341   0.919   8.335   7.129  0.2372  0.2789  0.3055
   54bbb     H1 1342   0.984   8.250   7.104  0.0138 -0.1038  0.9992
   54bbb     H2 1343   0.963   8.387   7.215  0.3465 -0.8526  0.9557
   54bbb     C2 1344   0.785   8.286   7.181  0.1583  0.1821  0.6204
   54bbb     H3 1345   0.734   8.368   7.232 -0.8281  1.1229 -1.7314
   54bbb     H4 1346   0.728   8.249   7.095  1.7447 -0.7570 -0.0886
   54bbb     N1 1347   0.913   8.427   7.013  0.0805 -0.5659 -0.0936
   54bbb     C3 1348   1.034   8.505   6.984 -0.0241  0.0498  0.1259
   54bbb     H5 1349   1.017   8.566   6.895  0.7425 -0.2599 -0.2377
   54bbb     H6 1350   1.122   8.440   6.975  2.4134  2.8982  1.6648
   54bbb     C4 1351   0.870   8.345   6.902 -0.3541 -1.1163  0.2887
   54bbb     H7 1352   0.960   8.315   6.847  0.8802  2.0933  0.3370
   54bbb     H8 1353   0.811   8.256   6.926 -1.3967 -0.6616 -0.5362
   54bbb     C5 1354   0.795   8.432   6.806  0.9149 -0.1546  0.4572
   54bbb     H9 1355   0.839   8.526   6.770 -1.5167  0.3016 -1.6175
   54bbb    H10 1356   0.776   8.376   6.713 -2.2098  0.1069  0.8188
   54bbb     C6 1357   1.067   8.590   7.107  0.1379 -0.1478  0.0979
   54bbb    H11 1358   0.976   8.633   7.151 -1.0861 -4.3584  2.1502
   54bbb    H12 1359   1.118   8.528   7.180  0.4425  0.4599  0.4108
   54bbb     C7 1360   0.647   8.451   6.852  0.1156 -0.7206  0.2126
   54bbb     C8 1361   1.179   8.693   7.075  0.8159  0.0725  0.2399
   54bbb     O1 1362   0.558   8.374   6.828  0.1985  0.3338 -0.1826
   54bbb     O2 1363   1.213   8.711   6.964 -0.8543  0.0810 -0.1329
   54bbb     N4 1364   0.807   8.168   7.269  0.4835  0.3447 -0.3526
   54bbb    H21 1365   0.844   8.087   7.222 -2.2479 -1.7569  0.7883
   55bbb     C1 1366   1.471   7.617   7.827  0.3532  0.8309  0.3368
   55bbb     H1 1367   1.564   7.593   7.879  1.3153 -0.8893 -2.0131
   55bbb     H2 1368   1.485   7.599   7.720  1.1188 -2.0894  0.8487
   55bbb     C2 1369   1.451   7.763   7.852  0.5499 -0.5075  0.3672
   55bbb     H3 1370   1.471   7.781   7.958  0.2669 -3.3930  0.9892
   55bbb     H4 1371   1.518   7.816   7.784 -0.0911 -0.1195  0.0192
   55bbb     N1 1372   1.354   7.536   7.864  0.2772 -0.1503 -0.1831
   55bbb     C3 1373   1.341   7.501   8.008 -0.5498  0.3845  0.2798
   55bbb     H5 1374   1.391   7.575   8.073  1.3454 -0.8916  0.3616
   55bbb     H6 1375   1.386   7.401   8.013 -1.3368 -0.0106 -0.4127
   55bbb     C4 1376   1.338   7.419   7.776  0.1211 -0.5915  0.1034
   55bbb     H7 1377   1.436   7.381   7.747  0.8655 -0.9313  2.8116
   55bbb     H8 1378   1.269   7.346   7.822 -0.4138 -0.2569 -0.1529
   55bbb     C5 1379   1.267   7.464   7.648  0.0047  0.2722 -0.7404
   55bbb     H9 1380   1.173   7.519   7.660  0.8917  1.4460  1.3366
   55bbb    H10 1381   1.334   7.525   7.586 -0.2389  2.2340  0.8089
   55bbb     C6 1382   1.198   7.485   8.041  0.1402 -0.3720 -0.2591
   55bbb    H11 1383   1.153   7.575   7.998  2.4214  0.7015 -0.5968
   55bbb    H12 1384   1.153   7.395   7.999 -1.7557 -1.0643  2.9630
   55bbb     C7 1385   1.228   7.350   7.565 -0.2245  0.4534 -0.6646
   55bbb     C8 1386   1.173   7.474   8.187  0.0456  0.2148  0.2493
   55bbb     O1 1387   1.297   7.305   7.480  0.6176  0.3593 -0.1688
   55bbb     O2 1388   1.181   7.365   8.235 -0.1158  0.4839  0.3379
   55bbb     N4 1389   1.312   7.806   7.824  0.5552  0.2658  0.0991
   55bbb    H21 1390   1.246   7.808   7.901  1.5352  1.5237  0.9504
   56bbb     C1 1391   0.137   7.751   6.550  0.4553 -0.4764  1.1046
   56bbb     H1 1392   0.148   7.762   6.658  4.1818  1.3201  0.6780
   56bbb     H2 1393   0.164   7.651   6.514  0.4999 -0.2591  0.5163
   56bbb     C2 1394   0.232   7.855   6.497  0.1949 -0.1067  0.3076
   56bbb     H3 1395   0.251   7.848   6.389  0.1083 -2.6498  0.3866
   56bbb     H4 1396   0.181   7.951   6.512 -1.1813 -0.3848 -1.9648
   56bbb     N1 1397  -0.005   7.777   6.503 -0.3970 -0.4047  0.4779
   56bbb     C3 1398  -0.096   7.681   6.561  0.3942 -0.5279  0.3427
   56bbb     H5 1399  -0.067   7.576   6.546  1.2071 -0.1217 -1.0076
   56bbb     H6 1400  -0.196   7.695   6.517  0.4196  1.9626  0.9519
   56bbb     C4 1401  -0.025   7.770   6.358  0.5222 -0.2797  0.1262
   56bbb     H7 1402   0.054   7.793   6.285  0.8960 -1.2730  0.1993
   56bbb     H8 1403  -0.064   7.669   6.337 -0.2644  0.0089  0.1492
   56bbb     C5 1404  -0.140   7.865   6.320  0.2264  0.4532 -0.2601
   56bbb     H9 1405  -0.231   7.837   6.374 -0.5570 -0.0848 -1.8025
   56bbb    H10 1406  -0.110   7.968   6.345 -1.8036  1.0726 -0.2185
   56bbb     C6 1407  -0.122   7.708   6.706 -0.0044 -0.0347  0.0698
   56bbb    H11 1408  -0.207   7.654   6.749 -0.1545  0.1579  0.0190
   56bbb    H12 1409  -0.033   7.683   6.766 -0.0440  0.9692  0.5684
   56bbb     C7 1410  -0.162   7.847   6.175 -0.1474  0.4144  0.0782
   56bbb     C8 1411  -0.153   7.851   6.736  0.3636 -0.4026 -0.2986
   56bbb     O1 1412  -0.112   7.764   6.098  0.5326  0.3228  0.5087
   56bbb     O2 1413  -0.074   7.924   6.791 -0.8275  0.1654  0.5628
   56bbb     N4 1414   0.368   7.860   6.572  0.0952 -0.2272  0.0671
   56bbb    H21 1415   0.409   7.783   6.624  1.2966 -0.2991 -0.9450
   57bbb     C1 1416   1.368   7.674   6.765  0.5075 -0.3917 -0.3646
   57bbb     H1 1417   1.468   7.629   6.772  0.5412 -0.7980 -2.7150
   57bbb     H2 1418   1.309   7.636   6.849  0.8297 -3.2541 -1.3004
   57bbb     C2 1419   1.295   7.626   6.632 -0.0506  0.1070 -0.2587
   57bbb     H3 1420   1.376   7.631   6.559  0.5121  1.2914  0.4070
   57bbb     H4 1421   1.273   7.518   6.635 -1.6446  0.4135  0.8578
   57bbb     N1 1422   1.379   7.822   6.772 -0.1005 -0.4135  0.0161
   57bbb     C3 1423   1.473   7.873   6.667  0.0328  0.1558  0.1036
   57bbb     H5 1424   1.471   7.811   6.576 -1.3457  0.5785 -0.1886
   57bbb     H6 1425   1.580   7.876   6.690  0.6924  1.1448 -2.6633
   57bbb     C4 1426   1.416   7.874   6.903  0.4269 -0.0797  0.3807
   57bbb     H7 1427   1.496   7.818   6.953  0.7772  1.4298  1.5802
   57bbb     H8 1428   1.453   7.977   6.901  1.5034 -0.2875  3.6676
   57bbb     C5 1429   1.299   7.871   7.002  0.3601 -0.5555  1.1609
   57bbb     H9 1430   1.220   7.936   6.965  2.2339  2.4703  2.1440
   57bbb    H10 1431   1.257   7.769   7.008 -0.1033 -0.5998 -1.5629
   57bbb     C6 1432   1.434   8.016   6.630 -0.2040 -0.2204  0.0097
   57bbb    H11 1433   1.327   8.032   6.645  0.0275  1.3704  0.1453
   57bbb    H12 1434   1.495   8.087   6.687 -0.2119  0.7514 -1.1673
   57bbb     C7 1435   1.334   7.921   7.139 -1.0257  0.1093 -0.3817
   57bbb     C8 1436   1.465   8.047   6.484  0.3756 -0.2920 -0.3691
   57bbb     O1 1437   1.441   7.895   7.196  0.1488 -0.3524 -0.6554
   57bbb     O2 1438   1.390   8.016   6.400 -0.1380  0.2804 -0.0410
   57bbb     N4 1439   1.182   7.701   6.568  0.0229 -0.6706 -0.4583
   57bbb    H21 1440   1.198   7.749   6.480 -2.2615 -0.2146 -0.6961
   58bbb     C1 1441   0.050   6.535   7.072  0.4244 -0.4426  0.2440
   58bbb     H1 1442   0.103   6.631   7.084 -2.0675  1.1957 -1.0424
   58bbb     H2 1443  -0.031   6.535   7.145  1.3718 -0.1584  1.3284
   58bbb     C2 1444   0.144   6.419   7.115 -0.5196  0.6554 -0.4692
   58bbb     H3 1445   0.098   6.321   7.098  0.8646  0.2177 -1.9023
   58bbb     H4 1446   0.225   6.420   7.041  2.0088 -0.8311  2.1083
   58bbb     N1 1447   0.014   6.520   6.931 -0.6763 -0.2622 -0.3132
   58bbb     C3 1448   0.122   6.554   6.843  0.0307 -0.1972  1.4841
   58bbb     H5 1449   0.215   6.563   6.901  1.4249  0.2890 -0.6909
   58bbb     H6 1450   0.119   6.651   6.791 -2.4066 -0.9184  0.1125
   58bbb     C4 1451  -0.105   6.593   6.894 -0.4587  0.5361  0.3009
   58bbb     H7 1452  -0.098   6.695   6.931 -0.1291  0.4200  0.5634
   58bbb     H8 1453  -0.120   6.602   6.786 -0.5124  2.5120  0.4506
   58bbb     C5 1454  -0.227   6.527   6.960  0.4352  0.1584  0.1196
   58bbb     H9 1455  -0.218   6.516   7.068  0.0361 -0.5524  0.0874
   58bbb    H10 1456  -0.297   6.609   6.942  1.6783  0.9981 -1.1970
   58bbb     C6 1457   0.131   6.438   6.748 -0.5844  0.1499 -0.6962
   58bbb    H11 1458   0.174   6.355   6.804  0.1082  0.1695 -1.1901
   58bbb    H12 1459   0.031   6.412   6.710 -1.6513  0.9526  1.4582
   58bbb     C7 1460  -0.264   6.400   6.887 -0.5367 -0.3459 -0.4330
   58bbb     C8 1461   0.214   6.482   6.632  0.5649 -0.6332  0.3502
   58bbb     O1 1462  -0.365   6.393   6.828  0.0690 -0.4233 -0.4424
   58bbb     O2 1463   0.165   6.543   6.535  0.1496  0.3669 -0.3466
   58bbb     N4 1464   0.205   6.436   7.248  0.2658  0.3367 -0.0279
   58bbb    H21 1465   0.173   6.515   7.304 -4.4819 -0.6541 -0.8987
   59bbb     C1 1466   1.115   6.056   7.545 -0.2810 -0.4092  0.1599
   59bbb     H1 1467   1.056   5.964   7.551  0.2042 -0.6482  1.3556
   59bbb     H2 1468   1.146   6.096   7.642  1.0167 -3.4305  1.0883
   59bbb     C2 1469   1.039   6.174   7.486  0.4088  0.0908 -0.2466
   59bbb     H3 1470   1.117   6.248   7.464  0.1538 -0.0438 -1.6527
   59bbb     H4 1471   1.000   6.131   7.393  1.1992  2.4459 -1.7481
   59bbb     N1 1472   1.236   6.036   7.459 -0.6306 -0.5355 -0.3343
   59bbb     C3 1473   1.220   5.941   7.351 -0.0973 -0.3229  0.1621
   59bbb     H5 1474   1.126   5.977   7.306 -0.4554  0.8212  1.7102
   59bbb     H6 1475   1.210   5.839   7.390  1.1166 -0.4203  0.2513
   59bbb     C4 1476   1.346   5.994   7.539  0.0502  0.0496 -0.3829
   59bbb     H7 1477   1.314   5.930   7.622  2.3721 -2.2860 -1.1606
   59bbb     H8 1478   1.412   5.926   7.484 -1.4164  0.1082 -2.3076
   59bbb     C5 1479   1.417   6.120   7.585 -0.5182  0.5101 -0.4744
   59bbb     H9 1480   1.460   6.178   7.502  0.8182  0.2486  0.0034
   59bbb    H10 1481   1.348   6.191   7.632 -0.1528  0.3960  0.2495
   59bbb     C6 1482   1.327   5.954   7.244  0.4580 -0.0793  0.7500
   59bbb    H11 1483   1.352   6.060   7.231  1.0701  0.0765  2.8170
   59bbb    H12 1484   1.416   5.897   7.274 -0.1259 -1.6928 -0.4291
   59bbb     C7 1485   1.534   6.076   7.677 -0.0426 -0.7719 -0.0119
   59bbb     C8 1486   1.286   5.916   7.110 -0.1414  0.4606  0.3635
   59bbb     O1 1487   1.605   5.985   7.644 -0.6134 -0.0195  0.3016
   59bbb     O2 1488   1.223   5.988   7.032  0.3721  0.2685 -0.0587
   59bbb     N4 1489   0.924   6.229   7.575  0.1953  0.1898 -0.2161
   59bbb    H21 1490   0.888   6.159   7.638 -1.2082  0.6336 -0.5022
   60bbb     C1 1491  -0.553   7.681   7.897 -0.6123  0.5623 -1.1608
   60bbb     H1 1492  -0.569   7.686   8.005 -1.9010  0.8010 -1.3521
   60bbb     H2 1493  -0.545   7.785   7.864 -1.6421  1.1437  0.3460
   60bbb     C2 1494  -0.688   7.620   7.856  0.3950  0.4432  0.3641
   60bbb     H3 1495  -0.762   7.681   7.910  0.4322  1.5614 -0.7986
   60bbb     H4 1496  -0.720   7.639   7.753  1.0055  2.4434  0.5110
   60bbb     N1 1497  -0.437   7.593   7.863  0.3145 -0.7515 -0.5194
   60bbb     C3 1498  -0.436   7.587   7.717  0.0950 -0.2841 -0.4463
   60bbb     H5 1499  -0.392   7.682   7.685  0.8645 -0.1634  0.8847
   60bbb     H6 1500  -0.534   7.563   7.675  1.0125 -0.9301 -2.3541
   60bbb     C4 1501  -0.309   7.645   7.921  0.2588 -0.8420  0.2179
   60bbb     H7 1502  -0.220   7.585   7.902  1.7143  1.6203 -1.3600
   60bbb     H8 1503  -0.292   7.741   7.870  1.0918 -0.8077  0.5506
   60bbb     C5 1504  -0.326   7.674   8.068  0.5740  0.6408 -0.8002
   60bbb     H9 1505  -0.376   7.768   8.092 -2.5282 -0.9905 -0.3201
   60bbb    H10 1506  -0.386   7.595   8.116  1.4923  0.5847  0.3084
   60bbb     C6 1507  -0.342   7.469   7.685 -0.1842 -0.2800  0.0609
   60bbb    H11 1508  -0.256   7.469   7.753 -0.5543  1.9681  0.5869
   60bbb    H12 1509  -0.399   7.376   7.702 -0.1174 -0.8339 -2.3934
   60bbb     C7 1510  -0.198   7.672   8.134 -0.4094 -0.2746  0.1241
   60bbb     C8 1511  -0.296   7.481   7.546  0.1060  0.1604  0.3532
   60bbb     O1 1512  -0.139   7.775   8.154 -0.7657 -0.3791  0.4499
   60bbb     O2 1513  -0.183   7.486   7.507 -0.1802 -0.0013 -0.3260
   60bbb     N4 1514  -0.700   7.475   7.879 -0.5942  0.7424 -0.8257
   60bbb    H21 1515  -0.609   7.435   7.902 -1.2748  0.7237  2.2368
   61bbb     C1 1516  -0.371   7.380   8.752  0.1308 -0.4643  0.4927
   61bbb     H1 1517  -0.469   7.337   8.779 -0.5365  0.0122 -1.0807
   61bbb     H2 1518  -0.343   7.447   8.834 -2.6564  0.0300  1.1483
   61bbb     C2 1519  -0.386   7.478   8.630 -0.1355 -0.3066 -0.7287
   61bbb     H3 1520  -0.449   7.558   8.670 -1.4581 -2.2116  1.1872
   61bbb     H4 1521  -0.291   7.526   8.605 -0.1486  0.8687  1.3044
   61bbb     N1 1522  -0.267   7.286   8.724 -0.1131  0.1110 -0.1968
   61bbb     C3 1523  -0.218   7.235   8.853 -0.6767  0.1035 -0.0346
   61bbb     H5 1524  -0.298   7.173   8.896 -0.0155 -2.6096 -2.4234
   61bbb     H6 1525  -0.188   7.310   8.927  1.9993 -0.7010 -0.1934
   61bbb     C4 1526  -0.302   7.186   8.632  0.1311 -0.5940 -0.0880
   61bbb     H7 1527  -0.312   7.079   8.656 -1.7646 -0.3885  0.2131
   61bbb     H8 1528  -0.396   7.200   8.578 -1.0157 -2.1545  1.3762
   61bbb     C5 1529  -0.199   7.187   8.532  0.6794 -0.0714 -0.1022
   61bbb     H9 1530  -0.209   7.282   8.479  0.9715  0.3847  0.6450
   61bbb    H10 1531  -0.101   7.182   8.580  1.0165  1.1473 -0.6305
   61bbb     C6 1532  -0.093   7.144   8.841  0.3385 -0.2144  0.4985
   61bbb    H11 1533  -0.114   7.055   8.781  0.2497 -1.0059  1.6789
   61bbb    H12 1534  -0.009   7.194   8.790  0.5654 -0.0398  1.0325
   61bbb     C7 1535  -0.220   7.089   8.425 -0.3136  0.0384  0.3315
   61bbb     C8 1536  -0.034   7.107   8.973  0.2111  0.2707  0.4437
   61bbb     O1 1537  -0.335   7.062   8.386 -0.7182  0.0302 -0.0871
   61bbb     O2 1538  -0.049   7.170   9.079  0.4359 -0.2058 -0.1294
   61bbb     N4 1539  -0.464   7.434   8.512 -0.0668 -0.5613 -0.1471
   61bbb    H21 1540  -0.508   7.343   8.510 -1.6501  0.0561  2.2614
   62ccc     N1 1541   0.011   5.109   8.608  0.5790 -0.4159 -0.1784
   62ccc     H4 1542  -0.072   5.103   8.551 -0.2998 -1.0215  1.1381
   62ccc     C3 1543   0.007   5.200   8.727  0.6056 -0.1757  0.3206
   62ccc     H5 1544   0.104   5.205   8.778  0.7492  1.0268 -0.0378
   62ccc     C4 1545  -0.105   5.182   8.830  0.0439  0.4487 -0.0031
   62ccc     H6 1546   0.003   5.305   8.697  0.9404  0.5668  2.6952
   62ccc     H7 1547  -0.096   5.260   8.907 -3.0517 -1.0497  2.0842
   62ccc     H8 1548  -0.093   5.088   8.884 -1.8262 -0.2934 -0.8069
   62ccc     N2 1549  -0.243   5.178   8.773 -0.5267  0.0179 -0.0208
   62ccc     C5 1550  -0.334   5.137   8.872 -0.1099 -0.5734  0.0151
   62ccc     C6 1551  -0.276   5.289   8.698 -0.5850  0.5100  0.0412
   62ccc     H9 1552  -0.292   5.377   8.762 -1.1878  1.5816 -1.5334
   62ccc     C7 1553  -0.394   5.268   8.601 -0.5870  1.2896 -0.6244
   62ccc    H10 1554  -0.201   5.314   8.622 -1.1522 -1.1133 -1.1245
   62ccc    H11 1555  -0.486   5.233   8.650  1.3528 -0.2365  2.1435
   62ccc    H12 1556  -0.353   5.189   8.537  1.9331  0.7764  1.4725
   62ccc     C8 1557  -0.420   5.383   8.516 -0.3353 -0.3971 -0.6930
   62ccc     O2 1558  -0.405   5.503   8.548  0.4428  0.3524  0.6354
   62ccc    H13 1559  -0.433   5.144   8.825  0.1212  1.5891 -0.2696
   62ccc    H14 1560  -0.328   5.217   8.948  0.4262 -0.4866 -0.1130
   62ccc     C9 1561  -0.321   4.994   8.931 -0.0416  0.0358  0.5826
   62ccc    H15 1562  -0.245   4.988   9.009  0.1042 -4.6380  0.3893
   62ccc    H16 1563  -0.301   4.917   8.855 -0.3002 -1.1616  1.6946
   62ccc    C10 1564  -0.462   4.963   8.985  0.3723  0.1455 -0.1881
   62ccc     O4 1565  -0.543   4.908   8.916  0.0711  0.0251  0.4133
   62ccc    C11 1566  -0.472   5.519   7.996 -0.2495  0.4355 -0.2311
   62ccc    C12 1567  -0.595   5.452   8.042  0.5496 -0.8175 -0.1607
   62ccc    H17 1568  -0.396   5.449   7.959 -0.3080  0.1604  0.1702
   62ccc    C13 1569  -0.579   5.363   8.172  0.8139  0.4801  0.6662
   62ccc    C14 1570  -0.498   5.434   8.278  0.1281  0.5187  0.6061
   62ccc    C15 1571  -0.370   5.498   8.213 -0.3851  0.0628  0.4652
   62ccc    H18 1572  -0.554   5.519   8.318 -2.5342 -1.1669  0.7118
   62ccc    H19 1573  -0.526   5.273   8.139  0.0826  0.5622 -0.8183
   62ccc    H20 1574  -0.297   5.424   8.178  0.2900  1.0060 -0.1901
   62ccc     O1 1575  -0.299   5.576   8.306  0.1376  0.3286 -0.0481
   62ccc     O6 1576  -0.708   5.326   8.226  0.3924 -0.3269  0.4156
   62ccc    C16 1577  -0.494   5.624   7.878  0.3412 -0.2258  0.3294
   62ccc    H21 1578  -0.693   5.245   8.277  1.6341  0.5954  1.6155
   62ccc    H22 1579  -0.460   5.247   8.374 -3.2128  0.2480  0.8222
   62ccc    H23 1580  -0.527   5.575   7.786  0.0842  4.2809 -2.2621
   62ccc    H24 1581  -0.398   5.669   7.851 -0.9245  2.8238  0.5144
   62ccc     O7 1582  -0.590   5.719   7.923  0.0939 -0.0412 -0.2674
   62ccc    H25 1583  -0.544   5.770   7.992  2.4946 -3.4953  0.9803
   62ccc     O8 1584  -0.409   5.585   8.105  0.0182 -1.0164  0.4020
   62ccc    H26 1585  -0.346   5.553   8.388  0.8185 -2.6526 -0.3829
   62ccc    H27 1586  -0.662   5.522   8.093  1.1289 -1.8044  2.0654
   62ccc     O9 1587  -0.653   5.365   7.946  0.3488  0.1796  0.3523
   62ccc    H28 1588  -0.661   5.285   8.000  1.5343  0.2201  0.6354
   62ccc     N3 1589  -0.460   5.347   8.394  0.3292  0.5224 -0.0023
   62ccc    C17 1590  -0.842   5.147   9.321  0.0286 -0.0544 -0.3880
   62ccc    C18 1591  -0.868   5.094   9.174  0.4758  0.0989  0.2815
   62ccc    H29 1592  -0.798   5.248   9.314  1.0602 -0.4326  0.4449
   62ccc    C19 1593  -0.732   5.088   9.095 -0.1687  0.4622  0.5088
   62ccc    C20 1594  -0.629   4.998   9.172 -1.4867  0.4676  0.1699
   62ccc    C21 1595  -0.624   5.046   9.321  0.0095 -0.4681  0.5400
   62ccc    H30 1596  -0.653   4.891   9.171 -2.5512  0.6925 -0.7594
   62ccc    H31 1597  -0.689   5.187   9.076 -0.1125  0.2410 -0.5777
   62ccc    H32 1598  -0.570   5.141   9.318  1.4308 -1.2638 -2.0816
   62ccc    O10 1599  -0.561   4.951   9.406  0.0291 -0.2005 -0.3954
   62ccc    O11 1600  -0.761   5.024   8.968  0.1733 -0.6888  0.3435
   62ccc    C22 1601  -0.969   5.166   9.403  0.6108  0.5165 -0.2077
   62ccc    H33 1602  -0.674   4.994   8.937  1.7651  1.9017  1.9063
   62ccc    H34 1603  -0.425   5.070   9.157 -1.4387  2.4316 -0.6084
   62ccc    H35 1604  -1.008   5.068   9.432 -1.6966  1.6471  0.8033
   62ccc    H36 1605  -1.044   5.221   9.344  0.5747  1.2539  0.5117
   62ccc    O12 1606  -0.936   5.245   9.518 -0.2045 -0.0364 -0.2950
   62ccc    H37 1607  -0.854   5.203   9.548  0.7073  1.0460 -1.1462
   62ccc    O13 1608  -0.755   5.052   9.379  0.8256 -0.0042  0.3095
   62ccc    H38 1609  -0.617   4.871   9.404  1.2464 -1.0715 -1.4883
   62ccc    H39 1610  -0.909   4.994   9.193 -0.1509  0.6735  2.1853
   62ccc     O5 1611  -0.975   5.179   9.114 -0.1862 -0.4412 -0.0402
   62ccc    H40 1612  -1.007   5.130   9.036 -1.6887  2.3992 -1.3665
   62ccc     N4 1613  -0.491   5.010   9.108  0.7088 -0.2609 -0.4367
   63ccc     N1 1614   0.428   5.045   7.883  0.0937 -0.6287 -0.1311
   63ccc     H4 1615   0.473   5.015   7.968 -0.7121 -0.6879  0.2854
   63ccc     C3 1616   0.506   5.143   7.796  0.3759  0.5771  0.2274
   63ccc     H5 1617   0.583   5.090   7.737 -1.5353  1.2470 -3.1696
   63ccc     C4 1618   0.571   5.252   7.880  0.9523 -0.1978 -0.0561
   63ccc     H6 1619   0.437   5.183   7.720 -1.5280 -0.6990  1.1954
   63ccc     H7 1620   0.634   5.207   7.958  0.2090  0.1420  0.7466
   63ccc     H8 1621   0.492   5.300   7.937  1.2544 -0.6954  0.7999
   63ccc     N2 1622   0.649   5.349   7.803 -0.2836 -0.0330 -0.3829
   63ccc     C5 1623   0.675   5.469   7.878 -0.3670  0.1271  0.5692
   63ccc     C6 1624   0.766   5.299   7.723 -0.6467 -0.4845  0.4686
   63ccc     H9 1625   0.721   5.216   7.666 -0.2697 -0.7254  0.5186
   63ccc     C7 1626   0.881   5.247   7.806 -0.3470 -0.0673  0.2620
   63ccc    H10 1627   0.803   5.376   7.654 -0.1124 -0.0524  1.2190
   63ccc    H11 1628   0.849   5.160   7.864 -1.4585 -1.5614 -2.4307
   63ccc    H12 1629   0.915   5.322   7.880  1.8666 -1.9778  1.3205
   63ccc     C8 1630   1.000   5.198   7.723  0.7155 -0.0526 -0.0280
   63ccc     O2 1631   0.982   5.160   7.608  0.4376  0.4574 -0.4721
   63ccc    H13 1632   0.761   5.455   7.945  0.6128 -0.7499 -0.8240
   63ccc    H14 1633   0.592   5.501   7.943  0.4779  1.0974  1.1920
   63ccc     C9 1634   0.711   5.586   7.787 -0.1513 -0.2342  0.6827
   63ccc    H15 1635   0.637   5.574   7.706  0.0024  0.4534  0.4377
   63ccc    H16 1636   0.813   5.577   7.747 -0.9051  1.1406 -1.7461
   63ccc    C10 1637   0.689   5.712   7.860  0.6435 -0.8408  0.7209
   63ccc     O4 1638   0.580   5.768   7.865  0.1565  0.2346  0.2773
   63ccc    C11 1639   1.409   5.099   7.477 -0.8508  0.0906  0.8631
   63ccc    C12 1640   1.413   5.245   7.529  0.1781  0.4041 -0.2426
   63ccc    H17 1641   1.342   5.100   7.390  0.1465  3.6827 -0.0231
   63ccc    C13 1642   1.296   5.272   7.623  0.6165 -0.9676 -0.0921
   63ccc    C14 1643   1.255   5.163   7.726 -0.3481 -0.0021  0.8394
   63ccc    C15 1644   1.249   5.025   7.646 -0.1690  0.3147  0.0709
   63ccc    H18 1645   1.334   5.163   7.803 -0.0767  1.4622  0.5771
   63ccc    H19 1646   1.212   5.279   7.553  1.0844 -0.6558 -0.6260
   63ccc    H20 1647   1.170   5.022   7.571 -0.7451 -0.5212  0.6907
   63ccc     O1 1648   1.235   4.922   7.740 -0.4567 -0.3144 -0.5561
   63ccc     O6 1649   1.334   5.396   7.684  0.4585  0.3225 -0.3036
   63ccc    C16 1650   1.540   5.049   7.404  0.3428 -0.4029  0.1169
   63ccc    H21 1651   1.309   5.393   7.778  1.2907 -2.4405 -0.1006
   63ccc    H22 1652   1.131   5.222   7.881  1.6981 -0.4495  0.2657
   63ccc    H23 1653   1.548   5.108   7.312 -0.0501 -1.7065 -0.7956
   63ccc    H24 1654   1.521   4.943   7.383 -0.1085 -0.3169  0.0748
   63ccc     O7 1655   1.660   5.068   7.474 -0.4115  0.0236  0.0878
   63ccc    H25 1656   1.730   5.088   7.410  0.2003 -0.6274  0.5324
   63ccc     O8 1657   1.373   5.005   7.579 -0.3533 -0.0078  0.2677
   63ccc    H26 1658   1.145   4.939   7.773 -0.0544  1.0984 -0.0870
   63ccc    H27 1659   1.508   5.260   7.582  0.7255  0.6910 -1.2690
   63ccc     O9 1660   1.397   5.332   7.418  0.3493  0.3624  0.0731
   63ccc    H28 1661   1.466   5.400   7.427  0.4449  0.2408  0.2700
   63ccc     N3 1662   1.122   5.204   7.781  0.1831  0.8645  0.1199
   63ccc    C17 1663   0.716   6.184   7.986 -0.6182 -0.4089  0.0994
   63ccc    C18 1664   0.730   6.093   8.112  0.2344 -0.1779 -0.4270
   63ccc    H29 1665   0.611   6.175   7.954 -1.1372  0.1140  1.5614
   63ccc    C19 1666   0.723   5.942   8.077  0.8571  0.6186 -0.4691
   63ccc    C20 1667   0.818   5.908   7.960  0.2810  0.5482  0.4334
   63ccc    C21 1668   0.802   5.999   7.836  0.6395  0.0674 -0.4665
   63ccc    H30 1669   0.922   5.906   7.993  0.1914 -0.3859  0.6982
   63ccc    H31 1670   0.623   5.904   8.052  0.9514 -0.6726  0.9205
   63ccc    H32 1671   0.701   5.991   7.794 -0.6836  2.1135  2.0346
   63ccc    O10 1672   0.910   5.978   7.750 -0.2133 -0.1123  0.0243
   63ccc    O11 1673   0.768   5.867   8.190 -0.7584 -0.2404 -0.6869
   63ccc    C22 1674   0.725   6.335   8.013  0.6006 -0.2903  0.0711
   63ccc    H33 1675   0.856   5.898   8.217 -0.7668 -1.3931  0.8377
   63ccc    H34 1676   0.887   5.728   7.879  0.0937  0.8637 -0.8743
   63ccc    H35 1677   0.641   6.363   8.077  0.7764  0.1583  0.1069
   63ccc    H36 1678   0.723   6.380   7.913 -0.9262  0.4154  0.4055
   63ccc    O12 1679   0.849   6.355   8.082  0.3028  0.9348 -0.2747
   63ccc    H37 1680   0.838   6.422   8.152 -0.1156 -0.4902  1.0700
   63ccc    O13 1681   0.806   6.136   7.880  0.1278  0.4514  0.0413
   63ccc    H38 1682   0.900   5.886   7.719  0.0853  0.8385 -3.1851
   63ccc    H39 1683   0.832   6.112   8.147 -0.0033  1.1121 -0.3703
   63ccc     O5 1684   0.638   6.127   8.213  0.4650 -0.0047  0.0212
   63ccc    H40 1685   0.549   6.113   8.178 -0.2973 -0.1670  1.8793
   63ccc     N4 1686   0.800   5.767   7.917 -0.0969  0.0296 -0.4385
   64ccc     N1 1687  -1.187   5.159   6.897 -0.1097  0.3057 -0.2210
   64ccc     H4 1688  -1.221   5.234   6.956  3.1585  0.6468  1.4493
   64ccc     C3 1689  -1.161   5.187   6.749  1.0122 -0.4846  0.1948
   64ccc     H5 1690  -1.053   5.188   6.730  0.7083 -0.1355 -1.6178
   64ccc     C4 1691  -1.224   5.316   6.697 -0.6280 -0.3491  0.1205
   64ccc     H6 1692  -1.209   5.104   6.696 -1.1487  0.8514 -0.0815
   64ccc     H7 1693  -1.195   5.317   6.591 -2.2202 -2.1104 -0.3914
   64ccc     H8 1694  -1.181   5.402   6.750  0.6006  1.0778 -2.9132
   64ccc     N2 1695  -1.372   5.325   6.702  0.1616  0.1181 -0.1730
   64ccc     C5 1696  -1.421   5.365   6.834 -0.3767  0.1512  0.0901
   64ccc     C6 1697  -1.441   5.405   6.605  0.1202 -0.2751  0.4736
   64ccc     H9 1698  -1.546   5.421   6.633 -0.0476  0.7289 -0.6445
   64ccc     C7 1699  -1.440   5.323   6.476  0.2947 -0.2733  0.1667
   64ccc    H10 1700  -1.387   5.499   6.590 -1.4417  0.3266 -1.9390
   64ccc    H11 1701  -1.473   5.220   6.495  0.4159 -0.1320  1.2076
   64ccc    H12 1702  -1.337   5.316   6.439  0.3781 -1.0668  0.5125
   64ccc     C8 1703  -1.524   5.380   6.370 -0.3510  0.3259  0.1770
   64ccc     O2 1704  -1.591   5.483   6.376  0.2263  0.0872  0.4179
   64ccc    H13 1705  -1.372   5.461   6.856 -0.4993  0.0884  0.6642
   64ccc    H14 1706  -1.385   5.286   6.901  0.2768  0.7239  0.4188
   64ccc     C9 1707  -1.573   5.368   6.859  0.1264  0.2521 -0.2170
   64ccc    H15 1708  -1.617   5.276   6.818  3.1706 -0.5552 -2.0480
   64ccc    H16 1709  -1.613   5.455   6.805  2.7621  0.9731 -1.1622
   64ccc    C10 1710  -1.588   5.397   7.004  0.3157  0.9012  0.2155
   64ccc     O4 1711  -1.602   5.506   7.052  0.3338 -0.7181 -0.4916
   64ccc    C11 1712  -1.866   5.176   6.004  0.0569  0.2007  0.2657
   64ccc    C12 1713  -1.897   5.269   6.127  0.6217 -0.2721  0.3001
   64ccc    H17 1714  -1.867   5.069   6.027  1.8842  0.4253  1.6262
   64ccc    C13 1715  -1.784   5.262   6.229  0.0469 -0.2916  0.2226
   64ccc    C14 1716  -1.647   5.298   6.165 -0.5358 -0.4171 -0.1858
   64ccc    C15 1717  -1.631   5.198   6.046  0.6529  0.0916  0.5247
   64ccc    H18 1718  -1.657   5.399   6.123 -0.8659 -0.6279 -0.6164
   64ccc    H19 1719  -1.784   5.156   6.259  1.0987 -0.6778 -0.9894
   64ccc    H20 1720  -1.623   5.095   6.083 -1.7409 -1.1392 -2.0444
   64ccc     O1 1721  -1.517   5.244   5.964 -0.1811 -0.2594  0.2214
   64ccc     O6 1722  -1.820   5.353   6.339 -0.0460  0.4167  0.2198
   64ccc    C16 1723  -1.973   5.197   5.894  0.0711  0.0959  0.0199
   64ccc    H21 1724  -1.740   5.404   6.356 -0.7655  1.7320 -0.2014
   64ccc    H22 1725  -1.486   5.207   6.265  0.5099  0.6509 -1.5446
   64ccc    H23 1726  -2.060   5.132   5.908 -0.1734  0.7258  1.6942
   64ccc    H24 1727  -1.930   5.168   5.797  0.2805  0.0038  0.1408
   64ccc     O7 1728  -2.015   5.331   5.871  0.0613  0.4964 -0.5093
   64ccc    H25 1729  -1.951   5.367   5.807  0.9151  2.3865  1.2704
   64ccc     O8 1730  -1.740   5.215   5.949 -0.1751  0.3238 -0.3356
   64ccc    H26 1731  -1.561   5.299   5.897 -0.4483 -0.3756  0.3024
   64ccc    H27 1732  -1.916   5.368   6.084 -0.9377 -1.2019 -1.2942
   64ccc     O9 1733  -2.020   5.219   6.190  0.1133  0.6753 -0.1256
   64ccc    H28 1734  -2.042   5.281   6.262 -2.2844  0.2166 -0.3665
   64ccc     N3 1735  -1.531   5.299   6.265  0.2050  0.5155 -0.5088
   64ccc    C17 1736  -1.767   5.192   7.474  0.2556  0.2831 -0.0524
   64ccc    C18 1737  -1.623   5.142   7.434  0.4659 -0.4309  0.4460
   64ccc    H29 1738  -1.840   5.133   7.418  0.1571  1.6445 -1.4029
   64ccc    C19 1739  -1.596   5.154   7.282 -0.0754 -0.0694  0.1639
   64ccc    C20 1740  -1.628   5.291   7.233  0.0026 -0.2841 -0.2347
   64ccc    C21 1741  -1.766   5.347   7.289  0.1066 -0.0080  0.8763
   64ccc    H30 1742  -1.557   5.369   7.266 -1.2398  1.3933 -1.3417
   64ccc    H31 1743  -1.652   5.074   7.232  0.3506  0.3468 -1.0186
   64ccc    H32 1744  -1.844   5.290   7.237 -2.2597  4.3868 -0.8911
   64ccc    O10 1745  -1.770   5.486   7.264  0.7703 -0.0915  0.5159
   64ccc    O11 1746  -1.454   5.134   7.259 -0.7594 -0.0534 -0.1099
   64ccc    C22 1747  -1.785   5.183   7.626 -0.2698 -0.5912  0.4525
   64ccc    H33 1748  -1.434   5.143   7.164 -1.5087  2.4933 -0.1169
   64ccc    H34 1749  -1.601   5.199   7.038  0.1270 -0.2509  0.4764
   64ccc    H35 1750  -1.703   5.241   7.671 -1.1989  1.0893  0.0665
   64ccc    H36 1751  -1.772   5.080   7.662 -0.1659 -0.9548 -0.6125
   64ccc    O12 1752  -1.908   5.238   7.665  0.0246  0.0221  0.1127
   64ccc    H37 1753  -1.909   5.331   7.634  1.7584  0.6991  1.8864
   64ccc    O13 1754  -1.777   5.326   7.431 -0.4346 -0.4909  0.1099
   64ccc    H38 1755  -1.728   5.492   7.176  0.0363  1.8571  0.2563
   64ccc    H39 1756  -1.550   5.213   7.475  1.4957 -0.5629 -1.0911
   64ccc     O5 1757  -1.601   5.007   7.480 -0.3170  0.0208  0.1205
   64ccc    H40 1758  -1.505   4.996   7.477 -0.1387  1.6185 -1.4105
   64ccc     N4 1759  -1.614   5.291   7.081 -0.3811  0.1723 -0.5517
   65ccc     N1 1760  -1.219   4.810   7.685  0.3755 -0.4059  0.3967
   65ccc     H4 1761  -1.122   4.798   7.710  0.2391  0.2171  1.2636
   65ccc     C3 1762  -1.343   4.740   7.745  0.1836 -0.2864  0.0014
   65ccc     H5 1763  -1.418   4.698   7.678 -0.2945 -2.2855  1.6896
   65ccc     C4 1764  -1.410   4.835   7.851  0.1577 -0.0246 -0.7473
   65ccc     H6 1765  -1.310   4.645   7.790 -0.2836  0.0509  1.1011
   65ccc     H7 1766  -1.449   4.924   7.800 -2.1914 -0.7056 -0.2312
   65ccc     H8 1767  -1.334   4.865   7.924 -0.9505  0.0100  0.4110
   65ccc     N2 1768  -1.528   4.775   7.914  0.5668  0.3366 -0.1010
   65ccc     C5 1769  -1.568   4.858   8.028  0.2345 -0.1580  0.4210
   65ccc     C6 1770  -1.646   4.783   7.820 -0.0070  0.0188 -0.6287
   65ccc     H9 1771  -1.670   4.889   7.805  0.5412  0.3936  0.9663
   65ccc     C7 1772  -1.763   4.701   7.866  0.1782 -0.5343  0.1541
   65ccc    H10 1773  -1.620   4.745   7.721  0.0963 -0.6448 -0.3562
   65ccc    H11 1774  -1.805   4.735   7.962  2.9327 -0.8706  1.5769
   65ccc    H12 1775  -1.733   4.597   7.886 -0.5447 -0.4726  1.7312
   65ccc     C8 1776  -1.872   4.709   7.765 -0.5724 -0.3092  0.8106
   65ccc     O2 1777  -1.968   4.775   7.773  0.5342  0.1762  0.3172
   65ccc    H13 1778  -1.647   4.804   8.083  0.5964 -2.1713 -0.9288
   65ccc    H14 1779  -1.606   4.954   7.992  0.8117 -0.0864 -0.0007
   65ccc     C9 1780  -1.467   4.873   8.139 -0.0470 -0.4873 -0.3909
   65ccc    H15 1781  -1.384   4.937   8.107  0.0333  0.1072  0.9266
   65ccc    H16 1782  -1.426   4.777   8.171 -1.1467 -1.8664 -2.8258
   65ccc    C10 1783  -1.529   4.945   8.258 -0.5518  0.2250  0.6279
   65ccc     O4 1784  -1.643   4.980   8.270 -0.1430 -0.3799  0.1353
   65ccc    C11 1785  -2.156   4.734   7.367 -0.2798  0.0902  0.0328
   65ccc    C12 1786  -2.014   4.808   7.343  0.0307  0.0907 -0.7002
   65ccc    H17 1787  -2.195   4.803   7.443  1.3694  0.1564  0.8599
   65ccc    C13 1788  -1.913   4.775   7.458 -0.1061 -0.1811 -0.0850
   65ccc    C14 1789  -1.923   4.636   7.527  0.2189 -0.1253 -0.0309
   65ccc    C15 1790  -2.073   4.589   7.548 -0.0517  0.1312 -0.3770
   65ccc    H18 1791  -1.876   4.555   7.471 -0.5303 -2.5129  2.5417
   65ccc    H19 1792  -1.938   4.848   7.536 -2.1979 -0.6572 -0.2590
   65ccc    H20 1793  -2.120   4.637   7.634  0.1020 -0.4661  0.0467
   65ccc     O1 1794  -2.086   4.450   7.558 -0.5943 -0.6188  0.4121
   65ccc     O6 1795  -1.770   4.791   7.411 -0.0122 -0.3410  0.0204
   65ccc    C16 1796  -2.256   4.738   7.250 -0.2277  0.5251  0.2840
   65ccc    H21 1797  -1.750   4.886   7.415 -4.0326  0.7549 -0.8907
   65ccc    H22 1798  -1.765   4.579   7.645  0.7365  0.5895 -1.7709
   65ccc    H23 1799  -2.259   4.839   7.207  2.5972 -0.1642 -1.8879
   65ccc    H24 1800  -2.353   4.710   7.293 -0.9397  1.3983 -0.6933
   65ccc     O7 1801  -2.206   4.651   7.146  0.0980  0.3810 -0.9551
   65ccc    H25 1802  -2.179   4.568   7.189 -0.8246  2.0192  3.2649
   65ccc     O8 1803  -2.144   4.600   7.422 -0.1735 -0.5716 -0.5197
   65ccc    H26 1804  -2.036   4.408   7.486 -1.3485 -2.4693  0.9021
   65ccc    H27 1805  -1.976   4.777   7.245  2.2241  0.7685 -0.1291
   65ccc     O9 1806  -2.043   4.952   7.347 -0.3549 -0.3579  0.0002
   65ccc    H28 1807  -2.012   4.994   7.265 -2.1162  2.4585  0.6560
   65ccc     N3 1808  -1.846   4.639   7.657  0.0652 -0.5691 -0.2394
   65ccc    C17 1809  -1.391   5.215   8.716  0.1069 -0.5843  0.4168
   65ccc    C18 1810  -1.493   5.262   8.601  0.0777 -0.4353  0.4794
   65ccc    H29 1811  -1.289   5.249   8.693  0.3727 -0.6942  1.3977
   65ccc    C19 1812  -1.488   5.176   8.468  0.2688  0.1782 -0.1714
   65ccc    C20 1813  -1.468   5.030   8.487 -0.6140  0.6556  0.5458
   65ccc    C21 1814  -1.352   5.009   8.591 -0.0740 -0.7736 -0.4795
   65ccc    H30 1815  -1.565   5.001   8.531 -0.8253  0.3895 -0.0769
   65ccc    H31 1816  -1.408   5.225   8.411 -0.9301  1.2149 -1.0575
   65ccc    H32 1817  -1.261   5.057   8.553 -1.0171  0.0718 -1.7636
   65ccc    O10 1818  -1.329   4.874   8.633  0.3889 -0.6769  0.6239
   65ccc    O11 1819  -1.607   5.214   8.392  0.1575 -0.0415 -0.1639
   65ccc    C22 1820  -1.437   5.271   8.856 -0.1601  0.4484  0.6230
   65ccc    H33 1821  -1.595   5.177   8.303  0.6025 -0.9931  0.2760
   65ccc    H34 1822  -1.342   4.972   8.337 -0.3129  0.8956 -2.6761
   65ccc    H35 1823  -1.524   5.212   8.887  0.1225 -0.4627 -0.2837
   65ccc    H36 1824  -1.453   5.379   8.846  1.3742  0.5783 -0.8107
   65ccc    O12 1825  -1.333   5.257   8.943 -0.0123  0.7557 -0.5534
   65ccc    H37 1826  -1.360   5.294   9.029  1.1550 -1.4812  0.8557
   65ccc    O13 1827  -1.400   5.066   8.720 -0.7342 -0.9401  0.4548
   65ccc    H38 1828  -1.312   4.886   8.728 -0.8876  1.8288  0.6375
   65ccc    H39 1829  -1.591   5.256   8.650 -0.2678 -1.8384 -0.3332
   65ccc     O5 1830  -1.476   5.406   8.569  0.2974  0.5809 -0.3221
   65ccc    H40 1831  -1.512   5.439   8.485 -1.7998  0.8353  0.6219
   65ccc     N4 1832  -1.441   4.966   8.358  0.2773 -0.5771  0.2039
   66ccc     N1 1833   1.106   5.735   8.325 -0.3439  0.3805 -0.4217
   66ccc     H4 1834   1.190   5.686   8.353 -0.6658  0.9962  1.7776
   66ccc     C3 1835   0.975   5.690   8.370 -0.3293 -0.0697 -0.1600
   66ccc     H5 1836   0.976   5.647   8.471 -2.2749  0.1922  0.0128
   66ccc     C4 1837   0.903   5.595   8.264 -0.3783 -0.4825 -0.1898
   66ccc     H6 1838   0.915   5.781   8.383 -0.0063  0.0974  0.1860
   66ccc     H7 1839   0.894   5.638   8.164  3.1930  1.1726  0.0380
   66ccc     H8 1840   0.802   5.573   8.302  0.4613 -1.6189  1.5176
   66ccc     N2 1841   0.980   5.466   8.257  0.4048 -0.6561 -0.4123
   66ccc     C5 1842   0.891   5.351   8.223  0.3910  0.1690  0.1166
   66ccc     C6 1843   1.083   5.472   8.152  0.7776 -0.4598 -0.1591
   66ccc     H9 1844   1.042   5.437   8.057 -0.7017  0.8474 -0.0347
   66ccc     C7 1845   1.209   5.393   8.186 -0.3130 -0.2575  0.0463
   66ccc    H10 1846   1.117   5.573   8.129  0.7923 -0.7796 -1.5947
   66ccc    H11 1847   1.174   5.294   8.219  0.9995 -0.3572  1.2949
   66ccc    H12 1848   1.262   5.449   8.265  0.8761 -0.2620 -0.7277
   66ccc     C8 1849   1.295   5.380   8.070 -0.2201 -0.5549  0.2359
   66ccc     O2 1850   1.255   5.408   7.956  0.3568 -0.4659  0.1738
   66ccc    H13 1851   0.954   5.264   8.200  1.5988  1.5268 -2.1787
   66ccc    H14 1852   0.826   5.373   8.137 -1.8951  0.1307  1.7356
   66ccc     C9 1853   0.810   5.308   8.347  0.2400 -0.0593  0.2786
   66ccc    H15 1854   0.779   5.389   8.414 -2.3275 -0.8247  0.1059
   66ccc    H16 1855   0.886   5.249   8.400  0.5095 -0.6551 -0.7345
   66ccc    C10 1856   0.685   5.223   8.311  0.2947  0.1071  0.2267
   66ccc     O4 1857   0.617   5.244   8.211 -0.3299 -0.2577 -0.1253
   66ccc    C11 1858   1.827   5.298   7.970  0.5819  0.1913  0.4097
   66ccc    C12 1859   1.737   5.177   7.952  0.5388  0.4796  0.1085
   66ccc    H17 1860   1.861   5.314   8.072  0.5427  2.1393  0.1535
   66ccc    C13 1861   1.609   5.177   8.032  0.7205 -1.1783  0.0847
   66ccc    C14 1862   1.534   5.311   8.006 -0.0894  0.6987 -0.3037
   66ccc    C15 1863   1.632   5.431   8.016 -0.5025  0.2513 -0.3623
   66ccc    H18 1864   1.497   5.313   7.903 -0.8284  0.9956 -0.0397
   66ccc    H19 1865   1.635   5.174   8.138  1.2315 -0.5299 -0.0159
   66ccc    H20 1866   1.667   5.447   8.119 -1.7479 -1.7039  0.4194
   66ccc     O1 1867   1.576   5.545   7.970  0.4246  0.1995  0.2486
   66ccc     O6 1868   1.524   5.068   8.000 -0.1023 -0.0729 -0.1988
   66ccc    C16 1869   1.944   5.288   7.867  0.3164  0.1959 -0.1217
   66ccc    H21 1870   1.429   5.079   8.020 -0.0499  0.5644 -0.2732
   66ccc    H22 1871   1.446   5.316   8.193  2.0676  0.7621 -0.5981
   66ccc    H23 1872   1.900   5.277   7.767  0.1539 -0.1026 -0.0204
   66ccc    H24 1873   1.997   5.195   7.891 -1.5387 -1.0475 -0.6500
   66ccc     O7 1874   2.026   5.407   7.871 -0.1947  0.0514  0.3606
   66ccc    H25 1875   1.960   5.478   7.871 -1.3282 -0.9683 -0.2882
   66ccc     O8 1876   1.746   5.415   7.930 -0.2628 -0.2538 -0.6813
   66ccc    H26 1877   1.635   5.618   7.995 -1.0749  1.7540 -0.6301
   66ccc    H27 1878   1.717   5.169   7.844 -2.8633 -0.2495  0.6743
   66ccc     O9 1879   1.810   5.059   7.988  0.5989 -0.2691 -0.2116
   66ccc    H28 1880   1.851   5.033   7.904 -0.6935  0.9163 -1.2516
   66ccc     N3 1881   1.412   5.319   8.096 -1.0434  0.3136  0.3640
   66ccc    C17 1882   0.511   4.723   8.393  0.5966 -0.0401  0.0877
   66ccc    C18 1883   0.488   4.807   8.524  0.3581  0.2770  0.7163
   66ccc    H29 1884   0.613   4.684   8.384 -0.1790 -2.3881  0.9737
   66ccc    C19 1885   0.552   4.948   8.525 -0.7265 -0.1858 -0.0539
   66ccc    C20 1886   0.558   5.025   8.395 -0.3016  0.4931  0.2174
   66ccc    C21 1887   0.572   4.933   8.275 -0.3625 -0.4950 -0.2109
   66ccc    H30 1888   0.465   5.080   8.377  0.4106  1.5440 -0.3627
   66ccc    H31 1889   0.657   4.915   8.535 -0.9157 -1.1228 -0.9554
   66ccc    H32 1890   0.672   4.896   8.250 -0.3233  0.9746 -2.5844
   66ccc    O10 1891   0.537   5.003   8.154 -0.3080  0.2577 -0.7799
   66ccc    O11 1892   0.499   5.027   8.632  0.4667  0.4722 -0.5605
   66ccc    C22 1893   0.415   4.596   8.376 -0.3816  0.3236  0.2179
   66ccc    H33 1894   0.402   5.030   8.624  0.3518 -0.5014  0.2312
   66ccc    H34 1895   0.731   5.115   8.477  0.1516 -2.1751  0.4836
   66ccc    H35 1896   0.311   4.622   8.398 -1.1595 -1.5418 -0.9896
   66ccc    H36 1897   0.447   4.537   8.462 -0.7642  2.6180  2.0527
   66ccc    O12 1898   0.425   4.529   8.252  0.1737 -0.1870  0.3229
   66ccc    H37 1899   0.362   4.581   8.198  0.8866  0.9480  0.5306
   66ccc    O13 1900   0.489   4.817   8.286  0.9946 -0.0223  0.3008
   66ccc    H38 1901   0.567   5.095   8.163 -1.7757  1.0661 -3.2694
   66ccc    H39 1902   0.382   4.814   8.550  0.8794 -0.5695  3.3778
   66ccc     O5 1903   0.536   4.728   8.636 -0.1268 -0.2040 -0.3438
   66ccc    H40 1904   0.621   4.763   8.668 -0.7587  0.9099  0.2094
   66ccc     N4 1905   0.673   5.120   8.393  0.2604  0.3885  0.4592
   67ccc     N1 1906   1.100   6.363   7.945  0.7228  0.4910  0.4312
   67ccc     H4 1907   1.008   6.323   7.942  0.6186  0.7719 -0.2855
   67ccc     C3 1908   1.125   6.492   8.007  0.2887  0.1886 -0.0917
   67ccc     H5 1909   1.035   6.532   8.055  0.0366  0.9117 -1.1147
   67ccc     C4 1910   1.176   6.606   7.918  0.2042 -0.8611  0.1531
   67ccc     H6 1911   1.201   6.475   8.084  0.0041 -0.8009 -0.0209
   67ccc     H7 1912   1.284   6.598   7.902  0.2010 -0.3317 -0.1636
   67ccc     H8 1913   1.170   6.700   7.973  0.1558 -1.0346  0.4457
   67ccc     N2 1914   1.101   6.630   7.787  0.2424 -0.1712  0.0515
   67ccc     C5 1915   0.957   6.639   7.808 -0.3305 -0.0163 -0.0765
   67ccc     C6 1916   1.136   6.549   7.671  0.5249 -0.1008  0.4644
   67ccc     H9 1917   1.120   6.442   7.691  0.3300 -0.5174 -1.6220
   67ccc     C7 1918   1.284   6.558   7.649 -0.6857 -0.6661 -0.1754
   67ccc    H10 1919   1.078   6.580   7.583 -0.8195 -2.0108  0.5877
   67ccc    H11 1920   1.347   6.491   7.708  0.7011 -0.2764 -1.1727
   67ccc    H12 1921   1.304   6.665   7.664  0.8342 -1.0631  0.7698
   67ccc     C8 1922   1.304   6.538   7.505 -0.9651 -0.0819 -0.8121
   67ccc     O2 1923   1.258   6.608   7.422 -0.1957  0.2065 -0.1856
   67ccc    H13 1924   0.916   6.547   7.852  0.4154  0.4449  1.6912
   67ccc    H14 1925   0.909   6.661   7.712  0.3776  1.2777 -0.1584
   67ccc     C9 1926   0.916   6.747   7.915  0.5536  0.0866  0.7208
   67ccc    H15 1927   0.954   6.848   7.896 -0.0021  0.3604  1.0398
   67ccc    H16 1928   0.956   6.728   8.015  3.5695 -1.7307 -0.6797
   67ccc    C10 1929   0.768   6.747   7.928  0.1226 -0.1310  0.1887
   67ccc     O4 1930   0.712   6.701   8.025  0.3416 -0.0019  0.2785
   67ccc    C11 1931   1.563   6.614   7.105 -0.1445  0.0890 -0.5676
   67ccc    C12 1932   1.621   6.678   7.231  0.3525 -0.5390  0.2135
   67ccc    H17 1933   1.466   6.665   7.092 -1.0474 -1.1486  0.9348
   67ccc    C13 1934   1.553   6.639   7.359 -0.3335 -0.2801 -0.3749
   67ccc    C14 1935   1.503   6.490   7.366 -0.4291 -0.2378  0.1719
   67ccc    C15 1936   1.432   6.453   7.228 -0.1429 -0.0436 -0.6796
   67ccc    H18 1937   1.591   6.428   7.386 -0.4246  0.0544  1.1546
   67ccc    H19 1938   1.468   6.703   7.385  1.7511  2.4801  0.0816
   67ccc    H20 1939   1.343   6.516   7.221 -1.8822 -2.5398 -2.8081
   67ccc     O1 1940   1.382   6.321   7.223 -0.3548  0.1906  0.4636
   67ccc     O6 1941   1.647   6.662   7.470  0.3273  0.6204 -0.2917
   67ccc    C16 1942   1.661   6.611   6.987 -0.4470 -0.3244  0.1793
   67ccc    H21 1943   1.615   6.740   7.518  0.6573  0.7644 -0.3030
   67ccc    H22 1944   1.482   6.460   7.568 -1.0188  0.4622  1.2668
   67ccc    H23 1945   1.732   6.528   7.000 -1.8809 -1.2980  2.3772
   67ccc    H24 1946   1.725   6.699   6.993  1.8760 -1.9161  0.3547
   67ccc     O7 1947   1.595   6.592   6.861  0.6123  0.6877 -0.0806
   67ccc    H25 1948   1.621   6.501   6.839 -1.2364 -0.1438  0.9688
   67ccc     O8 1949   1.531   6.472   7.125 -0.0727 -0.0615  0.3332
   67ccc    H26 1950   1.302   6.330   7.277 -0.6211  1.2076 -0.0773
   67ccc    H27 1951   1.718   6.628   7.243 -1.0272 -2.8132  2.9504
   67ccc     O9 1952   1.624   6.819   7.225 -0.0523  0.0271 -0.0143
   67ccc    H28 1953   1.634   6.844   7.318 -0.4402 -1.6736  0.5175
   67ccc     N3 1954   1.418   6.469   7.490  0.9256  0.1960 -0.4282
   67ccc    C17 1955   0.629   7.163   7.619  0.2332  0.5843  0.1271
   67ccc    C18 1956   0.728   7.176   7.738 -0.5728 -0.0746  0.6517
   67ccc    H29 1957   0.525   7.152   7.652  0.0315 -0.8343 -0.8864
   67ccc    C19 1958   0.718   7.045   7.825 -0.0611  0.5930 -0.9224
   67ccc    C20 1959   0.747   6.913   7.741  0.3379  0.2067  0.4034
   67ccc    C21 1960   0.645   6.921   7.620  0.6701  0.5023 -0.2518
   67ccc    H30 1961   0.852   6.894   7.715  0.0851  0.8963 -1.2210
   67ccc    H31 1962   0.613   7.040   7.856  0.4006 -0.1080  0.6210
   67ccc    H32 1963   0.543   6.919   7.659  1.4283 -0.0578  1.8585
   67ccc    O10 1964   0.665   6.818   7.530  0.6753  0.2505 -0.2253
   67ccc    O11 1965   0.809   7.051   7.939 -0.2709 -0.1878  0.0797
   67ccc    C22 1966   0.635   7.284   7.530  0.9540  0.0840  0.3329
   67ccc    H33 1967   0.790   7.129   7.994 -1.0081  0.4927 -1.0733
   67ccc    H34 1968   0.602   6.813   7.840  0.3529  1.4734  1.3321
   67ccc    H35 1969   0.736   7.304   7.492  0.6182 -0.3193 -0.8275
   67ccc    H36 1970   0.585   7.368   7.579 -0.9134 -1.2517  0.8412
   67ccc    O12 1971   0.549   7.264   7.418  0.0001 -0.1954 -0.3250
   67ccc    H37 1972   0.516   7.351   7.389 -1.5704 -0.7619 -0.3031
   67ccc    O13 1973   0.660   7.041   7.543 -0.6170 -0.6750 -0.4659
   67ccc    H38 1974   0.744   6.842   7.478 -0.1621 -0.6702 -1.9871
   67ccc    H39 1975   0.828   7.191   7.696 -0.3491  1.1873  1.5774
   67ccc     O5 1976   0.690   7.285   7.814 -0.6577  0.3484 -0.8026
   67ccc    H40 1977   0.751   7.310   7.885 -0.4075 -0.3957 -0.7550
   67ccc     N4 1978   0.702   6.798   7.823 -0.1740 -0.4993 -0.5441
   68ccc     N1 1979   1.910   4.753   6.946  0.5376  0.2318  0.0103
   68ccc     H4 1980   1.902   4.771   7.046 -0.0940 -1.3101  0.2667
   68ccc     C3 1981   2.019   4.668   6.898 -0.4855 -0.9923 -0.0590
   68ccc     H5 1982   2.032   4.586   6.970 -1.6974 -1.2993 -0.1747
   68ccc     C4 1983   2.163   4.738   6.888  0.0127  0.3419  0.3224
   68ccc     H6 1984   1.995   4.628   6.799 -0.7071  1.2598 -0.9509
   68ccc     H7 1985   2.221   4.677   6.818  0.8768 -1.3063  2.3535
   68ccc     H8 1986   2.214   4.739   6.985  1.8447 -0.1122 -0.6090
   68ccc     N2 1987   2.152   4.875   6.833 -0.5498  0.4352 -0.0812
   68ccc     C5 1988   2.268   4.957   6.874  0.3358 -0.4048  0.8433
   68ccc     C6 1989   2.116   4.879   6.694  0.6153  0.4249  0.3226
   68ccc     H9 1990   2.199   4.858   6.626  0.4048  0.9593 -0.1086
   68ccc     C7 1991   2.075   5.018   6.656 -0.7317  0.1858  0.0754
   68ccc    H10 1992   2.045   4.798   6.673  1.5836 -0.3976  0.1432
   68ccc    H11 1993   2.164   5.076   6.631  0.4326 -1.1618  1.0061
   68ccc    H12 1994   2.019   5.074   6.731  1.3120  1.2017  0.8868
   68ccc     C8 1995   1.994   5.013   6.533 -0.7524 -0.0261 -0.0388
   68ccc     O2 1996   2.031   5.067   6.433 -0.1107 -0.7064  0.6204
   68ccc    H13 1997   2.295   4.942   6.979  2.2437  0.4898  0.5185
   68ccc    H14 1998   2.241   5.061   6.854 -0.0770 -0.2658  2.0259
   68ccc     C9 1999   2.390   4.922   6.796  0.1756 -0.0821  0.3392
   68ccc    H15 2000   2.383   4.938   6.688  1.2851  0.9439  0.3986
   68ccc    H16 2001   2.424   4.820   6.816 -0.1423 -0.1264  0.6797
   68ccc    C10 2002   2.507   5.014   6.834  0.6190  0.2233 -0.1955
   68ccc     O4 2003   2.504   5.114   6.901  0.3562 -0.6307  0.1945
   68ccc    C11 2004   1.632   5.047   6.198  0.6501  0.7453  0.2562
   68ccc    C12 2005   1.703   4.908   6.202  0.4220 -1.0263 -0.5553
   68ccc    H17 2006   1.711   5.105   6.148 -0.8192  1.3666 -1.4494
   68ccc    C13 2007   1.817   4.905   6.307 -0.0304 -0.2826  0.0932
   68ccc    C14 2008   1.772   4.952   6.444  0.3018 -0.1479 -0.1821
   68ccc    C15 2009   1.714   5.100   6.427  0.2500  0.1935  0.5985
   68ccc    H18 2010   1.696   4.879   6.477  0.5478  0.5093  1.9912
   68ccc    H19 2011   1.897   4.974   6.278 -0.6342  0.8856  1.1605
   68ccc    H20 2012   1.792   5.160   6.379  0.2589 -0.7217 -0.5562
   68ccc     O1 2013   1.657   5.148   6.547  0.4239 -0.9388  0.5414
   68ccc     O6 2014   1.877   4.772   6.310  0.2578  0.5207 -0.1763
   68ccc    C16 2015   1.505   5.031   6.114 -0.4478 -0.2142  0.4909
   68ccc    H21 2016   1.864   4.744   6.218  0.6075 -1.6292  0.3973
   68ccc    H22 2017   1.843   4.933   6.636  0.0985  2.3403 -0.0643
   68ccc    H23 2018   1.515   4.983   6.016 -0.9158  1.3328 -0.3483
   68ccc    H24 2019   1.470   5.132   6.092 -0.5098 -0.1938  0.6806
   68ccc     O7 2020   1.418   4.953   6.195  0.3491 -0.0466  0.0458
   68ccc    H25 2021   1.423   5.011   6.273  3.4314 -0.2868  0.1659
   68ccc     O8 2022   1.601   5.097   6.334  0.0164 -0.0207 -0.1219
   68ccc    H26 2023   1.591   5.212   6.514  0.8893 -0.1071  1.2115
   68ccc    H27 2024   1.630   4.834   6.237  0.7545 -1.3643 -0.5655
   68ccc     O9 2025   1.748   4.867   6.073  0.5833  0.0606 -0.3687
   68ccc    H28 2026   1.810   4.932   6.036 -0.4437  2.3998  1.6805
   68ccc     N3 2027   1.878   4.956   6.544 -0.1923  0.4303 -0.7004
   68ccc    C17 2028   2.930   5.160   7.014  0.5185 -0.3368 -0.8614
   68ccc    C18 2029   2.896   5.024   7.072  0.5775 -0.3141 -0.2202
   68ccc    H29 2030   2.858   5.231   7.057 -1.4880 -2.4085 -0.6193
   68ccc    C19 2031   2.766   4.968   7.004  0.5103  0.3058 -0.0880
   68ccc    C20 2032   2.756   4.995   6.851 -0.0102 -0.4746 -0.3990
   68ccc    C21 2033   2.792   5.144   6.816 -0.4319 -0.7222  0.2467
   68ccc    H30 2034   2.841   4.940   6.810 -0.1945  1.1278 -3.2194
   68ccc    H31 2035   2.685   5.029   7.046  1.1655  1.3279 -0.2697
   68ccc    H32 2036   2.720   5.214   6.859  0.9555 -0.0926  1.6548
   68ccc    O10 2037   2.809   5.161   6.678  0.3239 -0.1331  0.0703
   68ccc    O11 2038   2.750   4.832   7.043  0.5867 -0.6475  0.1892
   68ccc    C22 2039   3.081   5.190   7.047 -0.4496  0.0742  0.2070
   68ccc    H33 2040   2.792   4.781   6.972  0.9282 -0.6065  0.3633
   68ccc    H34 2041   2.630   4.867   6.755  1.1619 -0.9347  2.5242
   68ccc    H35 2042   3.082   5.211   7.155 -0.2032 -1.5075  0.5323
   68ccc    H36 2043   3.115   5.280   6.994  1.2354 -1.4711 -1.4989
   68ccc    O12 2044   3.166   5.083   7.020 -0.3274  0.5475  0.2655
   68ccc    H37 2045   3.239   5.086   7.085  1.3143 -0.4160 -1.4272
   68ccc    O13 2046   2.924   5.169   6.870  0.5004  0.1490  0.0299
   68ccc    H38 2047   2.803   5.072   6.639 -0.1251 -0.6396  1.2445
   68ccc    H39 2048   2.969   4.944   7.055 -0.1027 -1.0203  0.1278
   68ccc     O5 2049   2.858   5.038   7.209 -0.8256  0.0695 -0.1877
   68ccc    H40 2050   2.824   4.950   7.237  0.8538 -2.1290 -4.2841
   68ccc     N4 2051   2.624   4.957   6.803  0.2712  0.1880  0.4783
   69ccc     N1 2052   2.085   5.391   6.909  0.0184 -0.0908 -0.3400
   69ccc     H4 2053   2.107   5.351   6.999 -3.9259 -0.7998  0.4846
   69ccc     C3 2054   2.185   5.445   6.821 -0.5383  0.5249 -0.6110
   69ccc     H5 2055   2.134   5.480   6.730  0.3896  0.6500 -1.0902
   69ccc     C4 2056   2.303   5.350   6.778  0.0207 -0.2216 -0.3456
   69ccc     H6 2057   2.226   5.534   6.869 -0.5470  1.2437 -1.8657
   69ccc     H7 2058   2.254   5.260   6.740 -2.6388  1.2475 -0.6894
   69ccc     H8 2059   2.369   5.306   6.854  0.6280  0.7793 -0.2732
   69ccc     N2 2060   2.387   5.413   6.679  0.3652  0.8926  0.1395
   69ccc     C5 2061   2.525   5.426   6.724  0.2926 -0.2957 -0.0000
   69ccc     C6 2062   2.375   5.351   6.553  0.0141  0.3787 -0.5467
   69ccc     H9 2063   2.453   5.376   6.480  0.5388  3.0055  0.7948
   69ccc     C7 2064   2.247   5.396   6.482 -0.2346 -0.2952 -0.2130
   69ccc    H10 2065   2.372   5.242   6.561 -0.2552  0.5054  1.5011
   69ccc    H11 2066   2.233   5.504   6.481 -2.7195 -0.5593 -1.6797
   69ccc    H12 2067   2.158   5.357   6.533 -0.8227  1.7869  0.4478
   69ccc     C8 2068   2.245   5.344   6.344 -0.0945  0.6013  0.3112
   69ccc     O2 2069   2.310   5.245   6.309 -0.0177 -0.5407 -0.1868
   69ccc    H13 2070   2.588   5.461   6.642  0.5747  0.1725  0.4102
   69ccc    H14 2071   2.572   5.334   6.763  0.1293  0.1489  1.2936
   69ccc     C9 2072   2.530   5.525   6.841 -0.2910 -0.7215 -0.2995
   69ccc    H15 2073   2.461   5.502   6.923 -1.5840  0.3772 -1.0307
   69ccc    H16 2074   2.486   5.618   6.803  0.7512  0.1516  0.5618
   69ccc    C10 2075   2.664   5.559   6.890  0.2406  0.1060  0.9006
   69ccc     O4 2076   2.769   5.509   6.854 -0.0063 -0.6112  0.0066
   69ccc    C11 2077   1.863   5.312   5.974  0.2106 -0.5157  0.1718
   69ccc    C12 2078   1.949   5.442   5.949 -0.1376 -0.3495  0.2513
   69ccc    H17 2079   1.777   5.334   6.037  0.6898  1.9113  0.0833
   69ccc    C13 2080   2.023   5.482   6.078 -0.5073  0.2315  0.0468
   69ccc    C14 2081   2.112   5.365   6.133  0.6406  0.2460  0.1680
   69ccc    C15 2082   2.024   5.231   6.143  0.3960 -0.9464  0.0734
   69ccc    H18 2083   2.190   5.348   6.058 -0.0810 -0.1601 -0.4942
   69ccc    H19 2084   1.941   5.495   6.150  0.5578 -0.8954  1.5222
   69ccc    H20 2085   1.950   5.247   6.223 -1.0489  0.1635 -1.4169
   69ccc     O1 2086   2.095   5.109   6.165 -0.2096  0.2022  0.3705
   69ccc     O6 2087   2.084   5.608   6.058 -0.1092 -0.3348 -0.4995
   69ccc    C16 2088   1.798   5.276   5.844  0.2792 -0.4246  0.4189
   69ccc    H21 2089   2.021   5.657   6.002 -0.5957  0.3841  0.6380
   69ccc    H22 2090   2.127   5.495   6.309  1.5138 -0.5692  1.3697
   69ccc    H23 2091   1.886   5.240   5.789  1.4258  1.5887  0.8117
   69ccc    H24 2092   1.763   5.368   5.795  1.3880 -1.4078 -2.4388
   69ccc     O7 2093   1.694   5.184   5.870  0.1422  0.4855  0.0213
   69ccc    H25 2094   1.696   5.113   5.804 -3.5587  0.5386 -0.3597
   69ccc     O8 2095   1.953   5.207   6.021 -0.5747 -0.6995 -0.4803
   69ccc    H26 2096   2.136   5.123   6.252 -1.3662  2.6379  0.5979
   69ccc    H27 2097   2.025   5.409   5.877  1.4239  1.0198  1.2183
   69ccc     O9 2098   1.868   5.557   5.906  0.1165 -0.1913 -0.4495
   69ccc    H28 2099   1.850   5.560   5.810  0.4790 -1.0655 -0.5579
   69ccc     N3 2100   2.165   5.413   6.263  0.5653 -0.4297  0.2859
   69ccc    C17 2101   3.012   5.648   7.245 -0.1703 -0.5678 -0.3407
   69ccc    C18 2102   3.003   5.763   7.139  0.5565  0.4467  1.0827
   69ccc    H29 2103   3.073   5.569   7.199  0.1121 -1.1454  0.9745
   69ccc    C19 2104   2.901   5.715   7.025 -0.1260 -0.4136  0.9485
   69ccc    C20 2105   2.767   5.672   7.081  0.2040 -0.4525  0.1328
   69ccc    C21 2106   2.797   5.553   7.172  0.1713 -1.2931  0.1582
   69ccc    H30 2107   2.736   5.758   7.141  1.3116  0.7966 -1.0042
   69ccc    H31 2108   2.946   5.627   6.977  0.4973 -0.6411  1.9254
   69ccc    H32 2109   2.848   5.474   7.115 -1.6744 -0.9269 -2.1411
   69ccc    O10 2110   2.673   5.510   7.228  0.3396  0.2330 -0.0619
   69ccc    O11 2111   2.879   5.809   6.925 -0.2814 -0.6930 -0.2442
   69ccc    C22 2112   3.093   5.690   7.369  0.3354 -0.4075 -0.7381
   69ccc    H33 2113   2.799   5.790   6.874 -2.5896 -0.1154  2.8505
   69ccc    H34 2114   2.567   5.673   7.034  1.9158  2.2651  1.2308
   69ccc    H35 2115   3.189   5.722   7.327  0.2983 -0.2458 -0.6992
   69ccc    H36 2116   3.103   5.604   7.437 -1.6339 -2.0371 -2.3811
   69ccc    O12 2117   3.019   5.799   7.444  0.6534 -0.1218 -0.1842
   69ccc    H37 2118   3.071   5.813   7.525 -1.7075 -1.7751  1.7714
   69ccc    O13 2119   2.879   5.598   7.282  0.2159  0.5443 -0.0043
   69ccc    H38 2120   2.696   5.430   7.279  1.6000  1.0430  0.6798
   69ccc    H39 2121   2.953   5.845   7.190  0.2177  0.2561  1.0621
   69ccc     O5 2122   3.125   5.801   7.085 -0.0888 -0.3293 -0.0568
   69ccc    H40 2123   3.114   5.863   7.011 -1.3933 -1.2285 -0.6516
   69ccc     N4 2124   2.655   5.645   6.991  0.8911  0.4681  0.1482
   70ccc     N1 2125  -1.616   6.927   4.813  0.5194 -0.8437  0.3039
   70ccc     H4 2126  -1.631   6.933   4.913  0.8991 -1.6818  0.4143
   70ccc     C3 2127  -1.729   6.946   4.716 -0.6053  0.1125 -0.1101
   70ccc     H5 2128  -1.705   7.020   4.640 -0.8390 -0.9810 -1.2792
   70ccc     C4 2129  -1.855   7.002   4.788  0.4266  0.4141 -0.1365
   70ccc     H6 2130  -1.739   6.842   4.683  1.3162 -0.3136  0.5152
   70ccc     H7 2131  -1.933   7.009   4.711  0.5889 -1.2345 -0.4947
   70ccc     H8 2132  -1.825   7.100   4.827  2.3988 -0.1804 -0.0641
   70ccc     N2 2133  -1.913   6.909   4.885  0.3770 -0.4457 -0.0976
   70ccc     C5 2134  -1.969   6.791   4.811 -0.3959 -0.1296 -0.4912
   70ccc     C6 2135  -2.001   6.987   4.978 -0.7724  0.3521  0.1340
   70ccc     H9 2136  -1.951   7.074   5.021 -0.7629  0.2551  0.3186
   70ccc     C7 2137  -2.033   6.894   5.092 -0.5553  0.6666  0.5547
   70ccc    H10 2138  -2.097   7.013   4.932 -1.0142  0.6856  0.8182
   70ccc    H11 2139  -1.940   6.861   5.139 -0.8517 -0.2607  0.5224
   70ccc    H12 2140  -2.084   6.805   5.053 -0.6170  0.0354  2.0074
   70ccc     C8 2141  -2.125   6.956   5.192 -0.1292  0.0944 -0.6170
   70ccc     O2 2142  -2.224   7.012   5.168  0.5532 -0.1464  0.0007
   70ccc    H13 2143  -1.932   6.789   4.708  0.7485  0.4369 -0.1122
   70ccc    H14 2144  -2.078   6.795   4.804 -0.3679  1.2080 -0.3965
   70ccc     C9 2145  -1.918   6.664   4.870  0.9611  0.1317 -0.2572
   70ccc    H15 2146  -1.934   6.669   4.979 -0.4032  0.6933 -0.4655
   70ccc    H16 2147  -1.809   6.657   4.858  0.9662  1.9868 -1.6296
   70ccc    C10 2148  -1.979   6.539   4.814  0.1787  0.0903 -0.3473
   70ccc     O4 2149  -2.073   6.528   4.733  0.5868 -0.3277  0.1747
   70ccc    C11 2150  -2.275   7.214   5.580  0.5239  0.0774 -0.1515
   70ccc    C12 2151  -2.323   7.064   5.582  0.1725  0.2823  0.9851
   70ccc    H17 2152  -2.324   7.277   5.505 -0.6036 -0.1166  0.3942
   70ccc    C13 2153  -2.289   6.982   5.455 -0.2397 -0.7824 -0.4634
   70ccc    C14 2154  -2.137   7.003   5.437  0.4380 -0.6910 -0.2079
   70ccc    C15 2155  -2.092   7.159   5.434 -0.6797  0.4261  0.0076
   70ccc    H18 2156  -2.082   6.964   5.523 -0.0093  1.9179  1.3532
   70ccc    H19 2157  -2.350   7.021   5.373 -2.5260 -0.8403  1.1172
   70ccc    H20 2158  -2.143   7.206   5.350 -0.3855  0.7785  0.0262
   70ccc     O1 2159  -1.955   7.179   5.426  0.4915 -0.1152 -0.2869
   70ccc     O6 2160  -2.321   6.846   5.486 -0.1973  0.0156  0.9901
   70ccc    C16 2161  -2.285   7.288   5.713 -0.3083 -0.6417 -0.1975
   70ccc    H21 2162  -2.417   6.841   5.502 -0.0884  0.4731  1.8409
   70ccc    H22 2163  -1.986   6.905   5.321 -0.8082 -3.5182 -0.3853
   70ccc    H23 2164  -2.212   7.243   5.782  1.6033  1.0888 -0.9733
   70ccc    H24 2165  -2.380   7.274   5.765 -1.1564  2.8740 -0.6006
   70ccc     O7 2166  -2.270   7.434   5.703 -0.5394  0.2691 -0.5478
   70ccc    H25 2167  -2.259   7.480   5.788 -1.1557  0.5486 -0.6159
   70ccc     O8 2168  -2.135   7.231   5.546 -0.1543  0.6140 -0.3180
   70ccc    H26 2169  -1.919   7.132   5.503  2.2367 -0.2479 -1.1342
   70ccc    H27 2170  -2.278   7.009   5.665  1.2100 -2.5504 -1.3046
   70ccc     O9 2171  -2.464   7.062   5.605  0.1214  0.3241  0.2881
   70ccc    H28 2172  -2.505   7.127   5.545  0.3905  1.8129  1.6431
   70ccc     N3 2173  -2.083   6.936   5.317  0.0475 -0.4668 -0.0981
   70ccc    C17 2174  -1.840   6.023   4.751 -0.1139 -0.3372  0.3674
   70ccc    C18 2175  -1.894   6.048   4.897 -0.4151 -0.0920 -0.3432
   70ccc    H29 2176  -1.733   6.044   4.742 -0.1236  0.1215  1.1712
   70ccc    C19 2177  -1.874   6.198   4.928 -0.1804  0.4731 -0.1690
   70ccc    C20 2178  -1.938   6.289   4.816 -0.0264  0.0683  0.2024
   70ccc    C21 2179  -1.900   6.251   4.670  0.4911 -0.0029  0.5991
   70ccc    H30 2180  -2.042   6.253   4.820 -0.1968  0.2323 -1.8740
   70ccc    H31 2181  -1.764   6.200   4.929 -0.1838  0.5458  0.9357
   70ccc    H32 2182  -1.807   6.303   4.642  0.6208 -0.2143  0.6277
   70ccc    O10 2183  -1.997   6.302   4.586 -0.0573  0.1531  0.2127
   70ccc    O11 2184  -1.939   6.232   5.052  0.2178 -0.5215  0.2483
   70ccc    C22 2185  -1.852   5.870   4.708  0.2827 -0.1029 -1.0187
   70ccc    H33 2186  -1.891   6.314   5.072 -0.5791  0.7374 -2.4825
   70ccc    H34 2187  -1.833   6.452   4.912  0.5344  1.8507 -0.8174
   70ccc    H35 2188  -1.954   5.831   4.725  2.1705 -4.3543  2.6564
   70ccc    H36 2189  -1.785   5.809   4.770 -0.4561  0.1669  0.0785
   70ccc    O12 2190  -1.813   5.850   4.570 -0.2216  0.4368 -0.2610
   70ccc    H37 2191  -1.717   5.832   4.570 -0.2918  0.0206  0.0911
   70ccc    O13 2192  -1.911   6.107   4.655 -0.0870 -0.0890  0.6121
   70ccc    H38 2193  -1.973   6.272   4.497  1.2772  1.2519  0.1756
   70ccc    H39 2194  -2.001   6.024   4.901 -0.8269  1.4132 -1.2815
   70ccc     O5 2195  -1.810   5.972   4.985  0.2432 -0.7803  0.7431
   70ccc    H40 2196  -1.861   5.974   5.068 -0.2956  1.2559  0.4143
   70ccc     N4 2197  -1.912   6.431   4.851 -0.4254  0.3910  0.8448
   71ccc     N1 2198  -1.803   6.570   5.322  0.1833 -0.5961 -0.7574
   71ccc     H4 2199  -1.758   6.631   5.389 -1.7896  0.2151 -0.1071
   71ccc     C3 2200  -1.930   6.514   5.374 -0.8314 -0.5641 -0.2180
   71ccc     H5 2201  -1.950   6.417   5.327  0.2156 -1.6924  1.5404
   71ccc     C4 2202  -2.060   6.598   5.363 -0.3352  0.9502  0.1540
   71ccc     H6 2203  -1.931   6.494   5.482 -0.6298 -0.0570 -0.1160
   71ccc     H7 2204  -2.080   6.616   5.256  0.4288 -0.0274 -0.1681
   71ccc     H8 2205  -2.052   6.700   5.403  0.5935  1.2529 -0.7603
   71ccc     N2 2206  -2.169   6.524   5.413 -0.1103 -0.1639 -0.0035
   71ccc     C5 2207  -2.179   6.535   5.559  0.2548  0.5113 -1.0198
   71ccc     C6 2208  -2.297   6.571   5.341 -0.5112  0.2497 -0.3839
   71ccc     H9 2209  -2.378   6.559   5.415  0.8202  0.6151  1.2037
   71ccc     C7 2210  -2.316   6.478   5.232  0.3101 -0.6371  0.1622
   71ccc    H10 2211  -2.291   6.679   5.319 -1.1161  1.0671  2.8750
   71ccc    H11 2212  -2.293   6.376   5.265 -0.7892 -1.4286 -1.4237
   71ccc    H12 2213  -2.249   6.498   5.147 -1.4622 -1.1981 -1.4423
   71ccc     C8 2214  -2.459   6.473   5.179 -0.4515  0.4355 -0.1818
   71ccc     O2 2215  -2.547   6.555   5.196 -0.6161  0.7361 -0.1192
   71ccc    H13 2216  -2.211   6.637   5.583  2.5926  0.9917  0.4501
   71ccc    H14 2217  -2.084   6.518   5.613 -1.4658 -2.4424  1.4033
   71ccc     C9 2218  -2.277   6.434   5.620  0.4471 -0.0955 -0.2181
   71ccc    H15 2219  -2.378   6.455   5.582  0.5714  1.5168  0.2721
   71ccc    H16 2220  -2.299   6.458   5.725 -0.5745 -1.7980 -0.0015
   71ccc    C10 2221  -2.248   6.289   5.594 -0.2542  0.2968  0.0890
   71ccc     O4 2222  -2.140   6.240   5.564  0.8647 -0.1011  0.3113
   71ccc    C11 2223  -2.890   6.344   4.956  0.3984  0.6142 -0.1992
   71ccc    C12 2224  -2.777   6.374   4.855 -0.2537  0.5097 -0.4401
   71ccc    H17 2225  -2.909   6.440   5.005 -0.4756  0.1564  0.3846
   71ccc    C13 2226  -2.644   6.422   4.926 -0.0963 -0.1030  0.0820
   71ccc    C14 2227  -2.603   6.325   5.038 -0.0558 -0.1593 -0.0025
   71ccc    C15 2228  -2.724   6.300   5.131 -0.3699  0.3055  0.4926
   71ccc    H18 2229  -2.582   6.226   4.994  1.3214 -0.2562  0.8182
   71ccc    H19 2230  -2.650   6.523   4.969 -0.5827  0.8298 -2.0596
   71ccc    H20 2231  -2.750   6.389   5.189 -1.6365  1.2910 -1.4626
   71ccc     O1 2232  -2.701   6.195   5.219  0.0184  0.0177  0.6217
   71ccc     O6 2233  -2.538   6.421   4.826 -0.3563  0.1419 -0.4830
   71ccc    C16 2234  -3.018   6.291   4.899 -0.2921 -0.3805  0.0037
   71ccc    H21 2235  -2.567   6.483   4.757  1.6956  0.7669 -0.8471
   71ccc    H22 2236  -2.405   6.293   5.099 -0.1045 -0.8488 -0.8142
   71ccc    H23 2237  -3.009   6.185   4.872  0.8837  0.0123 -1.2770
   71ccc    H24 2238  -3.028   6.357   4.812 -1.5355 -0.1043  0.3297
   71ccc     O7 2239  -3.126   6.288   4.991 -0.2899 -0.6550  0.0010
   71ccc    H25 2240  -3.100   6.233   5.067 -0.6437  1.0793  1.4442
   71ccc     O8 2241  -2.836   6.255   5.056  0.0103 -1.0322  0.2529
   71ccc    H26 2242  -2.625   6.220   5.274  0.6097  0.0928 -0.2054
   71ccc    H27 2243  -2.758   6.286   4.791  0.0503  2.3632 -3.0794
   71ccc     O9 2244  -2.823   6.479   4.772  0.4690 -0.0370  0.6668
   71ccc    H28 2245  -2.745   6.530   4.744 -0.4156  0.7719 -0.4485
   71ccc     N3 2246  -2.480   6.361   5.113  0.7480  0.0218 -0.3549
   71ccc    C17 2247  -2.764   6.120   5.614  0.1563  0.5029 -0.1147
   71ccc    C18 2248  -2.694   6.106   5.752 -0.2647 -0.0999  0.1761
   71ccc    H29 2249  -2.753   6.025   5.562 -0.9619 -0.8586  2.0022
   71ccc    C19 2250  -2.540   6.106   5.734  0.5960  0.2076 -0.6679
   71ccc    C20 2251  -2.486   6.209   5.632  0.8074 -0.3966 -0.4488
   71ccc    C21 2252  -2.572   6.199   5.509 -0.1202  0.0796  0.1415
   71ccc    H30 2253  -2.507   6.308   5.674 -0.6200 -0.4749 -0.9330
   71ccc    H31 2254  -2.508   6.006   5.700 -0.6030  0.6837 -3.4450
   71ccc    H32 2255  -2.565   6.102   5.458 -1.2970  0.0398  0.0114
   71ccc    O10 2256  -2.541   6.313   5.428 -0.3798  0.1902 -0.4286
   71ccc    O11 2257  -2.477   6.132   5.862  0.0323 -0.0795 -0.3534
   71ccc    C22 2258  -2.917   6.140   5.633 -0.2304  0.3238 -0.4470
   71ccc    H33 2259  -2.480   6.054   5.921  1.7128  0.2123  0.1536
   71ccc    H34 2260  -2.309   6.104   5.562  1.0027  1.3765 -1.8057
   71ccc    H35 2261  -2.934   6.231   5.692  1.7822  0.5059 -0.0787
   71ccc    H36 2262  -2.957   6.060   5.695  1.8885 -0.5876 -0.1689
   71ccc    O12 2263  -2.997   6.144   5.515 -0.0240  1.3615  0.0141
   71ccc    H37 2264  -2.980   6.234   5.481  0.7641  0.0792 -3.3159
   71ccc    O13 2265  -2.705   6.230   5.545 -0.6354 -0.0805  0.3770
   71ccc    H38 2266  -2.552   6.390   5.487  1.5742  0.0435  0.1971
   71ccc    H39 2267  -2.723   6.193   5.813 -1.7009 -1.0331  0.8719
   71ccc     O5 2268  -2.730   5.992   5.816  0.0612  0.3976 -0.2821
   71ccc    H40 2269  -2.808   6.013   5.869  1.2853  2.2928  0.8769
   71ccc     N4 2270  -2.340   6.191   5.605 -0.1200  0.0389  0.2920
   72ccc     N1 2271  -0.636   7.293   6.638 -0.0191  0.6179 -0.2155
   72ccc     H4 2272  -0.544   7.334   6.646 -1.0804  3.3003 -0.5959
   72ccc     C3 2273  -0.701   7.219   6.749  0.9391  0.5729 -0.0589
   72ccc     H5 2274  -0.802   7.260   6.760  0.2528 -1.2598  0.8777
   72ccc     C4 2275  -0.621   7.229   6.880  0.4570 -0.6330  0.0790
   72ccc     H6 2276  -0.710   7.112   6.728  0.7527  0.6367 -0.3042
   72ccc     H7 2277  -0.561   7.321   6.873  0.0902 -0.5198 -3.6896
   72ccc     H8 2278  -0.542   7.154   6.863  0.5056 -0.6195  0.2456
   72ccc     N2 2279  -0.713   7.211   6.998  0.8253 -0.0609  0.7033
   72ccc     C5 2280  -0.794   7.333   7.016 -0.1827 -0.0216 -0.5220
   72ccc     C6 2281  -0.632   7.184   7.109 -0.0915  0.6712 -0.0058
   72ccc     H9 2282  -0.572   7.094   7.089 -0.5760  0.4939 -0.7050
   72ccc     C7 2283  -0.715   7.154   7.240 -0.0344  0.2396  0.6445
   72ccc    H10 2284  -0.558   7.262   7.128  0.4149  0.0225  0.7513
   72ccc    H11 2285  -0.794   7.081   7.219 -0.1788  1.2925 -3.1539
   72ccc    H12 2286  -0.765   7.237   7.292  2.6491  1.5362  1.3464
   72ccc     C8 2287  -0.617   7.093   7.337  1.0482  0.9657 -0.1217
   72ccc     O2 2288  -0.635   6.983   7.385  0.0659 -0.3228 -0.0011
   72ccc    H13 2289  -0.788   7.400   6.929 -0.4263  1.1051  0.3097
   72ccc    H14 2290  -0.752   7.397   7.094 -1.0739 -0.3890  0.2787
   72ccc     C9 2291  -0.935   7.287   7.045 -0.4815 -0.1548  0.0674
   72ccc    H15 2292  -0.927   7.202   7.114 -3.9689 -0.2614  0.5448
   72ccc    H16 2293  -0.976   7.250   6.950 -0.5434  0.6124 -0.2083
   72ccc    C10 2294  -1.034   7.396   7.097 -0.7729  0.4723 -0.7862
   72ccc     O4 2295  -0.998   7.508   7.123 -0.5323 -0.2340  0.6218
   72ccc    C11 2296  -0.225   6.934   7.574 -0.0006 -0.0815  0.5826
   72ccc    C12 2297  -0.182   6.988   7.442  0.5815 -0.2836  0.4858
   72ccc    H17 2298  -0.299   6.859   7.546 -0.0378  0.3417 -0.5074
   72ccc    C13 2299  -0.302   7.037   7.358 -0.9339 -0.5188 -0.2607
   72ccc    C14 2300  -0.393   7.126   7.450  0.3498  0.3315  0.8771
   72ccc    C15 2301  -0.427   7.060   7.581 -0.9472 -0.0807  0.2779
   72ccc    H18 2302  -0.328   7.212   7.471  1.6413  0.3069 -2.3402
   72ccc    H19 2303  -0.347   6.944   7.321  0.2999 -1.0635 -0.4271
   72ccc    H20 2304  -0.489   6.970   7.569 -1.3263  0.1629  0.3714
   72ccc     O1 2305  -0.484   7.144   7.669 -0.1524  0.5328 -0.3952
   72ccc     O6 2306  -0.255   7.112   7.241 -0.0187  0.3840 -0.3372
   72ccc    C16 2307  -0.120   6.870   7.658  0.1046 -0.0076 -0.5678
   72ccc    H21 2308  -0.193   7.184   7.265  1.9177 -1.1767 -0.4215
   72ccc    H22 2309  -0.501   7.266   7.334  0.8237  0.1686  0.7731
   72ccc    H23 2310  -0.035   6.939   7.655  1.3010 -1.1101  2.9647
   72ccc    H24 2311  -0.095   6.772   7.616  0.1367 -0.6127  0.8237
   72ccc     O7 2312  -0.166   6.848   7.788  0.0680 -0.0148 -0.1779
   72ccc    H25 2313  -0.251   6.896   7.790  0.5720  0.8763  0.7904
   72ccc     O8 2314  -0.308   7.025   7.647  0.2287 -0.2516  0.5441
   72ccc    H26 2315  -0.575   7.112   7.685 -0.2332  0.6493 -0.6247
   72ccc    H27 2316  -0.107   7.066   7.460  1.3759 -0.8016 -0.4491
   72ccc     O9 2317  -0.111   6.886   7.367 -0.3379 -0.0011 -0.4211
   72ccc    H28 2318  -0.156   6.801   7.381 -1.3472  0.4934 -0.5761
   72ccc     N3 2319  -0.509   7.170   7.368  0.6305  0.1680  0.7261
   72ccc    C17 2320  -1.401   7.698   7.205 -0.2640 -0.3209  0.6160
   72ccc    C18 2321  -1.433   7.629   7.072 -0.2950 -0.1669 -0.3625
   72ccc    H29 2322  -1.309   7.756   7.189 -1.5037  1.0092 -2.6217
   72ccc    C19 2323  -1.319   7.529   7.024 -0.7074 -0.1548  1.0150
   72ccc    C20 2324  -1.279   7.428   7.138  0.0776 -0.4033 -0.2632
   72ccc    C21 2325  -1.266   7.504   7.271 -0.2323 -0.2829 -1.1713
   72ccc    H30 2326  -1.358   7.354   7.156  1.1939 -1.7857 -0.8450
   72ccc    H31 2327  -1.231   7.580   6.983 -0.9351 -0.2476  0.4068
   72ccc    H32 2328  -1.169   7.556   7.271 -0.1646 -0.4105 -0.5085
   72ccc    O10 2329  -1.257   7.415   7.381  0.0143  0.0377  0.0841
   72ccc    O11 2330  -1.370   7.436   6.923  0.0238  0.0781 -0.0550
   72ccc    C22 2331  -1.524   7.785   7.251 -0.3726 -0.1694  0.9139
   72ccc    H33 2332  -1.292   7.394   6.881  0.2973  1.7941 -1.3710
   72ccc    H34 2333  -1.187   7.264   7.064 -1.2787  0.2510  0.4367
   72ccc    H35 2334  -1.613   7.727   7.278 -0.9752  1.6684  3.1705
   72ccc    H36 2335  -1.550   7.848   7.165 -0.7788 -1.6066 -0.0471
   72ccc    O12 2336  -1.499   7.864   7.366  0.7162 -0.4223  0.3383
   72ccc    H37 2337  -1.582   7.881   7.414 -0.3399 -1.5637 -0.9994
   72ccc    O13 2338  -1.376   7.591   7.299  0.7469 -0.2977  0.2750
   72ccc    H38 2339  -1.348   7.395   7.410 -0.5494  0.3277 -1.3892
   72ccc    H39 2340  -1.531   7.581   7.083  0.6280 -2.2826 -0.8387
   72ccc     O5 2341  -1.438   7.728   6.966 -0.2273  0.3857 -0.5336
   72ccc    H40 2342  -1.481   7.686   6.890 -0.1072  0.4310 -0.6266
   72ccc     N4 2343  -1.160   7.356   7.097  0.3069 -0.0450  0.0300
   73ccc     N1 2344  -0.017   7.439   6.126 -0.5735  0.2786  0.4786
   73ccc     H4 2345  -0.043   7.503   6.052  2.1497  0.2488 -0.6163
   73ccc     C3 2346   0.133   7.416   6.125  0.5773 -0.0677  0.5225
   73ccc     H5 2347   0.155   7.314   6.158  3.2284  0.3416  0.2268
   73ccc     C4 2348   0.202   7.508   6.222 -0.5717 -0.0085  0.3314
   73ccc     H6 2349   0.172   7.422   6.023 -2.0074  0.7711 -0.5129
   73ccc     H7 2350   0.158   7.502   6.322 -0.5035 -0.0048  0.3622
   73ccc     H8 2351   0.181   7.611   6.191  0.8500  0.1070 -0.3406
   73ccc     N2 2352   0.344   7.490   6.233 -0.2585  0.6771  0.0567
   73ccc     C5 2353   0.419   7.514   6.106  0.5713 -0.0465  0.0162
   73ccc     C6 2354   0.393   7.363   6.284 -0.3211  0.1834 -0.4723
   73ccc     H9 2355   0.356   7.278   6.226 -0.7200 -0.1008  0.1756
   73ccc     C7 2356   0.350   7.345   6.430  0.1334 -0.3633  0.2600
   73ccc    H10 2357   0.502   7.357   6.292 -0.2673  1.4771  0.1041
   73ccc    H11 2358   0.393   7.252   6.469 -2.2104 -1.5130  0.2887
   73ccc    H12 2359   0.241   7.338   6.442 -0.5345  0.2585 -3.8394
   73ccc     C8 2360   0.409   7.448   6.524 -0.0247 -0.5670 -0.1384
   73ccc     O2 2361   0.499   7.530   6.504  0.5157  0.1098  0.3966
   73ccc    H13 2362   0.393   7.438   6.031  1.5432 -1.9938  1.5664
   73ccc    H14 2363   0.523   7.523   6.138  0.3909  2.9987  0.0677
   73ccc     C9 2364   0.393   7.650   6.038  0.3031  1.2459 -0.3621
   73ccc    H15 2365   0.390   7.719   6.123 -0.4763  2.8872 -1.6576
   73ccc    H16 2366   0.301   7.646   5.978  0.4086 -3.0685 -0.5205
   73ccc    C10 2367   0.504   7.681   5.937  0.3788 -0.3305 -0.3884
   73ccc     O4 2368   0.599   7.750   5.966  0.3135 -0.1964 -0.5102
   73ccc    C11 2369   0.483   7.464   7.068  0.3218  0.8043 -0.2362
   73ccc    C12 2370   0.598   7.474   6.960  0.5956  0.1606 -0.7765
   73ccc    H17 2371   0.467   7.359   7.096  4.3571  0.4597  1.5692
   73ccc    C13 2372   0.558   7.418   6.818 -0.8959  0.0293  0.0952
   73ccc    C14 2373   0.422   7.479   6.772  0.1102 -0.3562 -0.0394
   73ccc    C15 2374   0.318   7.471   6.888  0.5871  0.2237 -0.6340
   73ccc    H18 2375   0.433   7.587   6.757 -0.8482 -0.3132 -0.5884
   73ccc    H19 2376   0.542   7.310   6.821 -1.2937  0.1012  1.0391
   73ccc    H20 2377   0.284   7.367   6.897 -1.5713  0.9042 -0.2158
   73ccc     O1 2378   0.206   7.546   6.858  1.0792  0.3465 -0.0425
   73ccc     O6 2379   0.659   7.453   6.721 -0.2756 -0.0243 -0.4815
   73ccc    C16 2380   0.522   7.537   7.196 -0.0660  0.1602 -0.3705
   73ccc    H21 2381   0.611   7.482   6.642 -1.6395 -0.9390 -0.0290
   73ccc    H22 2382   0.283   7.358   6.665  0.5202 -0.5409  4.7012
   73ccc    H23 2383   0.513   7.646   7.185  2.9087  0.4280 -0.9354
   73ccc    H24 2384   0.630   7.526   7.215  0.0684 -1.4792 -1.8535
   73ccc     O7 2385   0.445   7.490   7.315 -0.7152  0.3771  0.4435
   73ccc    H25 2386   0.362   7.539   7.303 -1.3657 -0.9993 -1.0232
   73ccc     O8 2387   0.366   7.523   7.014 -0.2763  0.3663  0.4072
   73ccc    H26 2388   0.146   7.540   6.935  0.7635 -0.8803 -0.3661
   73ccc    H27 2389   0.608   7.580   6.936 -1.3031  0.6013  0.2533
   73ccc     O9 2390   0.728   7.423   6.993  0.0994 -0.4199 -0.0668
   73ccc    H28 2391   0.775   7.420   6.908  0.0027 -1.7225 -0.1027
   73ccc     N3 2392   0.358   7.425   6.647 -0.4834 -0.3416 -0.3069
   73ccc    C17 2393   0.695   7.463   5.496 -0.7818 -0.0328 -0.0338
   73ccc    C18 2394   0.622   7.592   5.453 -0.2090  0.2714 -0.3391
   73ccc    H29 2395   0.617   7.386   5.499  0.4992 -1.3360  1.5736
   73ccc    C19 2396   0.519   7.632   5.562  0.0580  0.2367 -0.3563
   73ccc    C20 2397   0.578   7.620   5.707  0.5209 -0.3002 -0.0124
   73ccc    C21 2398   0.643   7.482   5.727 -0.2915  0.3274  0.8298
   73ccc    H30 2399   0.650   7.702   5.717 -0.3651  0.7888 -1.8437
   73ccc    H31 2400   0.434   7.564   5.547  0.7364 -0.6057 -0.4619
   73ccc    H32 2401   0.578   7.395   5.715 -1.1844  1.1683 -0.8371
   73ccc    O10 2402   0.716   7.457   5.847 -0.3568  0.4292 -0.1705
   73ccc    O11 2403   0.486   7.773   5.531  0.8874  0.0241 -0.2724
   73ccc    C22 2404   0.815   7.429   5.399  0.1602 -0.2524 -0.5890
   73ccc    H33 2405   0.566   7.822   5.554  0.8009 -0.8093  2.1056
   73ccc    H34 2406   0.400   7.576   5.786 -0.5851 -0.1089  0.9502
   73ccc    H35 2407   0.890   7.509   5.402 -0.3213  0.1864  0.0156
   73ccc    H36 2408   0.785   7.425   5.293 -2.6186 -0.2079  0.1023
   73ccc    O12 2409   0.870   7.298   5.454 -0.4684  0.1258  0.1428
   73ccc    H37 2410   0.803   7.260   5.513  1.4627 -1.0610  1.7012
   73ccc    O13 2411   0.747   7.476   5.630  0.6263 -0.5130 -0.4473
   73ccc    H38 2412   0.795   7.405   5.827 -0.7462  0.0391 -0.7067
   73ccc    H39 2413   0.691   7.676   5.448 -0.7309  0.7177 -0.1057
   73ccc     O5 2414   0.556   7.571   5.326 -0.7383  0.0792 -0.1277
   73ccc    H40 2415   0.510   7.485   5.329 -1.0301  0.2484  0.4934
   73ccc     N4 2416   0.478   7.638   5.808 -0.1857 -0.3437  0.2045
   74ccc     N1 2417  -1.147   5.451   7.304 -0.0811 -0.3057  0.2123
   74ccc     H4 2418  -1.068   5.486   7.356  0.0213 -1.7108  1.0583
   74ccc     C3 2419  -1.234   5.350   7.374 -0.0093  0.0098  0.0176
   74ccc     H5 2420  -1.339   5.358   7.342 -0.1901 -1.2747  0.2013
   74ccc     C4 2421  -1.219   5.368   7.527  0.3931 -0.1972  0.1037
   74ccc     H6 2422  -1.205   5.247   7.347 -2.8128 -0.7029 -0.5991
   74ccc     H7 2423  -1.139   5.443   7.540  0.8869 -0.8426  0.9366
   74ccc     H8 2424  -1.169   5.283   7.575  0.5252  0.2418  0.7607
   74ccc     N2 2425  -1.348   5.390   7.593 -0.5650 -0.2449 -0.3128
   74ccc     C5 2426  -1.400   5.525   7.563  0.1148  0.4280 -0.2066
   74ccc     C6 2427  -1.342   5.359   7.734 -0.7766 -0.7045  0.0593
   74ccc     H9 2428  -1.251   5.404   7.776 -2.1800  1.5390  0.9163
   74ccc     C7 2429  -1.340   5.211   7.763  0.8020  0.2903  0.7787
   74ccc    H10 2430  -1.436   5.393   7.779 -1.6952 -0.3246 -2.0214
   74ccc    H11 2431  -1.267   5.151   7.707  0.8763  1.0796  0.0109
   74ccc    H12 2432  -1.442   5.186   7.729  1.2730 -0.1811 -0.3371
   74ccc     C8 2433  -1.331   5.184   7.910 -0.3286  0.2446  0.1483
   74ccc     O2 2434  -1.422   5.147   7.980  0.0261  0.5195  0.0302
   74ccc    H13 2435  -1.382   5.553   7.459  2.8023  2.5055  0.7341
   74ccc    H14 2436  -1.343   5.600   7.619  2.1433 -1.6391  0.6560
   74ccc     C9 2437  -1.549   5.534   7.591  0.0297 -1.1007 -0.1950
   74ccc    H15 2438  -1.601   5.440   7.609 -3.3182  1.2361  4.8981
   74ccc    H16 2439  -1.600   5.589   7.512  2.5794  2.1116  0.1471
   74ccc    C10 2440  -1.576   5.611   7.723  0.4826  0.5526  0.2353
   74ccc     O4 2441  -1.625   5.563   7.829 -0.2052  0.4855  0.0396
   74ccc    C11 2442  -1.029   5.322   8.329  0.6549  0.2916  0.7445
   74ccc    C12 2443  -1.174   5.370   8.308  0.2599 -0.1335  0.1353
   74ccc    H17 2444  -0.952   5.382   8.280 -1.0237  1.4682 -0.5619
   74ccc    C13 2445  -1.219   5.352   8.162  0.0746  0.6305 -0.3481
   74ccc    C14 2446  -1.174   5.211   8.104  0.3887  0.4227  0.6925
   74ccc    C15 2447  -1.027   5.175   8.139 -0.1184 -0.1054  0.5291
   74ccc    H18 2448  -1.236   5.138   8.158 -1.5766  1.0135 -0.6212
   74ccc    H19 2449  -1.171   5.426   8.097 -0.5921  0.0598 -1.5345
   74ccc    H20 2450  -0.958   5.251   8.100 -1.6038  2.1288  2.0448
   74ccc     O1 2451  -0.983   5.043   8.104  0.2471 -0.5341  0.1061
   74ccc     O6 2452  -1.362   5.362   8.153  0.4059  0.4495 -0.5866
   74ccc    C16 2453  -0.987   5.319   8.477  0.1124  0.0496 -0.8509
   74ccc    H21 2454  -1.393   5.281   8.108  0.0964  1.2931 -1.9317
   74ccc    H22 2455  -1.139   5.236   7.893 -1.5794  1.1642 -0.5405
   74ccc    H23 2456  -0.998   5.416   8.527 -0.1144 -0.2439 -0.3214
   74ccc    H24 2457  -0.881   5.291   8.467 -0.2538 -0.7329 -3.3565
   74ccc     O7 2458  -1.048   5.229   8.566  0.2462  0.2154 -0.1584
   74ccc    H25 2459  -1.042   5.146   8.516  0.5250  1.2504 -1.9231
   74ccc     O8 2460  -1.017   5.189   8.279  0.0279  0.2586  0.3335
   74ccc    H26 2461  -0.992   5.032   8.008  1.2455 -1.3076  0.0830
   74ccc    H27 2462  -1.240   5.317   8.378 -0.3354  1.5362  0.8980
   74ccc     O9 2463  -1.184   5.510   8.335 -0.4503 -0.0768 -0.1048
   74ccc    H28 2464  -1.259   5.548   8.286 -1.2662 -0.0196  1.1416
   74ccc     N3 2465  -1.212   5.202   7.956 -0.3809 -0.2014  0.1692
   74ccc    C17 2466  -1.569   5.818   8.140 -0.2594  0.3747  0.0678
   74ccc    C18 2467  -1.419   5.804   8.094  0.1016 -0.5136 -0.0150
   74ccc    H29 2468  -1.624   5.723   8.141  0.3576  0.0107  1.4140
   74ccc    C19 2469  -1.410   5.748   7.949  0.4993 -0.5580  0.1293
   74ccc    C20 2470  -1.513   5.820   7.847  0.3931  0.3325 -0.1394
   74ccc    C21 2471  -1.650   5.851   7.916 -0.1640  0.1370 -0.6852
   74ccc    H30 2472  -1.480   5.923   7.833  1.5759 -0.0835 -0.5679
   74ccc    H31 2473  -1.448   5.645   7.955 -1.6665  0.2356  1.3298
   74ccc    H32 2474  -1.698   5.756   7.941 -1.0580  0.9874  1.0036
   74ccc    O10 2475  -1.735   5.952   7.863  0.2859 -0.4501  0.1211
   74ccc    O11 2476  -1.277   5.752   7.900  0.3431 -0.8446 -0.3274
   74ccc    C22 2477  -1.588   5.881   8.281  0.2485 -0.3674 -0.3871
   74ccc    H33 2478  -1.278   5.791   7.811 -0.3504  1.9486  0.8153
   74ccc    H34 2479  -1.494   5.768   7.636 -1.2964  0.7802  0.3281
   74ccc    H35 2480  -1.569   5.806   8.358  0.1192  0.1905  0.2010
   74ccc    H36 2481  -1.692   5.913   8.294 -0.9836 -4.0851  0.0276
   74ccc    O12 2482  -1.520   6.003   8.302 -0.1569  0.1441 -0.5049
   74ccc    H37 2483  -1.428   5.988   8.332  0.5166  0.0899 -2.4633
   74ccc    O13 2484  -1.628   5.906   8.047  0.7707 -0.3652 -0.0552
   74ccc    H38 2485  -1.789   5.981   7.938  0.7447  0.3032  0.1777
   74ccc    H39 2486  -1.377   5.906   8.097 -1.0136 -0.0480  0.5305
   74ccc     O5 2487  -1.355   5.718   8.194  0.4559 -0.3002  0.4814
   74ccc    H40 2488  -1.258   5.725   8.199  0.3570  1.3282  0.8490
   74ccc     N4 2489  -1.531   5.735   7.725 -0.0859  0.4842  0.7352
   75ccc     N1 2490  -0.534   5.760   7.280  0.1615  0.0110 -0.2253
   75ccc     H4 2491  -0.614   5.805   7.237  0.2509  0.5080  0.1159
   75ccc     C3 2492  -0.438   5.828   7.374 -0.2764 -0.1641  0.0570
   75ccc     H5 2493  -0.338   5.813   7.332 -0.0066 -0.6077  0.8208
   75ccc     C4 2494  -0.441   5.779   7.519  0.4112  0.0335 -0.0239
   75ccc     H6 2495  -0.462   5.935   7.370  1.3395  0.1727 -1.7964
   75ccc     H7 2496  -0.448   5.670   7.519  1.5809 -0.0516  0.3505
   75ccc     H8 2497  -0.530   5.812   7.573 -0.1519  0.4682 -1.1879
   75ccc     N2 2498  -0.322   5.819   7.599  0.3199  0.8101  0.7178
   75ccc     C5 2499  -0.293   5.959   7.611 -0.2659 -0.0721 -0.1178
   75ccc     C6 2500  -0.212   5.736   7.540 -0.2268 -0.4204 -0.0878
   75ccc     H9 2501  -0.250   5.647   7.489  1.6523 -1.1612 -0.2575
   75ccc     C7 2502  -0.104   5.702   7.638  0.4887 -0.4070 -1.1095
   75ccc    H10 2503  -0.163   5.794   7.461  0.8189 -1.7428 -0.4351
   75ccc    H11 2504  -0.149   5.640   7.716  1.4393 -1.3329 -1.2742
   75ccc    H12 2505  -0.072   5.796   7.686 -0.9916  0.8198 -2.4396
   75ccc     C8 2506   0.013   5.632   7.575  0.8561 -0.2599  0.7860
   75ccc     O2 2507   0.034   5.630   7.456 -0.0218 -0.6920  0.0897
   75ccc    H13 2508  -0.303   6.004   7.512 -3.3178 -1.1912 -0.4413
   75ccc    H14 2509  -0.188   5.967   7.640 -0.2948 -0.3919  0.0785
   75ccc     C9 2510  -0.376   6.018   7.721  0.6529 -0.1967  0.5967
   75ccc    H15 2511  -0.382   5.946   7.803 -1.1230 -0.3857  0.3431
   75ccc    H16 2512  -0.483   6.022   7.698  0.0822 -0.7899  2.8608
   75ccc    C10 2513  -0.333   6.156   7.766  0.4197  0.2822 -0.0324
   75ccc     O4 2514  -0.216   6.190   7.766 -0.2758 -0.2723  0.4107
   75ccc    C11 2515   0.403   5.360   7.459  0.7329 -0.2950 -1.0024
   75ccc    C12 2516   0.449   5.485   7.518  0.1289 -0.2864  0.5555
   75ccc    H17 2517   0.362   5.383   7.360  1.3231 -1.8306 -1.6322
   75ccc    C13 2518   0.329   5.579   7.552  0.3263  0.3244  0.1281
   75ccc    C14 2519   0.224   5.497   7.634 -0.0857  0.3341 -0.1083
   75ccc    C15 2520   0.183   5.364   7.579  0.5333  0.4525 -1.1482
   75ccc    H18 2521   0.277   5.482   7.729 -1.7844 -2.6152  0.4998
   75ccc    H19 2522   0.278   5.605   7.458  0.5365  1.9984  0.4515
   75ccc    H20 2523   0.112   5.373   7.495  0.2596 -1.0202 -1.0881
   75ccc     O1 2524   0.130   5.302   7.697  0.1370  0.6522  0.0727
   75ccc     O6 2525   0.379   5.694   7.615  0.2284 -0.2611 -0.3817
   75ccc    C16 2526   0.511   5.261   7.432 -0.4076  0.4336  0.6178
   75ccc    H21 2527   0.471   5.694   7.584 -0.2980  0.1068 -2.0535
   75ccc    H22 2528   0.087   5.586   7.761  0.5939 -1.3601 -0.4113
   75ccc    H23 2529   0.543   5.200   7.517  0.7881  1.7604  1.1634
   75ccc    H24 2530   0.598   5.323   7.406 -1.8044  3.4774  2.5508
   75ccc     O7 2531   0.476   5.162   7.329  0.4341  0.0309 -0.3693
   75ccc    H25 2532   0.559   5.131   7.290  1.1992  0.1730  1.0776
   75ccc     O8 2533   0.301   5.298   7.541 -0.0218  0.5002  0.3267
   75ccc    H26 2534   0.179   5.218   7.706  0.5242  0.7389 -1.0999
   75ccc    H27 2535   0.499   5.459   7.612  1.5642 -0.8708 -0.3425
   75ccc     O9 2536   0.524   5.561   7.418  0.2061 -0.0473  0.1022
   75ccc    H28 2537   0.460   5.596   7.354 -1.3196 -1.4895  0.7621
   75ccc     N3 2538   0.107   5.590   7.661 -0.3654 -0.2977 -0.5816
   75ccc    C17 2539  -0.489   6.628   7.925  0.0890 -0.1544 -0.4363
   75ccc    C18 2540  -0.537   6.529   8.036  0.1032 -0.2106  0.1127
   75ccc    H29 2541  -0.563   6.624   7.844 -1.3806 -0.6929  0.8769
   75ccc    C19 2542  -0.546   6.391   7.967  0.0062 -0.7045  0.1409
   75ccc    C20 2543  -0.413   6.356   7.885  0.0926 -0.1802  0.1504
   75ccc    C21 2544  -0.355   6.476   7.799  0.1212  0.7354 -0.4584
   75ccc    H30 2545  -0.328   6.339   7.951 -0.0216  1.2385  0.6873
   75ccc    H31 2546  -0.630   6.407   7.898  1.0127 -0.6288 -1.1117
   75ccc    H32 2547  -0.427   6.484   7.717  1.0430  0.0908 -1.3460
   75ccc    O10 2548  -0.221   6.451   7.756  0.0205 -1.0653 -0.6219
   75ccc    O11 2549  -0.572   6.279   8.047  0.4529  0.1616 -0.2404
   75ccc    C22 2550  -0.478   6.779   7.972  0.0621 -0.5668 -0.5965
   75ccc    H33 2551  -0.488   6.269   8.096  1.1230 -0.4088 -1.4664
   75ccc    H34 2552  -0.525   6.193   7.802 -0.9911  3.0236 -0.7432
   75ccc    H35 2553  -0.399   6.790   8.047  1.6879 -0.1424 -2.3024
   75ccc    H36 2554  -0.570   6.807   8.025  0.3940 -2.4180  1.1126
   75ccc    O12 2555  -0.450   6.878   7.871  0.0808  0.1008  0.1437
   75ccc    H37 2556  -0.533   6.905   7.830  2.1200  1.8889 -3.2727
   75ccc    O13 2557  -0.360   6.596   7.877  0.5020  0.5767 -0.0887
   75ccc    H38 2558  -0.224   6.354   7.760 -0.5173 -0.9924  1.8358
   75ccc    H39 2559  -0.453   6.526   8.107  2.0386  1.9396 -1.9115
   75ccc     O5 2560  -0.655   6.564   8.096  0.0290  0.0832  0.1010
   75ccc    H40 2561  -0.636   6.622   8.171 -0.1322  2.3763 -1.5472
   75ccc     N4 2562  -0.433   6.237   7.801  0.4909  0.1548  0.0092
   76ccc     N1 2563  -1.597   6.093   5.678  0.0307  0.9083 -0.1203
   76ccc     H4 2564  -1.524   6.036   5.636  0.1026  0.6282  0.3795
   76ccc     C3 2565  -1.611   6.235   5.628  0.7521  0.1533  0.1973
   76ccc     H5 2566  -1.632   6.297   5.717  1.4249  0.8831 -0.1346
   76ccc     C4 2567  -1.715   6.254   5.516 -0.5002  0.7965  0.2062
   76ccc     H6 2568  -1.508   6.264   5.604  1.5630  1.7303  4.5347
   76ccc     H7 2569  -1.718   6.361   5.496  1.1724  0.3374 -3.4306
   76ccc     H8 2570  -1.811   6.227   5.561 -0.9049  0.3336 -0.8878
   76ccc     N2 2571  -1.688   6.183   5.395 -0.6161 -0.2922  0.3833
   76ccc     C5 2572  -1.572   6.251   5.327 -0.8986  0.1800  0.6360
   76ccc     C6 2573  -1.803   6.161   5.311 -0.3650 -0.3592  0.0030
   76ccc     H9 2574  -1.862   6.253   5.301 -0.8728 -0.4818  1.6164
   76ccc     C7 2575  -1.890   6.054   5.374  0.0176 -0.2815 -0.4202
   76ccc    H10 2576  -1.772   6.143   5.208  2.2691  1.2953  0.4066
   76ccc    H11 2577  -1.925   6.074   5.476  0.2209 -0.4359 -0.3204
   76ccc    H12 2578  -1.832   5.961   5.366  2.1697  1.0545 -1.1591
   76ccc     C8 2579  -2.010   6.030   5.288 -0.1184  0.1796 -0.0233
   76ccc     O2 2580  -2.016   5.950   5.199 -0.3292  0.6604  0.3918
   76ccc    H13 2581  -1.486   6.236   5.393 -0.1182 -0.5787 -0.5187
   76ccc    H14 2582  -1.592   6.358   5.311  1.9273  0.6201 -0.6066
   76ccc     C9 2583  -1.530   6.201   5.194  0.4633  0.0295 -0.1978
   76ccc    H15 2584  -1.609   6.225   5.122  1.0161  0.9119 -0.5233
   76ccc    H16 2585  -1.502   6.095   5.189 -1.0253 -0.3582 -0.8941
   76ccc    C10 2586  -1.407   6.283   5.151 -0.0554 -0.4417  0.2480
   76ccc     O4 2587  -1.316   6.333   5.221 -0.2090  0.6558  0.6261
   76ccc    C11 2588  -2.437   5.934   5.075 -0.6631 -0.0264 -0.1532
   76ccc    C12 2589  -2.424   5.904   5.229 -0.0268 -0.1012  0.1680
   76ccc    H17 2590  -2.379   5.853   5.029 -1.4815  0.2682 -1.7723
   76ccc    C13 2591  -2.296   5.941   5.301 -0.0886 -0.3948 -1.0707
   76ccc    C14 2592  -2.248   6.079   5.250 -0.3360  0.4800 -1.0662
   76ccc    C15 2593  -2.250   6.088   5.100  0.2843  0.3997  0.0674
   76ccc    H18 2594  -2.315   6.158   5.285 -1.2123 -1.1332  1.0947
   76ccc    H19 2595  -2.223   5.860   5.283  0.7270  0.6850 -2.9092
   76ccc    H20 2596  -2.180   6.018   5.054  0.4957 -0.4158  1.5560
   76ccc     O1 2597  -2.227   6.220   5.049  1.0543  0.3388  0.4287
   76ccc     O6 2598  -2.310   5.951   5.447 -0.3530 -0.0225  0.2101
   76ccc    C16 2599  -2.588   5.925   5.026  0.3507  0.4010  0.0870
   76ccc    H21 2600  -2.371   5.879   5.472 -1.9020  0.8935 -0.7870
   76ccc    H22 2601  -2.126   6.160   5.394  0.0951  1.2650  0.2112
   76ccc    H23 2602  -2.648   6.001   5.078  0.9370 -0.2461  1.7515
   76ccc    H24 2603  -2.606   5.822   5.059  2.0988 -0.0318 -0.2330
   76ccc     O7 2604  -2.579   5.929   4.888 -0.2768  0.0500  0.2420
   76ccc    H25 2605  -2.665   5.962   4.857 -0.2007  0.4730  0.4656
   76ccc     O8 2606  -2.383   6.071   5.057  0.2345 -0.3308 -0.4243
   76ccc    H26 2607  -2.135   6.245   5.064  1.5803  0.3277 -2.3303
   76ccc    H27 2608  -2.515   5.941   5.276 -1.8354 -1.3819 -2.0723
   76ccc     O9 2609  -2.439   5.760   5.234  0.5605 -0.0799 -0.6346
   76ccc    H28 2610  -2.483   5.729   5.315 -0.0362 -0.8024 -1.2211
   76ccc     N3 2611  -2.113   6.116   5.303 -0.2257  0.1042  0.7033
   76ccc    C17 2612  -1.478   6.168   4.606 -0.0147  0.1435  0.3242
   76ccc    C18 2613  -1.404   6.055   4.694  0.3756  0.7319  0.1759
   76ccc    H29 2614  -1.410   6.232   4.549  1.1069 -2.4612 -1.4726
   76ccc    C19 2615  -1.351   6.120   4.833  0.1534  0.4313 -0.0916
   76ccc    C20 2616  -1.446   6.215   4.903 -0.6360  0.1335 -0.3621
   76ccc    C21 2617  -1.504   6.308   4.797  0.0843 -0.4183  0.5706
   76ccc    H30 2618  -1.533   6.159   4.940 -0.2866 -0.2267 -0.0840
   76ccc    H31 2619  -1.258   6.175   4.815  0.9717  0.1842  2.9342
   76ccc    H32 2620  -1.421   6.373   4.764 -2.0607  1.4753 -1.4973
   76ccc    O10 2621  -1.611   6.379   4.860 -0.0343  1.0051  0.0078
   76ccc    O11 2622  -1.318   6.026   4.934 -0.0630 -0.9842 -0.2847
   76ccc    C22 2623  -1.562   6.104   4.495  0.9033  0.4762  0.2367
   76ccc    H33 2624  -1.395   5.984   4.977  1.5914 -3.9741  0.0498
   76ccc    H34 2625  -1.295   6.322   4.990 -0.7140  1.2059 -1.9128
   76ccc    H35 2626  -1.621   6.029   4.551  0.8503  1.8847  2.1696
   76ccc    H36 2627  -1.495   6.071   4.415 -1.2362  3.7613 -3.2407
   76ccc    O12 2628  -1.657   6.203   4.444 -0.3383  0.4367  0.1941
   76ccc    H37 2629  -1.656   6.271   4.513 -0.8845  1.0890 -0.4099
   76ccc    O13 2630  -1.568   6.245   4.690  0.4574 -0.3767  0.2565
   76ccc    H38 2631  -1.635   6.443   4.791 -0.5539 -0.4250 -1.2034
   76ccc    H39 2632  -1.477   5.975   4.713  1.7770 -0.6873 -0.1726
   76ccc     O5 2633  -1.301   5.988   4.612 -0.4773  0.1100  0.0349
   76ccc    H40 2634  -1.267   5.910   4.659 -0.1960 -0.6439 -1.3384
   76ccc     N4 2635  -1.383   6.282   5.021  0.1060  0.2631 -0.7258
   77ccc     N1 2636  -1.803   5.660   6.447  0.3236 -0.0243  0.1041
   77ccc     H4 2637  -1.707   5.638   6.426  0.6634  2.3892 -1.2991
   77ccc     C3 2638  -1.858   5.639   6.591  0.5910 -0.6977  0.5581
   77ccc     H5 2639  -1.967   5.648   6.590  0.5825 -0.5198 -1.6605
   77ccc     C4 2640  -1.800   5.740   6.699  0.6950  0.3945  0.0792
   77ccc     H6 2641  -1.831   5.534   6.604 -1.0542 -1.1712  0.3827
   77ccc     H7 2642  -1.816   5.833   6.643 -0.8996 -1.7444 -3.3498
   77ccc     H8 2643  -1.692   5.728   6.716  0.6422 -1.1989 -0.4875
   77ccc     N2 2644  -1.876   5.738   6.826  0.7382 -0.1867 -0.4565
   77ccc     C5 2645  -1.832   5.848   6.910  0.1869  1.4849 -0.0127
   77ccc     C6 2646  -1.876   5.603   6.889 -0.2402 -0.6253  0.3124
   77ccc     H9 2647  -1.807   5.530   6.845 -0.6235 -1.1328  0.5370
   77ccc     C7 2648  -2.020   5.554   6.867  0.4264 -0.1980 -0.0028
   77ccc    H10 2649  -1.855   5.615   6.996  2.6949  0.1928 -0.2756
   77ccc    H11 2650  -2.044   5.505   6.772  2.5699 -1.0740 -0.1589
   77ccc    H12 2651  -2.088   5.640   6.868  0.0877 -0.4567 -0.3374
   77ccc     C8 2652  -2.052   5.447   6.971 -0.1878  0.0312  0.6910
   77ccc     O2 2653  -1.977   5.358   7.002 -0.0448 -0.0281  0.3979
   77ccc    H13 2654  -1.811   5.932   6.844 -0.1277  2.5084  1.1544
   77ccc    H14 2655  -1.734   5.820   6.953  0.8835  2.3277 -1.0061
   77ccc     C9 2656  -1.930   5.880   7.027 -0.1159  0.3337  0.8794
   77ccc    H15 2657  -1.954   5.786   7.078 -1.2925  0.6166  0.8603
   77ccc    H16 2658  -2.019   5.927   6.984  0.1436  0.5712  0.5935
   77ccc    C10 2659  -1.863   5.972   7.123 -0.2376  0.8333 -0.3219
   77ccc     O4 2660  -1.763   6.038   7.099  0.2539 -0.4130 -0.1868
   77ccc    C11 2661  -2.279   5.206   7.338  0.6151  0.6274  1.1195
   77ccc    C12 2662  -2.207   5.334   7.380  0.6520 -0.7851  0.0778
   77ccc    H17 2663  -2.202   5.129   7.325  2.4709  2.4841  0.6103
   77ccc    C13 2664  -2.139   5.403   7.265  0.0842 -0.8547  0.1621
   77ccc    C14 2665  -2.234   5.429   7.143 -0.6867  0.1190  0.0190
   77ccc    C15 2666  -2.293   5.295   7.094 -0.6651  0.0238  0.0193
   77ccc    H18 2667  -2.320   5.489   7.178 -1.3804  0.3743 -1.9721
   77ccc    H19 2668  -2.048   5.351   7.234 -0.9817 -2.6760 -0.0202
   77ccc    H20 2669  -2.220   5.226   7.051 -1.8735 -0.0591 -2.0644
   77ccc     O1 2670  -2.401   5.313   7.003  0.3376  0.0730 -0.6954
   77ccc     O6 2671  -2.092   5.527   7.320  0.9155  0.9010  0.3191
   77ccc    C16 2672  -2.378   5.157   7.447  0.4747 -0.4249 -0.2160
   77ccc    H21 2673  -2.024   5.553   7.256 -0.6769  0.9889 -1.4243
   77ccc    H22 2674  -2.215   5.562   6.985 -0.0349  0.2421  0.1157
   77ccc    H23 2675  -2.456   5.235   7.453  0.1575 -0.8379  1.9201
   77ccc    H24 2676  -2.320   5.154   7.540  1.7634 -1.3369 -1.0269
   77ccc     O7 2677  -2.431   5.036   7.411  0.0610  0.7645 -0.2008
   77ccc    H25 2678  -2.445   5.037   7.314 -0.3636  2.0780 -0.1435
   77ccc     O8 2679  -2.361   5.236   7.214  0.0392  0.3127 -0.4930
   77ccc    H26 2680  -2.365   5.341   6.918  1.1497  0.7040 -0.1595
   77ccc    H27 2681  -2.284   5.393   7.431 -0.7485 -1.8165 -0.7830
   77ccc     O9 2682  -2.118   5.306   7.483  0.2071  0.0516 -0.6675
   77ccc    H28 2683  -2.069   5.385   7.511  1.6307 -1.1609  0.3851
   77ccc     N3 2684  -2.158   5.495   7.037 -0.2807 -0.0290  0.0413
   77ccc    C17 2685  -1.925   5.734   7.608  0.6799  0.0253  0.1899
   77ccc    C18 2686  -2.064   5.791   7.561 -0.3501  0.2373 -0.0613
   77ccc    H29 2687  -1.879   5.806   7.676  0.2969 -0.4236  0.9336
   77ccc    C19 2688  -2.040   5.906   7.462  0.0456  0.2100 -0.1479
   77ccc    C20 2689  -1.948   5.877   7.341  0.4661  0.1820  0.7631
   77ccc    C21 2690  -1.811   5.823   7.411  0.3812 -0.4541  0.6880
   77ccc    H30 2691  -1.999   5.792   7.296  0.0473  0.5335  0.5697
   77ccc    H31 2692  -2.007   5.994   7.520 -1.7084  1.1106 -0.4368
   77ccc    H32 2693  -1.776   5.908   7.471 -0.4125 -0.8848  1.8016
   77ccc    O10 2694  -1.722   5.770   7.321  0.6881  0.8846 -0.4148
   77ccc    O11 2695  -2.164   5.941   7.407  0.4663  0.0430 -0.3001
   77ccc    C22 2696  -1.936   5.599   7.684 -0.2861 -0.2758  0.2778
   77ccc    H33 2697  -2.146   6.005   7.336  0.3202  1.6784  1.0684
   77ccc    H34 2698  -1.874   6.063   7.287  2.4454 -0.5181 -1.5473
   77ccc    H35 2699  -2.007   5.608   7.768 -1.4564  4.5404 -0.9407
   77ccc    H36 2700  -1.840   5.571   7.730 -0.6677 -2.5974 -0.2128
   77ccc    O12 2701  -1.971   5.492   7.592  0.4263  0.1017  0.8503
   77ccc    H37 2702  -1.927   5.512   7.507 -1.2557 -0.5553 -0.2222
   77ccc    O13 2703  -1.841   5.714   7.490  0.1617 -0.3668 -0.6671
   77ccc    H38 2704  -1.747   5.677   7.322  1.8077  0.5354  1.7285
   77ccc    H39 2705  -2.120   5.706   7.520  0.6288 -0.7909  0.6554
   77ccc     O5 2706  -2.130   5.846   7.677  0.1083  0.0275 -0.2495
   77ccc    H40 2707  -2.148   5.780   7.746 -0.8328  0.7271  0.1993
   77ccc     N4 2708  -1.925   5.989   7.238  0.3731 -0.1310 -0.1220
   78ccc     N1 2709   2.316   6.949   6.105  0.2056 -0.2159  0.0361
   78ccc     H4 2710   2.224   6.925   6.070  0.1652  0.6656 -0.4729
   78ccc     C3 2711   2.327   7.058   6.202 -0.3445  0.1077 -0.8449
   78ccc     H5 2712   2.426   7.106   6.201 -0.4792  0.4333  0.1798
   78ccc     C4 2713   2.321   7.010   6.347 -0.2013 -0.1133 -0.0449
   78ccc     H6 2714   2.249   7.132   6.184 -1.3590 -0.7770 -0.1753
   78ccc     H7 2715   2.339   7.094   6.416 -1.4721  0.0324  0.1407
   78ccc     H8 2716   2.406   6.945   6.370 -1.3001 -1.4612  0.3274
   78ccc     N2 2717   2.206   6.936   6.387 -0.0429 -0.5365  0.2039
   78ccc     C5 2718   2.237   6.841   6.501 -0.3336 -0.3510  0.2643
   78ccc     C6 2719   2.089   7.013   6.411  0.0845  0.1355 -0.0420
   78ccc     H9 2720   2.024   6.951   6.474  0.7468  0.5864  1.1256
   78ccc     C7 2721   2.013   7.070   6.286  0.5124 -0.2279  0.2863
   78ccc    H10 2722   2.114   7.098   6.476  1.8616 -1.6522  1.7779
   78ccc    H11 2723   2.021   6.994   6.207 -0.4122 -1.4022  1.2787
   78ccc    H12 2724   2.051   7.167   6.253  2.8369 -0.6510  1.5075
   78ccc     C8 2725   1.870   7.086   6.313 -0.1390 -0.1311 -0.3517
   78ccc     O2 2726   1.804   7.028   6.397  0.3945 -0.4399  0.4114
   78ccc    H13 2727   2.148   6.795   6.545 -1.1639  1.2354  0.3045
   78ccc    H14 2728   2.277   6.883   6.594 -2.7269  1.9302  0.4038
   78ccc     C9 2729   2.326   6.730   6.448  0.0379 -0.3479 -0.6534
   78ccc    H15 2730   2.430   6.761   6.458 -0.0680  0.0238 -0.6886
   78ccc    H16 2731   2.316   6.708   6.341 -2.2317 -0.0823 -0.5599
   78ccc    C10 2732   2.328   6.603   6.524 -0.1936  0.0500  0.1081
   78ccc     O4 2733   2.307   6.494   6.480  0.6174 -0.2272  0.5514
   78ccc    C11 2734   1.419   7.243   6.432  0.0070  0.2669 -0.2680
   78ccc    C12 2735   1.532   7.344   6.458  0.7177 -0.1176 -0.0930
   78ccc    H17 2736   1.432   7.154   6.495 -1.8311 -0.2356 -0.5463
   78ccc    C13 2737   1.666   7.290   6.420 -0.2348  0.5106  0.2538
   78ccc    C14 2738   1.668   7.230   6.272  0.9056 -0.6241 -0.8373
   78ccc    C15 2739   1.557   7.128   6.254  0.1749 -0.2096 -0.2358
   78ccc    H18 2740   1.639   7.316   6.211  0.2605  0.3288  0.7259
   78ccc    H19 2741   1.696   7.215   6.494  2.5579  0.7113 -0.5729
   78ccc    H20 2742   1.580   7.037   6.310 -0.3562  0.4714  1.1384
   78ccc     O1 2743   1.535   7.097   6.115  0.2942  0.5420  0.1099
   78ccc     O6 2744   1.759   7.394   6.432  0.2538  0.6870  0.5648
   78ccc    C16 2745   1.274   7.292   6.462 -0.4565  0.1371  0.1093
   78ccc    H21 2746   1.757   7.441   6.518 -1.3130 -1.3165  1.6961
   78ccc    H22 2747   1.867   7.239   6.189  0.2192 -1.7996 -0.7662
   78ccc    H23 2748   1.284   7.342   6.559  1.5820  1.4335 -0.7076
   78ccc    H24 2749   1.199   7.212   6.466 -2.1315  1.4988 -1.6957
   78ccc     O7 2750   1.232   7.387   6.363 -0.0440  0.0461 -0.0513
   78ccc    H25 2751   1.136   7.380   6.375 -0.0141  0.2863  0.3501
   78ccc     O8 2752   1.434   7.193   6.299  0.0501  0.8517  0.3711
   78ccc    H26 2753   1.473   7.021   6.117  1.0068 -0.0482  1.3341
   78ccc    H27 2754   1.496   7.437   6.413  0.7891 -0.3416 -0.6173
   78ccc     O9 2755   1.540   7.360   6.601  0.7254  0.5208  0.3249
   78ccc    H28 2756   1.519   7.280   6.653  2.6327  0.4807  1.1423
   78ccc     N3 2757   1.808   7.175   6.242 -0.3732 -0.5610  0.1287
   78ccc    C17 2758   2.564   6.438   6.971  0.2310  0.4255 -0.4266
   78ccc    C18 2759   2.412   6.438   6.995  0.2150  0.4333 -0.5409
   78ccc    H29 2760   2.599   6.540   6.992  0.9425  0.5871 -2.2044
   78ccc    C19 2761   2.354   6.553   6.902 -0.4141  0.4313  0.2333
   78ccc    C20 2762   2.391   6.516   6.751  0.3708 -0.4026  0.1716
   78ccc    C21 2763   2.539   6.479   6.737 -0.3775  0.1717  0.2686
   78ccc    H30 2764   2.337   6.425   6.721 -0.3001  0.4661 -1.3534
   78ccc    H31 2765   2.395   6.650   6.932 -1.2582 -0.2677  4.1317
   78ccc    H32 2766   2.593   6.572   6.718  0.5278 -0.3434  0.2492
   78ccc    O10 2767   2.557   6.397   6.619 -0.1833 -0.3064  0.0927
   78ccc    O11 2768   2.216   6.553   6.904 -0.1100 -0.3173 -0.1891
   78ccc    C22 2769   2.636   6.325   7.050 -0.4845 -0.2711  0.1127
   78ccc    H33 2770   2.186   6.623   6.964  0.5990  0.2500 -0.4809
   78ccc    H34 2771   2.373   6.711   6.691 -0.8129  1.0753 -3.2258
   78ccc    H35 2772   2.608   6.227   7.010  0.6862 -0.3029 -0.6867
   78ccc    H36 2773   2.601   6.326   7.154 -1.2445 -1.6204 -0.1170
   78ccc    O12 2774   2.782   6.337   7.054  1.5983  0.2107 -0.4682
   78ccc    H37 2775   2.801   6.431   7.072  1.5444  0.3071 -0.9197
   78ccc    O13 2776   2.598   6.400   6.835  0.1349  0.6323 -0.4907
   78ccc    H38 2777   2.653   6.412   6.613 -0.4607  2.4805  1.2008
   78ccc    H39 2778   2.378   6.340   6.959 -0.8178  0.5165  0.1554
   78ccc     O5 2779   2.381   6.458   7.135 -0.5330 -0.0338  0.6773
   78ccc    H40 2780   2.289   6.428   7.151 -0.3538 -0.7206  0.4480
   78ccc     N4 2781   2.361   6.618   6.652  0.1531 -0.6027  0.1062
   79ccc     N1 2782   2.394   6.254   5.814  0.4288 -0.5347  0.1971
   79ccc     H4 2783   2.309   6.290   5.856  0.5574 -0.1717  0.1509
   79ccc     C3 2784   2.469   6.143   5.870  0.0483 -0.3372 -0.2807
   79ccc     H5 2785   2.391   6.066   5.878 -2.1759  1.7623 -0.6074
   79ccc     C4 2786   2.523   6.171   6.012 -0.4746  0.5373  0.6970
   79ccc     H6 2787   2.547   6.113   5.800  1.4736  3.2806 -0.4592
   79ccc     H7 2788   2.600   6.249   6.005 -0.8038  0.8245  0.2550
   79ccc     H8 2789   2.574   6.080   6.044 -2.8735 -1.0004  0.3500
   79ccc     N2 2790   2.427   6.209   6.103  0.3754 -0.1680 -0.2198
   79ccc     C5 2791   2.359   6.092   6.157 -0.3811 -0.2409 -0.3758
   79ccc     C6 2792   2.479   6.291   6.217 -0.7898 -0.1571  0.1531
   79ccc     H9 2793   2.403   6.307   6.294  0.8999  0.1601  1.8223
   79ccc     C7 2794   2.507   6.436   6.171 -0.0390 -1.2522  0.2262
   79ccc    H10 2795   2.572   6.243   6.249 -0.4406 -0.2774 -0.9875
   79ccc    H11 2796   2.434   6.509   6.207  0.6401 -0.4088 -0.0719
   79ccc    H12 2797   2.510   6.450   6.062  0.9778 -1.3232  0.2427
   79ccc     C8 2798   2.643   6.477   6.221  1.2124 -0.0896  0.0436
   79ccc     O2 2799   2.744   6.483   6.151 -0.0950 -0.0510 -0.1479
   79ccc    H13 2800   2.423   6.050   6.235  2.0155  0.7176 -1.7331
   79ccc    H14 2801   2.360   6.013   6.081  1.0318  1.6675 -2.4706
   79ccc     C9 2802   2.219   6.117   6.206  0.0162  0.7414 -0.2580
   79ccc    H15 2803   2.147   6.172   6.144  0.1806  0.6655 -0.5182
   79ccc    H16 2804   2.215   6.161   6.306 -0.7039 -0.1318  0.1161
   79ccc    C10 2805   2.156   5.986   6.223  0.1594  0.0512  0.1507
   79ccc     O4 2806   2.172   5.888   6.148 -0.3018  0.2817 -0.6454
   79ccc    C11 2807   3.031   6.673   6.416 -0.6244 -0.1708  1.3719
   79ccc    C12 2808   2.928   6.787   6.412 -0.2417  0.7780 -0.5700
   79ccc    H17 2809   3.040   6.643   6.311  1.0355  2.0075  0.8338
   79ccc    C13 2810   2.795   6.746   6.349 -0.1027  0.7036  0.8946
   79ccc    C14 2811   2.746   6.612   6.413  0.3414  0.0311  0.1647
   79ccc    C15 2812   2.866   6.510   6.440  0.9527 -0.1748  0.6385
   79ccc    H18 2813   2.710   6.625   6.516 -1.1222 -0.8179 -0.2155
   79ccc    H19 2814   2.810   6.734   6.241  0.6993  1.8467  0.8597
   79ccc    H20 2815   2.886   6.476   6.338  1.2203  2.3742 -0.2284
   79ccc     O1 2816   2.831   6.403   6.529 -0.5641  0.2074  0.4497
   79ccc     O6 2817   2.692   6.839   6.374  0.0016 -0.0949 -0.1413
   79ccc    C16 2818   3.164   6.720   6.476  0.2936 -0.1926 -0.5693
   79ccc    H21 2819   2.639   6.843   6.292  1.0892 -2.2467 -1.0400
   79ccc    H22 2820   2.548   6.526   6.393 -0.5485  1.7975  1.1481
   79ccc    H23 2821   3.142   6.804   6.544 -3.3914 -0.7326 -0.8792
   79ccc    H24 2822   3.234   6.761   6.403  1.9272  0.4029  1.2343
   79ccc     O7 2823   3.234   6.623   6.542 -0.4232 -0.2524  0.5543
   79ccc    H25 2824   3.158   6.569   6.568 -1.5047  0.6503 -0.6382
   79ccc     O8 2825   2.971   6.574   6.501 -0.7521 -0.5140  0.0910
   79ccc    H26 2826   2.897   6.405   6.600  0.0569  0.7244 -0.1282
   79ccc    H27 2827   2.906   6.822   6.513 -1.3555  3.6327 -1.6793
   79ccc     O9 2828   2.973   6.906   6.350 -0.1498  0.5171 -0.2062
   79ccc    H28 2829   3.023   6.882   6.269 -1.5957  0.6392 -1.1811
   79ccc     N3 2830   2.628   6.546   6.333 -0.4514 -1.1251  0.1263
   79ccc    C17 2831   1.889   5.613   6.497  0.0940  0.1410  0.6117
   79ccc    C18 2832   1.794   5.720   6.435 -0.9736  0.5104  0.0026
   79ccc    H29 2833   1.914   5.652   6.596 -0.1485 -0.1097  0.7715
   79ccc    C19 2834   1.878   5.853   6.435  1.2217  0.3225  0.0993
   79ccc    C20 2835   2.001   5.835   6.350 -0.1689 -0.3666 -0.2727
   79ccc    C21 2836   2.091   5.728   6.420  0.1245  0.2774 -0.4243
   79ccc    H30 2837   1.966   5.792   6.256  1.0381 -1.3960 -0.2809
   79ccc    H31 2838   1.902   5.866   6.541 -0.7731  0.7348  0.5393
   79ccc    H32 2839   2.123   5.755   6.521  0.8605 -0.9121 -0.3163
   79ccc    O10 2840   2.209   5.709   6.344 -0.6950  0.0969 -0.9213
   79ccc    O11 2841   1.786   5.957   6.387 -0.1769 -0.4458 -0.0067
   79ccc    C22 2842   1.830   5.465   6.481 -0.2677 -0.1404  0.7775
   79ccc    H33 2843   1.697   5.943   6.424 -0.0066  0.3088  0.7144
   79ccc    H34 2844   2.034   6.043   6.393 -0.8780 -1.8207  2.4002
   79ccc    H35 2845   1.731   5.449   6.526 -0.9938 -0.0482 -0.6895
   79ccc    H36 2846   1.902   5.398   6.529 -1.2947 -1.6874  0.2320
   79ccc    O12 2847   1.818   5.417   6.354 -0.3273  0.6836  0.5373
   79ccc    H37 2848   1.745   5.464   6.309 -0.6798  1.3177  1.7368
   79ccc    O13 2849   2.016   5.605   6.416  0.2781 -0.4352 -0.0606
   79ccc    H38 2850   2.186   5.750   6.259 -1.3297  1.0643 -0.2980
   79ccc    H39 2851   1.777   5.689   6.332 -2.6914 -1.0487  0.7077
   79ccc     O5 2852   1.676   5.747   6.513  0.9214 -0.0513 -0.3236
   79ccc    H40 2853   1.592   5.745   6.463 -0.0513  0.5357  1.2343
   79ccc     N4 2854   2.063   5.972   6.325 -0.2228  0.2139  0.4210
   80ccc     N1 2855   1.447   7.202   4.534  0.3752  0.1370  0.1029
   80ccc     H4 2856   1.494   7.187   4.622  1.6689 -0.7302 -0.7001
   80ccc     C3 2857   1.312   7.263   4.536 -0.3528 -0.1351  0.4103
   80ccc     H5 2858   1.313   7.371   4.517 -1.9677  0.1659  1.8020
   80ccc     C4 2859   1.245   7.244   4.669  0.8989 -0.6086 -0.2669
   80ccc     H6 2860   1.257   7.226   4.448  0.0347  0.0816  0.0764
   80ccc     H7 2861   1.279   7.328   4.732  0.6296  0.1572 -1.1217
   80ccc     H8 2862   1.281   7.152   4.716  0.2632 -1.2782 -1.0719
   80ccc     N2 2863   1.099   7.233   4.659  0.7732  1.0107  0.6876
   80ccc     C5 2864   1.061   7.103   4.597 -0.1632  0.1263  0.0152
   80ccc     C6 2865   1.030   7.261   4.787 -0.9800  0.0725  0.3114
   80ccc     H9 2866   0.925   7.242   4.764 -0.2472 -2.5685 -1.3511
   80ccc     C7 2867   1.058   7.398   4.848  0.8788 -0.4030 -0.5837
   80ccc    H10 2868   1.061   7.179   4.853  1.5529 -1.3616 -2.4431
   80ccc    H11 2869   1.064   7.477   4.772  1.4800  1.3528  1.2067
   80ccc    H12 2870   1.155   7.390   4.901  1.0050  0.9018 -0.6011
   80ccc     C8 2871   0.952   7.428   4.945  0.5527 -0.3169 -0.5888
   80ccc     O2 2872   0.940   7.380   5.053  0.2564  0.5480 -0.0680
   80ccc    H13 2873   1.074   7.028   4.676  2.6435  1.3791  0.8621
   80ccc    H14 2874   1.133   7.075   4.519  0.2178  1.8065 -0.2751
   80ccc     C9 2875   0.924   7.127   4.538  0.8282  0.3584 -0.0044
   80ccc    H15 2876   0.915   7.230   4.501 -1.1509  0.2740  0.1672
   80ccc    H16 2877   0.848   7.117   4.616  0.2670 -0.7937 -0.6702
   80ccc    C10 2878   0.890   7.036   4.427  0.0249  0.0620 -0.3430
   80ccc     O4 2879   0.930   6.920   4.412 -0.1599 -0.2042  0.2216
   80ccc    C11 2880   0.684   7.850   5.131 -0.3755  0.4728  0.1917
   80ccc    C12 2881   0.593   7.767   5.037  0.4535  0.3516  0.4315
   80ccc    H17 2882   0.753   7.915   5.075 -0.7855  1.7189  1.0855
   80ccc    C13 2883   0.671   7.676   4.939  0.3745  0.3942 -0.4514
   80ccc    C14 2884   0.779   7.596   5.016  0.2290  1.2062  0.1360
   80ccc    C15 2885   0.863   7.696   5.102  0.3868 -0.3607 -0.1514
   80ccc    H18 2886   0.729   7.523   5.081  2.5307 -0.8361 -0.2382
   80ccc    H19 2887   0.723   7.738   4.865 -1.3154  1.2018 -1.0036
   80ccc    H20 2888   0.909   7.772   5.038 -1.1734  0.1619 -0.6879
   80ccc     O1 2889   0.950   7.627   5.182  0.4598 -0.1689  0.1786
   80ccc     O6 2890   0.571   7.593   4.878  0.5788  0.2965  0.1678
   80ccc    C16 2891   0.605   7.929   5.237  0.0716  0.4869 -0.4626
   80ccc    H21 2892   0.494   7.628   4.927  1.1725  1.7912  0.1079
   80ccc    H22 2893   0.857   7.559   4.820 -1.8558 -0.6530  0.6503
   80ccc    H23 2894   0.548   7.867   5.307  0.3937 -0.1509 -0.7460
   80ccc    H24 2895   0.541   7.997   5.180 -0.0198 -0.9455 -2.1582
   80ccc     O7 2896   0.696   8.016   5.306 -0.8829 -0.4210  0.1994
   80ccc    H25 2897   0.706   7.971   5.392 -1.7111 -0.7823  0.1155
   80ccc     O8 2898   0.773   7.761   5.196  0.2774  0.0310  0.4061
   80ccc    H26 2899   0.989   7.557   5.127  0.8102  0.8787 -0.9560
   80ccc    H27 2900   0.539   7.700   5.104  2.2251 -1.4252  0.1991
   80ccc     O9 2901   0.495   7.842   4.973 -0.0165 -0.4221  0.3055
   80ccc    H28 2902   0.515   7.933   4.946 -0.8510  0.0132  1.0985
   80ccc     N3 2903   0.861   7.521   4.915 -0.0576 -0.9827  0.4861
   80ccc    C17 2904   0.507   6.955   4.067  0.8507 -0.7296 -0.1458
   80ccc    C18 2905   0.607   7.064   4.016  0.4839 -0.4008  0.0455
   80ccc    H29 2906   0.435   7.006   4.134  1.3227  0.9403 -0.8514
   80ccc    C19 2907   0.676   7.132   4.139  0.2652  0.0519 -0.5362
   80ccc    C20 2908   0.730   7.022   4.238 -0.6084 -0.2825  0.0441
   80ccc    C21 2909   0.632   6.909   4.270 -0.0095  0.1548 -0.3502
   80ccc    H30 2910   0.814   6.972   4.187 -1.1721 -1.5651  0.3350
   80ccc    H31 2911   0.598   7.188   4.193  0.9309  0.6937 -0.2213
   80ccc    H32 2912   0.545   6.956   4.318  0.8734  0.8074  0.6563
   80ccc    O10 2913   0.680   6.808   4.363  0.4434 -0.0568  0.1472
   80ccc    O11 2914   0.788   7.216   4.106 -0.2089 -0.8018 -0.2995
   80ccc    C22 2915   0.437   6.870   3.958  0.3789 -0.4397 -0.6874
   80ccc    H33 2916   0.824   7.256   4.187  1.3046  0.0500 -1.3437
   80ccc    H34 2917   0.735   7.161   4.404  0.3170 -1.5317  2.2452
   80ccc    H35 2918   0.515   6.831   3.891  1.0703  1.9733 -1.3783
   80ccc    H36 2919   0.370   6.932   3.898 -0.2809 -1.3860 -0.9550
   80ccc    O12 2920   0.363   6.772   4.030  0.2388  0.4937  0.2692
   80ccc    H37 2921   0.363   6.803   4.122  0.6846  0.4674  0.2815
   80ccc    O13 2922   0.580   6.853   4.149 -0.4052  0.0829 -0.3910
   80ccc    H38 2923   0.770   6.835   4.386  0.8161  0.3216 -1.5941
   80ccc    H39 2924   0.673   7.008   3.949  2.3735  0.0842  1.4149
   80ccc     O5 2925   0.536   7.166   3.938 -0.6695 -0.5208 -0.7408
   80ccc    H40 2926   0.611   7.221   3.910 -0.0393 -0.3961  1.0743
   80ccc     N4 2927   0.785   7.083   4.363  0.4696 -0.1705 -0.3542
   81ccc     N1 2928   1.751   6.567   4.181 -0.4767  0.1032 -0.2038
   81ccc     H4 2929   1.713   6.648   4.134  1.3447  1.2773  0.2314
   81ccc     C3 2930   1.767   6.448   4.099  0.2040 -0.1614 -0.0223
   81ccc     H5 2931   1.830   6.481   4.014 -0.7153  0.8951 -0.3148
   81ccc     C4 2932   1.629   6.391   4.060  0.1694  0.3902 -0.4665
   81ccc     H6 2933   1.812   6.367   4.157  0.7844 -0.7536 -1.2600
   81ccc     H7 2934   1.658   6.294   4.016 -0.8683 -0.4715  0.6648
   81ccc     H8 2935   1.578   6.463   3.995 -2.3654 -1.3281 -0.5255
   81ccc     N2 2936   1.544   6.349   4.169 -0.0393 -0.0643 -0.5079
   81ccc     C5 2937   1.599   6.239   4.251 -0.1725 -0.0739  0.1857
   81ccc     C6 2938   1.406   6.328   4.137 -0.1191  0.2391  0.7755
   81ccc     H9 2939   1.395   6.327   4.028 -0.0498  0.7832  0.7581
   81ccc     C7 2940   1.333   6.456   4.171 -0.2690  0.0899 -0.2653
   81ccc    H10 2941   1.365   6.233   4.172  1.6418 -1.6027 -1.7491
   81ccc    H11 2942   1.372   6.541   4.113 -3.7461  0.1088 -2.8497
   81ccc    H12 2943   1.333   6.481   4.278 -1.6022 -1.5682  0.1695
   81ccc     C8 2944   1.195   6.446   4.123 -0.0540 -0.0740 -0.4479
   81ccc     O2 2945   1.118   6.361   4.152  0.2406 -0.4391  0.5527
   81ccc    H13 2946   1.708   6.238   4.262 -0.3966 -0.4998  3.1316
   81ccc    H14 2947   1.568   6.144   4.207 -1.5493  1.3538 -2.1570
   81ccc     C9 2948   1.546   6.246   4.391  0.2497  0.0243 -0.2853
   81ccc    H15 2949   1.437   6.258   4.391  0.1834  0.8013 -4.1067
   81ccc    H16 2950   1.585   6.334   4.443  2.1705 -1.7067  1.4184
   81ccc    C10 2951   1.590   6.128   4.475  0.0004  0.2168  0.2751
   81ccc     O4 2952   1.684   6.138   4.548 -0.2774 -0.3703 -0.1967
   81ccc    C11 2953   0.739   6.516   3.934  0.0888  0.1238 -0.5549
   81ccc    C12 2954   0.766   6.616   4.056  0.1661 -0.0387  0.7927
   81ccc    H17 2955   0.721   6.413   3.969  0.7537 -0.1599 -1.0099
   81ccc    C13 2956   0.916   6.600   4.107 -0.4327 -0.0358  0.4664
   81ccc    C14 2957   1.023   6.584   3.994  0.3400  0.6253  0.8437
   81ccc    C15 2958   0.978   6.481   3.887 -0.4734 -0.4947  1.2218
   81ccc    H18 2959   1.023   6.679   3.940 -1.8056  0.7173  0.9030
   81ccc    H19 2960   0.912   6.507   4.165  3.1121 -0.4671  0.2314
   81ccc    H20 2961   0.982   6.381   3.931  2.0239 -1.3579 -0.7117
   81ccc     O1 2962   1.068   6.489   3.777  0.1373 -0.4269  0.4097
   81ccc     O6 2963   0.948   6.720   4.178 -0.1167  0.0718 -0.2163
   81ccc    C16 2964   0.610   6.569   3.858  0.2191 -0.1099  0.3038
   81ccc    H21 2965   0.916   6.713   4.270 -0.2075 -0.4173 -0.2848
   81ccc    H22 2966   1.223   6.621   4.016 -0.4583  0.3239 -0.4893
   81ccc    H23 2967   0.634   6.663   3.806 -0.8082 -1.4039 -2.7348
   81ccc    H24 2968   0.533   6.610   3.925 -1.6525  1.1733 -2.4404
   81ccc     O7 2969   0.552   6.467   3.767  0.4908  0.0502 -0.2788
   81ccc    H25 2970   0.463   6.499   3.742  0.8219  0.3036 -1.1684
   81ccc     O8 2971   0.848   6.516   3.838 -0.0761  0.0825  0.8492
   81ccc    H26 2972   1.160   6.502   3.808  0.2631  2.2050 -0.8104
   81ccc    H27 2973   0.754   6.718   4.017 -3.5764 -0.4634  0.5638
   81ccc     O9 2974   0.678   6.588   4.167 -0.0297  0.4352 -0.1677
   81ccc    H28 2975   0.668   6.670   4.218 -2.4831  1.4134 -2.0313
   81ccc     N3 2976   1.155   6.552   4.048 -0.1825  0.4229  0.3280
   81ccc    C17 2977   1.123   5.856   4.420  0.1038 -0.2341  0.1483
   81ccc    C18 2978   1.133   6.001   4.481  0.3010  0.1032 -0.0977
   81ccc    H29 2979   1.143   5.782   4.498  0.8984 -0.3790 -0.1801
   81ccc    C19 2980   1.275   6.025   4.533 -0.1338 -0.1653  0.2444
   81ccc    C20 2981   1.377   5.994   4.423  0.0311  0.3396 -1.0331
   81ccc    C21 2982   1.359   5.854   4.367 -0.2648 -0.0863  0.7643
   81ccc    H30 2983   1.362   6.072   4.347 -4.0907  4.0538  3.0199
   81ccc    H31 2984   1.292   5.961   4.620 -0.7901 -0.3023  0.2789
   81ccc    H32 2985   1.387   5.775   4.437  0.3379  1.7434  2.7084
   81ccc    O10 2986   1.447   5.830   4.252 -0.1715  0.1709 -0.5732
   81ccc    O11 2987   1.289   6.163   4.583  0.4590  0.8842  0.0116
   81ccc    C22 2988   0.987   5.830   4.353  0.3474 -0.6335 -0.7463
   81ccc    H33 2989   1.233   6.216   4.525  0.1936  2.1959  1.4189
   81ccc    H34 2990   1.548   5.935   4.521  0.5752 -1.2046 -1.9079
   81ccc    H35 2991   0.919   5.821   4.438  1.8192  0.1019  0.5599
   81ccc    H36 2992   0.995   5.731   4.307 -0.3562 -0.5013 -1.1733
   81ccc    O12 2993   0.932   5.932   4.278 -0.0528  0.5382 -0.1487
   81ccc    H37 2994   0.864   5.883   4.229  0.7280  0.6925 -1.4219
   81ccc    O13 2995   1.229   5.840   4.316  0.0755  0.1080 -0.2255
   81ccc    H38 2996   1.530   5.792   4.286  0.9253 -0.4290 -3.5514
   81ccc    H39 2997   1.113   6.080   4.408 -2.5458  1.7225  2.2216
   81ccc     O5 2998   1.039   6.017   4.594  0.1456 -0.2074  0.1105
   81ccc    H40 2999   0.958   6.033   4.542  0.9552 -0.0399 -1.1395
   81ccc     N4 3000   1.515   6.017   4.469  0.3278 -0.1359 -0.1557
   82ccc     N1 3001   1.022   5.738   6.460  0.5679 -0.4431 -0.1743
   82ccc     H4 3002   0.927   5.740   6.423  0.8900  2.3156 -1.1207
   82ccc     C3 3003   1.088   5.809   6.572 -0.9460  0.3633  0.2526
   82ccc     H5 3004   1.177   5.758   6.609 -0.2299  0.4168 -1.3003
   82ccc     C4 3005   0.990   5.836   6.687  0.5643  0.3865 -0.1890
   82ccc     H6 3006   1.119   5.901   6.521 -0.7073 -0.4766 -1.1777
   82ccc     H7 3007   0.895   5.855   6.635  0.7478  1.1978 -0.2525
   82ccc     H8 3008   1.021   5.932   6.730  0.0516 -0.7835  3.0364
   82ccc     N2 3009   0.970   5.727   6.784 -0.5764 -0.2853  0.2280
   82ccc     C5 3010   0.967   5.593   6.723  0.3658  0.0447 -0.5145
   82ccc     C6 3011   0.865   5.751   6.879  0.2273 -0.5238  0.1027
   82ccc     H9 3012   0.771   5.752   6.822  0.8126  0.8662 -0.8973
   82ccc     C7 3013   0.880   5.881   6.956 -0.6971 -0.5984 -0.0592
   82ccc    H10 3014   0.860   5.671   6.954 -0.0846  0.1018  0.7561
   82ccc    H11 3015   0.889   5.967   6.887 -0.6672 -1.6513 -1.4126
   82ccc    H12 3016   0.982   5.881   6.996 -0.6803  1.6194  0.0637
   82ccc     C8 3017   0.783   5.886   7.065 -0.3665 -0.2739  0.1275
   82ccc     O2 3018   0.686   5.818   7.071  0.2392 -0.0694 -0.2805
   82ccc    H13 3019   1.057   5.573   6.663  0.5830 -0.1924 -0.1092
   82ccc    H14 3020   0.885   5.591   6.650  0.0145  0.1689 -0.1271
   82ccc     C9 3021   0.959   5.477   6.826  0.3505 -0.3875  0.2154
   82ccc    H15 3022   0.864   5.454   6.875  0.5147 -2.2575 -0.2556
   82ccc    H16 3023   1.040   5.486   6.899  0.9941 -1.7795 -0.2871
   82ccc    C10 3024   0.970   5.348   6.748  0.3010 -0.1600 -0.2169
   82ccc     O4 3025   0.910   5.322   6.651  0.1472  0.0483 -0.2684
   82ccc    C11 3026   0.495   5.966   7.453 -0.2590  0.4799  0.1734
   82ccc    C12 3027   0.634   5.932   7.502 -0.2851 -0.6404 -0.0616
   82ccc    H17 3028   0.467   5.878   7.393  0.6946 -0.1291  0.6081
   82ccc    C13 3029   0.721   5.891   7.381 -0.1701 -0.1020 -0.0940
   82ccc    C14 3030   0.726   6.006   7.279  0.7280 -1.1471 -0.2076
   82ccc    C15 3031   0.580   6.043   7.240  0.0206 -0.6059  0.8454
   82ccc    H18 3032   0.761   6.094   7.333  1.1642 -0.8783 -0.9046
   82ccc    H19 3033   0.692   5.799   7.329 -1.7990  0.8689 -0.9951
   82ccc    H20 3034   0.526   5.963   7.187  0.1891  0.9441 -1.8394
   82ccc     O1 3035   0.591   6.168   7.166  0.2218  0.9622 -0.4369
   82ccc     O6 3036   0.857   5.882   7.428  0.2373 -0.0372 -0.2728
   82ccc    C16 3037   0.400   6.003   7.559  0.5215  0.4544  0.1905
   82ccc    H21 3038   0.866   5.824   7.506  3.0213  2.5635  1.5556
   82ccc    H22 3039   0.894   6.034   7.156  0.7023 -0.9008 -0.8747
   82ccc    H23 3040   0.340   5.914   7.583 -1.5605  1.2611 -1.6677
   82ccc    H24 3041   0.324   6.069   7.516 -0.2274 -2.4801 -3.5244
   82ccc     O7 3042   0.461   6.070   7.670 -0.3517  0.0841  0.7597
   82ccc    H25 3043   0.387   6.084   7.733 -0.6160 -1.3029  0.7892
   82ccc     O8 3044   0.515   6.071   7.360  0.8984  0.0078  0.5528
   82ccc    H26 3045   0.518   6.219   7.206 -0.5278  1.9052 -2.8179
   82ccc    H27 3046   0.671   6.022   7.551  0.2192 -0.6982 -0.3270
   82ccc     O9 3047   0.639   5.823   7.590  0.2088  0.0970  0.1672
   82ccc    H28 3048   0.577   5.838   7.664  0.3632  1.0204  0.1257
   82ccc     N3 3049   0.813   5.972   7.162  0.1678 -0.0978  0.7638
   82ccc    C17 3050   1.348   4.984   6.650  0.9589  0.1222 -0.1400
   82ccc    C18 3051   1.241   4.919   6.746  0.3120 -0.1135  0.0664
   82ccc    H29 3052   1.427   5.033   6.707 -0.4959  0.9938  1.2112
   82ccc    C19 3053   1.171   5.042   6.818 -0.2240 -0.2268 -0.2908
   82ccc    C20 3054   1.108   5.144   6.722 -0.0494 -0.0452  0.6464
   82ccc    C21 3055   1.213   5.180   6.613  0.2023  0.1937  0.6073
   82ccc    H30 3056   1.031   5.082   6.675  2.9016 -3.5311 -0.1157
   82ccc    H31 3057   1.258   5.084   6.869  0.8246 -1.9647 -0.5526
   82ccc    H32 3058   1.287   5.225   6.680  0.7512 -0.2879  0.3423
   82ccc    O10 3059   1.172   5.260   6.506 -0.0671  0.2293  0.1528
   82ccc    O11 3060   1.083   5.000   6.916  0.2990 -0.3346 -0.4622
   82ccc    C22 3061   1.408   4.879   6.559 -0.3481  0.0101 -0.2315
   82ccc    H33 3062   1.002   5.054   6.923  1.3462  1.3785 -1.1569
   82ccc    H34 3063   1.116   5.277   6.875  2.2837 -0.3785 -1.8850
   82ccc    H35 3064   1.478   4.823   6.623 -0.5218  0.4682  0.3707
   82ccc    H36 3065   1.464   4.927   6.477  0.2574  3.8235  2.1334
   82ccc    O12 3066   1.317   4.776   6.513  0.0832 -0.0707 -0.0238
   82ccc    H37 3067   1.337   4.703   6.574 -2.1233  0.4524  1.4433
   82ccc    O13 3068   1.275   5.068   6.554  0.8041 -0.0304 -0.4473
   82ccc    H38 3069   1.236   5.249   6.434  3.9867  2.8390  2.9637
   82ccc    H39 3070   1.165   4.872   6.682  1.5133  1.2849 -2.5517
   82ccc     O5 3071   1.313   4.836   6.835 -0.2938 -0.3143  0.2500
   82ccc    H40 3072   1.258   4.824   6.914 -1.4634  1.5501 -0.2074
   82ccc     N4 3073   1.063   5.263   6.789  0.3995  0.3810 -0.9135
   83ccc     N1 3074   0.434   5.478   6.078  0.1979  0.4351  0.0084
   83ccc     H4 3075   0.489   5.483   5.993  1.3315 -0.4654  0.6566
   83ccc     C3 3076   0.316   5.394   6.078 -0.0138  0.1845 -0.0418
   83ccc     H5 3077   0.345   5.309   6.141  0.5788 -0.5240 -1.2413
   83ccc     C4 3078   0.271   5.340   5.943  0.3959  0.0765 -0.1339
   83ccc     H6 3079   0.226   5.439   6.122 -0.0005 -2.5081  3.1551
   83ccc     H7 3080   0.209   5.420   5.900 -0.0509  1.5458  2.9675
   83ccc     H8 3081   0.203   5.254   5.948 -0.7953  0.8166 -2.3234
   83ccc     N2 3082   0.379   5.300   5.844  0.1526 -0.1485 -0.5677
   83ccc     C5 3083   0.457   5.196   5.894 -0.4678  0.2729  0.1269
   83ccc     C6 3084   0.316   5.265   5.720 -0.1150  0.3875 -0.2650
   83ccc     H9 3085   0.390   5.221   5.653  1.1722 -0.1029  1.4160
   83ccc     C7 3086   0.271   5.390   5.650  0.2545 -0.3411 -0.2826
   83ccc    H10 3087   0.231   5.197   5.733 -1.5642  2.0060 -0.8565
   83ccc    H11 3088   0.339   5.475   5.668  0.3032 -0.3228 -0.5484
   83ccc    H12 3089   0.174   5.427   5.686 -0.5637 -1.6330 -1.0998
   83ccc     C8 3090   0.247   5.373   5.502  0.1955 -0.9376 -0.9078
   83ccc     O2 3091   0.159   5.304   5.453  0.6789  0.1268 -0.5639
   83ccc    H13 3092   0.393   5.107   5.904  0.2720 -0.2168  0.5828
   83ccc    H14 3093   0.491   5.218   5.996 -1.0299  0.4932  0.2684
   83ccc     C9 3094   0.588   5.168   5.815 -0.8212  0.7436  0.2113
   83ccc    H15 3095   0.662   5.246   5.838  1.4014 -0.4745 -2.2577
   83ccc    H16 3096   0.558   5.154   5.711 -0.9128 -0.6688  0.4080
   83ccc    C10 3097   0.655   5.043   5.856  0.2354 -0.4510 -0.3269
   83ccc     O4 3098   0.736   5.031   5.951 -0.7010 -0.0552  0.0129
   83ccc    C11 3099   0.486   5.474   5.027 -0.5646  0.5944  0.4824
   83ccc    C12 3100   0.505   5.327   5.088  0.0873  0.1177  0.5243
   83ccc    H17 3101   0.577   5.527   5.059 -0.2118 -1.1176  2.6049
   83ccc    C13 3102   0.486   5.336   5.243 -0.1024 -0.0589 -0.7445
   83ccc    C14 3103   0.353   5.408   5.278  0.2811 -0.6322  0.0411
   83ccc    C15 3104   0.351   5.547   5.212  0.4077 -0.0193 -0.2863
   83ccc    H18 3105   0.274   5.340   5.244  0.3552 -0.9614  0.5097
   83ccc    H19 3106   0.567   5.395   5.289 -0.8686 -0.1396  0.7570
   83ccc    H20 3107   0.429   5.605   5.262 -0.8744  1.7550 -0.2619
   83ccc     O1 3108   0.224   5.607   5.234  0.0854  0.1410 -0.0408
   83ccc     O6 3109   0.474   5.210   5.302 -0.3621 -0.0665  0.6148
   83ccc    C16 3110   0.486   5.473   4.866  0.0919  0.2496 -0.0758
   83ccc    H21 3111   0.563   5.174   5.315 -0.0920  1.0287  2.0278
   83ccc    H22 3112   0.425   5.473   5.463  0.0440  2.1745 -2.5165
   83ccc    H23 3113   0.582   5.432   4.833  0.0851 -0.7887  1.1145
   83ccc    H24 3114   0.474   5.578   4.835  0.2658  0.1857 -0.3601
   83ccc     O7 3115   0.375   5.394   4.815 -0.8392 -0.3273  0.2688
   83ccc    H25 3116   0.354   5.405   4.721 -1.6190  0.0677  0.4784
   83ccc     O8 3117   0.361   5.535   5.070 -0.3227  0.0161 -0.0170
   83ccc    H26 3118   0.220   5.683   5.173  3.2369  1.2105  0.8698
   83ccc    H27 3119   0.425   5.262   5.051 -0.1132  0.5233  0.2344
   83ccc     O9 3120   0.640   5.281   5.057 -0.0512 -0.4084  0.3115
   83ccc    H28 3121   0.633   5.237   4.970 -3.7460  0.5937 -0.0665
   83ccc     N3 3122   0.346   5.420   5.426  0.3351 -0.4715  0.2976
   83ccc    C17 3123   0.802   4.589   5.968  0.2175 -0.5397 -0.0993
   83ccc    C18 3124   0.651   4.608   5.985  0.2957  0.4834  0.4198
   83ccc    H29 3125   0.852   4.665   6.030 -0.2422  1.2136 -1.7830
   83ccc    C19 3126   0.610   4.756   5.954  0.3415 -0.0003  0.2310
   83ccc    C20 3127   0.661   4.798   5.817 -0.2422 -1.1208 -0.0268
   83ccc    C21 3128   0.815   4.761   5.795 -0.2341  0.0023  0.5144
   83ccc    H30 3129   0.603   4.733   5.751 -1.5129 -1.2274  1.1324
   83ccc    H31 3130   0.655   4.817   6.033  0.2133  0.6025 -0.1509
   83ccc    H32 3131   0.872   4.820   5.868  0.2718 -1.7729  1.6184
   83ccc    O10 3132   0.846   4.776   5.656  0.0226 -0.1790 -0.0093
   83ccc    O11 3133   0.468   4.771   5.943  0.3065 -0.0119 -0.0388
   83ccc    C22 3134   0.846   4.446   5.995 -0.0328  0.0506 -0.2253
   83ccc    H33 3135   0.449   4.840   5.878  0.7247 -0.1461 -0.3106
   83ccc    H34 3136   0.554   4.952   5.717  0.8273  2.4731 -0.7942
   83ccc    H35 3137   0.828   4.406   6.096 -3.4113  0.3414 -0.5926
   83ccc    H36 3138   0.953   4.452   5.972 -0.0098  1.3136  0.1884
   83ccc    O12 3139   0.772   4.352   5.906  0.1567  0.1325  0.1533
   83ccc    H37 3140   0.727   4.289   5.966 -3.9282  0.5685 -2.0705
   83ccc    O13 3141   0.832   4.620   5.830  0.0227 -0.4055 -0.2630
   83ccc    H38 3142   0.940   4.749   5.664  0.0177 -0.1166  0.2866
   83ccc    H39 3143   0.606   4.540   5.913  1.1790  0.8473 -0.5108
   83ccc     O5 3144   0.621   4.584   6.128 -0.0047  0.7523 -0.1603
   83ccc    H40 3145   0.530   4.619   6.134 -1.6777 -2.2879 -3.5985
   83ccc     N4 3146   0.633   4.937   5.780  0.3446  0.0683 -0.6540
   84ccc     N1 3147   1.990   6.351   6.038  0.2417  0.2095  0.4339
   84ccc     H4 3148   1.906   6.352   6.096 -0.1738 -1.2907 -0.0876
   84ccc     C3 3149   2.115   6.427   6.072  0.0191  0.4869  1.0249
   84ccc     H5 3150   2.200   6.359   6.057 -1.0657 -0.3636 -2.1101
   84ccc     C4 3151   2.117   6.481   6.212  0.6924 -0.5319 -0.8223
   84ccc     H6 3152   2.122   6.509   6.000  1.4854  0.1157  0.6971
   84ccc     H7 3153   2.216   6.525   6.232  0.7721 -0.7786 -0.6672
   84ccc     H8 3154   2.109   6.400   6.285  0.8301 -0.2699 -0.5122
   84ccc     N2 3155   1.998   6.573   6.224 -0.3300 -0.5019  0.0397
   84ccc     C5 3156   1.970   6.598   6.368  0.0480 -0.6682 -0.5707
   84ccc     C6 3157   2.015   6.692   6.142  0.4536  0.4436  0.3621
   84ccc     H9 3158   2.039   6.781   6.201  0.1775  0.5456  0.3230
   84ccc     C7 3159   1.893   6.707   6.050 -0.7221  0.2157 -1.4473
   84ccc    H10 3160   2.110   6.688   6.087 -0.4029 -1.9261 -1.0913
   84ccc    H11 3161   1.805   6.725   6.112  1.0939  1.2362  0.9854
   84ccc    H12 3162   1.886   6.620   5.983  1.4599  0.1066 -1.6172
   84ccc     C8 3163   1.919   6.833   5.972  0.9873  0.4253  0.1096
   84ccc     O2 3164   2.027   6.890   5.957  0.2273  0.2948  0.1115
   84ccc    H13 3165   2.052   6.654   6.416  0.1539  0.2319 -1.7645
   84ccc    H14 3166   1.960   6.504   6.423  0.5619  0.3096  1.2856
   84ccc     C9 3167   1.845   6.678   6.400 -0.1851 -0.5524  0.3612
   84ccc    H15 3168   1.764   6.625   6.349  1.0320 -1.4111 -0.7498
   84ccc    H16 3169   1.857   6.780   6.364  0.7254 -0.5062  0.7551
   84ccc    C10 3170   1.808   6.680   6.543  0.7483  0.0867 -0.0049
   84ccc     O4 3171   1.834   6.597   6.631  0.2821 -0.3928  0.3800
   84ccc    C11 3172   1.634   7.217   5.718  0.5512 -0.5314  0.0792
   84ccc    C12 3173   1.765   7.240   5.791 -0.6364 -0.2490  0.1017
   84ccc    H17 3174   1.553   7.209   5.792  1.0959  0.9148  0.8639
   84ccc    C13 3175   1.799   7.125   5.889  0.3452  0.3065 -0.3657
   84ccc    C14 3176   1.792   6.984   5.818  0.4237  0.6300  0.2175
   84ccc    C15 3177   1.664   6.975   5.722 -0.4191 -0.5394 -0.1328
   84ccc    H18 3178   1.877   6.988   5.749 -0.0241 -2.9174 -0.7222
   84ccc    H19 3179   1.716   7.112   5.960  0.5574 -1.1638 -0.3475
   84ccc    H20 3180   1.582   6.938   5.785 -0.5148 -1.3144 -0.6989
   84ccc     O1 3181   1.682   6.876   5.630 -0.4123 -0.4530 -0.4803
   84ccc     O6 3182   1.930   7.145   5.949  0.4922  0.2349 -0.1380
   84ccc    C16 3183   1.604   7.329   5.615 -0.4962  0.1030  0.1449
   84ccc    H21 3184   1.980   7.061   5.945  1.1904  0.6487 -0.1625
   84ccc    H22 3185   1.715   6.829   5.933  0.0882  0.0778  1.3509
   84ccc    H23 3186   1.692   7.348   5.552 -0.9049  0.7670 -0.2293
   84ccc    H24 3187   1.590   7.418   5.677 -2.5030 -0.0821  0.0164
   84ccc     O7 3188   1.481   7.306   5.539  0.1358 -0.1769 -0.3448
   84ccc    H25 3189   1.510   7.246   5.468  2.5449 -2.4418  2.2865
   84ccc     O8 3190   1.644   7.093   5.647 -0.2195  0.4876  0.5348
   84ccc    H26 3191   1.620   6.899   5.560 -0.7963 -0.3841 -0.1203
   84ccc    H27 3192   1.848   7.247   5.720 -0.3289 -0.1602  0.4625
   84ccc     O9 3193   1.758   7.362   5.866  0.1384  0.7374  0.3970
   84ccc    H28 3194   1.829   7.354   5.932 -0.4512  0.6322  1.0314
   84ccc     N3 3195   1.806   6.870   5.918 -0.0098 -0.1191  0.1580
   84ccc    C17 3196   1.683   7.118   6.830  0.0787 -0.6631  0.0096
   84ccc    C18 3197   1.559   7.039   6.789  0.1108 -0.5113  0.4106
   84ccc    H29 3198   1.699   7.190   6.749 -1.1917 -0.7583 -0.3440
   84ccc    C19 3199   1.584   6.928   6.684 -0.2937  0.1286 -0.2084
   84ccc    C20 3200   1.716   6.853   6.705 -0.8377  0.7550  0.1798
   84ccc    C21 3201   1.823   6.953   6.748 -0.7221  0.0242  0.0652
   84ccc    H30 3202   1.713   6.773   6.780  0.7694 -0.5830 -1.1223
   84ccc    H31 3203   1.587   6.961   6.579  1.0166 -0.3089 -0.3377
   84ccc    H32 3204   1.844   7.022   6.665  1.2078 -1.1819 -0.4962
   84ccc    O10 3205   1.946   6.891   6.788  0.1040  0.3721 -0.3271
   84ccc    O11 3206   1.494   6.826   6.691  0.1771  0.0414  0.4326
   84ccc    C22 3207   1.646   7.194   6.964  0.0406  0.1926  0.1385
   84ccc    H33 3208   1.539   6.762   6.748  0.0952 -1.4091 -1.0361
   84ccc    H34 3209   1.760   6.875   6.508  1.8113  0.4030  0.8176
   84ccc    H35 3210   1.679   7.129   7.046  0.7319  0.2041 -0.1264
   84ccc    H36 3211   1.537   7.198   6.971  0.0951  0.6141  0.8319
   84ccc    O12 3212   1.702   7.317   6.978  0.1261  0.0758 -0.2365
   84ccc    H37 3213   1.677   7.355   7.064 -1.9344 -1.2025 -0.2284
   84ccc    O13 3214   1.788   7.027   6.858 -0.1122  0.1558  0.1758
   84ccc    H38 3215   2.000   6.967   6.817  0.8455 -0.6826  1.2072
   84ccc    H39 3216   1.524   6.982   6.876  2.5299 -2.0494  0.4829
   84ccc     O5 3217   1.454   7.125   6.743  0.5415 -0.1357  0.1513
   84ccc    H40 3218   1.381   7.062   6.756  0.8302 -0.9799 -1.9927
   84ccc     N4 3219   1.754   6.795   6.571  0.1135 -0.3947 -0.2643
   85ccc     N1 3220   1.928   5.813   5.543  0.9802  0.8686 -0.6572
   85ccc     H4 3221   1.929   5.913   5.558 -3.1053  1.0074 -0.0917
   85ccc     C3 3222   2.022   5.745   5.450  0.7057 -0.3953 -0.2915
   85ccc     H5 3223   1.968   5.655   5.418 -0.4281 -0.1666  0.8872
   85ccc     C4 3224   2.155   5.712   5.515 -0.0424  0.6715 -0.6796
   85ccc     H6 3225   2.034   5.801   5.356  2.7001 -0.3542 -0.0403
   85ccc     H7 3226   2.220   5.680   5.433 -0.6476 -1.7696 -0.2912
   85ccc     H8 3227   2.150   5.621   5.577 -1.3101 -0.4336 -2.3206
   85ccc     N2 3228   2.215   5.822   5.591  0.2406 -0.0546 -0.1483
   85ccc     C5 3229   2.258   5.927   5.497  0.2810  0.4913  0.3797
   85ccc     C6 3230   2.325   5.779   5.668  0.1826  0.2926 -1.0296
   85ccc     H9 3231   2.368   5.689   5.622  0.0591  0.8908 -2.3731
   85ccc     C7 3232   2.279   5.744   5.806  0.4239  0.0189  0.6028
   85ccc    H10 3233   2.399   5.858   5.691  0.6061 -1.1736  3.7089
   85ccc    H11 3234   2.204   5.666   5.789  0.0673  0.3284  0.7563
   85ccc    H12 3235   2.232   5.830   5.855  0.5092 -0.3835  1.4031
   85ccc     C8 3236   2.393   5.685   5.883  0.5750 -0.1060  0.7021
   85ccc     O2 3237   2.505   5.669   5.839  0.0844  0.4239 -0.2314
   85ccc    H13 3238   2.195   5.937   5.407  3.2034 -3.8248 -2.5394
   85ccc    H14 3239   2.361   5.909   5.464 -0.1635 -2.0781  0.2267
   85ccc     C9 3240   2.257   6.059   5.577 -0.5537 -0.3228  0.1851
   85ccc    H15 3241   2.358   6.072   5.618  0.5869 -2.2287 -1.8039
   85ccc    H16 3242   2.179   6.069   5.654 -0.9998  1.1743 -0.4317
   85ccc    C10 3243   2.241   6.179   5.482 -0.0876 -0.5216 -0.1851
   85ccc     O4 3244   2.318   6.202   5.391 -0.0948  0.1116 -0.5276
   85ccc    C11 3245   2.728   5.500   6.200  0.0658  0.3322 -0.0052
   85ccc    C12 3246   2.647   5.620   6.270 -0.0554 -0.3694  0.9056
   85ccc    H17 3247   2.783   5.535   6.112 -1.4544  0.2364 -1.0231
   85ccc    C13 3248   2.551   5.687   6.172 -0.3822  0.1740  0.0300
   85ccc    C14 3249   2.457   5.581   6.104  0.2168  0.0394 -0.2271
   85ccc    C15 3250   2.537   5.461   6.053 -0.1581  0.0007 -0.3391
   85ccc    H18 3251   2.393   5.552   6.188  0.6430 -0.4522 -0.0678
   85ccc    H19 3252   2.610   5.729   6.089  0.3763 -0.0304  0.4637
   85ccc    H20 3253   2.591   5.498   5.965 -0.3609  0.0182 -0.4558
   85ccc     O1 3254   2.450   5.355   6.018  0.3748  0.1494  0.1921
   85ccc     O6 3255   2.471   5.787   6.236  0.0226 -0.0696 -0.0138
   85ccc    C16 3256   2.833   5.413   6.284 -0.3082 -0.7330 -0.5795
   85ccc    H21 3257   2.414   5.810   6.162 -0.0260 -1.0777 -0.3045
   85ccc    H22 3258   2.267   5.649   6.033 -0.5722  0.9783  0.0849
   85ccc    H23 3259   2.899   5.485   6.335  0.0191 -0.0340 -1.9251
   85ccc    H24 3260   2.906   5.356   6.225 -0.8101 -0.9607 -0.9890
   85ccc     O7 3261   2.767   5.336   6.384 -0.1774 -0.0002 -0.0394
   85ccc    H25 3262   2.704   5.283   6.332  2.0775 -1.0571 -1.8868
   85ccc     O8 3263   2.628   5.410   6.144 -0.1002  0.1319  0.0377
   85ccc    H26 3264   2.452   5.299   6.097  0.4148 -0.0045  0.0823
   85ccc    H27 3265   2.585   5.573   6.347 -2.0044  0.4789 -0.0747
   85ccc     O9 3266   2.737   5.729   6.320  0.0363 -0.1811 -0.2656
   85ccc    H28 3267   2.696   5.815   6.340  1.5153  0.3442  0.7675
   85ccc     N3 3268   2.364   5.639   6.004 -0.5334  0.2663  0.4358
   85ccc    C17 3269   1.908   6.295   5.161  0.0175 -0.1268 -0.0660
   85ccc    C18 3270   1.842   6.218   5.276  0.7744 -0.5392 -0.5132
   85ccc    H29 3271   1.964   6.224   5.099 -0.8410 -2.7619  2.0032
   85ccc    C19 3272   1.939   6.190   5.390 -0.1807  0.1610  0.0272
   85ccc    C20 3273   2.032   6.307   5.421  0.9277  0.5649 -0.6584
   85ccc    C21 3274   2.092   6.374   5.292 -0.2103  0.5194  0.3236
   85ccc    H30 3275   1.977   6.390   5.466  0.2766 -0.4004  0.3532
   85ccc    H31 3276   2.002   6.112   5.346 -1.7573 -1.3869  0.4206
   85ccc    H32 3277   2.158   6.304   5.239 -1.5117 -0.4110 -0.1213
   85ccc    O10 3278   2.164   6.485   5.328 -0.1747 -0.0180  0.2083
   85ccc    O11 3279   1.877   6.156   5.515  0.0388 -0.0317 -0.1743
   85ccc    C22 3280   1.790   6.354   5.068 -0.2438 -0.1629 -0.8243
   85ccc    H33 3281   1.787   6.123   5.495  0.9270 -1.8129 -1.5507
   85ccc    H34 3282   2.095   6.241   5.599  1.7488  0.3411  1.5347
   85ccc    H35 3283   1.744   6.433   5.128  0.8083 -0.1376 -0.0288
   85ccc    H36 3284   1.714   6.276   5.055 -0.7626 -0.0052  1.0170
   85ccc    O12 3285   1.831   6.401   4.942  0.0575 -0.0838  0.3156
   85ccc    H37 3286   1.749   6.436   4.902 -0.7644 -2.9300 -0.7896
   85ccc    O13 3287   1.983   6.402   5.207  0.2704 -0.2223 -0.1545
   85ccc    H38 3288   2.101   6.552   5.362  1.2579  1.4992  0.0508
   85ccc    H39 3289   1.760   6.282   5.310 -1.2241 -2.3064 -1.7522
   85ccc     O5 3290   1.785   6.093   5.233 -0.2784 -0.2231  0.0636
   85ccc    H40 3291   1.732   6.069   5.311  0.6257 -0.1335  0.7180
   85ccc     N4 3292   2.143   6.262   5.512 -0.1135  0.2544  0.4343
   86ccc     N1 3293  -0.427   6.438   6.156  0.1830 -0.5427 -0.3919
   86ccc     H4 3294  -0.487   6.433   6.075  1.5528 -0.4665 -1.4482
   86ccc     C3 3295  -0.477   6.385   6.286  0.1914 -0.6219  0.1074
   86ccc     H5 3296  -0.515   6.284   6.265 -1.4694  0.1215 -0.6658
   86ccc     C4 3297  -0.586   6.473   6.357 -0.5217 -0.1904 -0.8833
   86ccc     H6 3298  -0.395   6.382   6.359 -0.2673  0.4424  0.6939
   86ccc     H7 3299  -0.550   6.575   6.343  1.6723 -0.8063 -0.1559
   86ccc     H8 3300  -0.594   6.445   6.463 -5.0979 -2.7964 -1.6533
   86ccc     N2 3301  -0.725   6.465   6.300 -0.9232  0.1316 -0.1380
   86ccc     C5 3302  -0.736   6.522   6.164 -0.0681  0.0970 -0.6836
   86ccc     C6 3303  -0.819   6.523   6.390 -0.6138  0.3728  0.3140
   86ccc     H9 3304  -0.759   6.577   6.465  0.5762 -1.1643  0.5178
   86ccc     C7 3305  -0.884   6.404   6.464  0.2499  0.5574  0.0765
   86ccc    H10 3306  -0.895   6.592   6.352 -1.5972 -0.0122  1.5080
   86ccc    H11 3307  -0.908   6.436   6.566 -2.6691 -0.0652 -0.3292
   86ccc    H12 3308  -0.821   6.314   6.467  0.1989  0.5175  3.1196
   86ccc     C8 3309  -1.017   6.361   6.409  0.3798 -0.2591 -0.3724
   86ccc     O2 3310  -1.097   6.438   6.360 -0.5979 -0.3256 -0.0349
   86ccc    H13 3311  -0.665   6.467   6.101  0.6348 -1.8537  1.6518
   86ccc    H14 3312  -0.704   6.627   6.167 -1.1508  0.5393 -2.7592
   86ccc     C9 3313  -0.878   6.501   6.094 -0.3975  0.1104 -0.0442
   86ccc    H15 3314  -0.948   6.568   6.145  0.5499 -1.0820  2.9973
   86ccc    H16 3315  -0.902   6.395   6.112  0.9566 -0.2727 -0.4105
   86ccc    C10 3316  -0.872   6.521   5.951 -0.3250  0.4094  0.2171
   86ccc     O4 3317  -0.771   6.558   5.885 -0.3787  0.5041 -0.8328
   86ccc    C11 3318  -1.471   6.175   6.408  0.0208 -0.6124  0.1358
   86ccc    C12 3319  -1.381   6.083   6.314  0.7039 -0.0874 -0.7593
   86ccc    H17 3320  -1.491   6.266   6.350  1.6362 -1.5868 -2.1250
   86ccc    C13 3321  -1.245   6.147   6.293  0.1108  0.9331  0.0038
   86ccc    C14 3322  -1.185   6.181   6.435 -0.4576  0.5020 -0.0773
   86ccc    C15 3323  -1.279   6.277   6.521 -0.2072  0.6971  0.1163
   86ccc    H18 3324  -1.186   6.084   6.488  2.0748  0.0958 -0.6474
   86ccc    H19 3325  -1.254   6.237   6.231  0.6105 -0.3927 -2.0899
   86ccc    H20 3326  -1.301   6.372   6.472 -1.1530  0.6162  0.3719
   86ccc     O1 3327  -1.233   6.296   6.649  0.6543 -0.4880  0.3012
   86ccc     O6 3328  -1.156   6.047   6.231 -0.3104 -0.3272  0.4648
   86ccc    C16 3329  -1.600   6.107   6.454  0.1694 -0.5765  0.1573
   86ccc    H21 3330  -1.070   6.091   6.237  0.4647 -1.3683 -1.8316
   86ccc    H22 3331  -0.993   6.182   6.503 -2.8474 -1.3887  1.6464
   86ccc    H23 3332  -1.587   6.043   6.543 -0.6686 -0.9658  0.0157
   86ccc    H24 3333  -1.642   6.050   6.370 -0.0362 -1.5826  0.9199
   86ccc     O7 3334  -1.694   6.209   6.485 -0.3741 -0.0871 -0.2633
   86ccc    H25 3335  -1.666   6.246   6.570 -0.5132 -0.3821 -0.0864
   86ccc     O8 3336  -1.411   6.213   6.531 -0.6258  0.0552  0.0664
   86ccc    H26 3337  -1.230   6.211   6.697  0.1006 -1.6785 -1.6814
   86ccc    H27 3338  -1.369   5.986   6.364  1.9204 -1.6970 -3.8879
   86ccc     O9 3339  -1.439   6.057   6.185 -0.0452 -0.2060  0.5032
   86ccc    H28 3340  -1.368   6.018   6.132  0.7155 -0.9036  1.9616
   86ccc     N3 3341  -1.048   6.232   6.434 -0.0856 -0.4335 -0.0462
   86ccc    C17 3342  -1.372   6.360   5.928 -0.4374  0.3281  0.5689
   86ccc    C18 3343  -1.266   6.240   5.934 -0.3398 -0.8567 -0.2622
   86ccc    H29 3344  -1.392   6.377   5.821  0.1897 -0.0439  0.3833
   86ccc    C19 3345  -1.129   6.287   5.873  0.3531 -0.0703  0.2563
   86ccc    C20 3346  -1.097   6.429   5.935 -0.6202  0.5383 -0.3083
   86ccc    C21 3347  -1.211   6.530   5.924 -0.2919 -0.1772  0.6458
   86ccc    H30 3348  -1.094   6.406   6.042 -0.9736  2.1709  0.0867
   86ccc    H31 3349  -1.147   6.309   5.767  1.0162  0.8807  0.3263
   86ccc    H32 3350  -1.235   6.557   5.821 -0.5996  3.2522  1.4858
   86ccc    O10 3351  -1.176   6.646   5.997  0.2574 -0.7282  0.0821
   86ccc    O11 3352  -1.015   6.195   5.887 -0.1118  0.1521 -0.0512
   86ccc    C22 3353  -1.505   6.325   6.000  0.4670 -0.0001 -0.6419
   86ccc    H33 3354  -0.984   6.195   5.979 -1.3517  1.0367  0.3964
   86ccc    H34 3355  -0.964   6.469   5.779  1.8699  0.4795  0.8754
   86ccc    H35 3356  -1.477   6.300   6.103 -0.5769 -0.2563 -0.4014
   86ccc    H36 3357  -1.553   6.237   5.955  0.3356  0.0048 -0.5134
   86ccc    O12 3358  -1.612   6.428   6.007  0.0178  0.3989  0.4672
   86ccc    H37 3359  -1.672   6.395   6.076 -1.0664  0.9212 -0.1955
   86ccc    O13 3360  -1.324   6.482   5.989 -0.7003  0.3632  0.2161
   86ccc    H38 3361  -1.088   6.671   5.962  0.9140 -4.1286 -1.0174
   86ccc    H39 3362  -1.237   6.212   6.036 -0.5971 -2.1926 -0.5323
   86ccc     O5 3363  -1.315   6.128   5.872 -0.3976  0.4499  0.1671
   86ccc    H40 3364  -1.242   6.075   5.835 -1.1303  0.2881 -1.0856
   86ccc     N4 3365  -0.971   6.478   5.881 -0.1388 -0.6014  0.8982
   87ccc     N1 3366   0.119   7.050   5.830 -0.1046  0.4973 -0.3720
   87ccc     H4 3367   0.036   7.086   5.875  1.5660  2.0409  1.6698
   87ccc     C3 3368   0.256   7.113   5.853 -0.1196 -0.2351 -0.3673
   87ccc     H5 3369   0.301   7.136   5.756  1.3458 -0.7827  0.1644
   87ccc     C4 3370   0.349   7.043   5.952  0.3719 -0.0818  0.2803
   87ccc     H6 3371   0.236   7.207   5.905 -3.2198 -0.4149 -1.0119
   87ccc     H7 3372   0.360   6.938   5.920 -0.8992 -0.0058 -0.4907
   87ccc     H8 3373   0.294   7.033   6.046 -0.7405 -3.2350 -0.5790
   87ccc     N2 3374   0.472   7.115   5.972  0.0012 -0.8306 -0.5304
   87ccc     C5 3375   0.559   7.143   5.849 -0.3966 -0.4008 -0.4341
   87ccc     C6 3376   0.540   7.069   6.094 -0.1675 -0.4511 -1.0138
   87ccc     H9 3377   0.465   7.079   6.174 -1.2146  2.5342 -2.2223
   87ccc     C7 3378   0.663   7.150   6.140 -0.0833 -0.7546  0.3368
   87ccc    H10 3379   0.563   6.962   6.094 -0.3457 -0.5331  1.1622
   87ccc    H11 3380   0.637   7.256   6.129  0.0770 -0.5336  1.8700
   87ccc    H12 3381   0.750   7.130   6.075 -0.5421 -0.7110 -0.3033
   87ccc     C8 3382   0.700   7.110   6.283  0.2809 -0.1642  0.7879
   87ccc     O2 3383   0.703   6.996   6.323 -0.4637  0.2038 -0.2773
   87ccc    H13 3384   0.647   7.201   5.881 -0.3373  0.2576 -1.7418
   87ccc    H14 3385   0.504   7.208   5.781 -1.3188 -0.6371  0.0741
   87ccc     C9 3386   0.618   7.014   5.790  0.0449  0.0104 -0.6003
   87ccc    H15 3387   0.537   6.943   5.768 -1.2485  1.5039 -0.8804
   87ccc    H16 3388   0.688   6.972   5.863  2.8833 -0.9621 -3.6077
   87ccc    C10 3389   0.696   7.033   5.660 -0.5918  0.7751  0.0139
   87ccc     O4 3390   0.723   7.142   5.610  0.5384 -0.3182 -0.6654
   87ccc    C11 3391   0.960   7.294   6.706 -0.1700  0.1696  0.0118
   87ccc    C12 3392   0.915   7.150   6.690 -0.5343 -0.1840  0.0466
   87ccc    H17 3393   0.879   7.357   6.744  0.6420  2.1847 -1.4015
   87ccc    C13 3394   0.801   7.141   6.586 -0.0888  0.8414 -0.2674
   87ccc    C14 3395   0.848   7.207   6.457 -0.1325 -0.5942  0.0443
   87ccc    C15 3396   0.901   7.351   6.484  0.0535 -0.1091  0.1950
   87ccc    H18 3397   0.936   7.161   6.411 -1.5702 -1.4425 -2.0210
   87ccc    H19 3398   0.714   7.199   6.621 -0.4914  0.0388  0.0835
   87ccc    H20 3399   0.820   7.409   6.530 -1.5862 -1.6821 -0.5979
   87ccc     O1 3400   0.963   7.403   6.362 -0.1069 -0.3518 -0.2847
   87ccc     O6 3401   0.763   7.003   6.565 -0.0568  0.0846 -0.6278
   87ccc    C16 3402   1.078   7.313   6.807 -0.5437 -0.3339 -0.0841
   87ccc    H21 3403   0.747   6.991   6.470 -0.2453  0.8575 -0.6974
   87ccc    H22 3404   0.777   7.296   6.286 -0.7204  1.5172  1.0491
   87ccc    H23 3405   1.175   7.283   6.767  0.2811  1.3024  0.5563
   87ccc    H24 3406   1.058   7.245   6.890 -0.1553  0.2326  0.4865
   87ccc     O7 3407   1.083   7.450   6.862  0.1805  0.2126  0.6839
   87ccc    H25 3408   1.059   7.520   6.800  0.9746 -1.0327 -1.0925
   87ccc     O8 3409   1.006   7.341   6.579 -0.4833 -0.2238 -0.7609
   87ccc    H26 3410   0.892   7.439   6.305  1.0401 -1.4616 -2.5574
   87ccc    H27 3411   1.002   7.089   6.667 -2.0187 -2.7216  0.7228
   87ccc     O9 3412   0.861   7.098   6.819  0.0287  0.0025  0.0112
   87ccc    H28 3413   0.812   7.023   6.780 -0.8307  0.4426  0.2073
   87ccc     N3 3414   0.756   7.216   6.345  0.1901  0.4840  0.0357
   87ccc    C17 3415   1.076   6.857   5.331  1.0527 -0.6679 -0.5244
   87ccc    C18 3416   0.936   6.790   5.305 -0.0848  0.0290 -0.4161
   87ccc    H29 3417   1.128   6.780   5.389  0.1217 -1.1439 -0.2902
   87ccc    C19 3418   0.839   6.786   5.424 -0.2140 -0.3112  0.3057
   87ccc    C20 3419   0.850   6.918   5.499  0.2955  0.1358  0.0837
   87ccc    C21 3420   0.999   6.939   5.535  0.2310 -0.3248  0.3933
   87ccc    H30 3421   0.830   6.999   5.427  3.1668 -0.0534 -1.1068
   87ccc    H31 3422   0.865   6.700   5.487  1.0023  0.4883  0.9244
   87ccc    H32 3423   1.032   6.847   5.583  0.3614 -0.0796  0.7815
   87ccc    O10 3424   1.022   7.048   5.621 -0.0723  0.1077  0.9136
   87ccc    O11 3425   0.705   6.776   5.378  0.1982  0.0930  0.7106
   87ccc    C22 3426   1.176   6.881   5.210  0.5079  0.4047 -0.9126
   87ccc    H33 3427   0.658   6.856   5.408 -1.2968 -0.4552 -0.0684
   87ccc    H34 3428   0.761   6.834   5.671  2.1686  0.4235  1.3117
   87ccc    H35 3429   1.192   6.779   5.172  2.5310  0.1043  0.5783
   87ccc    H36 3430   1.275   6.898   5.253 -0.2529 -1.0270  1.6701
   87ccc    O12 3431   1.134   6.981   5.112  0.0542 -0.5050  0.0504
   87ccc    H37 3432   1.111   7.058   5.168 -0.6149 -1.2542  0.8334
   87ccc    O13 3433   1.067   6.974   5.415 -0.2544  0.0745  0.1915
   87ccc    H38 3434   0.940   7.099   5.633 -0.5096 -0.5881  0.9372
   87ccc    H39 3435   0.883   6.832   5.218  1.0511 -1.0307 -1.6625
   87ccc     O5 3436   0.961   6.659   5.263 -0.2870  0.3341 -0.3727
   87ccc    H40 3437   1.014   6.658   5.182  1.3310 -0.0714  0.6446
   87ccc     N4 3438   0.762   6.920   5.617  0.6302 -0.3473 -0.0234
   88ccc     N1 3439   0.214   8.061   4.874 -0.0618  0.2448 -0.4739
   88ccc     H4 3440   0.227   7.961   4.883 -2.1039 -0.0405 -0.0772
   88ccc     C3 3441   0.213   8.115   4.739 -0.0580  0.2362  0.0420
   88ccc     H5 3442   0.108   8.134   4.712  0.2564 -0.2357 -1.6121
   88ccc     C4 3443   0.275   8.017   4.638  1.3256  0.1422  0.6665
   88ccc     H6 3444   0.262   8.213   4.734  1.8449 -0.6395  0.5572
   88ccc     H7 3445   0.382   8.016   4.663  0.9261  0.4978  2.4912
   88ccc     H8 3446   0.265   8.052   4.534  0.9113 -3.0099 -0.4815
   88ccc     N2 3447   0.220   7.881   4.633  0.0738  0.5307 -0.8551
   88ccc     C5 3448   0.294   7.799   4.541 -0.6926  0.3874  0.1675
   88ccc     C6 3449   0.079   7.874   4.597  0.2361  0.2255 -0.7367
   88ccc     H9 3450   0.019   7.945   4.654 -0.3707 -1.3607  0.6938
   88ccc     C7 3451   0.010   7.742   4.620  0.1560  0.2718 -0.1675
   88ccc    H10 3452   0.065   7.902   4.492  0.7356  1.3851 -0.5050
   88ccc    H11 3453   0.024   7.716   4.725  2.0680 -0.2382 -0.5015
   88ccc    H12 3454   0.055   7.655   4.570 -1.8501 -1.8505  1.4819
   88ccc     C8 3455  -0.135   7.755   4.600  0.6346 -1.0064  0.0306
   88ccc     O2 3456  -0.194   7.847   4.644  0.4700 -0.1627 -0.0297
   88ccc    H13 3457   0.324   7.859   4.455 -0.2252  1.3516  0.9812
   88ccc    H14 3458   0.233   7.718   4.499  1.2819 -1.1607  0.1507
   88ccc     C9 3459   0.413   7.735   4.616 -0.3910  0.3380 -0.1638
   88ccc    H15 3460   0.376   7.681   4.704 -0.4785  0.3036 -0.2214
   88ccc    H16 3461   0.486   7.810   4.650  0.5138 -0.3075 -0.6443
   88ccc    C10 3462   0.475   7.628   4.536  0.3310 -0.6467  1.1839
   88ccc     O4 3463   0.450   7.620   4.415  0.4156 -0.4881 -0.5520
   88ccc    C11 3464  -0.615   7.730   4.442 -0.0908  0.8217 -0.1852
   88ccc    C12 3465  -0.500   7.740   4.338  0.4162  0.1557 -0.2458
   88ccc    H17 3466  -0.619   7.827   4.493 -1.8828  0.4459  0.4546
   88ccc    C13 3467  -0.357   7.766   4.403  0.2023  0.2221  0.3971
   88ccc    C14 3468  -0.343   7.654   4.504  0.1040 -0.3603  0.3087
   88ccc    C15 3469  -0.452   7.663   4.614  0.2121 -0.3267 -0.1477
   88ccc    H18 3470  -0.362   7.558   4.454  0.1965 -0.6418  0.8117
   88ccc    H19 3471  -0.339   7.865   4.447  0.1797 -0.4254  1.9006
   88ccc    H20 3472  -0.456   7.764   4.658 -2.2892  0.5940 -2.2120
   88ccc     O1 3473  -0.437   7.560   4.713 -0.0552  0.1292  0.4093
   88ccc     O6 3474  -0.262   7.753   4.294 -0.0209 -0.5699  0.4596
   88ccc    C16 3475  -0.751   7.694   4.382  0.3328  0.1389  0.2979
   88ccc    H21 3476  -0.188   7.696   4.321 -1.6915 -2.7654  0.6736
   88ccc    H22 3477  -0.128   7.596   4.503 -0.0102 -1.3315  0.5272
   88ccc    H23 3478  -0.742   7.587   4.362 -0.6716  0.4328 -2.1323
   88ccc    H24 3479  -0.762   7.749   4.288  0.0290  1.5894  1.1525
   88ccc     O7 3480  -0.856   7.741   4.473 -0.4289 -0.1511  0.0795
   88ccc    H25 3481  -0.873   7.671   4.538  0.5371  0.2929  0.8471
   88ccc     O8 3482  -0.580   7.635   4.551 -0.3413 -0.6287 -0.3658
   88ccc    H26 3483  -0.477   7.475   4.690  4.0550 -2.1167  0.6247
   88ccc    H27 3484  -0.496   7.648   4.277  0.7115 -0.0057  0.0110
   88ccc     O9 3485  -0.526   7.854   4.252 -0.3552  0.6741  0.4287
   88ccc    H28 3486  -0.461   7.922   4.278  0.8516  0.1294 -1.0233
   88ccc     N3 3487  -0.198   7.654   4.550  0.3931  0.4624 -0.9547
   88ccc    C17 3488   0.891   7.485   4.333  1.1769 -0.8364  0.6718
   88ccc    C18 3489   0.915   7.566   4.464 -0.1313 -0.9468  0.3155
   88ccc    H29 3490   0.862   7.551   4.250  0.1695 -0.2221  1.4921
   88ccc    C19 3491   0.787   7.619   4.519 -0.6426  0.1287 -0.3210
   88ccc    C20 3492   0.690   7.508   4.535  0.4963  0.3053  0.2064
   88ccc    C21 3493   0.667   7.433   4.398 -0.8455 -0.5613  0.0108
   88ccc    H30 3494   0.735   7.436   4.605 -0.2839  1.3607  1.8550
   88ccc    H31 3495   0.746   7.681   4.439  1.2498 -0.9716 -2.2461
   88ccc    H32 3496   0.632   7.502   4.320  1.4670 -0.0431 -0.6490
   88ccc    O10 3497   0.593   7.313   4.407 -0.3370 -0.7342  0.2810
   88ccc    O11 3498   0.805   7.683   4.643  0.1576  0.3272  0.9542
   88ccc    C22 3499   1.014   7.411   4.291 -0.7559  0.0810  0.1850
   88ccc    H33 3500   0.895   7.718   4.652 -0.4466  1.9824  0.7359
   88ccc    H34 3501   0.581   7.570   4.696  0.1343  1.8202 -0.5252
   88ccc    H35 3502   1.015   7.304   4.318 -0.5754  0.1958  0.6397
   88ccc    H36 3503   1.100   7.444   4.350 -0.7326 -0.3992  0.4336
   88ccc    O12 3504   1.045   7.421   4.152  0.4218  0.2722  0.0973
   88ccc    H37 3505   1.138   7.395   4.137  1.0906  2.4874  0.0254
   88ccc    O13 3506   0.795   7.384   4.357 -0.0720  0.3774  0.1891
   88ccc    H38 3507   0.533   7.314   4.483 -1.1007 -0.5537 -0.3121
   88ccc    H39 3508   0.971   7.502   4.534  1.2795 -1.2844 -1.0662
   88ccc     O5 3509   0.999   7.684   4.422 -0.3742  0.5897 -0.0118
   88ccc    H40 3510   1.081   7.649   4.383 -1.3160 -2.3500  0.3990
   88ccc     N4 3511   0.564   7.550   4.598 -0.3143 -0.3237 -0.0506
   89ccc     N1 3512   0.383   8.007   5.728  0.2492  0.1514 -0.3159
   89ccc     H4 3513   0.375   7.911   5.698 -0.5459 -0.0304  0.4315
   89ccc     C3 3514   0.403   8.026   5.869 -0.7380 -0.4220  0.4573
   89ccc     H5 3515   0.502   7.989   5.900  0.5959 -0.5167 -3.4199
   89ccc     C4 3516   0.289   7.973   5.963 -0.9252  1.2782 -0.1670
   89ccc     H6 3517   0.416   8.132   5.893  1.1058 -0.3106 -0.8737
   89ccc     H7 3518   0.338   7.959   6.060  1.4775 -1.0759 -1.5907
   89ccc     H8 3519   0.269   7.872   5.925 -0.0274  0.6405  0.9764
   89ccc     N2 3520   0.169   8.060   5.971 -0.4930 -0.6699 -0.0684
   89ccc     C5 3521   0.107   8.057   6.105  0.4848 -0.4511 -0.4073
   89ccc     C6 3522   0.078   8.037   5.869  0.0308  0.5393 -0.0303
   89ccc     H9 3523   0.129   7.987   5.786 -1.1628  0.5617 -0.7956
   89ccc     C7 3524   0.012   8.164   5.828  0.1800  0.3825  1.0141
   89ccc    H10 3525   0.004   7.965   5.905 -0.5724  0.9382 -0.4613
   89ccc    H11 3526   0.084   8.240   5.794 -0.9812  0.7960 -0.6462
   89ccc    H12 3527  -0.059   8.209   5.898 -0.4814  0.7680  0.1168
   89ccc     C8 3528  -0.082   8.141   5.709  0.1426 -0.2124 -0.0980
   89ccc     O2 3529  -0.129   8.035   5.677  0.4576  0.4526  0.1761
   89ccc    H13 3530   0.070   7.957   6.129 -0.0693 -0.1391  0.0799
   89ccc    H14 3531   0.025   8.131   6.105  1.2353  0.3928 -0.5643
   89ccc     C9 3532   0.201   8.108   6.215  0.3651  0.1099 -0.4157
   89ccc    H15 3533   0.272   8.179   6.169 -0.9219  0.1115 -2.5216
   89ccc    H16 3534   0.254   8.017   6.244 -0.5054 -0.5025 -0.7202
   89ccc    C10 3535   0.128   8.172   6.331 -0.3052  0.1568  0.2500
   89ccc     O4 3536   0.015   8.214   6.321  0.0535  0.2588  0.1270
   89ccc    C11 3537  -0.454   8.387   5.426 -0.0936 -0.7980 -0.0636
   89ccc    C12 3538  -0.310   8.412   5.363 -0.1182 -0.0104  0.0752
   89ccc    H17 3539  -0.474   8.471   5.493  1.8203 -0.3831  0.0439
   89ccc    C13 3540  -0.201   8.402   5.466  0.0205 -0.4266 -0.4230
   89ccc    C14 3541  -0.218   8.271   5.551  0.3058  0.6437 -1.0945
   89ccc    C15 3542  -0.364   8.262   5.609 -0.7708  0.3722  0.1082
   89ccc    H18 3543  -0.210   8.180   5.489 -0.2201  0.5885 -1.0842
   89ccc    H19 3544  -0.199   8.490   5.531 -1.2022 -1.4991  1.1606
   89ccc    H20 3545  -0.387   8.346   5.676 -1.7123  0.3350 -0.1542
   89ccc     O1 3546  -0.389   8.139   5.676  0.1102  0.1104  0.5452
   89ccc     O6 3547  -0.073   8.412   5.400 -0.6142 -0.0164  0.5543
   89ccc    C16 3548  -0.557   8.373   5.310 -0.0117  0.6127 -0.3240
   89ccc    H21 3549  -0.001   8.412   5.464 -0.0611  2.0726  0.0201
   89ccc    H22 3550  -0.076   8.337   5.702  1.0913 -0.7171 -0.3291
   89ccc    H23 3551  -0.552   8.466   5.254  0.6623  0.5787 -0.3275
   89ccc    H24 3552  -0.658   8.367   5.353  0.5501  1.4434  1.2004
   89ccc     O7 3553  -0.517   8.262   5.230  0.2251 -0.1845  0.1427
   89ccc    H25 3554  -0.586   8.246   5.163 -0.5860 -2.4378  1.3900
   89ccc     O8 3555  -0.451   8.267   5.499 -0.2015  0.5113 -0.1061
   89ccc    H26 3556  -0.303   8.097   5.659  1.0924  2.9386 -2.6698
   89ccc    H27 3557  -0.288   8.345   5.278  0.0660  2.3871 -1.8766
   89ccc     O9 3558  -0.309   8.549   5.306 -0.1574 -0.3313 -0.2551
   89ccc    H28 3559  -0.220   8.559   5.270  0.0205 -0.6722  0.0788
   89ccc     N3 3560  -0.111   8.255   5.653 -0.5582 -0.3892  0.2578
   89ccc    C17 3561   0.109   8.233   6.866  0.1569  0.6515  0.3649
   89ccc    C18 3562   0.242   8.293   6.823  0.3087 -0.7348  0.4152
   89ccc    H29 3563   0.118   8.124   6.882 -1.6250  0.5018  0.5047
   89ccc    C19 3564   0.277   8.245   6.677 -0.3759 -0.6269  0.6940
   89ccc    C20 3565   0.153   8.242   6.576 -0.7735  0.1023 -0.1035
   89ccc    C21 3566   0.028   8.188   6.640  0.1267 -0.1464 -0.3327
   89ccc    H30 3567   0.119   8.345   6.561  0.3923  0.5474  0.1727
   89ccc    H31 3568   0.306   8.140   6.686  0.7498 -0.3343  0.6912
   89ccc    H32 3569   0.033   8.083   6.672  0.5496  0.3713  1.4228
   89ccc    O10 3570  -0.089   8.217   6.569 -0.3175  0.4379 -0.2502
   89ccc    O11 3571   0.378   8.327   6.622  0.2664 -0.0817  0.7656
   89ccc    C22 3572   0.060   8.292   6.999  0.1738  0.2502 -0.2457
   89ccc    H33 3573   0.455   8.328   6.682  1.4811  0.3095 -0.7212
   89ccc    H34 3574   0.295   8.157   6.447 -0.9168 -2.5548  0.3257
   89ccc    H35 3575   0.107   8.235   7.079  0.3666  1.7330  0.7349
   89ccc    H36 3576  -0.050   8.292   7.006  0.1872  0.0864 -0.0490
   89ccc    O12 3577   0.102   8.429   7.015 -0.1636  0.2668 -1.0036
   89ccc    H37 3578   0.074   8.452   7.105 -1.4163 -0.8780 -1.0682
   89ccc    O13 3579   0.008   8.259   6.767  0.2295 -0.0987  0.1056
   89ccc    H38 3580  -0.071   8.211   6.473  1.0973  2.0396 -0.1288
   89ccc    H39 3581   0.234   8.402   6.815 -0.3164 -0.8959 -2.9813
   89ccc     O5 3582   0.347   8.261   6.916 -0.4398  0.2333 -0.6290
   89ccc    H40 3583   0.423   8.313   6.883  0.2653 -0.3032  0.0921
   89ccc     N4 3584   0.199   8.192   6.445 -0.1173 -0.1864  0.2058
   90ccc     N1 3585   1.091   6.662   4.807  0.0382  0.1776  0.3938
   90ccc     H4 3586   1.053   6.629   4.718  0.0232 -0.4657  0.6337
   90ccc     C3 3587   1.159   6.786   4.819 -0.7975  0.2693  0.5739
   90ccc     H5 3588   1.097   6.874   4.839 -1.8688 -0.4649  0.5377
   90ccc     C4 3589   1.229   6.808   4.691 -0.5361  0.8747 -0.2485
   90ccc     H6 3590   1.223   6.785   4.908 -1.5649 -0.9560  1.1387
   90ccc     H7 3591   1.302   6.888   4.707  0.5921  0.3153 -2.3313
   90ccc     H8 3592   1.157   6.846   4.618 -0.8373 -0.2362 -0.5572
   90ccc     N2 3593   1.297   6.698   4.622 -0.0204 -1.0924 -0.5221
   90ccc     C5 3594   1.406   6.651   4.701 -0.0439  0.4938  0.0786
   90ccc     C6 3595   1.352   6.747   4.492 -0.5220 -0.0914  0.0987
   90ccc     H9 3596   1.410   6.837   4.517  0.7277 -0.6252 -0.7744
   90ccc     C7 3597   1.250   6.776   4.381  0.4967 -0.3421  0.4843
   90ccc    H10 3598   1.426   6.677   4.452 -0.1917  0.1840  0.2274
   90ccc    H11 3599   1.190   6.859   4.420 -0.4809 -1.0970  0.6173
   90ccc    H12 3600   1.190   6.686   4.362 -1.2696  0.8706  0.1186
   90ccc     C8 3601   1.314   6.824   4.250 -0.3238 -0.0653 -0.0280
   90ccc     O2 3602   1.428   6.809   4.219  0.0579  0.3524 -0.0224
   90ccc    H13 3603   1.383   6.633   4.806  1.9948  2.0950  0.8545
   90ccc    H14 3604   1.495   6.714   4.689 -0.0938  0.7007  0.7933
   90ccc     C9 3605   1.445   6.517   4.646  0.2394  1.1507  0.4007
   90ccc    H15 3606   1.494   6.511   4.548  1.4063  2.0840  0.8923
   90ccc    H16 3607   1.353   6.459   4.633  0.8659  0.1101  0.5164
   90ccc    C10 3608   1.527   6.439   4.742 -0.2588 -0.5240 -0.1567
   90ccc     O4 3609   1.606   6.490   4.824  0.3962  0.4417  0.2104
   90ccc    C11 3610   1.208   7.043   3.777 -0.8027  0.5631  0.0546
   90ccc    C12 3611   1.121   7.120   3.881 -0.4699  0.5398 -0.0785
   90ccc    H17 3612   1.150   6.955   3.746  0.3826  0.5205 -2.2925
   90ccc    C13 3613   1.102   7.028   4.009  0.4182 -0.4492  0.4696
   90ccc    C14 3614   1.244   6.977   4.053  0.0039  0.1579 -0.5352
   90ccc    C15 3615   1.327   6.909   3.939  0.1362  0.4893 -0.1773
   90ccc    H18 3616   1.292   7.070   4.085 -0.9642 -0.2433  2.4600
   90ccc    H19 3617   1.046   6.938   3.983  0.6500 -0.4704  0.0344
   90ccc    H20 3618   1.292   6.814   3.895  1.0350  0.5956 -1.1513
   90ccc     O1 3619   1.459   6.887   3.982 -0.0042  0.1533  0.1100
   90ccc     O6 3620   1.038   7.102   4.110 -0.6296 -0.0395 -0.2272
   90ccc    C16 3621   1.239   7.122   3.645  0.0875 -0.1470 -0.1110
   90ccc    H21 3622   0.965   7.151   4.069 -1.3420  1.3602  2.4731
   90ccc    H22 3623   1.132   6.903   4.215  0.4915 -0.6542  1.3313
   90ccc    H23 3624   1.149   7.119   3.583  0.5959 -0.2102 -0.8632
   90ccc    H24 3625   1.314   7.062   3.592 -1.4184 -3.3008  1.0263
   90ccc     O7 3626   1.285   7.252   3.669  0.0105 -0.1889 -0.1871
   90ccc    H25 3627   1.228   7.315   3.622 -0.0900 -0.9147 -1.0612
   90ccc     O8 3628   1.332   7.007   3.839 -0.2241 -0.2239 -0.3878
   90ccc    H26 3629   1.451   6.859   4.075  0.5685 -0.1996  0.0576
   90ccc    H27 3630   1.162   7.217   3.912 -0.8622  0.2231  1.5496
   90ccc     O9 3631   0.993   7.159   3.827 -0.5556 -0.0051 -0.1181
   90ccc    H28 3632   0.988   7.256   3.834  1.7351  0.0542  2.7502
   90ccc     N3 3633   1.224   6.886   4.174  0.0393 -0.3316  0.1771
   90ccc    C17 3634   1.415   5.983   5.014  0.4012  0.1216  0.0403
   90ccc    C18 3635   1.566   6.001   4.968  0.2098 -0.1224  0.3135
   90ccc    H29 3636   1.362   5.924   4.937 -0.0681  0.5124  0.0578
   90ccc    C19 3637   1.574   6.097   4.847 -0.1928 -0.2223  0.3623
   90ccc    C20 3638   1.496   6.224   4.873  0.4254  0.1733  0.5751
   90ccc    C21 3639   1.353   6.194   4.916  0.5618  0.7403 -1.1847
   90ccc    H30 3640   1.540   6.272   4.962 -3.1305  1.0210  2.0427
   90ccc    H31 3641   1.529   6.047   4.761  0.3375  0.4449 -0.3078
   90ccc    H32 3642   1.287   6.145   4.843 -0.6386 -0.1256  0.4374
   90ccc    O10 3643   1.296   6.317   4.957 -0.1315 -0.1067 -0.1156
   90ccc    O11 3644   1.709   6.130   4.814 -0.6824 -0.3015  0.5256
   90ccc    C22 3645   1.403   5.906   5.144  0.0942 -0.2437 -0.5452
   90ccc    H33 3646   1.709   6.155   4.720  2.4011  2.3182  1.0315
   90ccc    H34 3647   1.438   6.280   4.671 -0.9415  3.7639 -1.0439
   90ccc    H35 3648   1.440   5.974   5.221  3.6151 -1.7313 -0.7105
   90ccc    H36 3649   1.477   5.825   5.147  0.6033  0.1796 -1.1552
   90ccc    O12 3650   1.266   5.861   5.165  0.0185  0.2449  0.3620
   90ccc    H37 3651   1.203   5.933   5.146 -1.3991 -1.0416  0.0273
   90ccc    O13 3652   1.343   6.106   5.031 -0.6638  0.3061 -0.0309
   90ccc    H38 3653   1.317   6.331   5.051  0.4155 -0.7490 -0.1339
   90ccc    H39 3654   1.630   6.051   5.042  0.0096 -0.9093  1.0303
   90ccc     O5 3655   1.633   5.877   4.948  0.0737  0.2928 -0.7076
   90ccc    H40 3656   1.719   5.890   4.905  2.6379 -4.0951  2.3218
   90ccc     N4 3657   1.499   6.311   4.746 -0.2312  0.3476 -0.0572
   91ccc     N1 3658   1.076   5.947   4.863  0.0410  0.0320  0.2440
   91ccc     H4 3659   1.049   5.983   4.773  1.4713 -1.2652 -0.7778
   91ccc     C3 3660   1.116   5.801   4.877  0.0368 -0.1549  0.1861
   91ccc     H5 3661   1.215   5.786   4.832  0.4159  2.2083  0.1246
   91ccc     C4 3662   1.006   5.713   4.809  0.0357  0.2442 -0.0916
   91ccc     H6 3663   1.134   5.780   4.983  2.1815  1.7103  0.2706
   91ccc     H7 3664   1.036   5.608   4.798 -0.2310  0.0149  1.1961
   91ccc     H8 3665   0.988   5.759   4.711 -1.7905  2.0026  0.9781
   91ccc     N2 3666   0.876   5.721   4.889 -0.0841  0.0717 -0.7605
   91ccc     C5 3667   0.878   5.678   5.027 -0.1175 -0.5388  0.2201
   91ccc     C6 3668   0.756   5.683   4.821 -0.1804 -0.1387  0.2151
   91ccc     H9 3669   0.769   5.594   4.758 -1.2830  0.6061 -1.1028
   91ccc     C7 3670   0.719   5.796   4.728  0.4273  0.1484  0.4790
   91ccc    H10 3671   0.666   5.661   4.880 -0.8592 -2.4091 -1.5337
   91ccc    H11 3672   0.781   5.790   4.638  1.1917 -1.1787  1.0549
   91ccc    H12 3673   0.738   5.885   4.789 -0.5590  0.5368  0.2335
   91ccc     C8 3674   0.575   5.790   4.686  0.0521  0.4775 -0.0688
   91ccc     O2 3675   0.543   5.735   4.581  0.0638  0.2371  0.5428
   91ccc    H13 3676   0.784   5.706   5.075  0.6724 -0.6232  1.9134
   91ccc    H14 3677   0.956   5.729   5.084 -0.7224  1.1749 -0.4374
   91ccc     C9 3678   0.904   5.528   5.033  0.9465 -0.5076 -0.3011
   91ccc    H15 3679   0.995   5.494   4.983  0.7162 -2.8833  0.7599
   91ccc    H16 3680   0.825   5.479   4.973 -0.3870  0.8935  0.2332
   91ccc    C10 3681   0.895   5.476   5.173 -0.5803 -0.2466  0.0494
   91ccc     O4 3682   0.811   5.504   5.251  0.5306 -0.7168 -0.4033
   91ccc    C11 3683   0.070   5.870   4.845  0.3733 -0.9841  0.5344
   91ccc    C12 3684   0.145   6.003   4.811  0.4415 -0.2466 -0.0333
   91ccc    H17 3685   0.072   5.845   4.951 -2.2487  0.5698  1.0560
   91ccc    C13 3686   0.294   5.994   4.825 -0.0874 -0.9856 -0.0079
   91ccc    C14 3687   0.343   5.871   4.741 -0.1115 -0.7609 -0.0007
   91ccc    C15 3688   0.264   5.747   4.771  0.3911  0.2233 -0.4203
   91ccc    H18 3689   0.336   5.890   4.633 -0.8539 -0.1426  0.1448
   91ccc    H19 3690   0.323   5.984   4.930 -0.0095 -0.2795  0.0377
   91ccc    H20 3691   0.296   5.712   4.870  1.0717  1.7822 -0.0531
   91ccc     O1 3692   0.293   5.643   4.682 -0.2421 -0.4116 -0.3391
   91ccc     O6 3693   0.362   6.111   4.774 -0.6369  0.0242 -0.4599
   91ccc    C16 3694  -0.079   5.882   4.825  0.7928  0.2427  0.0645
   91ccc    H21 3695   0.412   6.088   4.694  0.9892  1.2291  0.1531
   91ccc    H22 3696   0.517   5.893   4.854 -0.6138 -2.4936  0.5302
   91ccc    H23 3697  -0.130   5.946   4.899  2.5257  0.9933  0.6778
   91ccc    H24 3698  -0.108   5.779   4.850  3.8200 -0.6487  0.3282
   91ccc     O7 3699  -0.117   5.897   4.689  0.5049  0.4324  0.4205
   91ccc    H25 3700  -0.210   5.866   4.685  0.4032  0.8033 -0.2302
   91ccc     O8 3701   0.124   5.770   4.761  1.1485 -0.2048 -0.0905
   91ccc    H26 3702   0.372   5.673   4.632 -0.1372 -2.5507 -1.5435
   91ccc    H27 3703   0.120   6.026   4.707 -0.9432 -1.0327  0.0934
   91ccc     O9 3704   0.097   6.118   4.893  0.1484  0.1175  0.3936
   91ccc    H28 3705   0.129   6.112   4.984 -0.2503  0.9850  0.5965
   91ccc     N3 3706   0.486   5.849   4.768 -0.4448  0.2258 -1.0316
   91ccc    C17 3707   0.966   5.210   5.600 -0.1608  0.0770 -0.2087
   91ccc    C18 3708   0.936   5.122   5.481 -0.3869 -0.2180 -0.4021
   91ccc    H29 3709   0.874   5.266   5.622 -1.6435 -1.9856 -0.8862
   91ccc    C19 3710   0.900   5.203   5.354 -0.4195 -0.6244  0.1077
   91ccc    C20 3711   1.011   5.301   5.327  0.1513 -0.1297  0.5877
   91ccc    C21 3712   1.038   5.394   5.451 -0.2629  0.6733 -0.5936
   91ccc    H30 3713   1.105   5.246   5.311  0.4378  0.0818  1.4611
   91ccc    H31 3714   0.803   5.254   5.359 -0.5108 -0.6062 -1.3172
   91ccc    H32 3715   0.952   5.462   5.465 -0.2429  1.0483 -2.1208
   91ccc    O10 3716   1.160   5.460   5.428 -0.1089 -0.1051 -0.2672
   91ccc    O11 3717   0.898   5.114   5.244 -0.2548  0.3069 -0.4528
   91ccc    C22 3718   0.998   5.130   5.731  0.1061 -0.0898 -0.3779
   91ccc    H33 3719   0.804   5.095   5.228  0.0614 -1.7071 -0.1582
   91ccc    H34 3720   1.034   5.340   5.122 -2.3137 -0.3852 -1.5085
   91ccc    H35 3721   0.923   5.056   5.762  1.7822 -0.6360  2.8707
   91ccc    H36 3722   0.994   5.199   5.817  3.0791 -0.4912  0.1633
   91ccc    O12 3723   1.126   5.071   5.728 -0.3043 -0.7341  0.1011
   91ccc    H37 3724   1.151   5.066   5.822  0.9145 -0.5618 -0.1966
   91ccc    O13 3725   1.069   5.310   5.568  0.0348 -0.6899  0.3608
   91ccc    H38 3726   1.161   5.488   5.335 -0.0256  0.5418 -0.0747
   91ccc    H39 3727   1.019   5.057   5.453  1.0625  1.8570 -1.2008
   91ccc     O5 3728   0.816   5.049   5.513  0.0927 -0.3108  0.6857
   91ccc    H40 3729   0.831   4.954   5.498 -1.8977 -0.5215 -0.2243
   91ccc     N4 3730   0.990   5.384   5.202 -0.3877 -0.3538 -0.3838
   92ccc     N1 3731  -0.565   6.385   4.587  0.3958 -0.7665  0.0357
   92ccc     H4 3732  -0.473   6.378   4.629  0.9877 -1.5680 -1.3175
   92ccc     C3 3733  -0.673   6.452   4.666  0.1968 -0.0590 -0.8915
   92ccc     H5 3734  -0.727   6.528   4.610 -1.1709 -1.0955 -1.0320
   92ccc     C4 3735  -0.628   6.513   4.808  0.1109  0.3777  0.5082
   92ccc     H6 3736  -0.758   6.386   4.686 -1.5778  2.3371 -0.2296
   92ccc     H7 3737  -0.550   6.588   4.790  0.6978 -0.5664 -1.0106
   92ccc     H8 3738  -0.587   6.437   4.875  1.9642 -0.2605 -1.2535
   92ccc     N2 3739  -0.738   6.579   4.873 -0.1494  0.3165 -0.3493
   92ccc     C5 3740  -0.822   6.483   4.949  0.0553 -0.3271 -0.2767
   92ccc     C6 3741  -0.699   6.694   4.956  0.3385  0.0533  0.0136
   92ccc     H9 3742  -0.774   6.710   5.035  0.3346  0.1725 -0.0136
   92ccc     C7 3743  -0.697   6.819   4.867 -0.3946 -0.2022  0.6174
   92ccc    H10 3744  -0.602   6.679   5.005  0.4524  0.8352  0.0307
   92ccc    H11 3745  -0.789   6.837   4.808 -0.1944 -0.2164  0.2968
   92ccc    H12 3746  -0.623   6.799   4.788 -1.4896 -1.1265 -0.2160
   92ccc     C8 3747  -0.674   6.952   4.936 -0.3995 -0.2327 -0.5179
   92ccc     O2 3748  -0.595   6.968   5.028 -0.3259 -0.5203 -0.3411
   92ccc    H13 3749  -0.781   6.462   5.048 -1.3070  0.1616  0.4108
   92ccc    H14 3750  -0.837   6.383   4.908  0.3845 -0.3254 -0.4076
   92ccc     C9 3751  -0.961   6.543   4.964  0.1378 -0.2308 -0.5640
   92ccc    H15 3752  -0.970   6.648   4.935 -0.1458 -0.1560 -0.2096
   92ccc    H16 3753  -0.981   6.521   5.069  0.4158 -0.9380 -0.6520
   92ccc    C10 3754  -1.066   6.467   4.871 -0.7285 -0.3485 -0.3292
   92ccc     O4 3755  -1.137   6.376   4.916  0.2514  0.5878  0.1618
   92ccc    C11 3756  -0.632   7.418   5.125 -0.0068  0.0028 -1.1085
   92ccc    C12 3757  -0.595   7.416   4.976  0.0250  0.6256 -0.1222
   92ccc    H17 3758  -0.558   7.361   5.182 -0.1623 -0.8596 -1.7490
   92ccc    C13 3759  -0.597   7.274   4.916  0.7960 -0.3120  0.0044
   92ccc    C14 3760  -0.731   7.201   4.944 -0.3481 -0.1935  0.1697
   92ccc    C15 3761  -0.762   7.205   5.094  0.4925  0.0991 -0.1001
   92ccc    H18 3762  -0.813   7.250   4.890  0.6410 -0.7937 -1.9740
   92ccc    H19 3763  -0.517   7.217   4.965  0.8094  0.2540  0.6681
   92ccc    H20 3764  -0.702   7.134   5.153  0.8531 -0.3894 -1.0415
   92ccc     O1 3765  -0.897   7.162   5.120 -0.5709 -0.1036 -0.2108
   92ccc     O6 3766  -0.555   7.294   4.780  0.4773  0.2601 -0.8135
   92ccc    C16 3767  -0.662   7.555   5.183  0.2768  0.6339  0.0062
   92ccc    H21 3768  -0.537   7.209   4.737 -0.0451  0.6051 -1.7527
   92ccc    H22 3769  -0.793   7.054   4.803  0.0203  1.4729  0.0870
   92ccc    H23 3770  -0.572   7.618   5.186  1.2584 -0.7815  1.4688
   92ccc    H24 3771  -0.684   7.539   5.289  0.4521 -0.3533 -0.1040
   92ccc     O7 3772  -0.763   7.624   5.105  0.4378  0.1468  0.2133
   92ccc    H25 3773  -0.841   7.566   5.099  0.9757 -0.7422  1.4563
   92ccc     O8 3774  -0.754   7.341   5.143  0.1060  0.3446  0.2783
   92ccc    H26 3775  -0.911   7.066   5.111 -1.5426  0.0943 -0.9604
   92ccc    H27 3776  -0.676   7.470   4.926 -0.6552  0.9196  1.2434
   92ccc     O9 3777  -0.465   7.476   4.967  0.0775  0.0228 -0.5642
   92ccc    H28 3778  -0.453   7.498   4.873 -3.1160 -0.8209 -1.2885
   92ccc     N3 3779  -0.734   7.061   4.886 -0.2293  0.5404  0.3515
   92ccc    C17 3780  -1.232   6.372   4.369 -0.5090  0.2120 -0.1573
   92ccc    C18 3781  -1.125   6.282   4.434  0.2105  0.5648  0.6509
   92ccc    H29 3782  -1.179   6.443   4.304 -0.8654  0.9493  0.3535
   92ccc    C19 3783  -1.049   6.361   4.545 -0.4344 -0.4316  0.3475
   92ccc    C20 3784  -1.147   6.441   4.637  0.0251  0.2214 -0.5811
   92ccc    C21 3785  -1.226   6.537   4.553  0.3967 -0.1821  0.8289
   92ccc    H30 3786  -1.213   6.371   4.689 -1.7527  2.0567 -0.2620
   92ccc    H31 3787  -0.973   6.430   4.506 -0.4684 -1.5508 -1.8595
   92ccc    H32 3788  -1.181   6.616   4.491 -3.1468 -0.0254 -1.8398
   92ccc    O10 3789  -1.329   6.600   4.624  0.3859 -0.1618 -0.3893
   92ccc    O11 3790  -0.980   6.267   4.627 -0.5566  0.0932 -0.1280
   92ccc    C22 3791  -1.328   6.305   4.269  0.0687 -0.0703 -0.6604
   92ccc    H33 3792  -0.913   6.220   4.574  1.7116  1.7897  1.0953
   92ccc    H34 3793  -1.006   6.586   4.717 -1.1296  1.2067  1.0403
   92ccc    H35 3794  -1.390   6.240   4.332 -2.1425  2.5085  0.0174
   92ccc    H36 3795  -1.262   6.247   4.203  0.1648 -1.2913  0.4671
   92ccc    O12 3796  -1.413   6.402   4.206  0.1690  0.3911 -0.3517
   92ccc    H37 3797  -1.418   6.471   4.274 -0.5263 -1.7277  1.8801
   92ccc    O13 3798  -1.303   6.448   4.472  0.7777  0.6200 -0.2173
   92ccc    H38 3799  -1.300   6.693   4.634 -0.3577 -0.1012  1.7029
   92ccc    H39 3800  -1.183   6.199   4.476 -1.4619  1.6770  0.6387
   92ccc     O5 3801  -1.041   6.242   4.325  0.6324  0.9364  0.4080
   92ccc    H40 3802  -0.999   6.324   4.292  0.9318  0.0777 -1.4913
   92ccc     N4 3803  -1.071   6.512   4.743 -0.5455  0.0551 -0.6246
   93ccc     N1 3804   0.029   6.063   4.053 -0.4090  0.1268 -0.2251
   93ccc     H4 3805   0.069   6.141   4.003  0.3653  0.9090  1.5486
   93ccc     C3 3806   0.080   5.922   4.033  0.0379  0.2586  0.3942
   93ccc     H5 3807   0.013   5.852   4.085  1.1527 -0.5980  0.7141
   93ccc     C4 3808   0.221   5.901   4.096 -0.2287  0.1133 -0.7641
   93ccc     H6 3809   0.068   5.907   3.925 -0.2770  1.2181  0.2822
   93ccc     H7 3810   0.277   5.992   4.074 -0.6957 -0.0887 -3.0789
   93ccc     H8 3811   0.260   5.813   4.042 -3.0787 -0.9280 -1.3384
   93ccc     N2 3812   0.210   5.880   4.243 -0.6393  0.5297 -0.0217
   93ccc     C5 3813   0.333   5.922   4.313  1.0720  0.5183 -0.3044
   93ccc     C6 3814   0.166   5.751   4.283 -0.3559  0.4538 -0.3439
   93ccc     H9 3815   0.117   5.695   4.203 -0.4318  0.0333 -0.0076
   93ccc     C7 3816   0.064   5.769   4.394  0.2148 -0.3258 -0.9503
   93ccc    H10 3817   0.248   5.680   4.300 -0.7283 -0.1728 -1.1387
   93ccc    H11 3818  -0.020   5.838   4.374 -1.2489 -0.7824  2.7787
   93ccc    H12 3819   0.111   5.816   4.481 -1.6125  1.1107 -0.6670
   93ccc     C8 3820   0.005   5.636   4.420  0.7884 -1.2171 -0.3297
   93ccc     O2 3821  -0.003   5.544   4.347 -0.6046  0.4034 -0.1322
   93ccc    H13 3822   0.423   5.882   4.265  0.0250 -1.7318 -0.5000
   93ccc    H14 3823   0.326   5.876   4.412  0.3324  0.2895 -0.4593
   93ccc     C9 3824   0.339   6.073   4.319 -0.0644 -0.6409 -0.1477
   93ccc    H15 3825   0.240   6.112   4.346  0.5006  1.3137 -0.7227
   93ccc    H16 3826   0.371   6.116   4.223  1.5638 -3.1179 -0.8253
   93ccc    C10 3827   0.438   6.117   4.427 -0.2106 -0.2194  0.7677
   93ccc     O4 3828   0.462   6.056   4.527 -0.4857 -0.3543 -0.3385
   93ccc    C11 3829  -0.146   5.209   4.618 -0.1395 -0.6708  0.2524
   93ccc    C12 3830  -0.040   5.273   4.706  0.8372 -0.6683 -0.1360
   93ccc    H17 3831  -0.100   5.176   4.524  0.2701 -0.1588  0.2673
   93ccc    C13 3832   0.016   5.409   4.644  0.0918  0.2175 -0.2367
   93ccc    C14 3833  -0.105   5.498   4.604 -0.1243  0.0462 -0.0736
   93ccc    C15 3834  -0.211   5.418   4.517  0.2766 -0.0980 -0.0949
   93ccc    H18 3835  -0.164   5.523   4.693  1.0291  0.1750  0.6820
   93ccc    H19 3836   0.092   5.387   4.568  0.2130  0.7173 -0.2621
   93ccc    H20 3837  -0.167   5.395   4.419 -0.4992 -1.2944 -0.1838
   93ccc     O1 3838  -0.320   5.507   4.506  0.4289 -0.2016  0.4700
   93ccc     O6 3839   0.077   5.490   4.756  0.1023 -0.0858  0.0137
   93ccc    C16 3840  -0.208   5.075   4.664  0.2740  0.1013 -0.2886
   93ccc    H21 3841   0.140   5.558   4.726 -0.3672  0.3151 -0.0839
   93ccc    H22 3842  -0.061   5.708   4.600  0.8321  1.0748 -0.8432
   93ccc    H23 3843  -0.134   4.996   4.684 -0.6647 -1.0144 -1.1062
   93ccc    H24 3844  -0.269   5.030   4.585  2.0089  1.3609 -2.4372
   93ccc     O7 3845  -0.274   5.114   4.785 -0.2179  1.0042 -0.2050
   93ccc    H25 3846  -0.324   5.035   4.810 -0.1223  0.1977 -2.3027
   93ccc     O8 3847  -0.252   5.304   4.588 -0.2611 -0.9085 -0.6964
   93ccc    H26 3848  -0.371   5.480   4.584 -0.3128 -1.4234 -0.4039
   93ccc    H27 3849  -0.094   5.286   4.801  1.2601 -1.5260  0.2377
   93ccc     O9 3850   0.068   5.181   4.715  0.5059 -0.2622 -0.0319
   93ccc    H28 3851   0.115   5.163   4.632 -0.4591 -1.2510 -0.3901
   93ccc     N3 3852  -0.054   5.624   4.543  0.1786 -0.3557  1.0482
   93ccc    C17 3853   0.926   6.354   4.431 -0.2597 -0.0767 -0.2602
   93ccc    C18 3854   0.820   6.439   4.501  0.3874 -0.4093 -0.0054
   93ccc    H29 3855   0.923   6.371   4.322  1.6078 -3.3135 -0.9525
   93ccc    C19 3856   0.672   6.409   4.445 -0.3064  0.1117 -0.1619
   93ccc    C20 3857   0.641   6.260   4.471 -0.5523  0.0321  0.3142
   93ccc    C21 3858   0.760   6.165   4.427 -0.4865 -0.0454 -0.8130
   93ccc    H30 3859   0.623   6.258   4.579  1.2316  2.2832  0.7129
   93ccc    H31 3860   0.681   6.428   4.338  0.7520 -0.6383 -0.2287
   93ccc    H32 3861   0.757   6.139   4.320 -0.0721 -2.2789 -0.3230
   93ccc    O10 3862   0.749   6.044   4.504 -0.3606  0.3655  0.1334
   93ccc    O11 3863   0.581   6.498   4.508  0.3801 -0.1480  0.1795
   93ccc    C22 3864   1.073   6.369   4.481  0.1156  0.8092  0.1605
   93ccc    H33 3865   0.514   6.528   4.444 -1.0879 -0.2544  1.6147
   93ccc    H34 3866   0.509   6.276   4.317  0.0938 -1.5413 -0.9828
   93ccc    H35 3867   1.073   6.324   4.581 -0.2861 -2.6738 -1.2611
   93ccc    H36 3868   1.110   6.472   4.487  1.9392  0.1497  1.0925
   93ccc    O12 3869   1.165   6.298   4.396 -0.7681  0.4184  0.3301
   93ccc    H37 3870   1.145   6.321   4.304 -1.9772  0.3970  0.5693
   93ccc    O13 3871   0.890   6.218   4.459  0.3276  0.0736 -0.1671
   93ccc    H38 3872   0.653   6.035   4.516 -0.5088 -1.9440 -1.9788
   93ccc    H39 3873   0.821   6.403   4.604  0.6297  0.0681  0.1654
   93ccc     O5 3874   0.849   6.580   4.482  0.1242  0.4645 -0.5033
   93ccc    H40 3875   0.790   6.628   4.543  0.4200  1.0366 -0.6599
   93ccc     N4 3876   0.512   6.222   4.404  0.5441 -0.6757 -0.4510
   94ccc     N1 3877  -1.920   6.953   5.850  0.6075  0.6592  0.3769
   94ccc     H4 3878  -1.926   7.003   5.938 -0.5441 -0.0384  0.7242
   94ccc     C3 3879  -1.935   6.806   5.844 -0.0783 -0.1281  0.0169
   94ccc     H5 3880  -1.867   6.755   5.775  0.8808  0.0904  0.7871
   94ccc     C4 3881  -2.086   6.769   5.824  0.1108 -0.2811 -0.3839
   94ccc     H6 3882  -1.911   6.770   5.945 -1.1345  1.1933  0.7646
   94ccc     H7 3883  -2.112   6.663   5.829  0.2292 -0.3252 -0.6999
   94ccc     H8 3884  -2.101   6.791   5.717 -0.3564  0.3473 -0.1980
   94ccc     N2 3885  -2.183   6.856   5.906 -0.1485 -0.3780  0.4134
   94ccc     C5 3886  -2.320   6.813   5.872  0.2193 -0.9628  0.5017
   94ccc     C6 3887  -2.171   6.855   6.048  0.0597 -0.2255 -0.3139
   94ccc     H9 3888  -2.254   6.811   6.105  0.4862  0.5197  0.9264
   94ccc     C7 3889  -2.156   7.003   6.092  0.1604  0.9505  0.1355
   94ccc    H10 3890  -2.080   6.806   6.083  0.8881  1.4401 -0.0382
   94ccc    H11 3891  -2.230   7.065   6.041 -1.6483 -1.3328 -0.2094
   94ccc    H12 3892  -2.064   7.041   6.044  0.2162  0.7714  0.0993
   94ccc     C8 3893  -2.149   7.007   6.239  0.4086  0.6795 -0.0972
   94ccc     O2 3894  -2.072   6.947   6.308  0.1314  0.0107  0.2052
   94ccc    H13 3895  -2.333   6.718   5.925  0.9180 -1.1274  0.3955
   94ccc    H14 3896  -2.320   6.799   5.763  0.0760 -0.9260  0.4976
   94ccc     C9 3897  -2.429   6.906   5.911 -0.0634 -0.8449  0.0605
   94ccc    H15 3898  -2.403   7.006   5.871 -2.8271 -0.2226 -0.3569
   94ccc    H16 3899  -2.448   6.918   6.018  2.2342 -0.6746  0.5050
   94ccc    C10 3900  -2.552   6.846   5.851 -0.1844  0.3702 -0.4952
   94ccc     O4 3901  -2.558   6.761   5.766 -0.0712  0.0672 -0.6279
   94ccc    C11 3902  -2.377   6.878   6.649  0.4001 -0.0881 -0.0075
   94ccc    C12 3903  -2.294   6.999   6.679 -0.7509  0.1477 -0.1742
   94ccc    H17 3904  -2.313   6.790   6.639 -0.7024 -0.8549 -0.6294
   94ccc    C13 3905  -2.215   7.041   6.550 -0.1687  0.3361  0.2885
   94ccc    C14 3906  -2.313   7.042   6.424  0.0199 -0.3144 -0.7737
   94ccc    C15 3907  -2.403   6.921   6.407  0.1311 -0.1183 -0.1680
   94ccc    H18 3908  -2.378   7.127   6.446 -1.9891 -2.3607  1.7229
   94ccc    H19 3909  -2.120   6.987   6.539 -0.2685  0.2581 -0.2088
   94ccc    H20 3910  -2.344   6.832   6.381 -0.6415 -1.4958  2.4224
   94ccc     O1 3911  -2.499   6.947   6.313  0.3560  0.4138 -1.1030
   94ccc     O6 3912  -2.174   7.172   6.561  0.1591 -0.3508  0.6495
   94ccc    C16 3913  -2.465   6.843   6.774  0.1915 -0.3239  0.3664
   94ccc    H21 3914  -2.165   7.201   6.469 -0.2805 -0.6229  0.5177
   94ccc    H22 3915  -2.314   7.109   6.225 -0.3251 -0.6217  0.6125
   94ccc    H23 3916  -2.401   6.807   6.856  0.6794 -3.1347 -1.1289
   94ccc    H24 3917  -2.526   6.754   6.757 -1.5954  0.5976  1.7034
   94ccc     O7 3918  -2.548   6.948   6.826  0.2440 -0.0255  0.3248
   94ccc    H25 3919  -2.617   6.965   6.760 -0.9398 -2.5890  0.7584
   94ccc     O8 3920  -2.465   6.897   6.532  0.0580  0.3031 -0.1388
   94ccc    H26 3921  -2.548   6.863   6.308 -0.4917  0.8203  0.0462
   94ccc    H27 3922  -2.362   7.078   6.712  1.6681  2.1306  0.3430
   94ccc     O9 3923  -2.214   6.983   6.794 -0.4404  0.4054  0.3562
   94ccc    H28 3924  -2.125   6.959   6.763 -1.2407  0.2994 -2.1002
   94ccc     N3 3925  -2.246   7.082   6.295 -0.0115 -0.3613  0.4105
   94ccc    C17 3926  -3.072   6.958   5.812  0.2446  0.0055  0.1790
   94ccc    C18 3927  -2.980   6.976   5.690  0.0510  0.2496 -0.2160
   94ccc    H29 3928  -3.061   7.043   5.880 -0.5773 -0.3542  0.7929
   94ccc    C19 3929  -2.834   6.982   5.738 -0.6947  0.3226 -0.0548
   94ccc    C20 3930  -2.797   6.871   5.837  0.3691  0.2418  0.2149
   94ccc    C21 3931  -2.899   6.855   5.949 -0.1655  0.4990 -0.1147
   94ccc    H30 3932  -2.793   6.780   5.776  3.5810  0.5564 -0.2128
   94ccc    H31 3933  -2.812   7.079   5.784  2.6015  0.3562 -1.4412
   94ccc    H32 3934  -2.898   6.937   6.022  1.4471 -0.5065  1.0817
   94ccc    O10 3935  -2.863   6.734   6.011  0.2192  0.1975  0.4192
   94ccc    O11 3936  -2.751   6.972   5.625  0.0603 -0.5473  0.4553
   94ccc    C22 3937  -3.219   6.945   5.781  0.4005 -0.2770  0.2413
   94ccc    H33 3938  -2.662   6.960   5.662  0.2111 -0.0303  0.2570
   94ccc    H34 3939  -2.664   6.975   5.964 -1.7416 -0.1377 -0.0152
   94ccc    H35 3940  -3.263   7.040   5.747 -0.3207 -0.8671 -0.5276
   94ccc    H36 3941  -3.281   6.926   5.869  0.4249  1.0916  0.5808
   94ccc    O12 3942  -3.243   6.842   5.678  0.2266 -0.0676  0.1863
   94ccc    H37 3943  -3.263   6.759   5.724  0.1333  0.7670  1.7406
   94ccc    O13 3944  -3.028   6.841   5.886 -0.4701  0.5133  0.0618
   94ccc    H38 3945  -2.941   6.677   6.001  0.0743  0.5612 -0.6269
   94ccc    H39 3946  -2.993   6.887   5.628  1.1698  1.2147 -1.9082
   94ccc     O5 3947  -3.008   7.101   5.614  0.1963 -0.5439  0.1507
   94ccc    H40 3948  -2.965   7.077   5.530  1.5442 -1.6705  1.1086
   94ccc     N4 3949  -2.666   6.901   5.893 -0.4008 -0.1740 -0.0450
   95ccc     N1 3950  -1.902   7.693   5.520 -0.4353 -0.0356  0.3654
   95ccc     H4 3951  -1.985   7.715   5.573 -0.0404  1.4753  0.3895
   95ccc     C3 3952  -1.877   7.770   5.395 -0.0071 -0.0089 -0.8078
   95ccc     H5 3953  -1.842   7.873   5.410 -1.6766  0.7924 -2.1264
   95ccc     C4 3954  -2.006   7.771   5.312  0.4062 -0.5531  0.3140
   95ccc     H6 3955  -1.796   7.728   5.333 -0.0364 -1.4313  0.0527
   95ccc     H7 3956  -1.979   7.826   5.221 -3.0328 -0.2324 -0.6342
   95ccc     H8 3957  -2.085   7.821   5.369 -1.4975 -0.8048 -1.9764
   95ccc     N2 3958  -2.049   7.635   5.281  0.0698 -0.0082  0.1225
   95ccc     C5 3959  -1.963   7.574   5.185 -0.8747 -0.0620  0.4964
   95ccc     C6 3960  -2.187   7.611   5.251  0.3642  0.4483  0.1133
   95ccc     H9 3961  -2.238   7.689   5.192  1.0372  1.4937  0.8837
   95ccc     C7 3962  -2.259   7.604   5.388  0.1407  0.3280  0.4002
   95ccc    H10 3963  -2.207   7.514   5.204 -0.5634  0.8724 -0.3916
   95ccc    H11 3964  -2.256   7.698   5.445 -0.4663 -1.8064  4.2002
   95ccc    H12 3965  -2.195   7.536   5.446  0.2542  1.4717  1.6703
   95ccc     C8 3966  -2.398   7.552   5.376  0.1587  0.2273 -0.2342
   95ccc     O2 3967  -2.461   7.557   5.270 -0.1051  0.4266 -0.5607
   95ccc    H13 3968  -1.859   7.599   5.210 -1.3932  0.9129  1.8159
   95ccc    H14 3969  -1.973   7.608   5.082  2.1328  0.4820  0.3099
   95ccc     C9 3970  -1.973   7.421   5.189  0.5550 -0.2325 -0.5500
   95ccc    H15 3971  -2.061   7.389   5.131  0.5489 -0.4035 -0.4466
   95ccc    H16 3972  -1.991   7.400   5.295 -1.8006 -0.3097 -0.9086
   95ccc    C10 3973  -1.848   7.360   5.134 -0.3773 -0.1412 -0.8859
   95ccc     O4 3974  -1.811   7.386   5.018  0.4107  0.3455 -0.1508
   95ccc    C11 3975  -2.872   7.454   5.425  0.0730 -0.8278 -0.2104
   95ccc    C12 3976  -2.789   7.323   5.402 -0.2762 -0.0983  0.2829
   95ccc    H17 3977  -2.862   7.521   5.339  0.0384 -1.7467 -0.9514
   95ccc    C13 3978  -2.634   7.350   5.393  0.3214 -0.1925 -0.2690
   95ccc    C14 3979  -2.586   7.460   5.495 -0.1429  0.6673  0.1199
   95ccc    C15 3980  -2.673   7.580   5.508 -0.3740 -0.0434  0.7932
   95ccc    H18 3981  -2.595   7.408   5.591 -0.0269  0.0629 -0.1931
   95ccc    H19 3982  -2.625   7.384   5.289  1.1969 -2.9790 -1.1948
   95ccc    H20 3983  -2.670   7.650   5.424 -0.1495  0.0385  0.8700
   95ccc     O1 3984  -2.649   7.645   5.638 -0.4774  0.4964  0.7510
   95ccc     O6 3985  -2.555   7.232   5.406  0.5557  0.7457  0.0292
   95ccc    C16 3986  -3.022   7.437   5.440  0.2478  0.4108 -0.6485
   95ccc    H21 3987  -2.597   7.161   5.353  1.2223  0.0458  0.4150
   95ccc    H22 3988  -2.395   7.482   5.574 -2.0699  1.1299  0.4410
   95ccc    H23 3989  -3.036   7.412   5.546  3.2389  1.5092  0.1185
   95ccc    H24 3990  -3.046   7.351   5.376 -0.0943 -0.7058  0.9260
   95ccc     O7 3991  -3.108   7.551   5.398 -0.0930 -0.1106 -0.0781
   95ccc    H25 3992  -3.158   7.498   5.333  0.4397  0.7141 -1.1964
   95ccc     O8 3993  -2.813   7.535   5.528  0.3178 -0.1932 -0.1956
   95ccc    H26 3994  -2.618   7.736   5.628 -0.3592  0.6790  2.4554
   95ccc    H27 3995  -2.809   7.258   5.489  0.4178 -0.4188  0.2082
   95ccc     O9 3996  -2.827   7.259   5.278 -0.1729 -0.4592  0.5274
   95ccc    H28 3997  -2.864   7.172   5.301  1.3607 -0.5226  3.2761
   95ccc     N3 3998  -2.445   7.494   5.486 -0.1568  0.5054 -0.8061
   95ccc    C17 3999  -1.380   7.152   5.300  0.6727 -0.1362 -0.1535
   95ccc    C18 4000  -1.462   7.052   5.209  0.2962 -0.1004 -0.0349
   95ccc    H29 4001  -1.421   7.139   5.400 -0.3497  1.4337 -0.3336
   95ccc    C19 4002  -1.616   7.089   5.215 -0.0159 -1.0434  0.3471
   95ccc    C20 4003  -1.641   7.248   5.205 -0.2454 -0.5067 -0.0488
   95ccc    C21 4004  -1.548   7.325   5.302 -0.0298 -0.7013  0.0785
   95ccc    H30 4005  -1.618   7.288   5.105  1.1478  1.9045  1.1696
   95ccc    H31 4006  -1.649   7.067   5.317  0.9144  0.5988  1.0441
   95ccc    H32 4007  -1.571   7.302   5.406 -0.0373 -0.6347  0.0912
   95ccc    O10 4008  -1.553   7.465   5.280  0.7750  0.0760 -0.3503
   95ccc    O11 4009  -1.687   7.013   5.120 -0.1099  0.4308  0.6007
   95ccc    C22 4010  -1.232   7.127   5.292  0.2674  0.3567  0.7150
   95ccc    H33 4011  -1.768   7.065   5.103 -0.5205 -0.6517 -1.1137
   95ccc    H34 4012  -1.827   7.261   5.308  0.1110 -0.3431 -0.3336
   95ccc    H35 4013  -1.205   7.128   5.185  1.1377 -3.2105  0.7978
   95ccc    H36 4014  -1.207   7.025   5.321 -0.7190 -1.0659 -2.8750
   95ccc    O12 4015  -1.149   7.220   5.368  0.0016  0.5581  0.0690
   95ccc    H37 4016  -1.204   7.300   5.381 -2.7148 -0.9103 -1.4965
   95ccc    O13 4017  -1.411   7.287   5.276 -0.8057 -0.4890 -0.6427
   95ccc    H38 4018  -1.632   7.493   5.329  1.2737 -0.5814  0.8947
   95ccc    H39 4019  -1.431   7.058   5.104  0.4906 -0.4657 -0.0008
   95ccc     O5 4020  -1.450   6.917   5.264  0.0451 -0.4849  0.3525
   95ccc    H40 4021  -1.505   6.853   5.215  3.0134 -2.1243 -1.1516
   95ccc     N4 4022  -1.781   7.289   5.222 -0.2470  0.6469 -0.2195
   96ccc     N1 4023  -1.436   6.807   7.376  0.4320 -0.0023  0.4052
   96ccc     H4 4024  -1.483   6.885   7.332  0.7607  0.0946  0.2309
   96ccc     C3 4025  -1.361   6.838   7.496  0.2794 -0.0733 -0.2026
   96ccc     H5 4026  -1.426   6.897   7.562 -3.9033 -3.7801 -0.5766
   96ccc     C4 4027  -1.223   6.901   7.470 -0.8832 -0.0618  0.1742
   96ccc     H6 4028  -1.344   6.750   7.559 -1.2675 -0.4727 -0.2989
   96ccc     H7 4029  -1.154   6.823   7.435  0.5609  0.8178  0.9351
   96ccc     H8 4030  -1.182   6.927   7.568  0.8518  1.0062 -0.7727
   96ccc     N2 4031  -1.209   7.035   7.403 -0.2211  0.0869  0.0940
   96ccc     C5 4032  -1.078   7.105   7.432 -0.0695  0.2893 -0.1767
   96ccc     C6 4033  -1.252   7.057   7.264  0.2856  0.8311 -0.2640
   96ccc     H9 4034  -1.358   7.036   7.276  0.1586  2.0007  0.8977
   96ccc     C7 4035  -1.181   6.966   7.166  0.2185 -0.2298 -0.2838
   96ccc    H10 4036  -1.231   7.159   7.230  1.7757  0.6550  0.0387
   96ccc    H11 4037  -1.213   6.864   7.190  0.2462 -0.1199  0.2294
   96ccc    H12 4038  -1.072   6.973   7.175  0.4771  0.1451 -2.9395
   96ccc     C8 4039  -1.238   7.007   7.033 -0.5340 -0.0046  0.3907
   96ccc     O2 4040  -1.281   7.111   6.995  0.3446 -0.2706  0.2075
   96ccc    H13 4041  -1.070   7.192   7.366 -0.2725 -0.3837 -1.1107
   96ccc    H14 4042  -0.992   7.038   7.416 -0.9048 -1.2084  1.3177
   96ccc     C9 4043  -1.074   7.165   7.573 -0.0705  0.7201 -0.1944
   96ccc    H15 4044  -1.058   7.097   7.657 -2.4429  1.7827  1.2170
   96ccc    H16 4045  -1.169   7.215   7.592 -1.2009 -0.8192 -1.5206
   96ccc    C10 4046  -0.967   7.267   7.575  0.2483 -0.5532  0.5186
   96ccc     O4 4047  -0.854   7.235   7.596 -0.3052  0.2367  0.2056
   96ccc    C11 4048  -1.172   6.841   6.517 -0.6032  0.2509  0.0472
   96ccc    C12 4049  -1.306   6.802   6.580 -0.1688  0.5368  0.0026
   96ccc    H17 4050  -1.098   6.761   6.530 -2.2357 -1.2080  0.8523
   96ccc    C13 4051  -1.306   6.808   6.738 -0.3088 -0.4896  0.0187
   96ccc    C14 4052  -1.231   6.932   6.795  0.4180  1.0635  0.1704
   96ccc    C15 4053  -1.093   6.942   6.717 -0.0085  0.0014 -0.0655
   96ccc    H18 4054  -1.290   7.021   6.772 -1.6129 -0.2505 -0.0104
   96ccc    H19 4055  -1.255   6.720   6.779 -0.7738 -0.6631  0.2323
   96ccc    H20 4056  -1.036   6.849   6.729  0.2002  0.2230  0.7445
   96ccc     O1 4057  -1.026   7.059   6.764 -0.2403 -0.2149  0.3566
   96ccc     O6 4058  -1.439   6.816   6.788  0.1464  0.6224  0.0622
   96ccc    C16 4059  -1.182   6.861   6.369 -0.6716  0.1246  0.2514
   96ccc    H21 4060  -1.458   6.890   6.848 -3.0083  0.6342 -0.7473
   96ccc    H22 4061  -1.162   6.825   6.972 -0.0852 -0.1683  0.8933
   96ccc    H23 4062  -1.168   6.765   6.317 -0.4078  0.6401 -0.6460
   96ccc    H24 4063  -1.085   6.906   6.345  0.5111 -3.1802 -1.8317
   96ccc     O7 4064  -1.298   6.935   6.324  0.4078  0.0916  0.0103
   96ccc    H25 4065  -1.295   6.919   6.228 -0.6355  0.0621 -0.0301
   96ccc     O8 4066  -1.130   6.960   6.582  0.1676  0.1424  0.3344
   96ccc    H26 4067  -1.081   7.134   6.736 -1.4094 -1.6039 -1.3481
   96ccc    H27 4068  -1.388   6.868   6.548  0.1720  0.6840 -0.5667
   96ccc     O9 4069  -1.325   6.662   6.548  0.3003  0.5702  0.1475
   96ccc    H28 4070  -1.352   6.661   6.455 -0.8059  1.2639  0.4527
   96ccc     N3 4071  -1.211   6.910   6.946 -0.2375 -0.2331  0.9666
   96ccc    C17 4072  -0.762   7.758   7.462 -0.3028  0.0366 -0.6474
   96ccc    C18 4073  -0.902   7.767   7.533 -0.7165  0.2949  0.1274
   96ccc    H29 4074  -0.795   7.755   7.358 -0.2417 -1.3403 -0.6446
   96ccc    C19 4075  -0.989   7.635   7.523 -0.6091  0.1697  0.0680
   96ccc    C20 4076  -0.903   7.509   7.555  0.3744 -1.1125 -0.7553
   96ccc    C21 4077  -0.769   7.515   7.476 -0.0002 -1.2538  0.4325
   96ccc    H30 4078  -0.873   7.514   7.660 -2.6072  2.1118  0.1478
   96ccc    H31 4079  -1.025   7.611   7.423 -0.5442 -3.1427  0.7114
   96ccc    H32 4080  -0.784   7.500   7.369  3.2805 -2.2403 -0.0095
   96ccc    O10 4081  -0.689   7.413   7.527 -0.6828 -0.1045 -0.3447
   96ccc    O11 4082  -1.093   7.655   7.618  0.4606 -0.2092 -0.9056
   96ccc    C22 4083  -0.676   7.882   7.494  0.2814  0.4625  0.6793
   96ccc    H33 4084  -1.163   7.707   7.574  0.4924  1.1969  0.5839
   96ccc    H34 4085  -1.097   7.411   7.552 -0.5881 -1.4991 -0.2574
   96ccc    H35 4086  -0.731   7.972   7.465 -0.0403 -0.1376 -0.6215
   96ccc    H36 4087  -0.590   7.889   7.427  2.4006  0.5596  3.2291
   96ccc    O12 4088  -0.630   7.883   7.628  0.2044  0.1194  0.7280
   96ccc    H37 4089  -0.539   7.917   7.633  0.2115 -0.0446  1.9174
   96ccc    O13 4090  -0.698   7.631   7.504 -0.7764 -0.1442 -0.2610
   96ccc    H38 4091  -0.753   7.357   7.574 -0.5633 -0.2807 -0.3896
   96ccc    H39 4092  -0.889   7.786   7.640 -0.2138  1.6877 -0.1606
   96ccc     O5 4093  -0.967   7.875   7.476 -0.2770 -0.2254 -0.1247
   96ccc    H40 4094  -1.063   7.867   7.492 -0.7574  2.4564 -1.1520
   96ccc     N4 4095  -0.997   7.391   7.540 -0.2698  0.3171 -0.8436
   97ccc     N1 4096  -1.883   6.264   6.905  0.2042 -0.2118  0.0755
   97ccc     H4 4097  -1.789   6.271   6.868 -0.3291  0.9446 -1.1380
   97ccc     C3 4098  -1.998   6.213   6.821 -0.0078  0.3698  0.4188
   97ccc     H5 4099  -2.052   6.143   6.886  0.1770 -0.1916 -0.0334
   97ccc     C4 4100  -1.957   6.165   6.682 -0.1727 -0.0260  0.2835
   97ccc     H6 4101  -2.069   6.296   6.809 -0.1896  0.1772  0.1693
   97ccc     H7 4102  -1.869   6.103   6.703  0.2127  0.9940  1.8310
   97ccc     H8 4103  -1.916   6.256   6.636  1.5385 -0.3835  1.0091
   97ccc     N2 4104  -2.061   6.094   6.606 -0.6262 -0.4339 -0.4202
   97ccc     C5 4105  -2.034   6.079   6.462  0.2584 -0.1512 -0.0516
   97ccc     C6 4106  -2.100   5.968   6.670 -0.0261 -0.4070 -0.2792
   97ccc     H9 4107  -2.014   5.901   6.664  2.3148  1.9871  2.9099
   97ccc     C7 4108  -2.210   5.896   6.591 -0.1864  0.1322 -0.0968
   97ccc    H10 4109  -2.122   5.973   6.777  2.4538 -2.1356  0.3881
   97ccc    H11 4110  -2.181   5.846   6.497 -0.3189  1.2035 -0.7190
   97ccc    H12 4111  -2.287   5.970   6.567  0.5275  0.4699 -1.4545
   97ccc     C8 4112  -2.271   5.792   6.678  0.2644  0.4121  0.5568
   97ccc     O2 4113  -2.288   5.673   6.655 -0.1756  1.0629  0.4956
   97ccc    H13 4114  -2.114   6.018   6.419  2.9606 -2.9429 -1.5063
   97ccc    H14 4115  -1.947   6.018   6.435 -1.0524 -2.1789  0.1510
   97ccc     C9 4116  -2.035   6.214   6.393  0.1051 -0.1896 -0.3877
   97ccc    H15 4117  -1.947   6.276   6.417 -0.4821  0.5013  0.0459
   97ccc    H16 4118  -2.121   6.273   6.427  0.0955 -1.6403  2.3125
   97ccc    C10 4119  -2.040   6.184   6.245 -0.3199 -0.5482 -0.1511
   97ccc     O4 4120  -1.943   6.200   6.172 -0.2920  0.5490 -0.4780
   97ccc    C11 4121  -2.606   5.767   7.102  0.6870  0.1778 -0.2581
   97ccc    C12 4122  -2.649   5.725   6.964  0.3363 -0.2017  0.7594
   97ccc    H17 4123  -2.621   5.876   7.113 -0.0587 -0.0495  1.3210
   97ccc    C13 4124  -2.559   5.791   6.852  0.0710  0.4122 -0.3519
   97ccc    C14 4125  -2.413   5.765   6.878 -0.4071  0.5792  0.5212
   97ccc    C15 4126  -2.375   5.812   7.021 -0.2618 -0.1329  0.0585
   97ccc    H18 4127  -2.389   5.658   6.878  0.5854  0.7242  2.7917
   97ccc    H19 4128  -2.577   5.898   6.873 -1.3927  0.1557 -0.1577
   97ccc    H20 4129  -2.388   5.919   7.036  1.3670  0.0363  0.4678
   97ccc     O1 4130  -2.239   5.775   7.061  1.0483 -0.0281 -0.1719
   97ccc     O6 4131  -2.579   5.764   6.715  0.0527 -0.2129  0.1307
   97ccc    C16 4132  -2.675   5.687   7.221 -0.6282 -0.3317  0.4807
   97ccc    H21 4133  -2.675   5.754   6.722 -0.1539  1.5271  0.4131
   97ccc    H22 4134  -2.364   5.941   6.783 -3.5510 -1.2199 -0.0633
   97ccc    H23 4135  -2.635   5.586   7.225  3.0651  1.0307  3.7197
   97ccc    H24 4136  -2.784   5.681   7.208 -0.5174 -1.0151 -0.2215
   97ccc     O7 4137  -2.650   5.762   7.339 -0.3156  0.4404 -0.0479
   97ccc    H25 4138  -2.554   5.762   7.357 -0.3344 -0.1686  0.0604
   97ccc     O8 4139  -2.461   5.745   7.112  0.3731 -0.1225  0.0589
   97ccc    H26 4140  -2.230   5.820   7.146  1.9992  1.0472 -0.8050
   97ccc    H27 4141  -2.648   5.616   6.966 -1.4529 -0.2455  3.2157
   97ccc     O9 4142  -2.781   5.770   6.930  0.2943 -0.3176  0.2478
   97ccc    H28 4143  -2.794   5.860   6.965 -0.9098  0.1495 -1.3157
   97ccc     N3 4144  -2.331   5.845   6.783  0.6135 -0.0020  0.4927
   97ccc    C17 4145  -2.092   5.898   5.854  1.0085 -0.3378  0.0571
   97ccc    C18 4146  -2.142   5.826   5.984 -0.4359 -0.0640  0.0309
   97ccc    H29 4147  -1.985   5.923   5.859  0.5514  1.5082  2.6049
   97ccc    C19 4148  -2.115   5.917   6.106  0.2815  0.5758 -0.5963
   97ccc    C20 4149  -2.167   6.060   6.090  0.2851  0.2617  1.5326
   97ccc    C21 4150  -2.120   6.118   5.948  0.0048 -0.0895 -0.6700
   97ccc    H30 4151  -2.271   6.039   6.063  1.2821 -0.9571 -2.0110
   97ccc    H31 4152  -2.009   5.918   6.135  0.0975 -0.0580  0.1478
   97ccc    H32 4153  -2.013   6.143   5.949  0.1218 -0.4961  0.9913
   97ccc    O10 4154  -2.201   6.228   5.918  0.7938 -0.7009  1.0141
   97ccc    O11 4155  -2.185   5.862   6.211 -0.5527  0.7133 -0.1415
   97ccc    C22 4156  -2.136   5.829   5.724 -0.4151 -0.1237 -0.1438
   97ccc    H33 4157  -2.124   5.801   6.257 -2.4076 -0.2720  1.1625
   97ccc    H34 4158  -2.241   6.123   6.265  0.9731 -1.9697  0.1471
   97ccc    H35 4159  -2.245   5.819   5.727 -0.4235 -0.1826 -0.6678
   97ccc    H36 4160  -2.088   5.731   5.732  0.8607  0.5170  0.6033
   97ccc    O12 4161  -2.084   5.907   5.615  0.6868 -0.4248 -0.3824
   97ccc    H37 4162  -2.117   5.996   5.636  1.1930 -0.2726 -0.2145
   97ccc    O13 4163  -2.168   6.025   5.855 -0.2806  0.2641 -0.0437
   97ccc    H38 4164  -2.277   6.187   5.873 -1.3928  1.1610  2.7711
   97ccc    H39 4165  -2.248   5.798   5.975  0.1201 -2.4011  0.1226
   97ccc     O5 4166  -2.077   5.697   5.998  0.2327 -0.4831  0.3919
   97ccc    H40 4167  -2.143   5.630   5.977  0.9641 -1.0423 -0.1346
   97ccc     N4 4168  -2.162   6.146   6.205 -0.2317  0.0095 -0.7635
   98ccc     N1 4169  -0.720   7.810   4.892  0.6198 -0.5469 -0.2302
   98ccc     H4 4170  -0.708   7.750   4.973  2.0504 -0.8533 -0.6355
   98ccc     C3 4171  -0.833   7.771   4.803 -0.2146  0.1397  0.2652
   98ccc     H5 4172  -0.923   7.817   4.846 -0.2841  0.9710 -0.7371
   98ccc     C4 4173  -0.872   7.627   4.789 -0.1972  0.5288 -0.5494
   98ccc     H6 4174  -0.810   7.824   4.710  2.0128  1.0376  1.2760
   98ccc     H7 4175  -0.927   7.600   4.881 -0.7270  3.1649 -0.0159
   98ccc     H8 4176  -0.777   7.573   4.784  0.2806  0.9460  2.2334
   98ccc     N2 4177  -0.959   7.604   4.673 -0.5195  0.6317 -0.4283
   98ccc     C5 4178  -1.081   7.679   4.681 -0.2885  0.2075 -0.5834
   98ccc     C6 4179  -0.974   7.457   4.671  0.6739 -0.2454  0.0555
   98ccc     H9 4180  -0.975   7.415   4.773  0.5336  1.5027  0.8121
   98ccc     C7 4181  -0.864   7.397   4.587  0.4525 -0.0354 -0.1361
   98ccc    H10 4182  -1.070   7.417   4.636 -0.9738  2.9293  0.5789
   98ccc    H11 4183  -0.767   7.447   4.593 -0.7084  2.3716 -0.3665
   98ccc    H12 4184  -0.884   7.404   4.479  2.4826 -3.2630 -0.8751
   98ccc     C8 4185  -0.845   7.254   4.616  0.3605 -0.2503 -0.1354
   98ccc     O2 4186  -0.931   7.180   4.665 -0.1775 -0.1506  0.5029
   98ccc    H13 4187  -1.060   7.787   4.682 -0.2447  0.2055  1.4906
   98ccc    H14 4188  -1.119   7.655   4.780 -1.9336  1.6141 -0.8237
   98ccc     C9 4189  -1.187   7.654   4.578  0.2326  0.4635  0.4765
   98ccc    H15 4190  -1.225   7.551   4.577 -0.2051  0.6231  0.1903
   98ccc    H16 4191  -1.144   7.668   4.478 -1.3147  0.6243 -0.1997
   98ccc    C10 4192  -1.299   7.748   4.606 -0.2555 -0.5269 -0.2314
   98ccc     O4 4193  -1.332   7.770   4.719  0.2747 -0.0245 -0.1773
   98ccc    C11 4194  -0.630   6.840   4.346 -0.0971  0.3775  0.6441
   98ccc    C12 4195  -0.531   6.882   4.460  0.2650  0.4776  0.7160
   98ccc    H17 4196  -0.619   6.905   4.259  0.5232 -1.2764 -0.5473
   98ccc    C13 4197  -0.570   7.022   4.515  0.0816 -0.8710 -1.2066
   98ccc    C14 4198  -0.723   7.051   4.530  0.0522  0.4866  0.0711
   98ccc    C15 4199  -0.812   6.990   4.417 -0.8351 -0.0766  0.7053
   98ccc    H18 4200  -0.743   6.993   4.620 -0.4780  0.7316  0.1148
   98ccc    H19 4201  -0.528   7.093   4.444 -0.1019  0.7811  0.2675
   98ccc    H20 4202  -0.804   7.057   4.331  2.1038 -0.4503  0.5892
   98ccc     O1 4203  -0.949   6.983   4.466 -0.8743  0.3677 -1.1890
   98ccc     O6 4204  -0.497   7.045   4.637 -0.0889 -0.7282 -0.4009
   98ccc    C16 4205  -0.610   6.696   4.291 -0.0236  0.1208  0.7736
   98ccc    H21 4206  -0.416   6.993   4.645  0.1799  0.0249  3.7787
   98ccc    H22 4207  -0.677   7.253   4.508 -0.6000  0.6745  0.1749
   98ccc    H23 4208  -0.653   6.632   4.369  1.6881  0.4936  2.0723
   98ccc    H24 4209  -0.505   6.672   4.271  0.2287  1.6940  0.0775
   98ccc     O7 4210  -0.669   6.682   4.159 -0.5625 -0.5477  0.0397
   98ccc    H25 4211  -0.744   6.743   4.160 -0.6149 -0.4911 -2.4830
   98ccc     O8 4212  -0.767   6.851   4.391 -0.4814 -0.1004 -0.5481
   98ccc    H26 4213  -0.936   7.050   4.536  1.4076  1.0981 -2.1897
   98ccc    H27 4214  -0.540   6.811   4.543  0.8405  1.0067  1.2363
   98ccc     O9 4215  -0.390   6.888   4.419  0.4395  0.1934 -0.1355
   98ccc    H28 4216  -0.351   6.805   4.451  1.5963  0.0910 -1.6966
   98ccc     N3 4217  -0.742   7.197   4.563  0.0887 -0.3329 -0.0308
   98ccc    C17 4218  -1.629   8.090   4.657 -0.7299 -0.0073 -0.6842
   98ccc    C18 4219  -1.516   8.158   4.575 -0.1992 -0.2090 -0.2777
   98ccc    H29 4220  -1.591   8.066   4.757  0.0254  0.1444 -0.9240
   98ccc    C19 4221  -1.397   8.059   4.545 -0.4736 -0.1428  1.1729
   98ccc    C20 4222  -1.451   7.919   4.506  0.2853  0.2439  0.6812
   98ccc    C21 4223  -1.566   7.874   4.592  0.7180  0.3357 -0.5892
   98ccc    H30 4224  -1.484   7.929   4.402 -0.2961 -0.0099  0.8413
   98ccc    H31 4225  -1.341   8.033   4.636  0.4767 -2.3185  0.0449
   98ccc    H32 4226  -1.522   7.860   4.692  1.4600 -1.4390 -1.1103
   98ccc    O10 4227  -1.640   7.765   4.533 -0.4625  0.1805  0.0514
   98ccc    O11 4228  -1.306   8.100   4.443 -0.2599  0.3861  0.0796
   98ccc    C22 4229  -1.760   8.179   4.662 -0.7237 -0.4954 -1.1121
   98ccc    H33 4230  -1.244   8.153   4.496 -0.1614 -1.1118  1.5318
   98ccc    H34 4231  -1.340   7.778   4.402  1.6760 -0.1539 -0.1572
   98ccc    H35 4232  -1.743   8.279   4.703 -0.8297 -1.1048  0.4882
   98ccc    H36 4233  -1.819   8.130   4.740 -1.8531  1.2590 -0.7983
   98ccc    O12 4234  -1.827   8.197   4.531  0.1352  0.3667 -0.4520
   98ccc    H37 4235  -1.873   8.113   4.515  2.3969 -1.3409  1.2107
   98ccc    O13 4236  -1.670   7.965   4.600 -0.0537 -0.1261 -0.2658
   98ccc    H38 4237  -1.722   7.773   4.585 -1.3138 -2.5278 -0.7384
   98ccc    H39 4238  -1.557   8.170   4.474  0.2107  2.1035 -0.2226
   98ccc     O5 4239  -1.465   8.284   4.617 -0.7504  0.2156  0.0218
   98ccc    H40 4240  -1.409   8.321   4.546 -0.4353  0.1486  0.2324
   98ccc     N4 4241  -1.346   7.814   4.497 -0.1723  0.0419 -0.3217
   99ccc     N1 4242  -0.147   7.464   5.013  0.4124 -0.2596  0.7685
   99ccc     H4 4243  -0.248   7.457   5.008  0.4189 -0.5847  1.0583
   99ccc     C3 4244  -0.071   7.357   4.949 -0.0413 -0.4110  0.2838
   99ccc     H5 4245   0.026   7.345   4.999  0.0434 -0.4066  0.1197
   99ccc     C4 4246  -0.067   7.363   4.796  0.7364  0.0021 -0.0505
   99ccc     H6 4247  -0.123   7.267   4.983 -3.0292  2.1729  3.2991
   99ccc     H7 4248  -0.069   7.467   4.761  0.4542  0.2563  0.6990
   99ccc     H8 4249  -0.157   7.310   4.762 -0.3585  0.8577  1.3744
   99ccc     N2 4250   0.048   7.292   4.752 -0.5143 -0.4844 -0.2907
   99ccc     C5 4251   0.022   7.144   4.758  0.0252 -0.2599  0.2512
   99ccc     C6 4252   0.089   7.337   4.616 -0.0100 -0.1788  0.3974
   99ccc     H9 4253   0.099   7.255   4.543 -1.3879 -0.0949  0.0906
   99ccc     C7 4254   0.221   7.413   4.625 -0.7559 -0.4713  0.4049
   99ccc    H10 4255   0.013   7.395   4.562  0.0179 -0.6948 -0.2140
   99ccc    H11 4256   0.210   7.507   4.681  1.2088  0.5608 -0.8357
   99ccc    H12 4257   0.254   7.454   4.529 -0.3594  2.6465  1.7385
   99ccc     C8 4258   0.332   7.330   4.675 -0.9017 -0.7216  0.7703
   99ccc     O2 4259   0.391   7.247   4.606  0.1561  0.7642 -0.3929
   99ccc    H13 4260  -0.046   7.116   4.677  1.9547 -1.6285 -0.9759
   99ccc    H14 4261  -0.027   7.116   4.852  2.2585  2.8296  2.5448
   99ccc     C9 4262   0.158   7.072   4.760 -0.0900 -0.2620  0.2479
   99ccc    H15 4263   0.219   7.102   4.846 -0.2905  2.3441 -0.4403
   99ccc    H16 4264   0.217   7.085   4.669 -0.7813 -0.9853 -0.3243
   99ccc    C10 4265   0.137   6.922   4.768 -0.6498  0.0469  0.3283
   99ccc     O4 4266   0.035   6.859   4.756  0.0101  0.5687  0.2656
   99ccc    C11 4267   0.632   7.218   5.112  0.1788  0.0212  1.2339
   99ccc    C12 4268   0.484   7.247   5.134  0.7290  0.8446 -0.1799
   99ccc    H17 4269   0.692   7.307   5.136 -0.6166  0.0515  3.3349
   99ccc    C13 4270   0.416   7.331   5.020  0.6219 -0.3708  0.0941
   99ccc    C14 4271   0.454   7.287   4.881  0.0196  0.3957 -0.6442
   99ccc    C15 4272   0.605   7.275   4.864 -0.0468 -0.4202 -0.6746
   99ccc    H18 4273   0.415   7.184   4.879 -0.2499  0.4201  1.2403
   99ccc    H19 4274   0.460   7.430   5.039  1.0172 -0.5454  0.1118
   99ccc    H20 4275   0.654   7.372   4.875  2.1333 -1.5634  0.4811
   99ccc     O1 4276   0.634   7.212   4.742  0.7097 -0.2137 -0.4690
   99ccc     O6 4277   0.271   7.324   5.027  0.2994  0.8023 -0.0106
   99ccc    C16 4278   0.692   7.107   5.193 -0.0897  0.7747  0.0313
   99ccc    H21 4279   0.251   7.337   4.933 -0.0382  1.4851  0.1460
   99ccc    H22 4280   0.359   7.465   4.825  3.4722 -0.2431  1.9799
   99ccc    H23 4281   0.726   7.141   5.291 -1.2096 -1.5026  1.3023
   99ccc    H24 4282   0.784   7.077   5.143 -0.4508 -0.2496 -0.0500
   99ccc     O7 4283   0.599   6.993   5.205 -0.1049 -0.2522  0.5410
   99ccc    H25 4284   0.579   6.963   5.115 -0.5093  0.6525  0.3144
   99ccc     O8 4285   0.650   7.187   4.964  0.4721  0.0742 -0.6819
   99ccc    H26 4286   0.543   7.209   4.709  0.5449 -1.2245  0.0596
   99ccc    H27 4287   0.436   7.148   5.136  1.0509  0.7029  0.9833
   99ccc     O9 4288   0.467   7.313   5.259  0.1255 -0.2345 -0.1797
   99ccc    H28 4289   0.432   7.254   5.327  1.9484 -2.3604 -0.9664
   99ccc     N3 4290   0.383   7.374   4.784  0.3699 -0.4977  0.4255
   99ccc    C17 4291   0.662   6.832   4.857  0.2160 -0.2283 -0.0083
   99ccc    C18 4292   0.616   6.837   4.705 -0.5689 -0.3158 -0.0903
   99ccc    H29 4293   0.656   6.729   4.896  0.4359 -0.1972  0.1079
   99ccc    C19 4294   0.472   6.786   4.694 -0.2448 -0.2097 -0.3628
   99ccc    C20 4295   0.385   6.884   4.776 -0.0108 -0.7698  0.0590
   99ccc    C21 4296   0.428   6.872   4.925 -0.3376  0.1037 -0.3166
   99ccc    H30 4297   0.405   6.984   4.735  1.0286 -1.4612 -1.1722
   99ccc    H31 4298   0.463   6.684   4.732  0.3246  0.3910  1.4762
   99ccc    H32 4299   0.416   6.767   4.956  1.1301  0.7333  2.6814
   99ccc    O10 4300   0.361   6.955   5.020 -0.2358 -0.2064 -0.0961
   99ccc    O11 4301   0.433   6.784   4.556 -0.2410  0.4291 -0.2556
   99ccc    C22 4302   0.799   6.872   4.892  0.0230 -0.0359  0.0090
   99ccc    H33 4303   0.339   6.770   4.534  0.4180 -0.1351 -3.0917
   99ccc    H34 4304   0.224   6.750   4.804  0.9406  0.6415  3.4525
   99ccc    H35 4305   0.867   6.796   4.852  1.2002 -0.9504  3.4357
   99ccc    H36 4306   0.815   6.872   5.000  0.6399  0.5254 -0.0813
   99ccc    O12 4307   0.825   7.006   4.845  0.0191  0.4707 -0.3084
   99ccc    H37 4308   0.747   7.061   4.865 -0.5242 -0.1906 -0.5580
   99ccc    O13 4309   0.565   6.905   4.939  0.8282 -0.2466 -0.2186
   99ccc    H38 4310   0.280   6.906   5.044  0.4263 -1.6685 -0.7336
   99ccc    H39 4311   0.618   6.939   4.665 -3.8583  0.3174  1.0266
   99ccc     O5 4312   0.695   6.755   4.636 -0.0646  0.1662  0.0503
   99ccc    H40 4313   0.644   6.737   4.555 -0.4765 -2.0036  0.7242
   99ccc     N4 4314   0.241   6.846   4.773  0.1801 -0.3348 -0.6926
  100ccc     N1 4315  -1.457   8.285   6.015 -0.0586  0.3338 -0.9654
  100ccc     H4 4316  -1.413   8.195   5.998 -0.8869 -0.5886  1.2431
  100ccc     C3 4317  -1.559   8.309   6.127 -0.6456  0.1915  0.3407
  100ccc     H5 4318  -1.597   8.412   6.132 -0.0792  0.3625  1.6262
  100ccc     C4 4319  -1.508   8.286   6.269 -0.4324 -0.1750  0.4976
  100ccc     H6 4320  -1.645   8.241   6.120  0.1467 -0.9950  1.5142
  100ccc     H7 4321  -1.491   8.179   6.286 -0.6131 -1.4328 -5.1475
  100ccc     H8 4322  -1.593   8.330   6.323 -0.6645 -0.4798  0.3798
  100ccc     N2 4323  -1.395   8.364   6.310  0.2889 -0.5972 -0.3354
  100ccc     C5 4324  -1.428   8.507   6.323  1.0429  0.0497 -0.3859
  100ccc     C6 4325  -1.263   8.330   6.259  0.6226 -0.1991  0.1285
  100ccc     H9 4326  -1.251   8.221   6.254 -0.2034 -0.3876  1.6711
  100ccc     C7 4327  -1.163   8.375   6.356  0.7225 -0.0491 -0.3078
  100ccc    H10 4328  -1.242   8.375   6.161 -1.1920 -0.1216 -0.2575
  100ccc    H11 4329  -1.187   8.333   6.455 -0.0067 -0.9987 -0.8616
  100ccc    H12 4330  -1.162   8.484   6.363 -1.6273  0.1743 -2.1118
  100ccc     C8 4331  -1.021   8.342   6.329  0.4064 -0.1233  0.3294
  100ccc     O2 4332  -0.975   8.328   6.220  0.1407  0.2794  0.0214
  100ccc    H13 4333  -1.522   8.532   6.271  0.1167 -0.1993  1.1136
  100ccc    H14 4334  -1.354   8.575   6.280  1.3880  0.7715  1.3103
  100ccc     C9 4335  -1.459   8.541   6.470  0.4116 -0.4632 -0.1512
  100ccc    H15 4336  -1.401   8.489   6.547  0.5472  2.0501  1.5681
  100ccc    H16 4337  -1.561   8.509   6.497 -0.7217  1.6410 -1.6515
  100ccc    C10 4338  -1.446   8.685   6.485 -0.1995  0.3129  0.3132
  100ccc     O4 4339  -1.531   8.765   6.447 -0.1737 -0.5375 -0.1908
  100ccc    C11 4340  -0.533   8.421   6.307  0.0813  0.0504  0.8533
  100ccc    C12 4341  -0.595   8.530   6.399 -0.2391 -0.0830 -0.3562
  100ccc    H17 4342  -0.563   8.446   6.204  0.2924  0.3283  0.8582
  100ccc    C13 4343  -0.750   8.507   6.407  0.2451 -0.3739  0.0281
  100ccc    C14 4344  -0.788   8.357   6.423  0.3520 -0.3475  0.1056
  100ccc    C15 4345  -0.724   8.264   6.328  0.7132  0.7496  0.2810
  100ccc    H18 4346  -0.735   8.330   6.515  0.1008  0.0837  0.3765
  100ccc    H19 4347  -0.784   8.553   6.313  2.0790  1.5378  0.2193
  100ccc    H20 4348  -0.767   8.270   6.227 -1.5683  0.3244  1.1627
  100ccc     O1 4349  -0.743   8.129   6.363 -0.6300 -0.4036  0.3401
  100ccc     O6 4350  -0.803   8.584   6.514  0.1172  0.2360 -0.6762
  100ccc    C16 4351  -0.382   8.427   6.313  0.7998  0.1362 -0.2395
  100ccc    H21 4352  -0.768   8.675   6.511  0.2460  0.3672  2.1892
  100ccc    H22 4353  -0.973   8.399   6.514  0.3994  2.1537 -1.8785
  100ccc    H23 4354  -0.343   8.421   6.416  2.7695  1.8491 -0.8191
  100ccc    H24 4355  -0.348   8.523   6.271  2.4133  0.4163  1.5259
  100ccc     O7 4356  -0.340   8.323   6.234  0.2603 -0.0750  0.1678
  100ccc    H25 4357  -0.365   8.234   6.265 -0.4580  0.6947  1.8924
  100ccc     O8 4358  -0.586   8.286   6.343 -0.0072 -0.2885 -0.3400
  100ccc    H26 4359  -0.838   8.116   6.351 -0.7102  1.9766 -3.1036
  100ccc    H27 4360  -0.553   8.520   6.500  1.9234  2.5781 -0.8580
  100ccc     O9 4361  -0.566   8.659   6.336 -0.4974 -0.9013 -0.3403
  100ccc    H28 4362  -0.625   8.727   6.374  0.2395 -1.0243  1.0778
  100ccc     N3 4363  -0.938   8.341   6.438 -0.1844 -0.5959 -0.1843
  100ccc    C17 4364  -1.013   9.010   6.554 -0.2819 -0.3078 -0.4020
  100ccc    C18 4365  -1.080   8.978   6.412 -0.1794 -0.5999  0.6953
  100ccc    H29 4366  -0.940   8.932   6.576 -1.5951 -1.6647 -0.7444
  100ccc    C19 4367  -1.160   8.848   6.421  0.2522 -0.2502 -0.2858
  100ccc    C20 4368  -1.266   8.853   6.535 -0.0124  0.0915  0.0185
  100ccc    C21 4369  -1.188   8.884   6.667  0.5007  0.0648 -0.5143
  100ccc    H30 4370  -1.341   8.929   6.510 -2.2653 -2.4348 -1.3543
  100ccc    H31 4371  -1.081   8.774   6.433 -0.9422 -1.3069  1.5136
  100ccc    H32 4372  -1.116   8.805   6.690 -0.9655 -0.8591  1.1871
  100ccc    O10 4373  -1.284   8.905   6.778 -0.0556  0.1618 -0.2146
  100ccc    O11 4374  -1.226   8.823   6.297  0.0675 -0.1379  0.5509
  100ccc    C22 4375  -0.937   9.142   6.558 -0.3099 -0.1875 -0.4402
  100ccc    H33 4376  -1.267   8.907   6.270  0.4255 -0.1906 -0.2026
  100ccc    H34 4377  -1.263   8.657   6.590  0.4477 -2.0049 -2.7118
  100ccc    H35 4378  -0.994   9.206   6.626  0.5855  2.2640 -1.8515
  100ccc    H36 4379  -0.933   9.192   6.461 -0.9575 -1.0464 -0.9199
  100ccc    O12 4380  -0.803   9.119   6.611  0.0840  0.6814 -0.1869
  100ccc    H37 4381  -0.769   9.205   6.640  0.6342 -0.3843  2.6662
  100ccc    O13 4382  -1.115   9.010   6.657 -0.2902 -0.2068  0.2727
  100ccc    H38 4383  -1.311   8.998   6.765  1.0986  1.0675  2.9567
  100ccc    H39 4384  -1.154   9.056   6.392  0.2265 -0.1907  0.7528
  100ccc     O5 4385  -0.980   8.987   6.308 -0.2648  0.5007  0.2738
  100ccc    H40 4386  -1.029   9.011   6.227  0.7057 -1.2892 -0.9106
  100ccc     N4 4387  -1.333   8.720   6.551 -0.0505 -0.6870  0.0184
  101ccc     N1 4388  -1.136   8.251   5.295 -0.2225  0.2284  0.3655
  101ccc     H4 4389  -1.043   8.268   5.330 -0.2687 -0.1206  0.6717
  101ccc     C3 4390  -1.150   8.261   5.146 -0.1200 -0.5090  0.1467
  101ccc     H5 4391  -1.243   8.317   5.130  0.7327  0.4529 -1.7598
  101ccc     C4 4392  -1.167   8.134   5.057  0.2487 -0.3609 -0.6444
  101ccc     H6 4393  -1.060   8.316   5.117 -1.9038  1.6397 -1.6948
  101ccc     H7 4394  -1.174   8.175   4.955 -0.2375 -0.0710 -0.4974
  101ccc     H8 4395  -1.266   8.095   5.080 -1.1305  2.2230 -1.7252
  101ccc     N2 4396  -1.058   8.035   5.071  0.2272 -0.2003  0.5902
  101ccc     C5 4397  -1.084   7.954   5.189  0.3369 -0.5095  0.8249
  101ccc     C6 4398  -0.923   8.089   5.072  0.2240  1.0326  0.1047
  101ccc     H9 4399  -0.912   8.159   5.155 -1.9034  2.1004 -0.4364
  101ccc     C7 4400  -0.877   8.150   4.934  0.3720 -0.1929 -0.4399
  101ccc    H10 4401  -0.851   8.009   5.090 -0.1895  0.6872  0.2406
  101ccc    H11 4402  -0.955   8.211   4.886  0.0043  0.0540  0.4404
  101ccc    H12 4403  -0.857   8.067   4.865  2.5581  2.2491 -2.9689
  101ccc     C8 4404  -0.756   8.233   4.948  0.4320 -0.2979  0.1643
  101ccc     O2 4405  -0.692   8.267   5.043 -0.1216 -0.5816  0.1755
  101ccc    H13 4406  -1.183   7.977   5.232 -0.5592  0.3962 -1.5423
  101ccc    H14 4407  -1.000   7.962   5.258  1.5936  0.4388 -0.7503
  101ccc     C9 4408  -1.095   7.811   5.126 -0.0414  0.3715  0.0196
  101ccc    H15 4409  -0.989   7.786   5.108 -0.2321  0.9960 -2.2071
  101ccc    H16 4410  -1.148   7.824   5.031 -0.6165 -0.6450  0.1896
  101ccc    C10 4411  -1.170   7.709   5.208  0.2202 -0.4448  0.1258
  101ccc     O4 4412  -1.181   7.707   5.324  0.1809 -0.0702  0.1921
  101ccc    C11 4413  -0.371   8.539   4.910  0.0706 -0.0554  0.2244
  101ccc    C12 4414  -0.350   8.416   4.815  0.5233 -0.2456  0.0803
  101ccc    H17 4415  -0.378   8.512   5.016 -0.5020  0.8656  0.4247
  101ccc    C13 4416  -0.462   8.317   4.850 -0.0676 -0.6200  0.3808
  101ccc    C14 4417  -0.594   8.382   4.805  0.5084  0.2013  0.0417
  101ccc    C15 4418  -0.612   8.518   4.883  0.2428 -0.0178 -0.1908
  101ccc    H18 4419  -0.590   8.401   4.697 -0.1086 -1.1593 -0.2353
  101ccc    H19 4420  -0.456   8.290   4.956 -0.1575  1.6665  1.0152
  101ccc    H20 4421  -0.619   8.501   4.991 -0.8720 -0.3077 -0.2974
  101ccc     O1 4422  -0.719   8.593   4.843  0.5057 -0.1542 -0.0194
  101ccc     O6 4423  -0.428   8.204   4.771 -0.4656  0.3628 -0.7432
  101ccc    C16 4424  -0.252   8.637   4.900  0.4815  0.7601  0.1927
  101ccc    H21 4425  -0.487   8.134   4.803 -1.5146  0.3419 -2.5637
  101ccc    H22 4426  -0.756   8.264   4.737  0.7632  1.2380 -0.6113
  101ccc    H23 4427  -0.245   8.664   4.794 -1.3096  2.5711  0.4746
  101ccc    H24 4428  -0.156   8.598   4.936 -1.5186 -2.9657  2.0987
  101ccc     O7 4429  -0.288   8.751   4.984  0.2278 -0.5631 -0.7030
  101ccc    H25 4430  -0.383   8.767   4.991  0.6517  3.2235 -1.4334
  101ccc     O8 4431  -0.494   8.602   4.860 -0.8423 -0.2369  0.3599
  101ccc    H26 4432  -0.699   8.627   4.754  0.9624 -2.4762 -0.8633
  101ccc    H27 4433  -0.353   8.452   4.711  0.7007 -0.8923 -0.1545
  101ccc     O9 4434  -0.224   8.358   4.826 -0.7153  0.2845 -0.0885
  101ccc    H28 4435  -0.211   8.337   4.920  1.1069  0.6893 -0.2082
  101ccc     N3 4436  -0.713   8.282   4.827 -0.4604  0.4024  0.1656
  101ccc    C17 4437  -1.266   7.267   4.895 -0.5715 -0.3676  0.0465
  101ccc    C18 4438  -1.351   7.387   4.852  0.3463 -0.3317  0.1159
  101ccc    H29 4439  -1.314   7.213   4.978  1.1418 -0.8397  0.7765
  101ccc    C19 4440  -1.365   7.500   4.959 -0.2784 -0.0107  0.2701
  101ccc    C20 4441  -1.228   7.536   5.027  0.1036 -0.5676 -0.2035
  101ccc    C21 4442  -1.147   7.408   5.064 -0.0893 -0.5892  0.2352
  101ccc    H30 4443  -1.169   7.601   4.961  2.0324  0.1855  2.1220
  101ccc    H31 4444  -1.440   7.460   5.028 -0.2139 -1.0695 -0.2608
  101ccc    H32 4445  -1.195   7.356   5.148 -0.3373 -0.2487  0.3070
  101ccc    O10 4446  -1.012   7.433   5.096  0.1657  0.0917  0.6782
  101ccc    O11 4447  -1.430   7.622   4.911 -0.3728 -0.2065  0.0893
  101ccc    C22 4448  -1.226   7.172   4.780 -0.1017 -0.1369 -0.3330
  101ccc    H33 4449  -1.387   7.662   4.834 -0.3892 -0.5431 -0.0989
  101ccc    H34 4450  -1.311   7.577   5.221 -1.2338  1.4300  0.0155
  101ccc    H35 4451  -1.170   7.231   4.706  0.3258 -1.0483 -0.7495
  101ccc    H36 4452  -1.315   7.132   4.730 -1.5125  1.3750  0.8635
  101ccc    O12 4453  -1.140   7.064   4.823  0.3978 -0.0736 -0.7498
  101ccc    H37 4454  -1.050   7.100   4.822  0.4869 -0.2386  0.3307
  101ccc    O13 4455  -1.143   7.317   4.955 -0.1800  0.8341  0.2788
  101ccc    H38 4456  -0.959   7.351   5.103  0.1711 -0.3660 -2.8674
  101ccc    H39 4457  -1.293   7.434   4.772  2.2721 -0.6294  1.2544
  101ccc     O5 4458  -1.475   7.347   4.802  0.2121  0.4968  0.1603
  101ccc    H40 4459  -1.541   7.416   4.822  0.0704  0.6794 -0.8486
  101ccc     N4 4460  -1.256   7.626   5.151 -0.3327  0.3438 -0.0654
  102ccc     N1 4461   0.041   5.532   8.144 -0.8189  0.4025 -0.7660
  102ccc     H4 4462   0.009   5.558   8.236 -0.7789 -1.6680 -0.1141
  102ccc     C3 4463   0.108   5.403   8.117 -0.3136 -0.5824  0.9354
  102ccc     H5 4464   0.069   5.332   8.192 -1.4476 -0.8880  0.0883
  102ccc     C4 4465   0.261   5.419   8.137  0.1214  0.6350 -0.8716
  102ccc     H6 4466   0.097   5.363   8.015  2.0461 -1.6489  1.0364
  102ccc     H7 4467   0.295   5.488   8.058 -0.6875  3.3243  0.9795
  102ccc     H8 4468   0.313   5.324   8.123  0.2145  0.2833  1.5079
  102ccc     N2 4469   0.291   5.474   8.274 -0.1371  0.5620  0.0392
  102ccc     C5 4470   0.429   5.526   8.284 -0.5312  1.0651 -0.0335
  102ccc     C6 4471   0.265   5.374   8.378  0.0576 -0.2360  0.0321
  102ccc     H9 4472   0.191   5.296   8.353 -0.9445  1.1080 -1.3990
  102ccc     C7 4473   0.225   5.442   8.513  0.4715 -0.4344  0.5358
  102ccc    H10 4474   0.355   5.313   8.392  0.3957  0.4070  0.6989
  102ccc    H11 4475   0.309   5.506   8.541  0.0671  1.6567 -2.5553
  102ccc    H12 4476   0.209   5.365   8.589  1.2200  0.2666  1.4263
  102ccc     C8 4477   0.098   5.524   8.495 -0.2520 -0.1397 -0.2080
  102ccc     O2 4478   0.002   5.494   8.425 -0.1928 -0.1104 -0.3794
  102ccc    H13 4479   0.493   5.466   8.218 -0.7388  1.8824 -1.0102
  102ccc    H14 4480   0.469   5.528   8.386 -2.0335  1.4218  0.5749
  102ccc     C9 4481   0.455   5.666   8.222  0.3811 -0.6248 -0.0630
  102ccc    H15 4482   0.413   5.665   8.121 -0.9856 -3.4356  0.4280
  102ccc    H16 4483   0.562   5.686   8.211  0.2056  0.7335  0.4555
  102ccc    C10 4484   0.390   5.774   8.301 -0.2693 -0.4652  0.6220
  102ccc     O4 4485   0.273   5.781   8.327 -0.1794  0.5596 -0.1070
  102ccc    C11 4486  -0.294   5.837   8.625  0.4420  0.2925  0.2950
  102ccc    C12 4487  -0.257   5.734   8.732 -0.5621 -0.2254  1.2202
  102ccc    H17 4488  -0.366   5.790   8.558  1.1754  2.4093 -2.1437
  102ccc    C13 4489  -0.142   5.635   8.691 -0.1978 -0.2911  0.4737
  102ccc    C14 4490  -0.030   5.711   8.618  0.4035 -0.0102 -0.1938
  102ccc    C15 4491  -0.092   5.784   8.501  0.5293  0.1192 -0.9845
  102ccc    H18 4492   0.017   5.788   8.681  3.0824 -0.5452 -1.4023
  102ccc    H19 4493  -0.177   5.566   8.613 -2.6301  1.7419 -0.3802
  102ccc    H20 4494  -0.148   5.723   8.429 -1.2559  1.4767 -0.8173
  102ccc     O1 4495   0.003   5.858   8.437 -0.4722  0.2318  0.6266
  102ccc     O6 4496  -0.086   5.565   8.802  0.2319 -0.0606 -0.1008
  102ccc    C16 4497  -0.356   5.959   8.688 -0.0148 -0.2351 -0.4462
  102ccc    H21 4498  -0.062   5.631   8.871  1.3755  0.9004 -1.3562
  102ccc    H22 4499   0.155   5.627   8.659  0.6564  1.6987 -1.1294
  102ccc    H23 4500  -0.288   6.004   8.761 -1.5015 -0.6988  1.2905
  102ccc    H24 4501  -0.443   5.923   8.745 -1.1761  2.7116 -0.1525
  102ccc     O7 4502  -0.404   6.049   8.591 -0.0178  0.2917  0.7458
  102ccc    H25 4503  -0.328   6.093   8.549 -1.4418  1.7449 -0.4533
  102ccc     O8 4504  -0.178   5.881   8.561  0.3658 -0.0418  1.1565
  102ccc    H26 4505   0.089   5.812   8.432  0.6901  2.3561 -0.6370
  102ccc    H27 4506  -0.224   5.782   8.825 -1.5411  2.6677  0.1971
  102ccc     O9 4507  -0.359   5.651   8.761  0.2652  0.0945  0.2159
  102ccc    H28 4508  -0.368   5.596   8.682 -0.9466  1.1977 -0.4526
  102ccc     N3 4509   0.086   5.623   8.585  0.0164 -0.8928 -0.4925
  102ccc    C17 4510   0.524   6.140   8.683 -0.3110 -0.0924 -0.6625
  102ccc    C18 4511   0.379   6.137   8.622  0.1294  0.3472  0.0102
  102ccc    H29 4512   0.583   6.217   8.631 -0.0860  1.0678  1.1960
  102ccc    C19 4513   0.386   6.068   8.483 -0.2324 -0.0254  0.0560
  102ccc    C20 4514   0.467   5.933   8.472 -0.1452 -1.0319 -1.1359
  102ccc    C21 4515   0.603   5.966   8.524 -0.1130  0.0972  0.4290
  102ccc    H30 4516   0.418   5.861   8.540 -0.3273  0.1736  0.0414
  102ccc    H31 4517   0.428   6.140   8.412  0.4647  0.3521  0.8295
  102ccc    H32 4518   0.648   6.043   8.460 -1.4377  1.5755  1.2085
  102ccc    O10 4519   0.684   5.848   8.521  1.0846  0.0158  0.0820
  102ccc    O11 4520   0.256   6.042   8.441  0.0754  0.2593  0.0902
  102ccc    C22 4521   0.524   6.173   8.833  0.5270  0.1142  0.0711
  102ccc    H33 4522   0.248   5.951   8.407 -2.4090  0.7817 -0.9297
  102ccc    H34 4523   0.573   5.849   8.318  0.9835  0.9584  1.6245
  102ccc    H35 4524   0.483   6.275   8.836 -3.7751 -1.2294 -3.2692
  102ccc    H36 4525   0.626   6.170   8.874  0.4679 -0.6935  0.1670
  102ccc    O12 4526   0.439   6.081   8.905 -0.2211 -0.4511  0.0149
  102ccc    H37 4527   0.344   6.099   8.897 -0.3755 -0.9323  0.7120
  102ccc    O13 4528   0.597   6.013   8.659  0.3161 -0.3144 -0.4482
  102ccc    H38 4529   0.775   5.871   8.546  0.8256 -0.4540  1.5695
  102ccc    H39 4530   0.314   6.084   8.693  0.1570 -0.1212 -0.3066
  102ccc     O5 4531   0.324   6.264   8.594  0.4475 -0.9288  0.0177
  102ccc    H40 4532   0.361   6.301   8.512 -1.7693 -1.0004 -1.0940
  102ccc     N4 4533   0.475   5.873   8.336  0.4767 -0.2077  0.5653
  103ccc     N1 4534  -0.526   5.984   8.332  0.2967  0.1455  0.0973
  103ccc     H4 4535  -0.434   5.981   8.374 -0.0102 -2.1583  0.7456
  103ccc     C3 4536  -0.645   5.916   8.396  0.0140  0.3188 -0.0011
  103ccc     H5 4537  -0.634   5.934   8.504  0.2055 -2.2072  0.4538
  103ccc     C4 4538  -0.652   5.759   8.381  0.0531 -0.7175 -0.3539
  103ccc     H6 4539  -0.739   5.954   8.354  0.3623  0.1008 -0.9936
  103ccc     H7 4540  -0.554   5.724   8.414 -0.1779  0.1976  1.4795
  103ccc     H8 4541  -0.645   5.752   8.272 -0.4572 -1.1182 -0.3629
  103ccc     N2 4542  -0.768   5.689   8.442 -0.0361  0.0574  0.1528
  103ccc     C5 4543  -0.890   5.725   8.384 -0.6677  0.2929 -0.2235
  103ccc     C6 4544  -0.791   5.710   8.583  0.0804 -0.5558 -0.6672
  103ccc     H9 4545  -0.784   5.816   8.610 -3.0991 -0.7843  1.5634
  103ccc     C7 4546  -0.705   5.618   8.657 -0.0228  0.5306  0.3292
  103ccc    H10 4547  -0.890   5.676   8.614 -0.2560 -0.2605 -1.3788
  103ccc    H11 4548  -0.603   5.653   8.634 -1.0971  1.3812 -4.1458
  103ccc    H12 4549  -0.719   5.516   8.621 -0.0851 -0.3136  2.5896
  103ccc     C8 4550  -0.728   5.628   8.801  0.0993  0.0402 -0.8725
  103ccc     O2 4551  -0.720   5.730   8.861  0.1545 -0.5028  0.8491
  103ccc    H13 4552  -0.915   5.830   8.405  0.5366  0.9190 -1.7427
  103ccc    H14 4553  -0.971   5.664   8.427 -0.2227  1.0517  1.8089
  103ccc     C9 4554  -0.885   5.707   8.228  0.2734  0.0172  0.5893
  103ccc    H15 4555  -0.845   5.606   8.210 -2.6356 -1.1716  0.2116
  103ccc    H16 4556  -0.818   5.781   8.183  1.9072 -1.6546  0.1715
  103ccc    C10 4557  -1.019   5.731   8.165  0.2760  0.2627  0.3823
  103ccc     O4 4558  -1.108   5.792   8.226  0.0155  0.1704  0.3097
  103ccc    C11 4559  -0.702   5.557   9.287 -0.1356 -0.3679 -0.3291
  103ccc    C12 4560  -0.849   5.543   9.232  0.1921 -0.3074 -0.0824
  103ccc    H17 4561  -0.689   5.666   9.292  1.0252 -0.5386  1.4043
  103ccc    C13 4562  -0.856   5.581   9.084 -1.0331 -0.2774  0.3498
  103ccc    C14 4563  -0.757   5.490   9.007 -0.9048  0.6343  0.2740
  103ccc    C15 4564  -0.616   5.503   9.065 -0.6397 -0.1432  0.4236
  103ccc    H18 4565  -0.783   5.384   9.016  0.8471  0.2154  0.7298
  103ccc    H19 4566  -0.825   5.687   9.081 -1.2118 -0.1829  1.5228
  103ccc    H20 4567  -0.565   5.598   9.045  1.2366 -0.5399  2.8082
  103ccc     O1 4568  -0.535   5.395   9.010 -0.1155  0.6488  0.3605
  103ccc     O6 4569  -0.992   5.568   9.048 -0.0767  0.0274  0.4114
  103ccc    C16 4570  -0.682   5.500   9.434  0.7246 -0.2478 -0.0738
  103ccc    H21 4571  -0.974   5.516   8.968  1.7140  1.4703 -0.2057
  103ccc    H22 4572  -0.751   5.431   8.806 -0.0047 -0.1943  0.3090
  103ccc    H23 4573  -0.707   5.394   9.444 -0.1588 -0.2908 -2.1772
  103ccc    H24 4574  -0.748   5.554   9.502  0.9977 -0.1852  0.1417
  103ccc     O7 4575  -0.549   5.514   9.481 -0.4811 -0.3257 -0.1603
  103ccc    H25 4576  -0.492   5.512   9.402 -0.0769 -1.1306  0.1348
  103ccc     O8 4577  -0.612   5.481   9.205 -0.3220 -0.1218  0.5183
  103ccc    H26 4578  -0.441   5.421   9.010  0.0387  0.1140  0.8978
  103ccc    H27 4579  -0.882   5.440   9.251  1.3615 -1.2168 -2.5354
  103ccc     O9 4580  -0.929   5.640   9.318 -0.1267 -0.5582  0.1658
  103ccc    H28 4581  -1.006   5.665   9.263 -0.0752  0.6237  0.6082
  103ccc     N3 4582  -0.752   5.515   8.864  0.0156 -0.2069  0.3278
  103ccc    C17 4583  -0.920   5.644   7.649  0.7484  0.2910 -0.3609
  103ccc    C18 4584  -0.866   5.761   7.718 -0.0671 -0.7441 -0.3127
  103ccc    H29 4585  -1.027   5.656   7.628  0.7522  0.1242 -0.4822
  103ccc    C19 4586  -0.927   5.781   7.855 -0.1284 -0.2572 -0.0695
  103ccc    C20 4587  -0.947   5.648   7.934  0.2892  0.3886 -0.0764
  103ccc    C21 4588  -0.984   5.527   7.842  0.0530 -0.1743 -0.4751
  103ccc    H30 4589  -0.850   5.625   7.979  0.6144  2.5979  0.4970
  103ccc    H31 4590  -1.021   5.838   7.857 -0.2878 -0.4690 -0.9066
  103ccc    H32 4591  -1.088   5.538   7.809 -0.3839 -1.6591  0.3178
  103ccc    O10 4592  -0.978   5.397   7.898 -0.1597 -0.3662  0.2598
  103ccc    O11 4593  -0.822   5.859   7.919  0.8966  0.0484  0.2627
  103ccc    C22 4594  -0.850   5.605   7.519  0.4998  0.3546  0.1616
  103ccc    H33 4595  -0.752   5.796   7.941 -1.2852 -2.3558  0.8307
  103ccc    H34 4596  -1.135   5.694   8.019  0.6298  1.8064  2.7191
  103ccc    H35 4597  -0.746   5.580   7.543  0.6165 -1.3407 -1.9227
  103ccc    H36 4598  -0.852   5.693   7.454 -1.2978 -0.5421 -1.0649
  103ccc    O12 4599  -0.902   5.494   7.447 -0.1417 -0.4874 -0.8595
  103ccc    H37 4600  -0.835   5.425   7.465 -0.2002 -0.0488  1.2984
  103ccc    O13 4601  -0.898   5.525   7.731 -0.4599 -0.9686  0.0016
  103ccc    H38 4602  -0.886   5.391   7.932 -0.6169  0.7419  1.8293
  103ccc    H39 4603  -0.759   5.744   7.734 -0.4843 -2.4332  1.0077
  103ccc     O5 4604  -0.880   5.888   7.649  0.0017 -0.2730  0.2910
  103ccc    H40 4605  -0.855   5.963   7.705  2.2513  0.1291 -1.1234
  103ccc     N4 4606  -1.042   5.667   8.049  1.0518  0.3121  0.3862
  104ccc     N1 4607   0.266   5.853   6.359  0.6590 -0.1002 -0.0334
  104ccc     H4 4608   0.315   5.930   6.316  1.1478  0.0951  0.8552
  104ccc     C3 4609   0.194   5.752   6.272  0.4176  0.3578 -0.7229
  104ccc     H5 4610   0.267   5.673   6.250 -2.4439 -1.7411 -3.4771
  104ccc     C4 4611   0.143   5.806   6.140 -0.4802 -0.7441 -0.0860
  104ccc     H6 4612   0.111   5.707   6.329  0.9508  0.3616  0.0823
  104ccc     H7 4613   0.218   5.875   6.098  2.3058 -2.4151  1.8169
  104ccc     H8 4614   0.066   5.879   6.168  0.6702  0.1581  0.8260
  104ccc     N2 4615   0.098   5.707   6.042 -0.6932  0.6487 -0.1498
  104ccc     C5 4616   0.101   5.733   5.902  0.5949  0.1562  0.4028
  104ccc     C6 4617  -0.018   5.628   6.078 -0.0481 -0.3681  0.2798
  104ccc     H9 4618  -0.051   5.561   5.998 -0.6216 -3.0602  2.6018
  104ccc     C7 4619  -0.142   5.712   6.105  0.0384 -0.5435 -0.3752
  104ccc    H10 4620   0.003   5.567   6.167 -1.0456 -0.2675  0.5870
  104ccc    H11 4621  -0.165   5.767   6.013  0.5227  0.7202  0.2449
  104ccc    H12 4622  -0.132   5.772   6.197  1.8767 -0.4740 -0.5907
  104ccc     C8 4623  -0.256   5.617   6.121 -0.6285 -0.2151 -0.5534
  104ccc     O2 4624  -0.238   5.495   6.124 -0.7070 -0.5252  0.2089
  104ccc    H13 4625   0.038   5.816   5.869 -0.2689 -1.0975 -1.2301
  104ccc    H14 4626   0.054   5.646   5.853  0.3652  0.1620  0.6099
  104ccc     C9 4627   0.246   5.744   5.856  0.2362 -0.3559  0.6169
  104ccc    H15 4628   0.299   5.653   5.885 -0.6559 -2.1823 -2.8591
  104ccc    H16 4629   0.303   5.833   5.885  0.1590  0.1357 -0.6841
  104ccc    C10 4630   0.249   5.743   5.704  0.1915 -0.5149 -0.1412
  104ccc     O4 4631   0.149   5.735   5.626  0.1358 -0.2528  0.0853
  104ccc    C11 4632  -0.672   5.334   6.144 -0.0260  0.1554 -1.0901
  104ccc    C12 4633  -0.640   5.416   6.275 -0.3884 -0.5693 -0.2128
  104ccc    H17 4634  -0.599   5.252   6.136  0.5203  0.4617  0.3869
  104ccc    C13 4635  -0.502   5.495   6.264  0.1991  0.1494 -0.5546
  104ccc    C14 4636  -0.501   5.585   6.142 -0.1604  0.8942 -0.6488
  104ccc    C15 4637  -0.534   5.501   6.018  0.0433 -0.4850  0.2856
  104ccc    H18 4638  -0.583   5.657   6.146 -0.4542  0.5249  0.2078
  104ccc    H19 4639  -0.420   5.422   6.265  2.5643  2.6443  0.4219
  104ccc    H20 4640  -0.457   5.426   5.993 -1.5860 -2.2020  0.2008
  104ccc     O1 4641  -0.550   5.591   5.914 -0.3137 -0.5789  0.3766
  104ccc     O6 4642  -0.507   5.575   6.379  0.0067  0.4752 -0.4123
  104ccc    C16 4643  -0.815   5.261   6.141  0.5550 -0.6355 -0.1891
  104ccc    H21 4644  -0.448   5.535   6.445  0.7514  0.8158 -0.8553
  104ccc    H22 4645  -0.393   5.772   6.148  0.2409 -0.7199  2.8420
  104ccc    H23 4646  -0.818   5.191   6.225 -3.9662  1.4751  1.7132
  104ccc    H24 4647  -0.812   5.207   6.045  0.6067  0.6030 -0.9116
  104ccc     O7 4648  -0.917   5.356   6.161 -0.4487 -0.0805  0.2114
  104ccc    H25 4649  -0.918   5.418   6.086  3.3929  1.9434  1.5440
  104ccc     O8 4650  -0.661   5.424   6.027  0.3890  0.0898  0.1105
  104ccc    H26 4651  -0.549   5.546   5.828 -0.1446  0.1914 -0.0333
  104ccc    H27 4652  -0.715   5.496   6.287  1.0430  0.4897  2.9421
  104ccc     O9 4653  -0.644   5.331   6.388 -0.5921 -0.1675  0.4103
  104ccc    H28 4654  -0.555   5.296   6.404  0.1440  1.3721 -0.2024
  104ccc     N3 4655  -0.378   5.672   6.133 -0.1001 -0.3681 -0.4892
  104ccc    C17 4656   0.567   5.917   5.297 -0.0072 -0.7856 -0.2082
  104ccc    C18 4657   0.623   5.778   5.341 -1.1192  0.1153  0.0730
  104ccc    H29 4658   0.631   5.997   5.335 -2.5088  1.4937 -0.4543
  104ccc    C19 4659   0.582   5.736   5.489  0.4802 -0.2151 -0.0719
  104ccc    C20 4660   0.427   5.778   5.520 -0.5842 -1.0803  0.6572
  104ccc    C21 4661   0.407   5.926   5.476  0.1090 -0.4141  0.3544
  104ccc    H30 4662   0.362   5.723   5.450  1.5139 -2.5745 -0.2216
  104ccc    H31 4663   0.655   5.795   5.545 -0.9970  1.3206  0.3121
  104ccc    H32 4664   0.480   5.999   5.512  0.8495 -0.8967 -0.1343
  104ccc    O10 4665   0.271   5.960   5.496  0.0273 -1.3345  0.5158
  104ccc    O11 4666   0.596   5.598   5.515 -0.7916 -0.1697  0.1483
  104ccc    C22 4667   0.568   5.925   5.145 -0.1886 -0.0062  0.8321
  104ccc    H33 4668   0.693   5.594   5.516 -0.7515  0.6037 -0.3586
  104ccc    H34 4669   0.454   5.773   5.724  0.9041  0.6646 -0.7613
  104ccc    H35 4670   0.664   5.887   5.108 -0.1932 -0.5885  1.4067
  104ccc    H36 4671   0.557   6.029   5.114 -0.0250 -0.3059 -0.2843
  104ccc    O12 4672   0.459   5.850   5.082 -0.4742 -0.0438 -0.4263
  104ccc    H37 4673   0.381   5.846   5.140  0.0969  0.3623  0.3841
  104ccc    O13 4674   0.425   5.935   5.337 -0.0619  0.3859  0.2538
  104ccc    H38 4675   0.229   5.901   5.430 -0.4964 -0.3699 -0.0431
  104ccc    H39 4676   0.583   5.709   5.266 -1.7737  1.8815 -1.2651
  104ccc     O5 4677   0.764   5.767   5.335  0.2202  0.3932  0.0963
  104ccc    H40 4678   0.785   5.673   5.318 -2.6912 -0.8119  2.3061
  104ccc     N4 4679   0.376   5.758   5.660  0.2344  0.4157  0.0935
  105ccc     N1 4680   0.876   6.222   6.773 -0.1952  0.8936 -0.3854
  105ccc     H4 4681   0.842   6.248   6.865  0.5975  2.5215 -0.5140
  105ccc     C3 4682   1.019   6.217   6.756  0.0607 -0.7053  0.4032
  105ccc     H5 4683   1.058   6.126   6.805 -0.4705 -1.9534 -1.3947
  105ccc     C4 4684   1.090   6.332   6.821  0.0074 -0.0268 -0.4129
  105ccc     H6 4685   1.048   6.207   6.650  0.0812 -0.4150  0.3796
  105ccc     H7 4686   1.096   6.320   6.930  3.1239  0.1006 -0.4696
  105ccc     H8 4687   1.038   6.426   6.799  0.3062 -0.0972 -1.4693
  105ccc     N2 4688   1.224   6.361   6.752 -0.5721  0.3852 -0.0184
  105ccc     C5 4689   1.318   6.245   6.761 -0.2982 -0.9506  0.8507
  105ccc     C6 4690   1.207   6.403   6.610  0.0478  0.1959 -0.7202
  105ccc     H9 4691   1.222   6.320   6.539 -2.6031 -1.0207  0.0176
  105ccc     C7 4692   1.306   6.510   6.591 -0.1197 -0.3589  0.3539
  105ccc    H10 4693   1.105   6.439   6.591 -1.4601 -2.7236  1.0424
  105ccc    H11 4694   1.397   6.455   6.563 -1.1798 -2.3839  0.6583
  105ccc    H12 4695   1.336   6.575   6.674  0.4965  0.5586 -0.5503
  105ccc     C8 4696   1.263   6.598   6.475 -0.2940  0.2497  0.3700
  105ccc     O2 4697   1.197   6.565   6.382  0.5384  0.0432 -0.1483
  105ccc    H13 4698   1.396   6.256   6.685 -1.6261  0.7795 -0.3456
  105ccc    H14 4699   1.262   6.154   6.739 -1.4497 -0.2444  0.7611
  105ccc     C9 4700   1.387   6.244   6.897  0.0581  0.1781 -0.0651
  105ccc    H15 4701   1.312   6.231   6.976 -0.3683  1.0256 -0.3111
  105ccc    H16 4702   1.438   6.339   6.918  0.2774 -0.4345  2.3571
  105ccc    C10 4703   1.489   6.137   6.913  0.7095  0.6267  0.0255
  105ccc     O4 4704   1.531   6.057   6.831 -0.5301 -0.5063  0.3607
  105ccc    C11 4705   1.262   6.876   6.094  0.3007  0.2108 -0.5327
  105ccc    C12 4706   1.168   6.945   6.193  1.2422 -0.2694  0.2190
  105ccc    H17 4707   1.222   6.777   6.070 -1.9624  0.6101  1.2370
  105ccc    C13 4708   1.158   6.854   6.320  0.2634  0.4726  0.2048
  105ccc    C14 4709   1.309   6.824   6.368  0.0214 -0.2928 -0.1098
  105ccc    C15 4710   1.405   6.776   6.260 -0.1859 -0.2841  0.1300
  105ccc    H18 4711   1.347   6.921   6.401 -2.5715  0.6642  0.3572
  105ccc    H19 4712   1.107   6.761   6.290  0.7283  0.1728  0.3295
  105ccc    H20 4713   1.387   6.676   6.219 -0.8472  0.2070 -0.8245
  105ccc     O1 4714   1.535   6.781   6.308 -0.0530 -0.7125 -0.2869
  105ccc     O6 4715   1.083   6.915   6.427  0.6224  0.0814 -0.0282
  105ccc    C16 4716   1.276   6.950   5.952  0.0614  0.6752 -0.0137
  105ccc    H21 4717   1.068   6.847   6.495 -2.6006  1.9829  1.4176
  105ccc    H22 4718   1.371   6.759   6.558  0.0217  1.2437 -0.0246
  105ccc    H23 4719   1.315   7.051   5.967 -1.3931  1.5187 -1.5377
  105ccc    H24 4720   1.173   6.964   5.915 -0.4008 -2.6236 -0.2346
  105ccc     O7 4721   1.360   6.881   5.860 -0.1187 -0.0982  0.1467
  105ccc    H25 4722   1.336   6.898   5.768  0.2987 -0.8066 -0.0992
  105ccc     O8 4723   1.396   6.864   6.147  0.0319 -0.3641 -0.0850
  105ccc    H26 4724   1.552   6.686   6.322 -0.7495 -0.9945 -1.2712
  105ccc    H27 4725   1.210   7.041   6.228 -1.7399  0.1522  3.1507
  105ccc     O9 4726   1.037   6.967   6.156 -0.2950 -0.3055  0.7310
  105ccc    H28 4727   0.993   6.965   6.242  0.1193  1.7259  1.0425
  105ccc     N3 4728   1.312   6.724   6.483 -0.3629 -0.4496  0.9851
  105ccc    C17 4729   1.939   6.190   7.193  0.2476 -0.5074  0.4276
  105ccc    C18 4730   1.857   6.061   7.221 -0.5756  0.4010  0.2276
  105ccc    H29 4731   1.909   6.282   7.244 -0.4351 -0.5408  0.0957
  105ccc    C19 4732   1.711   6.065   7.180 -0.6006  0.2681  0.0823
  105ccc    C20 4733   1.694   6.120   7.037 -0.5679 -0.4892 -0.2665
  105ccc    C21 4734   1.782   6.249   7.020 -0.0001  0.5506 -0.3374
  105ccc    H30 4735   1.735   6.045   6.968 -0.3766  1.0987 -1.9422
  105ccc    H31 4736   1.658   6.125   7.255  0.0662 -1.3463  1.9297
  105ccc    H32 4737   1.741   6.327   7.084 -1.0887  1.4796 -2.0736
  105ccc    O10 4738   1.771   6.311   6.896 -0.4994 -0.1371 -0.0116
  105ccc    O11 4739   1.664   5.931   7.192 -0.6248  0.2523 -0.1591
  105ccc    C22 4740   2.089   6.175   7.200 -0.2497  1.0629 -0.1940
  105ccc    H33 4741   1.705   5.878   7.121 -1.7158  0.2996 -0.8489
  105ccc    H34 4742   1.518   6.212   7.093  1.9937  2.0742 -0.8853
  105ccc    H35 4743   2.120   6.102   7.124  0.8427  1.2814  0.0238
  105ccc    H36 4744   2.118   6.156   7.304 -3.0541  0.0430  0.5052
  105ccc    O12 4745   2.139   6.297   7.160 -0.0480 -0.1656 -0.4865
  105ccc    H37 4746   2.069   6.354   7.125 -0.0711  2.3096  3.0353
  105ccc    O13 4747   1.917   6.210   7.048 -0.5989  0.3075 -0.0567
  105ccc    H38 4748   1.863   6.313   6.864 -1.4665  0.9490 -3.1335
  105ccc    H39 4749   1.909   5.980   7.168  1.0279  1.6194 -0.1587
  105ccc     O5 4750   1.859   6.043   7.365 -0.4307 -0.5701  0.9090
  105ccc    H40 4751   1.786   5.981   7.381 -0.3088 -1.6651 -2.1047
  105ccc     N4 4752   1.551   6.146   7.022  0.3008  0.4618 -0.2481
  106ccc     N1 4753  -2.192   6.523   6.226 -0.5563  0.2916  0.1903
  106ccc     H4 4754  -2.117   6.489   6.167  0.2977  0.5626  1.0872
  106ccc     C3 4755  -2.337   6.537   6.184 -0.1594 -0.3564 -0.7872
  106ccc     H5 4756  -2.381   6.609   6.253  2.1232  0.0812  0.3253
  106ccc     C4 4757  -2.410   6.400   6.179  0.9071 -0.0297 -0.1063
  106ccc     H6 4758  -2.341   6.580   6.083 -1.2260  2.1685  0.2479
  106ccc     H7 4759  -2.353   6.326   6.238 -0.0990  0.1483  1.1248
  106ccc     H8 4760  -2.407   6.355   6.079  1.9350 -3.2587  1.2250
  106ccc     N2 4761  -2.554   6.412   6.214  0.3297 -0.0469 -0.0262
  106ccc     C5 4762  -2.649   6.376   6.108 -0.0800  0.1910 -0.2121
  106ccc     C6 4763  -2.588   6.341   6.339 -0.7020  0.2578 -0.4382
  106ccc     H9 4764  -2.696   6.335   6.356 -0.6018  1.1269  0.5766
  106ccc     C7 4765  -2.519   6.404   6.464  0.2297  0.0662  0.2669
  106ccc    H10 4766  -2.558   6.235   6.337 -2.2293 -0.2189  0.4049
  106ccc    H11 4767  -2.545   6.509   6.475  0.4986  0.2515 -0.7522
  106ccc    H12 4768  -2.411   6.386   6.450 -0.0011 -0.6386 -0.7919
  106ccc     C8 4769  -2.573   6.341   6.581 -0.3115 -0.6178  0.1071
  106ccc     O2 4770  -2.642   6.241   6.589  1.0478  0.4483  0.2720
  106ccc    H13 4771  -2.750   6.373   6.151  0.3251  0.2418  0.7728
  106ccc    H14 4772  -2.636   6.271   6.078  0.5488  0.5790 -1.3461
  106ccc     C9 4773  -2.638   6.471   5.990  0.4039  0.6891 -0.5356
  106ccc    H15 4774  -2.536   6.476   5.948  0.0604  1.5625 -1.2912
  106ccc    H16 4775  -2.654   6.572   6.030 -2.2182  0.2356 -0.2869
  106ccc    C10 4776  -2.738   6.446   5.885  0.7405 -0.2456  0.2515
  106ccc     O4 4777  -2.833   6.369   5.901  0.0887 -0.1168 -0.1454
  106ccc    C11 4778  -2.341   6.260   7.060 -0.4919 -0.0952 -0.0203
  106ccc    C12 4779  -2.440   6.382   7.074 -0.7925  0.0305 -0.3066
  106ccc    H17 4780  -2.243   6.301   7.034 -1.0659  0.2991 -1.6567
  106ccc    C13 4781  -2.472   6.439   6.936  0.0200 -0.5500 -0.1789
  106ccc    C14 4782  -2.518   6.330   6.829 -0.3613 -0.8623 -0.4088
  106ccc    C15 4783  -2.414   6.211   6.828 -0.2245  0.0711 -0.0224
  106ccc    H18 4784  -2.616   6.292   6.860 -0.7741 -0.3630 -1.0809
  106ccc    H19 4785  -2.376   6.481   6.904 -1.2432  2.3059 -0.5302
  106ccc    H20 4786  -2.324   6.244   6.774 -0.5337  1.4699  0.2674
  106ccc     O1 4787  -2.472   6.107   6.755  0.2107 -0.0158  0.5167
  106ccc     O6 4788  -2.573   6.532   6.946  0.3699 -0.2381 -0.1581
  106ccc    C16 4789  -2.317   6.194   7.198  0.5343 -0.6357 -0.0495
  106ccc    H21 4790  -2.561   6.581   7.029  2.4014  2.0573 -1.6643
  106ccc    H22 4791  -2.435   6.446   6.680  0.4735 -0.7996  1.4753
  106ccc    H23 4792  -2.400   6.123   7.213  0.4238 -0.7599 -1.1528
  106ccc    H24 4793  -2.308   6.264   7.281 -0.7046 -2.2810  1.5525
  106ccc     O7 4794  -2.200   6.118   7.186 -0.1511 -0.0457  0.3870
  106ccc    H25 4795  -2.137   6.188   7.163 -0.1180 -0.2066 -0.0173
  106ccc     O8 4796  -2.383   6.159   6.964  0.3751 -0.0068  0.4321
  106ccc    H26 4797  -2.522   6.154   6.686  2.2987  0.5594 -0.7150
  106ccc    H27 4798  -2.528   6.338   7.123  0.8095 -3.0227  0.0843
  106ccc     O9 4799  -2.379   6.477   7.166 -0.4581 -0.3565  0.2342
  106ccc    H28 4800  -2.402   6.472   7.261 -2.0260  2.3474  0.1078
  106ccc     N3 4801  -2.521   6.393   6.689  0.1806 -0.5929  0.0649
  106ccc    C17 4802  -2.975   6.562   5.427  0.1882  0.0806  0.5103
  106ccc    C18 4803  -2.820   6.553   5.420 -0.0907 -0.2802 -0.0788
  106ccc    H29 4804  -2.992   6.670   5.427  2.0082  0.3988  0.9181
  106ccc    C19 4805  -2.751   6.597   5.548 -0.2048 -0.1245 -0.4598
  106ccc    C20 4806  -2.817   6.519   5.665 -0.2301  0.1125 -0.3689
  106ccc    C21 4807  -2.973   6.544   5.672 -0.4644  0.0658  0.5181
  106ccc    H30 4808  -2.810   6.412   5.642 -1.8110 -1.2053  4.1754
  106ccc    H31 4809  -2.771   6.704   5.565  1.9160  0.3831 -0.8877
  106ccc    H32 4810  -2.993   6.651   5.687 -0.6752  0.1099 -0.0723
  106ccc    O10 4811  -3.043   6.477   5.771 -0.3602  0.2855 -0.5637
  106ccc    O11 4812  -2.612   6.581   5.548 -0.1337 -0.0449 -0.2823
  106ccc    C22 4813  -3.043   6.493   5.306 -0.7806 -0.9362 -0.4858
  106ccc    H33 4814  -2.573   6.641   5.614  0.1848 -0.2087 -0.3193
  106ccc    H34 4815  -2.660   6.594   5.771  1.2268 -1.1558 -0.8539
  106ccc    H35 4816  -3.017   6.540   5.211  0.0032  1.2728  0.7674
  106ccc    H36 4817  -3.149   6.510   5.326 -0.0135  0.9595  2.6278
  106ccc    O12 4818  -3.003   6.355   5.321  0.2032 -0.3685  0.1793
  106ccc    H37 4819  -3.074   6.297   5.288  1.4927 -2.0773  0.2269
  106ccc    O13 4820  -3.029   6.502   5.543 -0.2826  0.3932  0.5057
  106ccc    H38 4821  -2.974   6.464   5.839 -0.5225 -0.5966 -0.5620
  106ccc    H39 4822  -2.797   6.448   5.403  2.0260  0.0789  0.3619
  106ccc     O5 4823  -2.774   6.630   5.313 -0.3358  0.3711  0.0726
  106ccc    H40 4824  -2.683   6.598   5.297 -0.2071 -0.5897  2.2988
  106ccc     N4 4825  -2.742   6.535   5.785  0.0106  0.5244 -0.5843
  107ccc     N1 4826  -1.574   6.741   6.008  0.0842 -0.4228  0.1708
  107ccc     H4 4827  -1.547   6.644   6.015  2.1931  0.2217  1.9860
  107ccc     C3 4828  -1.560   6.817   5.881 -0.1688  0.3380  0.1874
  107ccc     H5 4829  -1.653   6.802   5.825 -0.6280  0.0562  1.0094
  107ccc     C4 4830  -1.433   6.776   5.797  0.3377 -0.5299  0.2008
  107ccc     H6 4831  -1.553   6.922   5.910  0.6377  0.6408 -1.0088
  107ccc     H7 4832  -1.429   6.667   5.786  0.2475 -0.2882 -3.4737
  107ccc     H8 4833  -1.340   6.798   5.850 -0.8334  0.7007  1.8499
  107ccc     N2 4834  -1.433   6.824   5.656  0.8042  0.2146 -0.1427
  107ccc     C5 4835  -1.306   6.777   5.598 -0.2693 -0.0657 -0.6241
  107ccc     C6 4836  -1.466   6.967   5.628 -0.1023  0.1665 -0.0586
  107ccc     H9 4837  -1.477   6.988   5.520  0.3099 -0.2296 -0.1782
  107ccc     C7 4838  -1.356   7.060   5.675 -0.2885  0.1439  0.6624
  107ccc    H10 4839  -1.559   6.994   5.679 -0.1652 -1.3246  0.6578
  107ccc    H11 4840  -1.268   7.055   5.609  0.7015  0.3668  1.9268
  107ccc    H12 4841  -1.325   7.032   5.776 -0.4992 -0.0082  0.6853
  107ccc     C8 4842  -1.404   7.196   5.674  0.1457  0.1900  0.6831
  107ccc     O2 4843  -1.514   7.226   5.633  0.6117 -0.0467  0.7256
  107ccc    H13 4844  -1.223   6.789   5.668  0.2467 -0.7967 -1.0938
  107ccc    H14 4845  -1.278   6.842   5.514  2.6625  1.1234  1.1477
  107ccc     C9 4846  -1.314   6.636   5.544  0.1058  0.4867  0.1083
  107ccc    H15 4847  -1.352   6.646   5.442  3.0132 -1.8972 -1.3533
  107ccc    H16 4848  -1.391   6.575   5.592  0.8920 -1.5787 -1.1168
  107ccc    C10 4849  -1.181   6.565   5.533 -0.0719  0.3002  0.0472
  107ccc     O4 4850  -1.099   6.564   5.622 -0.6042  0.1787 -0.3560
  107ccc    C11 4851  -1.475   7.677   5.675 -0.4278  0.3147 -0.0448
  107ccc    C12 4852  -1.459   7.624   5.818  0.4578  0.3758  0.4849
  107ccc    H17 4853  -1.564   7.642   5.622 -1.1306  0.0289  1.2672
  107ccc    C13 4854  -1.417   7.473   5.828 -0.2451 -0.7002  0.3146
  107ccc    C14 4855  -1.318   7.431   5.720  0.3387  0.0134 -0.4521
  107ccc    C15 4856  -1.350   7.498   5.583  0.6218 -0.3125  0.3182
  107ccc    H18 4857  -1.221   7.471   5.753 -0.4387  1.4435  0.2122
  107ccc    H19 4858  -1.505   7.409   5.817  0.6233 -1.7082 -1.0253
  107ccc    H20 4859  -1.428   7.441   5.532  0.3268 -0.6739  1.1468
  107ccc     O1 4860  -1.228   7.488   5.507 -0.1050  0.0420 -0.7466
  107ccc     O6 4861  -1.367   7.455   5.963  0.1083 -0.2663  0.2661
  107ccc    C16 4862  -1.490   7.833   5.668 -0.4384 -0.6354  0.1497
  107ccc    H21 4863  -1.406   7.369   5.986 -1.2598  0.3821  0.4354
  107ccc    H22 4864  -1.214   7.262   5.724 -0.1860  1.0983  1.8945
  107ccc    H23 4865  -1.581   7.867   5.718  0.3764  0.1300  1.1537
  107ccc    H24 4866  -1.496   7.867   5.564  0.3402  2.4546  1.0098
  107ccc     O7 4867  -1.370   7.891   5.725  0.3211 -0.0200  0.0825
  107ccc    H25 4868  -1.300   7.887   5.658 -0.3379 -1.1373 -0.5744
  107ccc     O8 4869  -1.370   7.641   5.593 -0.0110  0.5852 -0.0028
  107ccc    H26 4870  -1.210   7.579   5.479 -0.5707  0.2938 -0.2368
  107ccc    H27 4871  -1.376   7.675   5.869  0.2044  1.1486  0.1313
  107ccc     O9 4872  -1.582   7.635   5.892 -0.1690 -0.3600  0.3934
  107ccc    H28 4873  -1.561   7.572   5.963  1.1788  0.8845  1.1637
  107ccc     N3 4874  -1.312   7.285   5.709 -0.1084  0.3222 -0.0503
  107ccc    C17 4875  -0.989   6.086   5.359 -0.0165  0.6607 -0.3955
  107ccc    C18 4876  -0.902   6.214   5.339  0.0329  0.0290 -0.5344
  107ccc    H29 4877  -1.041   6.075   5.263  0.0721  3.0439 -0.7808
  107ccc    C19 4878  -1.003   6.337   5.327  0.4311 -0.0846 -0.2140
  107ccc    C20 4879  -1.103   6.339   5.448 -0.1663  0.4054  0.1788
  107ccc    C21 4880  -1.182   6.203   5.455  0.3421 -0.2674  0.4421
  107ccc    H30 4881  -1.044   6.338   5.540 -1.5886  1.7727  1.1605
  107ccc    H31 4882  -1.060   6.317   5.236 -1.1838 -0.0465  0.7379
  107ccc    H32 4883  -1.251   6.173   5.376  0.4963 -0.7871  0.4968
  107ccc    O10 4884  -1.267   6.194   5.571  0.1290  0.5660  0.4595
  107ccc    O11 4885  -0.929   6.460   5.310 -0.2199 -0.1302  0.2416
  107ccc    C22 4886  -0.911   5.951   5.374  0.2400  0.6140  0.7495
  107ccc    H33 4887  -0.836   6.431   5.308  0.4364  1.7532 -2.5731
  107ccc    H34 4888  -1.263   6.456   5.384  2.4580  2.3313 -2.1476
  107ccc    H35 4889  -0.877   5.909   5.278  2.3076 -0.4113  1.8700
  107ccc    H36 4890  -0.979   5.871   5.405  2.4100 -2.6733 -2.0622
  107ccc    O12 4891  -0.798   5.955   5.463 -0.5697 -0.1192 -0.2090
  107ccc    H37 4892  -0.858   5.964   5.539 -0.7196  2.1102 -0.5114
  107ccc    O13 4893  -1.087   6.092   5.469 -0.0463  0.2276  0.5290
  107ccc    H38 4894  -1.299   6.102   5.571 -0.1428  0.6607 -0.0306
  107ccc    H39 4895  -0.838   6.224   5.427 -0.3149  0.1789 -0.2962
  107ccc     O5 4896  -0.833   6.209   5.217  0.7338 -0.1583  0.5599
  107ccc    H40 4897  -0.886   6.189   5.139  0.5131  1.3666  0.3001
  107ccc     N4 4898  -1.191   6.458   5.455  0.3307  0.0993  0.3026
  108ccc     N1 4899  -0.979   6.106   8.051 -0.1592  0.2347 -0.3902
  108ccc     H4 4900  -1.040   6.027   8.061  2.1195 -1.4876  0.7763
  108ccc     C3 4901  -0.873   6.136   8.147  0.2227  0.2939 -0.6640
  108ccc     H5 4902  -0.824   6.045   8.185  1.6316  1.6918  1.0875
  108ccc     C4 4903  -0.934   6.207   8.271 -0.1448  0.0222  0.6995
  108ccc     H6 4904  -0.787   6.186   8.101 -0.8298  0.6154 -2.3556
  108ccc     H7 4905  -1.022   6.152   8.307 -0.0970 -0.4318  0.1432
  108ccc     H8 4906  -0.967   6.309   8.249  1.8985  0.5255 -0.2393
  108ccc     N2 4907  -0.834   6.220   8.378 -0.9381  0.4512 -0.7899
  108ccc     C5 4908  -0.741   6.326   8.349 -0.3595  1.0637 -0.1403
  108ccc     C6 4909  -0.897   6.222   8.507 -0.0964 -0.0296 -0.1010
  108ccc     H9 4910  -0.818   6.247   8.579  1.2230  1.5362 -1.9631
  108ccc     C7 4911  -0.937   6.081   8.554  0.4999 -0.5957 -0.7246
  108ccc    H10 4912  -0.980   6.294   8.512  1.4556  1.7610  1.8076
  108ccc    H11 4913  -0.850   6.020   8.579  0.1102 -0.9835 -0.2954
  108ccc    H12 4914  -0.995   6.020   8.483  0.5706 -2.0477  0.4204
  108ccc     C8 4915  -1.026   6.090   8.677  0.1556  0.6316  0.4765
  108ccc     O2 4916  -1.120   6.166   8.680  0.4964  0.5242 -0.7022
  108ccc    H13 4917  -0.792   6.423   8.340 -0.8779  0.8411  0.3177
  108ccc    H14 4918  -0.704   6.294   8.251 -1.1889 -3.1820  0.7679
  108ccc     C9 4919  -0.622   6.322   8.447 -0.4674 -0.0428  0.1919
  108ccc    H15 4920  -0.599   6.215   8.457  0.6332 -0.0826 -2.1405
  108ccc    H16 4921  -0.645   6.370   8.543  0.3776  1.3670 -0.2767
  108ccc    C10 4922  -0.510   6.391   8.377  0.0460 -0.0081  0.1238
  108ccc     O4 4923  -0.415   6.334   8.323 -0.4129 -0.1347 -0.4564
  108ccc    C11 4924  -1.272   5.753   9.000  0.2753 -0.1470  0.0455
  108ccc    C12 4925  -1.194   5.865   9.081 -0.7547 -0.5867  0.2667
  108ccc    H17 4926  -1.229   5.653   9.012 -1.8008 -0.9508  1.2464
  108ccc    C13 4927  -1.076   5.911   9.004  0.2361 -0.1970  0.2276
  108ccc    C14 4928  -1.120   5.937   8.854 -0.1043  0.6691  0.3500
  108ccc    C15 4929  -1.181   5.817   8.790 -0.7158  0.3653  0.1268
  108ccc    H18 4930  -1.192   6.021   8.854  0.2912  1.0730 -2.0681
  108ccc    H19 4931  -1.013   5.821   9.009  1.5190  0.7009  0.6284
  108ccc    H20 4932  -1.116   5.728   8.793 -1.6989 -0.4794 -1.5574
  108ccc     O1 4933  -1.218   5.838   8.657  0.7996  0.2252 -0.2337
  108ccc     O6 4934  -1.016   6.025   9.065  0.0899 -0.6516  0.2057
  108ccc    C16 4935  -1.409   5.726   9.076  0.1288 -0.0364 -0.0238
  108ccc    H21 4936  -0.922   6.026   9.038  0.1761  0.3189  0.5209
  108ccc    H22 4937  -0.931   5.930   8.763  0.2275 -0.4292 -1.2473
  108ccc    H23 4938  -1.392   5.685   9.176  1.9512 -1.1233 -0.7315
  108ccc    H24 4939  -1.457   5.638   9.031  2.8017 -1.7116  0.1894
  108ccc     O7 4940  -1.480   5.849   9.082 -0.3259 -0.3395  0.4075
  108ccc    H25 4941  -1.486   5.890   8.994 -2.8103  1.0354  1.1418
  108ccc     O8 4942  -1.299   5.790   8.860  0.6212 -0.2780 -0.6227
  108ccc    H26 4943  -1.254   5.752   8.631  1.0713  0.0950 -0.1747
  108ccc    H27 4944  -1.252   5.957   9.096  0.5706  0.6254 -1.6053
  108ccc     O9 4945  -1.147   5.816   9.208 -0.2234  0.7901 -0.0324
  108ccc    H28 4946  -1.115   5.895   9.255 -0.1011  0.3635  0.6216
  108ccc     N3 4947  -1.009   5.995   8.771  0.0470 -0.7435 -0.2734
  108ccc    C17 4948  -0.520   6.868   8.611  0.1469  0.1351 -0.2973
  108ccc    C18 4949  -0.613   6.878   8.490  0.2980 -0.2970  0.0436
  108ccc    H29 4950  -0.418   6.895   8.584 -0.7025  0.4597 -3.7825
  108ccc    C19 4951  -0.574   6.762   8.399  0.3366 -0.3434  0.7428
  108ccc    C20 4952  -0.566   6.620   8.456  0.0643 -0.1029 -0.7365
  108ccc    C21 4953  -0.478   6.628   8.585  0.6792  0.9567 -0.5734
  108ccc    H30 4954  -0.662   6.587   8.497 -0.1312  1.9176  0.5274
  108ccc    H31 4955  -0.475   6.791   8.359 -0.2184  0.6921  0.0592
  108ccc    H32 4956  -0.373   6.643   8.560  0.5721  1.3288 -0.8000
  108ccc    O10 4957  -0.491   6.512   8.672 -0.3738  0.1044  0.1435
  108ccc    O11 4958  -0.662   6.760   8.292  0.0584 -0.6092  0.2240
  108ccc    C22 4959  -0.570   6.960   8.723  0.7188 -0.2905 -0.1144
  108ccc    H33 4960  -0.718   6.840   8.294  0.7455 -0.0353 -1.5756
  108ccc    H34 4961  -0.434   6.562   8.307 -0.1519 -0.2242  0.0498
  108ccc    H35 4962  -0.665   6.920   8.758  0.2504 -0.1164 -1.1638
  108ccc    H36 4963  -0.584   7.062   8.687  0.2066  0.2995  1.6183
  108ccc    O12 4964  -0.482   6.968   8.822 -0.0803  0.2055  0.0971
  108ccc    H37 4965  -0.415   6.902   8.796  0.9798  2.1741 -2.5361
  108ccc    O13 4966  -0.530   6.731   8.667 -0.2570 -0.1439  0.1642
  108ccc    H38 4967  -0.483   6.540   8.765 -0.6452 -2.5363  1.0461
  108ccc    H39 4968  -0.720   6.867   8.513  0.1977  0.4083 -0.0500
  108ccc     O5 4969  -0.602   7.007   8.422  0.7695  0.1936 -0.0174
  108ccc    H40 4970  -0.516   7.014   8.377  0.6298 -0.2544 -0.3634
  108ccc     N4 4971  -0.509   6.521   8.362 -0.1359 -0.3913 -0.0516
  109ccc     N1 4972  -1.718   6.170   8.109  0.6120  0.5552 -0.2230
  109ccc     H4 4973  -1.680   6.077   8.101 -0.5567  0.0581 -0.0759
  109ccc     C3 4974  -1.850   6.185   8.182 -0.4771 -0.3041 -0.7695
  109ccc     H5 4975  -1.817   6.220   8.280  2.2571 -2.9684 -0.5686
  109ccc     C4 4976  -1.950   6.065   8.198  0.3575 -0.2129  0.7812
  109ccc     H6 4977  -1.901   6.273   8.142 -0.4653 -1.5081 -3.7496
  109ccc     H7 4978  -2.042   6.105   8.243  0.6094  0.9192  0.3247
  109ccc     H8 4979  -1.905   5.997   8.271 -0.5852  0.4534  2.0187
  109ccc     N2 4980  -1.976   6.008   8.067 -0.3004 -0.3274 -0.9490
  109ccc     C5 4981  -2.004   5.868   8.057 -0.3776 -0.5257 -0.3350
  109ccc     C6 4982  -2.070   6.088   7.993  0.5558 -0.6774  0.6434
  109ccc     H9 4983  -2.170   6.046   7.980  0.8877 -0.5888 -3.0318
  109ccc     C7 4984  -2.013   6.117   7.858 -0.0819  0.5657 -0.2655
  109ccc    H10 4985  -2.082   6.186   8.041  0.0205 -0.3487 -0.1531
  109ccc    H11 4986  -2.006   6.025   7.799 -2.5055 -0.2338  0.5504
  109ccc    H12 4987  -1.913   6.160   7.871  0.4489 -0.8372  0.5200
  109ccc     C8 4988  -2.103   6.208   7.783  0.5307  0.3366 -0.5053
  109ccc     O2 4989  -2.224   6.183   7.778 -0.2064  0.1272 -0.0900
  109ccc    H13 4990  -1.987   5.831   7.955 -1.3894  0.2441 -0.7985
  109ccc    H14 4991  -2.110   5.846   8.076 -1.8110  0.9021 -5.1545
  109ccc     C9 4992  -1.924   5.773   8.144 -0.0510 -0.3062 -0.1634
  109ccc    H15 4993  -1.968   5.777   8.244 -1.3346 -0.7478 -0.6838
  109ccc    H16 4994  -1.819   5.804   8.147  0.0535 -0.7543  2.1316
  109ccc    C10 4995  -1.922   5.634   8.109  0.4963  0.6264  0.0106
  109ccc     O4 4996  -1.971   5.589   8.007  0.2859 -0.1260 -0.0564
  109ccc    C11 4997  -2.163   6.644   7.483  0.3534  0.0252 -0.0276
  109ccc    C12 4998  -2.143   6.519   7.398 -0.2973 -0.2074  0.2512
  109ccc    H17 4999  -2.071   6.696   7.512  1.9649 -1.5988 -1.9733
  109ccc    C13 5000  -2.058   6.420   7.482 -0.1370 -0.0087  0.3978
  109ccc    C14 5001  -2.120   6.396   7.625  1.0490  0.3648  0.3807
  109ccc    C15 5002  -2.141   6.528   7.696  0.0618  1.0085 -0.1211
  109ccc    H18 5003  -2.218   6.356   7.597  2.1157 -1.8890 -0.3006
  109ccc    H19 5004  -1.958   6.462   7.498 -0.4311  1.7660 -1.9687
  109ccc    H20 5005  -2.045   6.575   7.719 -0.6853  1.3911  2.5000
  109ccc     O1 5006  -2.224   6.512   7.799  0.2008  0.5016 -0.0630
  109ccc     O6 5007  -2.047   6.284   7.420  0.3329 -0.2340  0.1682
  109ccc    C16 5008  -2.253   6.745   7.415 -0.1368 -0.3473 -0.0925
  109ccc    H21 5009  -1.985   6.227   7.469 -0.8857 -2.2453 -0.5228
  109ccc    H22 5010  -1.947   6.303   7.707  0.5963 -2.5969 -0.7937
  109ccc    H23 5011  -2.353   6.702   7.413  0.1041 -0.8879 -0.6871
  109ccc    H24 5012  -2.218   6.763   7.313 -3.0203 -0.0539 -1.0995
  109ccc     O7 5013  -2.241   6.872   7.482  0.3083 -0.3649 -0.4441
  109ccc    H25 5014  -2.329   6.893   7.518  0.5240 -2.9240  1.8650
  109ccc     O8 5015  -2.223   6.613   7.610 -0.3076  0.7019 -0.1046
  109ccc    H26 5016  -2.308   6.527   7.751 -0.3506 -0.9387  0.4100
  109ccc    H27 5017  -2.238   6.465   7.391 -0.4245 -0.2259  1.7969
  109ccc     O9 5018  -2.086   6.543   7.272  0.4985 -0.0230  0.4220
  109ccc    H28 5019  -2.065   6.458   7.229 -4.3729 -0.0483 -2.7231
  109ccc     N3 5020  -2.049   6.301   7.705  0.3579  0.7558  0.8093
  109ccc    C17 5021  -1.905   5.165   8.024  0.3361  0.1776  0.1553
  109ccc    C18 5022  -1.759   5.222   8.024 -0.6520 -0.5804 -0.3728
  109ccc    H29 5023  -1.961   5.215   7.944  0.9493  0.5669 -0.0407
  109ccc    C19 5024  -1.764   5.375   8.054 -0.1854  0.0706 -0.0816
  109ccc    C20 5025  -1.843   5.410   8.185 -0.0018  0.0297  0.7146
  109ccc    C21 5026  -1.978   5.334   8.189 -0.2015 -0.3985 -0.1804
  109ccc    H30 5027  -1.770   5.376   8.259  0.9792 -1.6547 -0.9318
  109ccc    H31 5028  -1.806   5.420   7.963  2.1215 -1.0036 -1.7701
  109ccc    H32 5029  -2.045   5.382   8.116  0.1807 -0.9703 -0.9240
  109ccc    O10 5030  -2.034   5.337   8.319 -0.1120 -0.5124  0.7140
  109ccc    O11 5031  -1.633   5.426   8.062 -0.4399 -0.2467  0.7551
  109ccc    C22 5032  -1.908   5.014   7.999  0.2903 -0.2751  0.0476
  109ccc    H33 5033  -1.615   5.460   7.973  2.1696 -0.7103  1.0438
  109ccc    H34 5034  -1.847   5.595   8.290  2.6971  1.8117 -0.6223
  109ccc    H35 5035  -1.865   4.959   8.084 -0.9986  1.9215  2.2425
  109ccc    H36 5036  -1.838   4.998   7.916 -0.4443 -0.5332 -0.5334
  109ccc    O12 5037  -2.033   4.963   7.969 -0.3704 -0.4801  0.3268
  109ccc    H37 5038  -2.024   4.877   7.925  0.3471 -0.9608  1.3679
  109ccc    O13 5039  -1.965   5.192   8.152  0.5744  0.0657 -0.5782
  109ccc    H38 5040  -2.081   5.422   8.326 -0.5790 -0.8618  2.3178
  109ccc    H39 5041  -1.713   5.183   8.116  1.4403 -0.6153 -1.3784
  109ccc     O5 5042  -1.673   5.173   7.918  0.0597 -0.3657  0.0698
  109ccc    H40 5043  -1.582   5.190   7.949  0.7013  1.7176 -2.5065
  109ccc     N4 5044  -1.860   5.557   8.197  0.1729  0.9437  0.0037
  110ccc     N1 5045   0.632   8.570   6.925  0.4600 -0.3122 -0.5583
  110ccc     H4 5046   0.720   8.606   6.961  0.6799 -0.9658 -0.4324
  110ccc     C3 5047   0.503   8.641   6.950 -0.1798 -0.3215  0.2729
  110ccc     H5 5048   0.530   8.746   6.967  1.3550 -0.7089  0.4502
  110ccc     C4 5049   0.422   8.588   7.064 -0.1447  0.5231  0.3887
  110ccc     H6 5050   0.447   8.631   6.857  0.0444 -0.0267  0.1062
  110ccc     H7 5051   0.375   8.492   7.038  0.5232  0.6743 -1.5314
  110ccc     H8 5052   0.335   8.654   7.076 -1.1881 -0.2989 -1.8973
  110ccc     N2 5053   0.494   8.564   7.188 -0.4056  0.0826 -0.5513
  110ccc     C5 5054   0.566   8.680   7.242 -0.2131  0.0692  0.0491
  110ccc     C6 5055   0.413   8.500   7.292  0.2871  0.0233  0.7787
  110ccc     H9 5056   0.445   8.519   7.395  1.8461 -0.4207  0.4026
  110ccc     C7 5057   0.414   8.347   7.264  0.0668 -0.1400  0.4284
  110ccc    H10 5058   0.310   8.539   7.292  0.7265  1.2014  0.6821
  110ccc    H11 5059   0.517   8.314   7.245 -0.2522 -1.2717  0.5887
  110ccc    H12 5060   0.356   8.321   7.175  1.2981  0.0295 -0.4540
  110ccc     C8 5061   0.360   8.270   7.381 -0.0981 -0.2499 -0.0633
  110ccc     O2 5062   0.244   8.259   7.411  0.6259  0.1076  0.0468
  110ccc    H13 5063   0.504   8.736   7.314  1.0833 -1.2932  2.3316
  110ccc    H14 5064   0.596   8.746   7.160 -2.1887 -2.3484 -2.8053
  110ccc     C9 5065   0.693   8.630   7.305 -0.7079 -0.2967  0.0783
  110ccc    H15 5066   0.749   8.582   7.224  2.1659  0.6204  1.3885
  110ccc    H16 5067   0.676   8.557   7.386  0.3169  0.0822  0.6672
  110ccc    C10 5068   0.777   8.746   7.356  0.1121  0.0467  0.4370
  110ccc     O4 5069   0.820   8.833   7.283 -0.2110 -0.2116 -0.6054
  110ccc    C11 5070   0.252   8.113   7.815 -0.6343 -0.0836  0.3603
  110ccc    C12 5071   0.307   7.994   7.732 -0.2023 -0.0777  0.2383
  110ccc    H17 5072   0.171   8.143   7.747 -0.2384 -3.0042 -1.6382
  110ccc    C13 5073   0.363   8.041   7.597 -0.5488 -0.7260 -0.4284
  110ccc    C14 5074   0.443   8.173   7.604  0.3191  0.0544  0.3999
  110ccc    C15 5075   0.366   8.274   7.692 -0.5243  0.3745 -0.5556
  110ccc    H18 5076   0.542   8.156   7.650 -0.7241 -1.9370  2.0863
  110ccc    H19 5077   0.275   8.054   7.531  1.1740  0.5586 -2.6233
  110ccc    H20 5078   0.278   8.319   7.644 -0.6934 -0.3444 -0.9340
  110ccc     O1 5079   0.457   8.363   7.739 -0.0488 -0.8797  0.2526
  110ccc     O6 5080   0.451   7.943   7.547 -0.3676  0.2131  0.2706
  110ccc    C16 5081   0.204   8.083   7.961 -0.4705  0.1423  1.0287
  110ccc    H21 5082   0.399   7.861   7.538 -2.2554  1.3522  0.1194
  110ccc    H22 5083   0.551   8.248   7.444 -0.1521 -0.1528  0.3923
  110ccc    H23 5084   0.276   8.115   8.037 -0.4353 -0.3130  1.1926
  110ccc    H24 5085   0.192   7.974   7.967  0.3031  0.0056  0.4199
  110ccc     O7 5086   0.080   8.159   7.971 -0.4766  0.0986  0.2686
  110ccc    H25 5087   0.018   8.118   8.034  0.3141 -0.8300  0.4680
  110ccc     O8 5088   0.345   8.220   7.819 -0.0334 -0.1044  0.0748
  110ccc    H26 5089   0.427   8.356   7.831 -1.2684 -1.5094 -0.1669
  110ccc    H27 5090   0.394   7.951   7.784 -1.7785 -1.3460  1.9732
  110ccc     O9 5091   0.211   7.891   7.694 -0.2252 -0.3626 -0.0000
  110ccc    H28 5092   0.253   7.806   7.671 -1.2829 -0.9332  0.1087
  110ccc     N3 5093   0.454   8.227   7.467 -0.1648  0.1508  0.6168
  110ccc    C17 5094   1.029   9.043   7.685 -0.3134  0.2734  0.3870
  110ccc    C18 5095   0.884   9.000   7.742 -0.2863  0.0632  0.2403
  110ccc    H29 5096   1.010   9.118   7.608  0.4733  1.6392  1.4819
  110ccc    C19 5097   0.802   8.928   7.635 -0.8406  0.2144  0.2521
  110ccc    C20 5098   0.885   8.818   7.571 -0.0002 -0.3417 -1.0293
  110ccc    C21 5099   1.007   8.879   7.504  0.2838  0.0404 -0.3660
  110ccc    H30 5100   0.923   8.756   7.654  0.7439  1.7467  0.2774
  110ccc    H31 5101   0.778   8.997   7.553  1.2843 -0.6011 -1.1499
  110ccc    H32 5102   0.979   8.962   7.438  2.2228 -0.9072 -2.4998
  110ccc    O10 5103   1.098   8.788   7.437  0.2972 -0.3598 -0.6785
  110ccc    O11 5104   0.692   8.875   7.703  0.3295 -0.2551  0.1294
  110ccc    C22 5105   1.123   9.106   7.788  0.0246 -0.7183 -0.4104
  110ccc    H33 5106   0.630   8.832   7.641 -1.5804  0.1862  1.6216
  110ccc    H34 5107   0.765   8.653   7.536 -0.7524 -1.0041 -0.5617
  110ccc    H35 5108   1.069   9.175   7.854  0.3106 -1.7032  0.9136
  110ccc    H36 5109   1.197   9.167   7.735  1.1586 -1.9315 -0.2779
  110ccc    O12 5110   1.185   9.012   7.885 -0.1517  0.0903  0.1876
  110ccc    H37 5111   1.279   9.035   7.889 -0.1683  0.1605  0.1752
  110ccc    O13 5112   1.086   8.926   7.615 -0.3904 -0.0540  0.1685
  110ccc    H38 5113   1.185   8.831   7.440  0.2876 -0.3778  0.3412
  110ccc    H39 5114   0.886   8.917   7.814 -3.5713 -1.5047 -1.2918
  110ccc     O5 5115   0.819   9.105   7.800  0.2097 -0.6044  0.3977
  110ccc    H40 5116   0.746   9.129   7.740  1.1405  2.2879  0.2327
  110ccc     N4 5117   0.803   8.733   7.486 -0.2136 -0.8464  0.0803
  111ccc     N1 5118   1.247   8.733   7.188 -0.3881  0.2489  0.2898
  111ccc     H4 5119   1.189   8.724   7.271 -0.5689 -1.1340  0.0449
  111ccc     C3 5120   1.393   8.751   7.193  0.3673 -0.6387  0.9357
  111ccc     H5 5121   1.445   8.674   7.134  0.5041  1.8136 -2.4962
  111ccc     C4 5122   1.460   8.756   7.330 -0.1248  0.1599 -0.1167
  111ccc     H6 5123   1.409   8.845   7.139 -0.8124 -1.2441 -0.5534
  111ccc     H7 5124   1.566   8.783   7.328 -0.4164  1.4383  0.6599
  111ccc     H8 5125   1.453   8.653   7.369  0.7028  0.4710  0.8737
  111ccc     N2 5126   1.390   8.849   7.422 -0.2580  0.3191 -0.4989
  111ccc     C5 5127   1.408   8.826   7.567 -0.3008 -0.2157  0.9791
  111ccc     C6 5128   1.432   8.984   7.392  0.2328 -0.3059 -0.5632
  111ccc     H9 5129   1.535   9.004   7.426 -0.6049  1.5923  1.0532
  111ccc     C7 5130   1.353   9.094   7.465  0.2068 -0.3854  0.4880
  111ccc    H10 5131   1.440   9.013   7.287  2.0149 -0.2006 -0.4396
  111ccc    H11 5132   1.387   9.103   7.569 -1.3167 -1.8507  1.1705
  111ccc    H12 5133   1.246   9.069   7.467 -0.2042  1.2545  0.0144
  111ccc     C8 5134   1.358   9.232   7.396 -0.2870  0.3551  0.4971
  111ccc     O2 5135   1.278   9.252   7.302  0.0026  0.2877 -0.4342
  111ccc    H13 5136   1.372   8.912   7.626  1.9957  0.4112  1.5729
  111ccc    H14 5137   1.517   8.819   7.577 -0.4563 -1.0258  2.3529
  111ccc     C9 5138   1.357   8.693   7.617  0.7348  0.0222 -0.7512
  111ccc    H15 5139   1.418   8.607   7.588  0.3513 -0.5992  0.2511
  111ccc    H16 5140   1.250   8.678   7.601  0.9353 -0.1776 -2.0403
  111ccc    C10 5141   1.376   8.688   7.772  0.1278  0.0752 -0.1379
  111ccc     O4 5142   1.451   8.756   7.839 -0.4613 -0.2386  0.1651
  111ccc    C11 5143   1.508   9.647   7.152  0.1756  0.0682 -0.4262
  111ccc    C12 5144   1.397   9.669   7.259 -0.4397 -0.2874  0.1050
  111ccc    H17 5145   1.451   9.599   7.073 -1.3487 -0.3141  0.8518
  111ccc    C13 5146   1.355   9.538   7.328 -0.1850 -0.3432  0.1124
  111ccc    C14 5147   1.477   9.455   7.375  0.7875 -0.4351  0.2547
  111ccc    C15 5148   1.567   9.435   7.258  0.4120  0.7119  0.5020
  111ccc    H18 5149   1.542   9.515   7.440  0.3892  0.8424 -0.4903
  111ccc    H19 5150   1.297   9.480   7.255  2.7543 -1.2158 -1.6681
  111ccc    H20 5151   1.510   9.397   7.172  2.3175  1.9374 -1.4076
  111ccc     O1 5152   1.685   9.368   7.278  0.2362  0.2632 -0.2792
  111ccc     O6 5153   1.276   9.574   7.443  0.3301 -0.4086  0.4881
  111ccc    C16 5154   1.574   9.781   7.111 -0.1191  0.4388  0.3149
  111ccc    H21 5155   1.244   9.489   7.478  0.1945 -0.6921 -0.2951
  111ccc    H22 5156   1.531   9.292   7.497  1.8804  0.5591 -1.4266
  111ccc    H23 5157   1.627   9.826   7.196  1.2841  0.3675 -0.5035
  111ccc    H24 5158   1.489   9.846   7.086 -0.4930  0.0915  0.6775
  111ccc     O7 5159   1.659   9.769   6.999  0.2664 -0.4025 -0.2126
  111ccc    H25 5160   1.752   9.752   7.019  0.1717 -0.5622  0.0961
  111ccc     O8 5161   1.614   9.561   7.212  0.1872 -0.2409 -0.0521
  111ccc    H26 5162   1.752   9.415   7.225  1.3162 -1.5198 -0.5790
  111ccc    H27 5163   1.437   9.721   7.347  0.6457 -1.7838  0.5242
  111ccc     O9 5164   1.281   9.739   7.197 -0.3539 -0.4639 -0.4946
  111ccc    H28 5165   1.219   9.747   7.272  0.3086 -1.7196  0.2320
  111ccc     N3 5166   1.448   9.324   7.448  0.7585  0.5805  0.3674
  111ccc    C17 5167   1.264   8.636   8.267  0.4329 -0.6375 -0.2463
  111ccc    C18 5168   1.132   8.668   8.184 -0.2256  0.2661  0.5808
  111ccc    H29 5169   1.315   8.734   8.267  0.6746 -0.7624  0.6426
  111ccc    C19 5170   1.175   8.704   8.041 -0.3878 -0.6009  0.1369
  111ccc    C20 5171   1.257   8.589   7.976 -0.3794 -0.0876 -0.2555
  111ccc    C21 5172   1.385   8.561   8.057  0.4155  0.5614 -0.3921
  111ccc    H30 5173   1.198   8.497   7.985 -0.1881 -0.0260  2.3626
  111ccc    H31 5174   1.236   8.795   8.039  0.0503 -0.9103 -1.1867
  111ccc    H32 5175   1.459   8.639   8.041 -0.0111  1.1407  0.4076
  111ccc    O10 5176   1.434   8.438   8.011  0.1439  0.1088  0.2997
  111ccc    O11 5177   1.059   8.720   7.970 -0.2009  0.1443  0.6539
  111ccc    C22 5178   1.234   8.579   8.404  0.3456 -0.5494 -1.0224
  111ccc    H33 5179   1.091   8.751   7.884  0.3419 -1.6969  0.1435
  111ccc    H34 5180   1.209   8.579   7.766  0.5060 -3.4189 -0.0356
  111ccc    H35 5181   1.193   8.662   8.463  1.6945  1.4971 -2.8130
  111ccc    H36 5182   1.326   8.544   8.451 -0.1001 -0.6108 -0.1675
  111ccc    O12 5183   1.145   8.469   8.393  0.4075 -0.1521  0.0246
  111ccc    H37 5184   1.085   8.480   8.470  0.1499 -0.4269 -0.1371
  111ccc    O13 5185   1.339   8.535   8.199 -0.0989 -0.1877  0.8069
  111ccc    H38 5186   1.504   8.423   8.077 -0.5799  1.2342  1.3570
  111ccc    H39 5187   1.062   8.584   8.185 -1.9228  1.6137 -0.2219
  111ccc     O5 5188   1.064   8.781   8.242 -0.5808 -0.1952  0.3832
  111ccc    H40 5189   0.981   8.782   8.192 -1.2050  0.7796  1.3960
  111ccc     N4 5190   1.285   8.607   7.828 -0.3300 -0.5606 -0.1485
  112ccc     N1 5191   1.111   7.285   7.607  0.0583 -1.1123  0.0450
  112ccc     H4 5192   1.064   7.326   7.686 -0.0483 -1.6692  0.2714
  112ccc     C3 5193   1.077   7.141   7.579 -0.9064  0.2239 -0.7548
  112ccc     H5 5194   0.971   7.131   7.552 -1.1103 -2.0819  0.6669
  112ccc     C4 5195   1.111   7.041   7.694 -0.1259  0.5097  0.0611
  112ccc     H6 5196   1.124   7.110   7.485 -2.0111  0.8012 -1.5188
  112ccc     H7 5197   1.084   6.937   7.673  1.7396 -0.4835  2.1161
  112ccc     H8 5198   1.045   7.082   7.771  1.9265 -0.8536  2.6965
  112ccc     N2 5199   1.249   7.052   7.742 -0.1141  0.3990 -0.0633
  112ccc     C5 5200   1.345   6.997   7.644 -0.3210 -0.3428 -0.4282
  112ccc     C6 5201   1.260   6.992   7.875  0.3057 -0.1414  0.3549
  112ccc     H9 5202   1.199   6.902   7.881  2.6121 -1.6853  1.8295
  112ccc     C7 5203   1.232   7.098   7.981  1.0042  0.3543 -0.0371
  112ccc    H10 5204   1.362   6.958   7.895 -0.1064 -2.2349 -0.8592
  112ccc    H11 5205   1.145   7.159   7.955  1.0154  0.8690  1.0904
  112ccc    H12 5206   1.315   7.170   7.984 -0.7414  2.4409  1.9128
  112ccc     C8 5207   1.198   7.041   8.113 -0.7381  0.1198 -0.2388
  112ccc     O2 5208   1.281   7.026   8.202 -0.4459 -0.4081  0.2987
  112ccc    H13 5209   1.309   7.017   7.542  0.7252  1.0437 -0.5659
  112ccc    H14 5210   1.354   6.888   7.650  1.2042 -0.3429 -1.7831
  112ccc     C9 5211   1.483   7.057   7.666 -0.3510  0.0852  0.1470
  112ccc    H15 5212   1.538   7.013   7.750 -2.0525  0.1896  1.3644
  112ccc    H16 5213   1.473   7.164   7.689 -2.9220  0.3311 -1.5948
  112ccc    C10 5214   1.561   7.033   7.540 -0.9430  0.5531  0.0972
  112ccc     O4 5215   1.573   6.925   7.477 -0.1812 -0.3895 -0.3182
  112ccc    C11 5216   1.028   6.908   8.567 -0.3474 -0.0534  0.2222
  112ccc    C12 5217   0.960   7.040   8.522  0.1805 -0.6467  0.0950
  112ccc    H17 5218   1.123   6.934   8.614 -1.6811  2.2285  1.9147
  112ccc    C13 5219   1.013   7.078   8.385  0.2160  0.0520 -0.5003
  112ccc    C14 5220   1.012   6.967   8.277 -0.3216  1.0762 -1.0571
  112ccc    C15 5221   1.094   6.851   8.336  0.4450  0.2246  1.0020
  112ccc    H18 5222   0.910   6.927   8.271 -0.0919  0.4897 -1.1296
  112ccc    H19 5223   1.120   7.094   8.402  0.5722  1.9261 -3.6497
  112ccc    H20 5224   1.199   6.880   8.354  0.7877 -0.0859 -0.4267
  112ccc     O1 5225   1.081   6.745   8.244  0.2879  0.3854 -0.1597
  112ccc     O6 5226   0.959   7.200   8.340  0.9743 -0.4250  0.0764
  112ccc    C16 5227   0.951   6.826   8.677  0.3429  0.1276  0.3612
  112ccc    H21 5228   1.032   7.260   8.316  0.0323  1.2567  1.2161
  112ccc    H22 5229   0.995   7.044   8.071 -0.4337  0.9520  0.2141
  112ccc    H23 5230   0.938   6.892   8.764 -2.3101  3.0408 -1.9885
  112ccc    H24 5231   1.002   6.731   8.697  2.0047  0.6068 -1.2865
  112ccc     O7 5232   0.825   6.788   8.616 -0.0412 -0.1181  0.2282
  112ccc    H25 5233   0.838   6.795   8.520  0.2011  1.4159  0.3473
  112ccc     O8 5234   1.030   6.815   8.454  0.9636 -0.4045 -0.8722
  112ccc    H26 5235   1.130   6.671   8.284 -1.2635 -0.3651  0.4548
  112ccc    H27 5236   0.852   7.023   8.512  0.2630 -0.5693 -1.0110
  112ccc     O9 5237   1.000   7.143   8.617  0.3924 -0.2314  0.2278
  112ccc    H28 5238   1.066   7.202   8.575  1.5465 -1.3840  0.3714
  112ccc     N3 5239   1.068   7.014   8.136 -0.1618 -0.4978 -0.7189
  112ccc    C17 5240   2.030   7.219   7.323  0.3409 -0.1717  0.7450
  112ccc    C18 5241   2.017   7.093   7.410 -0.4917 -0.3565 -0.2308
  112ccc    H29 5242   2.061   7.301   7.390 -2.5000  2.0103 -0.3727
  112ccc    C19 5243   1.897   7.078   7.499  0.0147  0.4308 -0.3986
  112ccc    C20 5244   1.772   7.122   7.425  0.6633  0.3461  0.6822
  112ccc    C21 5245   1.794   7.262   7.361 -0.6559  0.1530 -0.3930
  112ccc    H30 5246   1.751   7.043   7.352  0.4665  0.8671  0.1739
  112ccc    H31 5247   1.905   7.134   7.593  2.0101  0.2611 -0.4276
  112ccc    H32 5248   1.826   7.337   7.433  0.2755 -0.8290  0.2482
  112ccc    O10 5249   1.677   7.296   7.285  0.3945  0.4353  0.0250
  112ccc    O11 5250   1.884   6.938   7.532 -0.3754  0.0017  0.0877
  112ccc    C22 5251   2.132   7.200   7.207 -0.0111  0.3711  0.3097
  112ccc    H33 5252   1.789   6.920   7.541 -0.5190  0.8774  0.4897
  112ccc    H34 5253   1.648   7.216   7.565 -3.9772  0.4203 -0.7790
  112ccc    H35 5254   2.226   7.158   7.245 -0.4023 -0.7097  0.1176
  112ccc    H36 5255   2.157   7.299   7.168 -0.9824  0.4253 -0.2060
  112ccc    O12 5256   2.071   7.117   7.107 -0.3172 -0.5419 -0.9422
  112ccc    H37 5257   1.976   7.125   7.128 -0.2445 -1.0154 -0.4199
  112ccc    O13 5258   1.897   7.248   7.264 -0.6170 -0.1203  0.5091
  112ccc    H38 5259   1.625   7.362   7.335  0.0749  0.5766 -0.4927
  112ccc    H39 5260   2.016   7.012   7.336 -0.7964  1.6966 -2.5708
  112ccc     O5 5261   2.141   7.086   7.488 -0.0564 -0.6246  0.4128
  112ccc    H40 5262   2.153   6.995   7.522  1.8245 -0.4031  0.4527
  112ccc     N4 5263   1.656   7.127   7.517  0.2965  0.4258 -0.4390
  113ccc     N1 5264   1.161   7.587   8.265  0.3041 -0.1340  0.4124
  113ccc     H4 5265   1.152   7.671   8.208 -1.6076  0.0604  0.9269
  113ccc     C3 5266   1.186   7.604   8.407 -0.2733 -0.1583 -0.4670
  113ccc     H5 5267   1.261   7.533   8.443  0.5755  1.6765  1.6163
  113ccc     C4 5268   1.058   7.582   8.493  0.0619 -0.4939  0.1796
  113ccc     H6 5269   1.232   7.702   8.424  0.9546 -0.4370 -2.0100
  113ccc     H7 5270   1.079   7.597   8.599  1.0194 -0.4819 -0.0078
  113ccc     H8 5271   1.031   7.476   8.481  1.2489 -0.6283 -1.8398
  113ccc     N2 5272   0.943   7.662   8.450  0.7103  0.6738 -0.1727
  113ccc     C5 5273   0.957   7.808   8.463 -0.4654  0.4721 -0.1965
  113ccc     C6 5274   0.818   7.604   8.500  0.3129 -0.1896  0.8195
  113ccc     H9 5275   0.730   7.643   8.446  1.2289 -0.5586 -1.0275
  113ccc     C7 5276   0.796   7.609   8.651 -0.0892  0.7124 -0.0403
  113ccc    H10 5277   0.818   7.498   8.473  0.1286 -0.4035  1.6635
  113ccc    H11 5278   0.795   7.713   8.686  0.2482  0.8026 -0.2884
  113ccc    H12 5279   0.873   7.546   8.698  0.1259  0.8118 -0.2587
  113ccc     C8 5280   0.663   7.548   8.686  0.0869  0.1855 -0.0313
  113ccc     O2 5281   0.575   7.508   8.616  0.6487 -0.2377  0.3108
  113ccc    H13 5282   1.045   7.849   8.413 -0.7245 -1.8503 -2.7841
  113ccc    H14 5283   0.971   7.842   8.567 -0.0971 -0.2992  0.0170
  113ccc     C9 5284   0.836   7.882   8.413  0.0598  0.3026  0.7406
  113ccc    H15 5285   0.850   7.990   8.411  0.5454  0.2351  0.5512
  113ccc    H16 5286   0.745   7.858   8.470 -0.4077  0.5049  0.0869
  113ccc    C10 5287   0.811   7.853   8.273 -0.4823  0.8774  0.5070
  113ccc     O4 5288   0.891   7.817   8.187 -0.5107 -0.0495 -0.4145
  113ccc    C11 5289   0.217   7.498   8.890  0.4976 -0.4996  0.1516
  113ccc    C12 5290   0.307   7.383   8.932 -0.4089  0.1351 -0.2638
  113ccc    H17 5291   0.202   7.503   8.782  1.6993  2.5475  0.0219
  113ccc    C13 5292   0.452   7.399   8.875 -0.0173  0.4098  0.3874
  113ccc    C14 5293   0.506   7.542   8.887 -0.6200  0.2839  0.0382
  113ccc    C15 5294   0.400   7.648   8.845 -0.2614 -0.0278  0.6707
  113ccc    H18 5295   0.519   7.557   8.995  3.2363 -1.5657 -0.0100
  113ccc    H19 5296   0.443   7.373   8.769 -1.8116 -0.6456  0.7495
  113ccc    H20 5297   0.374   7.636   8.739  1.2743 -0.8152  0.3532
  113ccc     O1 5298   0.446   7.778   8.866 -0.3961 -0.4007  0.1772
  113ccc     O6 5299   0.542   7.307   8.941  0.3552 -0.0143 -0.2402
  113ccc    C16 5300   0.083   7.504   8.974  0.5791 -0.4985  0.3122
  113ccc    H21 5301   0.618   7.297   8.881  1.4567 -2.3251  1.4172
  113ccc    H22 5302   0.712   7.603   8.879 -0.5952  0.4724 -0.3576
  113ccc    H23 5303   0.106   7.518   9.080  0.2578  0.9280  0.2127
  113ccc    H24 5304   0.041   7.405   8.950 -0.3191 -0.1758  0.5291
  113ccc     O7 5305  -0.005   7.598   8.918 -0.7082  0.7733 -0.2490
  113ccc    H25 5306  -0.082   7.596   8.977  0.5479 -0.6214  1.4314
  113ccc     O8 5307   0.283   7.625   8.926  0.4150 -0.3250 -0.1782
  113ccc    H26 5308   0.474   7.784   8.958  0.3960 -1.2310  0.0021
  113ccc    H27 5309   0.312   7.392   9.041  0.6377  0.0008 -0.2839
  113ccc     O9 5310   0.257   7.257   8.888 -0.3873 -0.3516 -0.0383
  113ccc    H28 5311   0.312   7.194   8.936 -0.5975 -0.0166  0.6629
  113ccc     N3 5312   0.639   7.564   8.819 -0.2177 -0.1012 -0.4462
  113ccc    C17 5313   0.467   7.542   8.027  1.0193 -0.3804 -0.5891
  113ccc    C18 5314   0.417   7.686   7.997  0.1441  0.7501 -0.5262
  113ccc    H29 5315   0.421   7.507   8.120 -1.4392 -0.5708 -1.7874
  113ccc    C19 5316   0.480   7.780   8.104 -0.6049  0.0557  0.3625
  113ccc    C20 5317   0.634   7.763   8.126 -0.4394  1.3323  0.2725
  113ccc    C21 5318   0.663   7.610   8.145 -0.5678  0.1645 -0.0665
  113ccc    H30 5319   0.681   7.797   8.033  2.8252 -0.9939  0.8990
  113ccc    H31 5320   0.436   7.755   8.201  0.4592  2.0634  1.4364
  113ccc    H32 5321   0.616   7.574   8.238  0.5550 -1.9661 -0.2606
  113ccc    O10 5322   0.800   7.567   8.138  0.0303 -0.3039  0.4126
  113ccc    O11 5323   0.452   7.915   8.064  0.2552 -0.1156 -0.4887
  113ccc    C22 5324   0.427   7.436   7.920 -0.2510  0.0425 -1.1261
  113ccc    H33 5325   0.469   7.977   8.137  0.7048 -0.2818 -0.4530
  113ccc    H34 5326   0.615   7.833   8.321  0.1480 -0.7719  0.2552
  113ccc    H35 5327   0.318   7.444   7.911 -0.3218  1.5894  0.3916
  113ccc    H36 5328   0.466   7.335   7.942  2.9642  1.1812 -1.1006
  113ccc    O12 5329   0.494   7.471   7.803 -0.0108  0.4609  0.1084
  113ccc    H37 5330   0.580   7.425   7.812 -0.3605 -0.2092  0.1190
  113ccc    O13 5331   0.610   7.540   8.040  0.4180  1.0061 -0.1109
  113ccc    H38 5332   0.844   7.631   8.197  0.9310  0.5464 -1.1129
  113ccc    H39 5333   0.453   7.720   7.899  1.5745  1.3349  0.1674
  113ccc     O5 5334   0.277   7.688   8.014  0.2881  0.8924  0.2526
  113ccc    H40 5335   0.252   7.777   8.046 -2.5740  0.1153  0.3970
  113ccc     N4 5336   0.680   7.844   8.244 -0.0683 -0.3436  0.1268
  114ccc     N1 5337  -0.251   7.939   6.132 -0.0717 -0.0248 -0.2144
  114ccc     H4 5338  -0.257   8.000   6.213 -0.4208 -0.1460 -0.1466
  114ccc     C3 5339  -0.292   7.970   5.989  0.2751  0.0382 -0.6949
  114ccc     H5 5340  -0.346   8.065   5.988 -1.4711 -0.9189 -1.9907
  114ccc     C4 5341  -0.370   7.851   5.920 -0.6737 -0.5458  0.2300
  114ccc     H6 5342  -0.197   7.985   5.936  0.3305 -0.8088 -0.8462
  114ccc     H7 5343  -0.308   7.761   5.934  1.1666  0.5857 -0.1741
  114ccc     H8 5344  -0.372   7.870   5.812  1.0432 -0.1447  0.2354
  114ccc     N2 5345  -0.512   7.824   5.968 -0.0655 -0.6048 -0.0187
  114ccc     C5 5346  -0.603   7.935   5.932 -0.8646  0.0234 -0.1720
  114ccc     C6 5347  -0.563   7.706   5.902  0.0662 -0.2379  0.4611
  114ccc     H9 5348  -0.672   7.695   5.903 -0.1234  1.1017 -1.2945
  114ccc     C7 5349  -0.503   7.580   5.961 -0.0495  0.1694  0.0967
  114ccc    H10 5350  -0.537   7.721   5.797  1.5881  2.6193  1.1378
  114ccc    H11 5351  -0.570   7.552   6.043 -2.4708 -0.6609 -2.0510
  114ccc    H12 5352  -0.398   7.590   5.993 -0.3345 -1.9259  1.9418
  114ccc     C8 5353  -0.498   7.473   5.852 -0.7357 -0.4342 -0.8942
  114ccc     O2 5354  -0.593   7.430   5.796 -0.0695  0.1916  0.5642
  114ccc    H13 5355  -0.645   7.934   5.830 -1.2072 -0.1760 -0.0304
  114ccc    H14 5356  -0.554   8.032   5.945  1.4544 -0.8781 -1.6460
  114ccc     C9 5357  -0.718   7.929   6.036  0.7936  0.9624 -0.0410
  114ccc    H15 5358  -0.679   7.937   6.138  0.8271 -0.9589  0.1420
  114ccc    H16 5359  -0.767   7.831   6.041 -1.5804  2.0658 -0.3128
  114ccc    C10 5360  -0.815   8.046   6.018 -0.0120  0.0723  0.3013
  114ccc     O4 5361  -0.792   8.143   5.944 -0.1365  0.0566  0.7850
  114ccc    C11 5362  -0.372   7.326   5.398 -0.9827  0.3951 -0.3037
  114ccc    C12 5363  -0.323   7.472   5.430 -0.1354 -0.0198 -0.6274
  114ccc    H17 5364  -0.480   7.322   5.381 -1.3832  0.3597  1.9236
  114ccc    C13 5365  -0.373   7.515   5.572 -0.0105  0.1513 -0.4259
  114ccc    C14 5366  -0.341   7.407   5.674 -0.7708  0.4297 -0.6647
  114ccc    C15 5367  -0.413   7.278   5.634 -0.0904 -0.1611 -0.5559
  114ccc    H18 5368  -0.234   7.384   5.677 -0.8105  0.3364  0.6390
  114ccc    H19 5369  -0.482   7.524   5.566 -0.2685 -0.0831  2.5272
  114ccc    H20 5370  -0.520   7.288   5.615  0.2461  1.2409 -1.9882
  114ccc     O1 5371  -0.376   7.166   5.717  0.3122 -0.0893 -0.2456
  114ccc     O6 5372  -0.325   7.640   5.617  0.1960 -0.3207  0.6558
  114ccc    C16 5373  -0.291   7.267   5.273  0.3169 -0.2444  0.3417
  114ccc    H21 5374  -0.363   7.710   5.562  0.2984  0.5114  1.6066
  114ccc    H22 5375  -0.299   7.502   5.854 -0.8510  1.1656 -0.6979
  114ccc    H23 5376  -0.210   7.207   5.316  0.0548 -1.6924 -1.0919
  114ccc    H24 5377  -0.250   7.350   5.214  1.1456 -0.5915  0.4185
  114ccc     O7 5378  -0.377   7.182   5.208 -0.1561  0.4465 -0.1049
  114ccc    H25 5379  -0.414   7.124   5.278 -1.6924 -0.8604 -1.9039
  114ccc     O8 5380  -0.344   7.247   5.512 -0.0119  0.3002 -0.1544
  114ccc    H26 5381  -0.366   7.097   5.650 -0.0190  0.6379 -1.0666
  114ccc    H27 5382  -0.214   7.482   5.419  0.0095  0.4341  1.0184
  114ccc     O9 5383  -0.390   7.561   5.341  0.7878  0.3940 -1.0628
  114ccc    H28 5384  -0.348   7.646   5.359  2.7151 -1.0826  2.2196
  114ccc     N3 5385  -0.373   7.445   5.813  0.2385 -0.2718 -0.7191
  114ccc    C17 5386  -1.285   7.903   6.228 -0.1525 -0.0020  0.3921
  114ccc    C18 5387  -1.245   7.899   6.071  0.1160  0.0363  0.6370
  114ccc    H29 5388  -1.322   8.002   6.258 -2.1405 -0.9648  1.3055
  114ccc    C19 5389  -1.128   8.000   6.044  0.2973  0.0563 -0.0740
  114ccc    C20 5390  -1.010   7.970   6.144 -1.0170 -0.3820 -0.1410
  114ccc    C21 5391  -1.064   7.974   6.291  0.0610  1.1873 -0.0691
  114ccc    H30 5392  -0.974   7.868   6.122 -0.2408  0.1411 -1.3842
  114ccc    H31 5393  -1.164   8.101   6.063 -0.4263 -0.1703 -0.1982
  114ccc    H32 5394  -1.114   8.067   6.322 -1.2029 -0.2413  2.5171
  114ccc    O10 5395  -0.970   7.929   6.384 -0.2197 -0.0527 -0.2047
  114ccc    O11 5396  -1.090   7.994   5.908  0.5914 -0.6269 -0.2442
  114ccc    C22 5397  -1.397   7.803   6.264 -0.3298  0.3582  0.3336
  114ccc    H33 5398  -1.059   7.903   5.893  2.8219  0.1013 -0.4555
  114ccc    H34 5399  -0.934   8.164   6.127 -0.0804  0.0908  1.1442
  114ccc    H35 5400  -1.367   7.698   6.253  1.0363  0.5092  2.1903
  114ccc    H36 5401  -1.490   7.813   6.206 -0.6001  1.1903  0.8957
  114ccc    O12 5402  -1.439   7.825   6.402  0.0704  0.3697  0.1240
  114ccc    H37 5403  -1.429   7.919   6.424  0.5242  0.7529 -1.6095
  114ccc    O13 5404  -1.163   7.873   6.300 -0.2726 -0.0532  0.1554
  114ccc    H38 5405  -1.014   7.845   6.406  1.8150 -1.1799 -0.1743
  114ccc    H39 5406  -1.224   7.795   6.046  2.7929  0.2519  1.6500
  114ccc     O5 5407  -1.361   7.942   5.997  0.3708  0.7085 -0.0440
  114ccc    H40 5408  -1.342   7.941   5.902  1.7938 -1.5651  0.1916
  114ccc     N4 5409  -0.899   8.069   6.120 -0.3634  0.0544 -0.0243
  115ccc     N1 5410  -0.286   7.892   6.698 -0.0297  0.1285 -0.1172
  115ccc     H4 5411  -0.332   7.834   6.628  0.5873 -0.5099 -0.0076
  115ccc     C3 5412  -0.333   8.026   6.734 -0.4026 -0.7320  0.2214
  115ccc     H5 5413  -0.293   8.058   6.831  0.6703 -1.3176 -0.0090
  115ccc     C4 5414  -0.473   8.057   6.711 -0.2690  0.3897  0.0796
  115ccc     H6 5415  -0.271   8.081   6.662  0.7122 -2.3597 -0.1194
  115ccc     H7 5416  -0.535   7.991   6.773 -0.0511  0.4280  0.3392
  115ccc     H8 5417  -0.473   8.034   6.603  1.4703 -0.2700  0.1903
  115ccc     N2 5418  -0.513   8.192   6.744 -0.1629 -0.0372 -0.5380
  115ccc     C5 5419  -0.425   8.300   6.687 -0.4416  0.1562  0.1518
  115ccc     C6 5420  -0.656   8.216   6.751 -0.0176  0.2608 -0.0861
  115ccc     H9 5421  -0.697   8.195   6.652 -0.2907  0.5381 -0.0344
  115ccc     C7 5422  -0.698   8.358   6.791 -0.2261  0.6066  0.6729
  115ccc    H10 5423  -0.698   8.140   6.818 -1.1989  0.4041 -0.6325
  115ccc    H11 5424  -0.665   8.431   6.716 -0.1519 -1.0598 -0.9952
  115ccc    H12 5425  -0.657   8.387   6.889 -0.8844 -1.7560  1.7263
  115ccc     C8 5426  -0.846   8.358   6.802 -0.2908 -0.1739  0.4840
  115ccc     O2 5427  -0.918   8.264   6.770 -0.0782  0.7006 -1.0066
  115ccc    H13 5428  -0.489   8.372   6.634  0.0054  1.2246  1.0296
  115ccc    H14 5429  -0.357   8.259   6.610 -0.5890  0.7252 -0.2900
  115ccc     C9 5430  -0.333   8.357   6.794 -0.0938  0.9799  0.1397
  115ccc    H15 5431  -0.256   8.279   6.793 -2.6402 -1.7617 -2.3129
  115ccc    H16 5432  -0.389   8.384   6.884 -0.1548 -0.1090  0.4367
  115ccc    C10 5433  -0.286   8.496   6.756  0.4233  0.6391 -0.5530
  115ccc     O4 5434  -0.356   8.598   6.771 -0.6082 -0.3650  0.2614
  115ccc    C11 5435  -1.315   8.473   6.862  0.3457 -1.0450 -0.2080
  115ccc    C12 5436  -1.249   8.489   7.003 -0.7442  0.6615 -0.1139
  115ccc    H17 5437  -1.304   8.373   6.820  0.4197 -1.0771 -0.1139
  115ccc    C13 5438  -1.114   8.422   6.991 -0.0534 -0.0956 -0.1001
  115ccc    C14 5439  -1.034   8.500   6.877  0.3106 -0.0801 -0.7324
  115ccc    C15 5440  -1.118   8.508   6.745  0.6178  0.2002  0.4631
  115ccc    H18 5441  -1.026   8.607   6.898  0.8805  0.0235 -1.4471
  115ccc    H19 5442  -1.122   8.320   6.952  1.6200 -0.5840  0.7325
  115ccc    H20 5443  -1.133   8.405   6.709 -1.0316 -0.7737  3.4807
  115ccc     O1 5444  -1.063   8.590   6.641 -0.5072  0.1911 -0.1547
  115ccc     O6 5445  -1.049   8.428   7.120 -0.7960 -0.7119 -0.1907
  115ccc    C16 5446  -1.456   8.533   6.866 -0.2809 -0.1620 -0.4456
  115ccc    H21 5447  -1.121   8.410   7.183  1.2299 -1.9854  1.9562
  115ccc    H22 5448  -0.833   8.542   6.874 -1.0152 -0.2707  1.1454
  115ccc    H23 5449  -1.521   8.486   6.940  1.3146  0.7183  1.6024
  115ccc    H24 5450  -1.504   8.516   6.769 -1.2402  2.3299 -0.4839
  115ccc     O7 5451  -1.448   8.675   6.888 -0.6212  0.1609 -0.3845
  115ccc    H25 5452  -1.364   8.698   6.844  0.3451 -0.1610  1.1820
  115ccc     O8 5453  -1.249   8.554   6.770  0.5014 -0.7258  0.7416
  115ccc    H26 5454  -0.969   8.563   6.640 -0.9278 -1.6103  1.3803
  115ccc    H27 5455  -1.231   8.596   7.015 -0.2915  0.4418  1.3563
  115ccc     O9 5456  -1.323   8.430   7.109 -0.3649  0.3828 -0.0251
  115ccc    H28 5457  -1.372   8.508   7.142  2.0506  2.0194 -0.0036
  115ccc     N3 5458  -0.896   8.465   6.850 -0.1091 -0.6909  0.0059
  115ccc    C17 5459   0.159   8.769   6.591 -0.0079  0.1997  0.4121
  115ccc    C18 5460   0.049   8.726   6.483  0.2361 -0.3311  0.2635
  115ccc    H29 5461   0.243   8.698   6.591  0.5523  0.8556  0.0485
  115ccc    C19 5462  -0.025   8.597   6.529 -0.2730  0.0432 -0.1538
  115ccc    C20 5463  -0.089   8.619   6.672  0.2408  0.5032 -0.5662
  115ccc    C21 5464   0.027   8.654   6.768 -0.0202  0.4134 -0.1337
  115ccc    H30 5465  -0.155   8.707   6.681 -1.1334 -0.5481 -0.0112
  115ccc    H31 5466   0.052   8.520   6.541  2.1120  2.4749  1.3615
  115ccc    H32 5467   0.093   8.567   6.766  1.1872  1.2488 -2.8906
  115ccc    O10 5468  -0.021   8.687   6.892  0.1092 -0.2940  0.3048
  115ccc    O11 5469  -0.128   8.576   6.429  0.8051 -0.3022  0.1121
  115ccc    C22 5470   0.222   8.902   6.582 -0.4368 -0.0813  0.5748
  115ccc    H33 5471  -0.091   8.606   6.344 -1.3807  2.5315  0.0172
  115ccc    H34 5472  -0.114   8.407   6.709 -0.7345  0.3634 -0.8230
  115ccc    H35 5473   0.147   8.980   6.560  0.3476  0.6264  0.3391
  115ccc    H36 5474   0.291   8.906   6.496 -0.7572  1.8678  0.3633
  115ccc    O12 5475   0.302   8.925   6.692 -0.2882  0.1696  0.3338
  115ccc    H37 5476   0.261   8.885   6.771  0.1043 -0.8721  0.0318
  115ccc    O13 5477   0.090   8.770   6.719  0.5274  0.1253  0.3128
  115ccc    H38 5478  -0.097   8.628   6.903  0.6637 -0.9812  0.4994
  115ccc    H39 5479  -0.025   8.806   6.471 -0.7933 -0.9910  1.8323
  115ccc     O5 5480   0.102   8.707   6.351  0.1661 -0.0332  0.1016
  115ccc    H40 5481   0.177   8.647   6.369 -1.6284 -2.0736  1.0866
  115ccc     N4 5482  -0.159   8.498   6.721 -0.1901  0.5467 -0.0598
  116ccc     N1 5483   1.245   8.001   7.200  0.5273  0.5215  0.1694
  116ccc     H4 5484   1.167   8.031   7.144 -0.1607  1.8729  1.7772
  116ccc     C3 5485   1.257   8.042   7.342  0.1584  0.4175 -0.2440
  116ccc     H5 5486   1.170   7.999   7.393  1.2217  1.5173  2.6981
  116ccc     C4 5487   1.255   8.193   7.365 -0.0426  0.3085  0.5021
  116ccc     H6 5488   1.346   8.006   7.395 -1.6116 -2.5003  0.9678
  116ccc     H7 5489   1.198   8.248   7.289  1.5573  4.1482  1.8390
  116ccc     H8 5490   1.358   8.229   7.361 -0.7234  2.4625  0.8813
  116ccc     N2 5491   1.212   8.235   7.499 -0.6811 -0.3385 -0.7491
  116ccc     C5 5492   1.205   8.385   7.508  0.8076  0.3517 -0.0629
  116ccc     C6 5493   1.289   8.170   7.614  0.4808  0.0978  0.4242
  116ccc     H9 5494   1.257   8.065   7.608 -1.2336  0.5934  0.1750
  116ccc     C7 5495   1.224   8.219   7.744 -0.1884  0.5990  0.1203
  116ccc    H10 5496   1.395   8.195   7.605  0.0161  1.6933 -1.4778
  116ccc    H11 5497   1.115   8.214   7.727 -0.3221 -0.6396  1.1111
  116ccc    H12 5498   1.244   8.324   7.765 -2.2473  1.0969 -0.2171
  116ccc     C8 5499   1.263   8.141   7.868  0.5897  0.7086  0.0004
  116ccc     O2 5500   1.376   8.119   7.895 -0.2885 -0.5487 -0.3934
  116ccc    H13 5501   1.256   8.431   7.423 -0.2043  2.3395  0.3419
  116ccc    H14 5502   1.258   8.427   7.595  0.7227 -1.4644  0.9298
  116ccc     C9 5503   1.058   8.420   7.495  0.6187 -0.3403  0.7817
  116ccc    H15 5504   1.010   8.335   7.443  1.1175  0.7429 -1.6112
  116ccc    H16 5505   1.040   8.499   7.421 -0.1323 -2.6394 -1.6723
  116ccc    C10 5506   0.989   8.453   7.623 -0.0360 -0.3791 -0.2749
  116ccc     O4 5507   1.042   8.531   7.701  0.2873 -0.5191  0.2507
  116ccc    C11 5508   1.328   8.023   8.327  0.3899 -0.1930 -0.3755
  116ccc    C12 5509   1.248   8.159   8.312 -0.4731 -0.8775 -0.5579
  116ccc    H17 5510   1.428   8.034   8.283 -0.4406 -1.3692 -2.7223
  116ccc    C13 5511   1.236   8.203   8.166  0.1059  0.2929  0.2261
  116ccc    C14 5512   1.176   8.084   8.090  0.1102  0.0738  0.8256
  116ccc    C15 5513   1.235   7.943   8.120 -0.4604 -0.1506 -0.6572
  116ccc    H18 5514   1.075   8.070   8.131  0.1429 -1.1595  0.5084
  116ccc    H19 5515   1.334   8.215   8.118 -0.6126 -2.6348 -2.2542
  116ccc    H20 5516   1.337   7.940   8.080 -0.4924 -3.0606 -0.6858
  116ccc     O1 5517   1.143   7.842   8.080 -0.3823  0.2498  0.5105
  116ccc     O6 5518   1.157   8.318   8.151  0.3825  0.3160 -0.7583
  116ccc    C16 5519   1.332   7.979   8.477 -0.6139  0.0294 -0.1238
  116ccc    H21 5520   1.214   8.396   8.162  0.9571 -0.3069  1.0905
  116ccc    H22 5521   1.072   8.158   7.925  0.5220  1.0341 -0.4760
  116ccc    H23 5522   1.229   7.948   8.498 -1.3310 -0.2718 -3.5338
  116ccc    H24 5523   1.348   8.058   8.551 -1.1515  1.5093 -1.5351
  116ccc     O7 5524   1.422   7.870   8.505 -0.2196 -0.2856 -0.5782
  116ccc    H25 5525   1.432   7.876   8.602  0.9676  1.8755 -0.7721
  116ccc     O8 5526   1.251   7.926   8.258  0.3485  0.1579 -0.3568
  116ccc    H26 5527   1.058   7.852   8.126 -1.3448 -2.2720 -0.5720
  116ccc    H27 5528   1.148   8.152   8.358 -1.3225  2.0830 -1.7048
  116ccc     O9 5529   1.305   8.263   8.396  0.6053  0.2418  0.4079
  116ccc    H28 5530   1.239   8.330   8.374 -0.6893 -1.3381 -0.7922
  116ccc     N3 5531   1.162   8.116   7.949 -0.1118 -0.2284 -0.1849
  116ccc    C17 5532   0.746   8.539   8.028 -0.2231  0.0893 -0.8257
  116ccc    C18 5533   0.661   8.575   7.909  0.1487 -0.0611  0.1865
  116ccc    H29 5534   0.830   8.609   8.031  0.4779 -0.7093  2.1801
  116ccc    C19 5535   0.734   8.551   7.778 -0.3090 -0.2411 -0.3125
  116ccc    C20 5536   0.796   8.409   7.769 -0.3908  0.3287  0.2145
  116ccc    C21 5537   0.878   8.382   7.898 -0.5961  0.4008  0.1247
  116ccc    H30 5538   0.718   8.332   7.768 -1.2466  1.1625  1.0960
  116ccc    H31 5539   0.809   8.630   7.768 -0.9704  0.3914 -0.3532
  116ccc    H32 5540   0.958   8.456   7.904 -0.5930  0.3002  1.8935
  116ccc    O10 5541   0.910   8.242   7.911 -0.2406 -0.3333  0.0587
  116ccc    O11 5542   0.648   8.563   7.666  0.4677  0.4793 -0.0981
  116ccc    C22 5543   0.672   8.548   8.166  0.5132  0.6880 -0.4129
  116ccc    H33 5544   0.589   8.485   7.667  0.0028  0.8258 -0.2851
  116ccc    H34 5545   0.827   8.348   7.571 -1.2091  0.9311  0.6178
  116ccc    H35 5546   0.647   8.653   8.180  0.5105  0.8011 -1.2499
  116ccc    H36 5547   0.733   8.532   8.256  2.2125  1.3142 -1.4099
  116ccc    O12 5548   0.549   8.468   8.163 -0.1650  0.0770  0.1774
  116ccc    H37 5549   0.571   8.382   8.122 -1.4241 -0.1304 -0.1011
  116ccc    O13 5550   0.794   8.405   8.022 -0.1327  0.1758  0.1706
  116ccc    H38 5551   0.829   8.209   7.953 -1.3314  2.5763  0.5103
  116ccc    H39 5552   0.578   8.503   7.912 -0.4102  0.5688  3.3788
  116ccc     O5 5553   0.620   8.711   7.908  0.5416  0.0147  0.2029
  116ccc    H40 5554   0.573   8.719   7.823  3.6845 -0.5719 -1.7283
  116ccc     N4 5555   0.874   8.396   7.648  0.4369 -0.3784  0.4979
  117ccc     N1 5556   1.597   8.087   6.456  0.6600 -0.0558 -0.4059
  117ccc     H4 5557   1.648   8.116   6.539 -1.8696 -1.5955  1.8361
  117ccc     C3 5558   1.666   8.092   6.320  0.4451  0.0015 -0.3983
  117ccc     H5 5559   1.590   8.072   6.244 -0.8253 -1.1957  1.1002
  117ccc     C4 5560   1.781   7.990   6.294  0.3380 -0.2049 -0.5248
  117ccc     H6 5561   1.709   8.192   6.310  0.5254  0.7595  4.6825
  117ccc     H7 5562   1.856   8.007   6.372  0.1308 -3.7875  0.6231
  117ccc     H8 5563   1.816   8.001   6.191  2.4599 -0.6143  0.1037
  117ccc     N2 5564   1.739   7.849   6.304  0.2770  0.1107 -0.7252
  117ccc     C5 5565   1.669   7.800   6.180  0.3031  0.9991  0.6187
  117ccc     C6 5566   1.851   7.761   6.336 -0.2783 -0.1194 -0.0908
  117ccc     H9 5567   1.810   7.660   6.330 -2.3352  0.5614  1.3649
  117ccc     C7 5568   1.890   7.762   6.478  0.1232  0.5962 -0.1903
  117ccc    H10 5569   1.936   7.765   6.267  0.5558 -0.8792  0.8838
  117ccc    H11 5570   1.797   7.753   6.536  0.7533  1.1371  0.9385
  117ccc    H12 5571   1.949   7.851   6.502  2.2733 -0.5956 -0.7481
  117ccc     C8 5572   1.981   7.651   6.516  0.5184  0.2494  0.1962
  117ccc     O2 5573   2.033   7.575   6.434 -0.0062 -0.5252 -0.3039
  117ccc    H13 5574   1.741   7.751   6.114  1.1610  0.1322  2.1244
  117ccc    H14 5575   1.613   7.882   6.134 -0.4427 -0.3726 -1.0616
  117ccc     C9 5576   1.559   7.700   6.227  0.0320 -0.0957  0.4020
  117ccc    H15 5577   1.485   7.751   6.291  0.8002  1.6379 -0.0364
  117ccc    H16 5578   1.605   7.613   6.273 -0.8854 -0.0823  1.3921
  117ccc    C10 5579   1.480   7.660   6.106 -1.0713 -0.5415 -0.0625
  117ccc     O4 5580   1.482   7.708   5.995 -0.2915 -0.1872 -0.7124
  117ccc    C11 5581   2.320   7.353   6.697  0.2722 -0.3333 -0.8161
  117ccc    C12 5582   2.362   7.495   6.730 -0.4085  0.2166 -0.3803
  117ccc    H17 5583   2.341   7.334   6.591  2.0305  0.8513 -0.7098
  117ccc    C13 5584   2.256   7.597   6.671  0.2297 -0.6292  0.0820
  117ccc    C14 5585   2.112   7.556   6.712  0.4240  0.2821  0.3297
  117ccc    C15 5586   2.086   7.406   6.683  0.3412  0.0292 -0.1126
  117ccc    H18 5587   2.119   7.572   6.821 -0.0224 -0.6897  0.5183
  117ccc    H19 5588   2.257   7.594   6.562  2.4119  0.3958  0.0117
  117ccc    H20 5589   2.091   7.390   6.574  0.3569 -0.7544 -0.0029
  117ccc     O1 5590   1.968   7.351   6.740  0.0291  0.0574 -0.4243
  117ccc     O6 5591   2.290   7.726   6.716  0.0959  0.5379 -0.3966
  117ccc    C16 5592   2.395   7.243   6.778 -0.4695 -0.5625 -0.4147
  117ccc    H21 5593   2.245   7.791   6.659 -0.7319  0.3988  0.0894
  117ccc    H22 5594   1.959   7.717   6.703 -2.3419 -0.4301 -1.0301
  117ccc    H23 5595   2.371   7.272   6.881 -1.2375 -1.1375 -0.4132
  117ccc    H24 5596   2.502   7.262   6.763 -0.8730  3.1055  0.3795
  117ccc     O7 5597   2.368   7.102   6.742  0.1349 -0.6639 -0.4420
  117ccc    H25 5598   2.284   7.071   6.782 -0.3691 -0.0594 -1.0144
  117ccc     O8 5599   2.181   7.324   6.740 -0.4094  0.0665 -0.0661
  117ccc    H26 5600   1.894   7.414   6.738 -1.1211 -1.2165  0.4322
  117ccc    H27 5601   2.346   7.509   6.838 -2.1281  2.1352 -0.8345
  117ccc     O9 5602   2.492   7.515   6.675 -0.3911 -0.4104 -0.1847
  117ccc    H28 5603   2.503   7.610   6.695  0.8565 -0.2233 -1.5451
  117ccc     N3 5604   2.012   7.649   6.648 -0.2740  0.5530 -0.3284
  117ccc    C17 5605   1.061   7.326   6.024  0.1727  0.4946  0.0546
  117ccc    C18 5606   1.040   7.483   6.026 -0.1151 -0.1336  0.7656
  117ccc    H29 5607   1.041   7.282   6.122 -1.6186  0.3167 -0.3695
  117ccc    C19 5608   1.157   7.558   6.094  0.2869  0.2823 -0.4246
  117ccc    C20 5609   1.295   7.503   6.054 -0.3042  0.5204  0.6567
  117ccc    C21 5610   1.307   7.345   6.054 -0.1582  0.2818  0.0024
  117ccc    H30 5611   1.312   7.539   5.952 -1.5417  0.9695  0.5985
  117ccc    H31 5612   1.143   7.543   6.201  1.9564 -1.7054 -0.4284
  117ccc    H32 5613   1.320   7.315   6.159  1.8053  2.4565  0.4588
  117ccc    O10 5614   1.427   7.314   5.979 -0.1771  0.2627  0.2975
  117ccc    O11 5615   1.142   7.695   6.067 -0.0685  0.2366 -0.2708
  117ccc    C22 5616   0.952   7.259   5.932  0.3661  0.4345  0.5607
  117ccc    H33 5617   1.188   7.745   6.137  3.2269 -0.2572 -1.8808
  117ccc    H34 5618   1.375   7.546   6.240  0.2020 -0.7279  0.2400
  117ccc    H35 5619   0.856   7.281   5.979  1.1305  0.9445  1.9611
  117ccc    H36 5620   0.966   7.150   5.934  1.4777  0.5261 -0.8862
  117ccc    O12 5621   0.967   7.297   5.798  0.0505 -0.3585 -0.1140
  117ccc    H37 5622   1.059   7.327   5.797  0.4105 -1.4128 -0.0144
  117ccc    O13 5623   1.193   7.299   5.973  0.2195  0.4958 -0.5679
  117ccc    H38 5624   1.470   7.245   6.033 -0.8119  0.1687  0.7030
  117ccc    H39 5625   1.042   7.523   5.924 -0.2094 -1.3852  0.2559
  117ccc     O5 5626   0.922   7.515   6.092  0.9805 -0.0253 -0.0194
  117ccc    H40 5627   0.922   7.609   6.116  1.9656 -0.0328  0.0329
  117ccc     N4 5628   1.392   7.564   6.142 -0.1157  0.3083  0.3597
  118ccc     N1 5629  -0.181   6.295   6.921 -0.0984 -0.3101  0.0077
  118ccc     H4 5630  -0.108   6.326   6.983  1.2610 -1.6061 -0.8743
  118ccc     C3 5631  -0.210   6.149   6.908 -0.5025  0.0910 -0.4001
  118ccc     H5 5632  -0.273   6.114   6.825 -0.1302 -1.9082  0.1325
  118ccc     C4 5633  -0.269   6.086   7.038  0.3572 -0.0995  0.0682
  118ccc     H6 5634  -0.112   6.102   6.905 -0.8463 -0.9622  2.3772
  118ccc     H7 5635  -0.199   6.123   7.115 -2.0321  4.3821  0.3901
  118ccc     H8 5636  -0.277   5.976   7.041 -0.4169 -0.0449  0.3837
  118ccc     N2 5637  -0.399   6.152   7.068  0.5954 -0.0994 -0.0530
  118ccc     C5 5638  -0.440   6.132   7.207  0.2049 -0.7532 -0.0372
  118ccc     C6 5639  -0.508   6.144   6.962 -0.3235  0.1703 -0.1523
  118ccc     H9 5640  -0.586   6.217   6.988  0.5685  0.3777  2.2724
  118ccc     C7 5641  -0.563   5.998   6.943 -0.1108  0.0063 -0.0900
  118ccc    H10 5642  -0.466   6.178   6.867 -1.3275  1.6164 -0.1038
  118ccc    H11 5643  -0.558   5.928   7.028 -1.6600 -4.3110 -3.1974
  118ccc    H12 5644  -0.508   5.956   6.858  3.8935  0.9246  1.7819
  118ccc     C8 5645  -0.716   6.004   6.926 -0.1533 -0.4195  0.0980
  118ccc     O2 5646  -0.789   6.062   7.005  0.5273 -0.0112  0.3878
  118ccc    H13 5647  -0.355   6.159   7.271 -0.0496  0.5686 -0.2210
  118ccc    H14 5648  -0.477   6.029   7.209 -3.1597  0.2739 -1.9993
  118ccc     C9 5649  -0.539   6.244   7.252  0.0851  0.9631 -0.1968
  118ccc    H15 5650  -0.631   6.226   7.195 -0.1154  0.4843  0.2699
  118ccc    H16 5651  -0.506   6.345   7.226  0.9973  1.0026  1.0043
  118ccc    C10 5652  -0.567   6.223   7.397 -0.0239 -0.0106 -0.0837
  118ccc     O4 5653  -0.473   6.234   7.473 -0.5353  0.3766 -0.0032
  118ccc    C11 5654  -1.162   5.825   6.866  0.0638 -0.4235 -0.1624
  118ccc    C12 5655  -1.142   5.934   6.764  0.0274 -0.0520  0.6423
  118ccc    H17 5656  -1.154   5.874   6.964  2.2663 -0.9068 -0.0436
  118ccc    C13 5657  -1.010   6.005   6.779 -0.0177 -0.0177  0.5684
  118ccc    C14 5658  -0.895   5.899   6.779 -0.6335 -0.8829 -0.0708
  118ccc    C15 5659  -0.928   5.792   6.884  0.8522 -0.9660 -0.4181
  118ccc    H18 5660  -0.877   5.850   6.683  2.4088 -1.6398  0.7663
  118ccc    H19 5661  -1.012   6.062   6.873 -1.1211  0.2242  0.4151
  118ccc    H20 5662  -0.921   5.842   6.981 -1.3058 -0.3643 -0.5063
  118ccc     O1 5663  -0.835   5.692   6.875 -0.2693  0.4274 -0.0407
  118ccc     O6 5664  -0.987   6.100   6.671  0.2629 -0.5881  0.1268
  118ccc    C16 5665  -1.289   5.735   6.844 -0.0779 -0.0364 -0.1545
  118ccc    H21 5666  -0.902   6.143   6.690 -0.8409  0.6168  2.9354
  118ccc    H22 5667  -0.695   5.931   6.735  1.5979  2.3564  0.0950
  118ccc    H23 5668  -1.369   5.809   6.832  1.3049  1.4867 -0.4149
  118ccc    H24 5669  -1.300   5.669   6.930  0.2427 -0.6745 -0.5988
  118ccc     O7 5670  -1.271   5.664   6.721  0.6296 -0.0876  0.0987
  118ccc    H25 5671  -1.175   5.668   6.706  0.2141 -1.0387 -3.8027
  118ccc     O8 5672  -1.052   5.734   6.854 -0.2077 -0.4738 -0.0574
  118ccc    H26 5673  -0.837   5.632   6.951 -0.0922  0.0894 -0.3022
  118ccc    H27 5674  -1.146   5.885   6.667  1.0567  1.2798 -0.1134
  118ccc     O9 5675  -1.244   6.033   6.777  0.0911  0.0368 -0.2067
  118ccc    H28 5676  -1.334   5.998   6.761  0.6140 -1.0324 -0.9135
  118ccc     N3 5677  -0.761   5.959   6.807 -0.1900  0.0353 -0.5045
  118ccc    C17 5678  -1.037   5.966   7.360  0.6665 -0.4135  0.1971
  118ccc    C18 5679  -1.055   6.109   7.402  0.1368 -0.8102 -1.0297
  118ccc    H29 5680  -1.028   5.907   7.452  1.4459 -0.8796 -0.1685
  118ccc    C19 5681  -0.923   6.177   7.467 -0.0309  0.0113 -0.5725
  118ccc    C20 5682  -0.804   6.143   7.384 -0.0686 -0.3005  0.6395
  118ccc    C21 5683  -0.803   5.990   7.347  0.2117  0.1846 -0.0104
  118ccc    H30 5684  -0.808   6.186   7.284  1.2264 -2.2077 -0.3067
  118ccc    H31 5685  -0.905   6.135   7.567 -2.1409  0.9238  0.2647
  118ccc    H32 5686  -0.784   5.924   7.432 -0.9437 -0.6391 -0.3722
  118ccc    O10 5687  -0.716   5.965   7.248 -0.1253  0.2597 -0.4195
  118ccc    O11 5688  -0.938   6.321   7.464  0.2234  0.0505  0.2476
  118ccc    C22 5689  -1.156   5.915   7.278 -0.6403 -0.3597 -1.1257
  118ccc    H33 5690  -0.890   6.363   7.538  0.3236  1.7039 -0.6933
  118ccc    H34 5691  -0.672   6.156   7.545  0.7182  2.1069 -0.0662
  118ccc    H35 5692  -1.159   5.975   7.186  0.9607  4.5778  1.6797
  118ccc    H36 5693  -1.257   5.931   7.317 -0.5282  2.1609 -1.6482
  118ccc    O12 5694  -1.135   5.775   7.253  0.8165 -0.3163 -0.0872
  118ccc    H37 5695  -1.214   5.719   7.260 -0.3967  1.3014 -0.1736
  118ccc    O13 5696  -0.918   5.963   7.276  0.5031 -0.1723  0.2928
  118ccc    H38 5697  -0.757   6.010   7.173  1.0006 -0.2763 -1.3792
  118ccc    H39 5698  -1.078   6.162   7.309  3.5035 -0.5687 -1.8503
  118ccc     O5 5699  -1.156   6.122   7.502 -0.0160  0.2737  0.4426
  118ccc    H40 5700  -1.178   6.216   7.492  0.5593  0.1813 -2.3351
  118ccc     N4 5701  -0.679   6.187   7.448  0.6034  0.1190 -0.7532
  119ccc     N1 5702   0.344   6.485   6.662  0.0729 -0.3258  0.6233
  119ccc     H4 5703   0.363   6.462   6.758 -1.6002 -1.0344  0.8239
  119ccc     C3 5704   0.450   6.569   6.589  0.3386  0.1688  0.4273
  119ccc     H5 5705   0.453   6.542   6.482 -0.6076  0.4762  0.3224
  119ccc     C4 5706   0.591   6.539   6.646  0.0999 -0.9945  0.0675
  119ccc     H6 5707   0.425   6.675   6.595  1.2653  0.3970  0.4149
  119ccc     H7 5708   0.610   6.432   6.658 -1.2545 -1.1699  0.8678
  119ccc     H8 5709   0.594   6.582   6.747 -2.4151  0.0065 -0.2040
  119ccc     N2 5710   0.698   6.602   6.568  0.3095  0.1417 -0.0525
  119ccc     C5 5711   0.827   6.596   6.642 -0.3211  0.0443  0.9661
  119ccc     C6 5712   0.725   6.529   6.446  0.8184 -0.6164  0.9135
  119ccc     H9 5713   0.805   6.455   6.450  0.6947 -0.7250  1.4629
  119ccc     C7 5714   0.753   6.636   6.337  0.4708  0.2733  0.6250
  119ccc    H10 5715   0.630   6.479   6.422  0.4395  0.3917  0.2679
  119ccc    H11 5716   0.805   6.724   6.378 -0.7047  0.9237  0.7663
  119ccc    H12 5717   0.669   6.671   6.276  1.2463 -0.3434 -0.8629
  119ccc     C8 5718   0.837   6.571   6.227  0.0163  0.0663  0.3537
  119ccc     O2 5719   0.849   6.453   6.202  0.0647 -0.1470 -0.4274
  119ccc    H13 5720   0.906   6.619   6.570 -1.8545 -1.0511 -1.1706
  119ccc    H14 5721   0.835   6.490   6.671  1.2196 -0.8669 -2.3581
  119ccc     C9 5722   0.841   6.703   6.751  0.3248  0.2109 -0.2999
  119ccc    H15 5723   0.809   6.659   6.846  0.9937  4.2761  2.0577
  119ccc    H16 5724   0.780   6.794   6.746  0.0267  0.0021 -0.5337
  119ccc    C10 5725   0.971   6.769   6.769 -0.7635  0.1332 -0.0927
  119ccc     O4 5726   1.031   6.826   6.683  0.2400  0.0221  0.0970
  119ccc    C11 5727   1.018   6.508   5.769  0.2150  0.1078  0.0778
  119ccc    C12 5728   0.908   6.614   5.776 -0.2840 -0.0646  0.0388
  119ccc    H17 5729   0.976   6.407   5.759 -2.1317  0.9901  0.4401
  119ccc    C13 5730   0.853   6.633   5.916  0.3980  0.0826 -0.2946
  119ccc    C14 5731   0.965   6.640   6.025  0.8809  0.5947  0.2241
  119ccc    C15 5732   1.061   6.517   6.016  0.0086 -0.2522 -0.7162
  119ccc    H18 5733   1.013   6.733   5.993 -0.3817  1.2750  0.2709
  119ccc    H19 5734   0.784   6.552   5.940  0.2387  0.6129  1.1859
  119ccc    H20 5735   1.006   6.425   6.038 -2.5436  1.4710  0.6758
  119ccc     O1 5736   1.174   6.532   6.099 -0.1774  0.0649 -0.3720
  119ccc     O6 5737   0.770   6.749   5.908 -0.0556  1.2696  0.0644
  119ccc    C16 5738   1.109   6.528   5.642  0.4367  0.4912  0.6473
  119ccc    H21 5739   0.695   6.722   5.852 -0.1540 -1.5969  1.4471
  119ccc    H22 5740   0.877   6.760   6.176 -1.4739 -0.1882  1.7722
  119ccc    H23 5741   1.057   6.503   5.549  2.5112 -1.2582 -0.1259
  119ccc    H24 5742   1.192   6.457   5.653  0.4664  0.3802 -0.2606
  119ccc     O7 5743   1.166   6.653   5.644 -0.3856  0.6230 -0.1172
  119ccc    H25 5744   1.257   6.641   5.613 -1.0661 -2.3677 -1.3106
  119ccc     O8 5745   1.110   6.510   5.882 -0.4377 -0.1622  0.2923
  119ccc    H26 5746   1.131   6.545   6.185 -0.4084 -2.6530  0.0197
  119ccc    H27 5747   0.956   6.706   5.741 -0.3344 -0.8863 -2.3890
  119ccc     O9 5748   0.801   6.571   5.694  0.3561  0.6619  0.1614
  119ccc    H28 5749   0.753   6.509   5.753  0.8410  1.2562  1.2172
  119ccc     N3 5750   0.901   6.663   6.157 -0.1380  0.3029  0.8499
  119ccc    C17 5751   1.256   7.024   7.151  0.0679  0.2265 -0.5192
  119ccc    C18 5752   1.248   6.879   7.190  0.0502 -0.3904  0.0424
  119ccc    H29 5753   1.160   7.069   7.178 -0.6337 -1.6650  0.3186
  119ccc    C19 5754   1.142   6.800   7.108 -0.4457 -0.1575  0.0149
  119ccc    C20 5755   1.141   6.825   6.953  0.1865  0.0441 -0.1658
  119ccc    C21 5756   1.162   6.973   6.924 -0.8485 -0.4994 -0.1372
  119ccc    H30 5757   1.229   6.767   6.922  0.0444 -1.0201  1.2872
  119ccc    H31 5758   1.044   6.844   7.130 -0.0980  1.8157 -2.0300
  119ccc    H32 5759   1.068   7.022   6.952 -1.5571 -2.3368  0.8890
  119ccc    O10 5760   1.198   7.005   6.791 -0.3667 -0.0342 -0.1788
  119ccc    O11 5761   1.154   6.660   7.150  0.7421 -0.0370  0.4269
  119ccc    C22 5762   1.378   7.096   7.213  0.4623 -0.0438  0.2931
  119ccc    H33 5763   1.065   6.622   7.138  0.2340  1.6468 -1.5724
  119ccc    H34 5764   1.000   6.683   6.945  0.9357 -0.7204 -0.0945
  119ccc    H35 5765   1.473   7.082   7.159  1.0251  0.9666  0.9740
  119ccc    H36 5766   1.396   7.057   7.313  1.5982  1.1533  0.5891
  119ccc    O12 5767   1.352   7.238   7.229 -0.0963  0.1968  0.7715
  119ccc    H37 5768   1.327   7.256   7.321  0.6306  1.8700  0.6697
  119ccc    O13 5769   1.278   7.025   7.004  0.1840 -0.7735  0.2193
  119ccc    H38 5770   1.153   6.940   6.735 -3.5661  1.2854  0.5910
  119ccc    H39 5771   1.345   6.834   7.166 -0.1021 -0.8882  0.3487
  119ccc     O5 5772   1.229   6.869   7.327  0.1417 -0.1785 -0.5211
  119ccc    H40 5773   1.227   6.773   7.342 -0.1065  0.0808  1.2636
  119ccc     N4 5774   1.018   6.767   6.891 -0.3539 -0.4253 -0.0847
  120ccc     N1 5775   1.556   6.159   7.786  0.2303  0.0137 -0.2086
  120ccc     H4 5776   1.484   6.228   7.794 -2.0699 -2.1757 -0.7013
  120ccc     C3 5777   1.681   6.164   7.862 -0.5415 -0.3168  0.5167
  120ccc     H5 5778   1.678   6.105   7.954  0.8540  1.3184  1.6871
  120ccc     C4 5779   1.733   6.305   7.904 -0.1542 -0.1355 -0.2284
  120ccc     H6 5780   1.757   6.108   7.805 -2.0841 -2.5850  0.5862
  120ccc     H7 5781   1.821   6.292   7.969 -0.6443 -1.3128  0.2187
  120ccc     H8 5782   1.661   6.348   7.975  0.4057  0.7980 -0.2098
  120ccc     N2 5783   1.763   6.399   7.795 -0.2673 -0.4583 -0.4718
  120ccc     C5 5784   1.778   6.536   7.836 -0.3957 -0.4128 -0.1843
  120ccc     C6 5785   1.884   6.347   7.721  0.6520 -0.2578 -0.6084
  120ccc     H9 5786   1.952   6.431   7.738 -0.2876  0.0085  2.4221
  120ccc     C7 5787   1.841   6.344   7.575 -0.5233  0.1535 -0.1831
  120ccc    H10 5788   1.927   6.253   7.759 -0.9119 -0.4345  0.8647
  120ccc    H11 5789   1.761   6.411   7.541 -0.3273 -0.3893 -1.8095
  120ccc    H12 5790   1.803   6.244   7.552  1.9313 -0.9496  0.2331
  120ccc     C8 5791   1.973   6.378   7.499 -0.0418  0.5434  0.3033
  120ccc     O2 5792   2.076   6.312   7.504 -0.5127 -0.7233  0.1680
  120ccc    H13 5793   1.828   6.586   7.753  2.5187  0.1500  1.7503
  120ccc    H14 5794   1.847   6.534   7.922 -1.0733  1.4464  0.4368
  120ccc     C9 5795   1.649   6.607   7.864  0.3506 -0.1967 -0.6462
  120ccc    H15 5796   1.615   6.575   7.963 -0.1160  0.9516 -0.4152
  120ccc    H16 5797   1.577   6.587   7.783  0.8169 -0.5701 -0.9705
  120ccc    C10 5798   1.679   6.758   7.858  0.2864  0.6407  0.3789
  120ccc     O4 5799   1.702   6.820   7.754  0.0640  0.0684 -0.3161
  120ccc    C11 5800   2.203   6.777   7.237  0.2598 -0.7196  0.2428
  120ccc    C12 5801   2.248   6.730   7.374  0.5325 -0.3457  0.3246
  120ccc    H17 5802   2.116   6.841   7.257 -1.0052 -2.7217  1.5431
  120ccc    C13 5803   2.141   6.648   7.449 -0.2672  0.0849 -0.1987
  120ccc    C14 5804   2.067   6.547   7.355 -0.8184 -0.1947 -0.0495
  120ccc    C15 5805   2.031   6.614   7.224 -0.2407  0.4420  0.0684
  120ccc    H18 5806   2.140   6.468   7.338  1.0420  0.7431  2.8827
  120ccc    H19 5807   2.067   6.725   7.476  2.2662  2.7980 -0.4913
  120ccc    H20 5808   1.974   6.705   7.247  1.6962  1.6524  0.2602
  120ccc     O1 5809   1.975   6.514   7.131  0.4504 -0.4587  0.1016
  120ccc     O6 5810   2.197   6.571   7.554  0.6734  0.4554 -0.4309
  120ccc    C16 5811   2.317   6.844   7.154  0.3668 -0.2108 -0.1414
  120ccc    H21 5812   2.167   6.480   7.536 -3.4230  1.6644 -0.7846
  120ccc    H22 5813   1.870   6.533   7.437 -1.2030 -2.5244 -0.7269
  120ccc    H23 5814   2.408   6.785   7.168 -0.4539 -1.8521 -1.3089
  120ccc    H24 5815   2.335   6.941   7.202  1.1597 -1.0418  1.2867
  120ccc     O7 5816   2.278   6.865   7.016 -0.1970  0.3236  0.5763
  120ccc    H25 5817   2.211   6.936   7.013  0.8455  1.3435  0.7619
  120ccc     O8 5818   2.152   6.663   7.166  0.7356  0.4459 -0.1425
  120ccc    H26 5819   1.978   6.545   7.038 -1.5488 -1.3903 -0.3212
  120ccc    H27 5820   2.331   6.661   7.352  0.3624 -0.8342  1.1655
  120ccc     O9 5821   2.290   6.841   7.456  0.4462  0.1721 -0.1851
  120ccc    H28 5822   2.381   6.858   7.427  0.3768 -1.1374 -1.2630
  120ccc     N3 5823   1.954   6.478   7.419  0.2453 -0.4221 -0.7988
  120ccc    C17 5824   1.710   7.197   8.164 -0.8739  0.5666  0.5163
  120ccc    C18 5825   1.791   7.168   8.030 -0.2586 -0.0100  0.1295
  120ccc    H29 5826   1.782   7.190   8.247  1.9177 -1.0812 -1.8176
  120ccc    C19 5827   1.809   7.023   7.989 -0.2877  0.1094 -0.1584
  120ccc    C20 5828   1.674   6.948   8.016 -0.9032 -0.7487  0.8119
  120ccc    C21 5829   1.638   6.965   8.160  0.2849  0.3363 -0.5742
  120ccc    H30 5830   1.596   6.996   7.956  0.7532 -1.4188 -2.0807
  120ccc    H31 5831   1.881   6.971   8.052  0.0939  1.6686  0.7452
  120ccc    H32 5832   1.725   6.939   8.221 -1.2739  0.4285  1.8418
  120ccc    O10 5833   1.519   6.891   8.193 -0.2464  0.4320 -0.1385
  120ccc    O11 5834   1.847   7.022   7.851 -0.4857 -0.6899  0.1798
  120ccc    C22 5835   1.645   7.338   8.165 -0.7432 -0.4018  0.3587
  120ccc    H33 5836   1.786   6.962   7.805 -1.5242  1.3711 -1.2689
  120ccc    H34 5837   1.667   6.741   8.053 -0.5253 -0.0200  0.0401
  120ccc    H35 5838   1.575   7.349   8.081  0.2739  1.2400 -0.3322
  120ccc    H36 5839   1.719   7.415   8.141 -0.0906 -1.1695 -0.1827
  120ccc    O12 5840   1.588   7.365   8.288  0.2161  0.0854  0.0218
  120ccc    H37 5841   1.507   7.311   8.296  1.9773 -2.9500 -0.9916
  120ccc    O13 5842   1.602   7.101   8.177 -0.0155  0.0031 -0.2800
  120ccc    H38 5843   1.459   6.962   8.222  1.0017  1.2040  0.6365
  120ccc    H39 5844   1.720   7.212   7.958 -3.1031 -0.3840  2.5026
  120ccc     O5 5845   1.902   7.239   8.022 -0.2825 -0.1083  0.2465
  120ccc    H40 5846   1.927   7.240   7.928 -0.5659  2.1508  0.1396
  120ccc     N4 5847   1.692   6.805   7.978 -0.1261 -0.4993 -0.2495
  121ccc     N1 5848   1.320   5.786   7.076 -0.5146 -0.3587 -0.0704
  121ccc     H4 5849   1.370   5.736   7.148 -1.0690  0.4325  0.8932
  121ccc     C3 5850   1.260   5.718   6.957  0.9079  0.2098 -0.1176
  121ccc     H5 5851   1.164   5.675   6.987  0.9109 -1.8289 -2.6785
  121ccc     C4 5852   1.339   5.600   6.899  0.3141  1.0201  0.4759
  121ccc     H6 5853   1.242   5.797   6.883  2.1798 -0.7371 -1.4964
  121ccc     H7 5854   1.269   5.540   6.839  1.1887  1.7368 -1.3348
  121ccc     H8 5855   1.364   5.528   6.978 -0.5709  0.6591  0.4498
  121ccc     N2 5856   1.453   5.633   6.813  0.0881  0.0793 -0.0731
  121ccc     C5 5857   1.485   5.527   6.729  0.2532  0.0106  0.3271
  121ccc     C6 5858   1.561   5.673   6.904  0.0527  0.1693  0.3421
  121ccc     H9 5859   1.531   5.752   6.973 -1.3610  0.1334 -0.1841
  121ccc     C7 5860   1.678   5.727   6.820  0.2000  0.5194 -0.9289
  121ccc    H10 5861   1.583   5.580   6.957 -0.6679 -0.1531  0.0945
  121ccc    H11 5862   1.637   5.801   6.750  0.5441  1.6274  0.0094
  121ccc    H12 5863   1.728   5.653   6.757  3.0982 -0.4255  2.2171
  121ccc     C8 5864   1.784   5.790   6.897 -0.8337 -0.0329 -0.2022
  121ccc     O2 5865   1.790   5.802   7.020  0.5866  0.4083  0.9597
  121ccc    H13 5866   1.498   5.430   6.778 -0.0190 -0.3809 -0.3589
  121ccc    H14 5867   1.587   5.539   6.689 -0.5755  2.1613 -1.3404
  121ccc     C9 5868   1.394   5.520   6.608 -0.5308 -0.1784  0.4953
  121ccc    H15 5869   1.381   5.625   6.578 -1.4632 -0.2693  0.5560
  121ccc    H16 5870   1.295   5.473   6.616 -1.6259  1.9754  0.5544
  121ccc    C10 5871   1.455   5.437   6.498  0.2362 -0.3199  0.3425
  121ccc     O4 5872   1.470   5.318   6.502  0.3573  0.9222  0.1045
  121ccc    C11 5873   2.279   5.962   6.877 -0.1265  0.2852 -0.4277
  121ccc    C12 5874   2.190   6.062   6.805  0.2153  0.3892  0.5351
  121ccc    H17 5875   2.327   5.888   6.811 -0.8262 -0.0889 -0.5258
  121ccc    C13 5876   2.065   5.987   6.755 -0.1849  0.8078  0.2011
  121ccc    C14 5877   1.997   5.907   6.866 -0.2831 -0.3151 -0.0729
  121ccc    C15 5878   2.102   5.802   6.915 -0.3958 -0.7632 -0.6924
  121ccc    H18 5879   1.977   5.980   6.946  1.3784 -0.1712  0.2486
  121ccc    H19 5880   2.111   5.917   6.684 -0.7677 -0.0417  0.6456
  121ccc    H20 5881   2.144   5.734   6.840  1.5317 -0.4665  0.0569
  121ccc     O1 5882   2.049   5.737   7.033 -0.2603  0.5372  0.0914
  121ccc     O6 5883   1.969   6.082   6.694 -0.2678  0.0755  0.0784
  121ccc    C16 5884   2.396   6.040   6.948  0.2281  0.2858 -0.0250
  121ccc    H21 5885   1.985   6.172   6.726 -2.9301  0.5590  0.2443
  121ccc    H22 5886   1.843   5.900   6.739  0.3499  1.2340  0.1966
  121ccc    H23 5887   2.362   6.114   7.022 -2.6071 -0.1637 -0.7783
  121ccc    H24 5888   2.450   6.079   6.861 -1.5292 -1.8327 -2.2104
  121ccc     O7 5889   2.481   5.945   7.007  0.2669  0.2480 -0.0255
  121ccc    H25 5890   2.426   5.886   7.061 -0.1250  0.9292  0.3448
  121ccc     O8 5891   2.210   5.882   6.980  0.1060  0.2364  0.0424
  121ccc    H26 5892   1.954   5.758   7.023  0.2175  1.8840 -2.7022
  121ccc    H27 5893   2.170   6.143   6.876 -0.5368  0.2929  0.4329
  121ccc     O9 5894   2.256   6.118   6.697  0.7904 -0.0546  0.4122
  121ccc    H28 5895   2.187   6.164   6.646 -0.9902 -0.5033  2.3433
  121ccc     N3 5896   1.875   5.842   6.816 -0.1268  0.0240 -0.4884
  121ccc    C17 5897   1.372   5.444   5.972  0.1339  0.4402  0.3759
  121ccc    C18 5898   1.525   5.472   5.996 -0.0833  0.5606 -0.3343
  121ccc    H29 5899   1.316   5.538   5.985  2.2129  2.0214 -1.2958
  121ccc    C19 5900   1.544   5.536   6.135 -0.4126  0.2502 -0.9864
  121ccc    C20 5901   1.482   5.437   6.247 -1.0357  0.4138  0.0313
  121ccc    C21 5902   1.348   5.373   6.211  0.2373  0.2868  0.1819
  121ccc    H30 5903   1.548   5.351   6.258  1.2573  2.1552  0.7380
  121ccc    H31 5904   1.493   5.634   6.142  0.8849  1.0148 -1.8651
  121ccc    H32 5905   1.258   5.430   6.236 -2.2165 -2.2707 -2.1447
  121ccc    O10 5906   1.331   5.245   6.277  0.4928  0.0595  0.5896
  121ccc    O11 5907   1.687   5.549   6.157 -0.6595 -0.2554 -0.9228
  121ccc    C22 5908   1.340   5.387   5.832 -0.4916  0.0569 -0.4612
  121ccc    H33 5909   1.715   5.565   6.065  0.2284 -2.3662 -1.0814
  121ccc    H34 5910   1.443   5.599   6.375 -1.0381 -0.2974  2.0185
  121ccc    H35 5911   1.383   5.286   5.825 -1.8854 -0.5312 -1.0931
  121ccc    H36 5912   1.394   5.440   5.752 -0.5814 -0.4487 -0.8632
  121ccc    O12 5913   1.202   5.395   5.801 -0.0007  0.1590 -0.3344
  121ccc    H37 5914   1.185   5.351   5.716 -0.6859  0.8673 -0.5836
  121ccc    O13 5915   1.342   5.335   6.075  0.3065  0.2362  0.3019
  121ccc    H38 5916   1.406   5.244   6.338 -0.2034  0.9903  1.5110
  121ccc    H39 5917   1.574   5.374   6.002 -1.3966 -0.1918 -1.2616
  121ccc     O5 5918   1.578   5.555   5.901  0.1373 -0.6869 -0.5574
  121ccc    H40 5919   1.557   5.522   5.812 -0.0230 -0.4637 -0.6031
  121ccc     N4 5920   1.468   5.501   6.380  0.2837 -0.0494  0.6641
  122ccc     N1 5921  -0.143   7.551   8.158 -0.1079  0.2678 -0.6257
  122ccc     H4 5922  -0.169   7.468   8.105  1.7532 -1.1942  0.5887
  122ccc     C3 5923  -0.066   7.522   8.284 -0.5922  0.7188  0.6722
  122ccc     H5 5924  -0.106   7.581   8.368  0.5883  1.1405  0.9523
  122ccc     C4 5925   0.088   7.551   8.283 -0.8197 -0.2672 -0.5575
  122ccc     H6 5926  -0.079   7.417   8.314  0.6610  0.4869  0.4310
  122ccc     H7 5927   0.108   7.656   8.257  0.7884 -0.1488  0.9725
  122ccc     H8 5928   0.129   7.485   8.206  2.5147 -1.7851  2.2535
  122ccc     N2 5929   0.158   7.507   8.406 -0.0455 -0.3423  0.2831
  122ccc     C5 5930   0.284   7.578   8.418 -0.1699 -0.5092 -0.5070
  122ccc     C6 5931   0.175   7.363   8.411  0.4271 -0.7070 -0.3622
  122ccc     H9 5932   0.083   7.316   8.373 -0.7935  0.2471  1.2578
  122ccc     C7 5933   0.200   7.311   8.553 -0.0574  0.1092  0.0182
  122ccc    H10 5934   0.257   7.330   8.347  0.1729 -0.6992 -0.6923
  122ccc    H11 5935   0.127   7.342   8.628  1.0095 -1.0258  1.5962
  122ccc    H12 5936   0.300   7.337   8.589 -0.8346  1.1999  1.4949
  122ccc     C8 5937   0.187   7.168   8.539  0.4167  0.7736  0.2546
  122ccc     O2 5938   0.159   7.102   8.440  0.1389  0.5290  0.3655
  122ccc    H13 5939   0.330   7.604   8.322 -0.0532  0.8118 -0.1137
  122ccc    H14 5940   0.362   7.535   8.482 -0.9352 -1.4592 -0.1790
  122ccc     C9 5941   0.250   7.718   8.482 -0.6579  0.3751 -0.1528
  122ccc    H15 5942   0.211   7.711   8.584 -2.1866 -0.3774 -0.7442
  122ccc    H16 5943   0.175   7.777   8.427 -0.6935 -0.2049 -0.7364
  122ccc    C10 5944   0.378   7.792   8.481 -0.4797 -0.8937 -0.3775
  122ccc     O4 5945   0.481   7.754   8.425  0.0925 -0.5847  0.5282
  122ccc    C11 5946   0.314   6.682   8.671 -0.1054 -0.0113 -0.0521
  122ccc    C12 5947   0.433   6.783   8.694  0.1582 -0.5726 -0.0969
  122ccc    H17 5948   0.326   6.648   8.567 -0.6842 -2.1195  0.5296
  122ccc    C13 5949   0.399   6.932   8.650 -0.2014  0.5248  0.2383
  122ccc    C14 5950   0.252   6.969   8.679  0.6542 -0.3940 -0.3548
  122ccc    C15 5951   0.151   6.863   8.619  0.5791  0.2715  0.4770
  122ccc    H18 5952   0.246   6.959   8.788 -0.0232  2.6344 -0.0278
  122ccc    H19 5953   0.401   6.928   8.541 -0.3299 -0.1697  0.2511
  122ccc    H20 5954   0.159   6.841   8.512  2.1962 -0.9435  0.8098
  122ccc     O1 5955   0.021   6.899   8.647 -0.0765  0.1246 -0.1607
  122ccc     O6 5956   0.487   7.029   8.700  0.2183 -0.2399 -0.6979
  122ccc    C16 5957   0.330   6.554   8.764 -0.0400  0.4007 -0.1077
  122ccc    H21 5958   0.552   7.051   8.632  0.6239  1.3631  0.1522
  122ccc    H22 5959   0.261   7.171   8.725  1.6679 -0.0013 -0.1023
  122ccc    H23 5960   0.358   6.587   8.865 -0.1321  1.4984 -0.4268
  122ccc    H24 5961   0.407   6.493   8.716  0.1863  2.8967 -3.2815
  122ccc     O7 5962   0.212   6.478   8.766 -0.3072 -0.0082 -0.0521
  122ccc    H25 5963   0.235   6.392   8.727  0.7898 -0.0393  0.6386
  122ccc     O8 5964   0.178   6.738   8.691 -0.1038  0.0155 -0.3684
  122ccc    H26 5965  -0.024   6.814   8.631  0.2417 -0.5143  2.0161
  122ccc    H27 5966   0.455   6.773   8.801 -1.3656 -4.6542  0.0218
  122ccc     O9 5967   0.551   6.740   8.622  0.2298  0.2107 -0.2106
  122ccc    H28 5968   0.627   6.765   8.677 -0.8240  1.3624  0.7984
  122ccc     N3 5969   0.221   7.111   8.653  0.2967  0.8946 -0.1223
  122ccc    C17 5970   0.553   8.294   8.554  0.0474 -0.3231  0.4605
  122ccc    C18 5971   0.631   8.187   8.627  0.2246  0.3422  0.1194
  122ccc    H29 5972   0.463   8.333   8.603  0.4385  2.1114 -0.6200
  122ccc    C19 5973   0.534   8.065   8.652 -0.5335 -1.1458 -0.1306
  122ccc    C20 5974   0.473   8.012   8.529 -0.3762 -0.0874  0.1768
  122ccc    C21 5975   0.406   8.131   8.449 -0.3166 -0.2755 -0.2755
  122ccc    H30 5976   0.566   7.985   8.478  0.1626  1.5431  0.2221
  122ccc    H31 5977   0.452   8.107   8.711  0.3737  0.0292  0.3407
  122ccc    H32 5978   0.317   8.176   8.495 -0.7755  0.5000 -1.8655
  122ccc    O10 5979   0.368   8.096   8.314 -0.4085  0.0446 -0.2919
  122ccc    O11 5980   0.612   7.962   8.712  0.3459 -0.2927 -0.4256
  122ccc    C22 5981   0.636   8.421   8.514  0.1965 -0.2336 -0.1635
  122ccc    H33 5982   0.548   7.894   8.740  0.8771 -0.3014  0.8489
  122ccc    H34 5983   0.293   7.935   8.597 -0.7246 -0.5451  0.1803
  122ccc    H35 5984   0.724   8.394   8.455  0.9573  0.0216  0.8223
  122ccc    H36 5985   0.672   8.452   8.613 -0.6922  1.5974 -0.3862
  122ccc    O12 5986   0.542   8.520   8.460 -0.2129  0.2671  0.5613
  122ccc    H37 5987   0.518   8.474   8.378  0.6774  1.9915 -0.7445
  122ccc    O13 5988   0.502   8.239   8.431 -0.2841  0.0808 -0.0511
  122ccc    H38 5989   0.341   8.181   8.277  0.3384 -0.2384 -1.5780
  122ccc    H39 5990   0.719   8.166   8.566 -0.9902 -0.2937 -1.4951
  122ccc     O5 5991   0.670   8.246   8.755  0.3015  0.1720  0.5942
  122ccc    H40 5992   0.672   8.172   8.819  0.3878  0.3572  0.8070
  122ccc     N4 5993   0.380   7.900   8.557 -0.3940 -0.0327  0.4381
  123ccc     N1 5994  -0.402   7.484   7.450 -0.4119  0.6353 -0.1029
  123ccc     H4 5995  -0.496   7.474   7.486 -0.6949 -0.2833 -1.0523
  123ccc     C3 5996  -0.385   7.533   7.313 -0.1660 -0.5989  0.4570
  123ccc     H5 5997  -0.281   7.563   7.290 -0.0564 -2.6398 -2.1941
  123ccc     C4 5998  -0.480   7.655   7.295  0.5969  0.4674 -0.2943
  123ccc     H6 5999  -0.406   7.455   7.239  0.5021 -0.4799  0.1315
  123ccc     H7 6000  -0.477   7.720   7.384  2.2238 -0.6086  0.5033
  123ccc     H8 6001  -0.577   7.608   7.275  1.4523 -2.2753  1.3752
  123ccc     N2 6002  -0.436   7.743   7.190  0.3110 -0.3409  0.0002
  123ccc     C5 6003  -0.312   7.815   7.208 -0.0906 -0.8032 -0.4711
  123ccc     C6 6004  -0.546   7.839   7.163 -0.2620 -0.1270  0.1370
  123ccc     H9 6005  -0.645   7.795   7.183  0.3749 -1.1998  1.0684
  123ccc     C7 6006  -0.536   7.902   7.027  0.4771  0.0020 -0.0440
  123ccc    H10 6007  -0.537   7.915   7.242 -0.3410  0.2321 -0.1991
  123ccc    H11 6008  -0.535   7.831   6.944  1.5383 -2.1127  1.6696
  123ccc    H12 6009  -0.439   7.955   7.026 -0.5019  1.9288  0.9303
  123ccc     C8 6010  -0.650   8.000   7.014 -0.6551  0.6388  0.6675
  123ccc     O2 6011  -0.653   8.111   7.063 -0.6400  0.3709  0.6482
  123ccc    H13 6012  -0.248   7.788   7.292 -2.0278 -0.1362  1.3093
  123ccc    H14 6013  -0.329   7.922   7.226  0.8909 -0.7067 -0.0439
  123ccc     C9 6014  -0.223   7.813   7.081  0.4979  0.9136  0.7309
  123ccc    H15 6015  -0.278   7.825   6.987 -0.2752  0.8032  1.1648
  123ccc    H16 6016  -0.181   7.711   7.072 -1.1335  0.3980 -2.2566
  123ccc    C10 6017  -0.114   7.912   7.100 -0.2109  0.3951 -0.2540
  123ccc     O4 6018  -0.130   8.029   7.124 -0.0013  0.3083  0.1521
  123ccc    C11 6019  -1.183   7.999   7.020  0.8833  0.2023 -0.1701
  123ccc    C12 6020  -1.104   8.017   7.151  0.2064 -0.0862  0.1872
  123ccc    H17 6021  -1.198   7.892   7.003 -0.2708  0.4527 -0.8785
  123ccc    C13 6022  -0.962   7.946   7.136  0.3492  0.5905 -0.0525
  123ccc    C14 6023  -0.896   7.990   7.001 -0.5372  0.3135 -0.1021
  123ccc    C15 6024  -0.994   7.957   6.885 -0.2270 -0.2798 -0.5672
  123ccc    H18 6025  -0.887   8.099   7.001 -2.1470  0.4755 -0.6808
  123ccc    H19 6026  -0.979   7.838   7.147  0.9183  0.6473  1.6721
  123ccc    H20 6027  -1.010   7.850   6.866 -1.4613 -0.2987  0.4199
  123ccc     O1 6028  -0.960   7.996   6.756  0.1010 -0.3397 -0.5256
  123ccc     O6 6029  -0.875   7.990   7.236 -0.6466 -0.4330 -0.3911
  123ccc    C16 6030  -1.315   8.080   7.024  0.4169 -0.3226 -0.5334
  123ccc    H21 6031  -0.918   7.984   7.323  3.4873 -1.6280  1.8403
  123ccc    H22 6032  -0.748   7.841   6.951  3.2867  0.3553 -0.2625
  123ccc    H23 6033  -1.284   8.185   7.037  1.1846 -0.8792  2.9031
  123ccc    H24 6034  -1.383   8.064   7.108  1.0936  0.7088  0.2271
  123ccc     O7 6035  -1.396   8.058   6.902 -0.4026  0.2676  0.1744
  123ccc    H25 6036  -1.482   8.103   6.913 -0.8678  0.0645 -2.1557
  123ccc     O8 6037  -1.112   8.029   6.902 -0.4770 -0.1327  0.2870
  123ccc    H26 6038  -0.954   8.093   6.755 -1.3512 -0.1902 -2.9071
  123ccc    H27 6039  -1.084   8.124   7.161  0.9553 -0.1906 -0.1519
  123ccc     O9 6040  -1.177   7.968   7.260  0.3357  0.1961  0.6010
  123ccc    H28 6041  -1.238   8.040   7.286  0.2611  0.1862  0.4558
  123ccc     N3 6042  -0.762   7.940   6.970 -0.3752 -0.0868  0.0346
  123ccc    C17 6043   0.416   7.914   7.189 -0.7512 -0.3613  0.2975
  123ccc    C18 6044   0.378   7.920   7.039  0.3337 -0.0088  0.4639
  123ccc    H29 6045   0.414   7.811   7.228  1.5186  0.2791  2.3705
  123ccc    C19 6046   0.232   7.862   7.012 -0.1283 -0.8481  0.7759
  123ccc    C20 6047   0.131   7.929   7.107 -0.3118  0.2547 -0.5675
  123ccc    C21 6048   0.175   7.947   7.255 -0.6278  0.2129  0.3225
  123ccc    H30 6049   0.126   8.033   7.072  2.4866  1.4568  2.1226
  123ccc    H31 6050   0.234   7.753   7.027 -1.3790 -1.1101 -0.7323
  123ccc    H32 6051   0.163   7.848   7.302  0.6679 -0.1495 -0.0794
  123ccc    O10 6052   0.087   8.037   7.321 -0.2310 -0.5945 -0.9323
  123ccc    O11 6053   0.198   7.897   6.881 -0.0854 -0.0335 -0.0723
  123ccc    C22 6054   0.556   7.971   7.215 -0.4004 -0.3344  0.6270
  123ccc    H33 6055   0.102   7.891   6.872 -0.0598 -0.7689  0.0688
  123ccc    H34 6056   0.013   7.753   7.085  0.7998  0.2991  1.1199
  123ccc    H35 6057   0.553   8.079   7.230  1.0493 -0.0612 -0.8226
  123ccc    H36 6058   0.624   7.965   7.129 -2.5363 -0.4267 -1.1479
  123ccc    O12 6059   0.613   7.900   7.321 -0.6275 -0.3570 -0.1508
  123ccc    H37 6060   0.558   7.938   7.392 -0.4381  0.0911 -0.2351
  123ccc    O13 6061   0.316   7.989   7.267  0.5833  0.1975 -0.0961
  123ccc    H38 6062   0.133   8.119   7.346 -1.1317  0.3869 -2.3312
  123ccc    H39 6063   0.373   8.029   7.030  1.2824 -0.0234 -0.3998
  123ccc     O5 6064   0.476   7.865   6.945 -0.2913  0.3705  0.5393
  123ccc    H40 6065   0.437   7.901   6.863 -1.0709  2.0339  1.5727
  123ccc     N4 6066   0.006   7.854   7.091  0.3499  0.3839 -0.3990
  124ccc     N1 6067  -0.103   7.035   8.378 -0.3802  0.1770  0.3118
  124ccc     H4 6068  -0.021   7.090   8.400 -0.4317 -0.4366  2.1926
  124ccc     C3 6069  -0.095   6.901   8.321 -0.6900 -0.2394  0.5680
  124ccc     H5 6070  -0.054   6.844   8.405  1.2366  1.0407  0.5689
  124ccc     C4 6071   0.013   6.886   8.211 -0.2886 -0.2142 -0.2783
  124ccc     H6 6072  -0.198   6.871   8.298 -0.3695 -0.6564 -0.3652
  124ccc     H7 6073   0.105   6.935   8.245 -1.6220 -0.0879  3.6740
  124ccc     H8 6074  -0.007   6.939   8.117 -1.5838  4.0878  2.1273
  124ccc     N2 6075   0.032   6.740   8.179 -0.2931  0.2773  0.0588
  124ccc     C5 6076  -0.079   6.696   8.094  0.4028 -0.2085 -0.0951
  124ccc     C6 6077   0.165   6.694   8.139 -0.3946  0.2453  0.1588
  124ccc     H9 6078   0.164   6.593   8.097  1.3058  0.0831  0.4434
  124ccc     C7 6079   0.263   6.675   8.255  0.2818  0.2435  0.6836
  124ccc    H10 6080   0.205   6.766   8.067 -0.6852  2.8579  2.4338
  124ccc    H11 6081   0.243   6.595   8.327  0.7781 -1.6445 -1.1903
  124ccc    H12 6082   0.261   6.770   8.311 -2.1384  1.1309 -0.7617
  124ccc     C8 6083   0.407   6.654   8.201  0.7635  0.1107 -0.0073
  124ccc     O2 6084   0.460   6.545   8.179 -0.0831  0.0622 -0.0730
  124ccc    H13 6085  -0.041   6.696   7.991  2.2554  0.7718  0.5418
  124ccc    H14 6086  -0.164   6.764   8.104  0.0752 -0.8515  2.0302
  124ccc     C9 6087  -0.112   6.549   8.124  0.7213  0.5661 -0.5438
  124ccc    H15 6088  -0.023   6.486   8.127  0.2119 -0.4630 -3.3884
  124ccc    H16 6089  -0.182   6.514   8.046  0.9141  0.8956 -0.8702
  124ccc    C10 6090  -0.179   6.553   8.257 -0.3538 -0.0840  0.1187
  124ccc     O4 6091  -0.268   6.631   8.288 -0.3542  0.6634  0.3332
  124ccc    C11 6092   0.616   7.121   8.307  0.2339  0.3882  0.0206
  124ccc    C12 6093   0.473   7.124   8.246  0.3604  0.4026  0.5652
  124ccc    H17 6094   0.683   7.120   8.220  2.0325 -2.0316  1.3251
  124ccc    C13 6095   0.453   7.006   8.154  0.0612  0.6854 -0.2171
  124ccc    C14 6096   0.499   6.878   8.229  0.2330  0.1418  0.2765
  124ccc    C15 6097   0.638   6.882   8.287  0.2834 -0.4357  0.4143
  124ccc    H18 6098   0.437   6.863   8.319 -0.0532 -0.3438  0.0031
  124ccc    H19 6099   0.520   7.024   8.068  2.5095 -1.0970  1.1992
  124ccc    H20 6100   0.703   6.901   8.201  0.5179  0.5081  0.7753
  124ccc     O1 6101   0.668   6.760   8.357  0.4224 -0.3329  0.3054
  124ccc     O6 6102   0.323   6.990   8.113  0.6682 -0.0004 -0.2158
  124ccc    C16 6103   0.635   7.236   8.403 -0.5556  0.3986 -0.1011
  124ccc    H21 6104   0.331   6.941   8.030  2.9206  0.2119 -0.1911
  124ccc    H22 6105   0.546   6.735   8.086  0.9429 -0.3242  1.8454
  124ccc    H23 6106   0.661   7.328   8.348  1.7978  0.2355  0.6372
  124ccc    H24 6107   0.721   7.200   8.461 -1.8078 -2.0587  0.3131
  124ccc     O7 6108   0.527   7.255   8.502  0.1762 -0.0822  0.1808
  124ccc    H25 6109   0.528   7.348   8.528 -0.2436  0.3736 -1.3194
  124ccc     O8 6110   0.645   6.993   8.378  0.0639 -0.1865 -0.2721
  124ccc    H26 6111   0.622   6.763   8.443  0.6869 -0.4427  0.4514
  124ccc    H27 6112   0.397   7.128   8.325  0.4023 -0.7739  0.6854
  124ccc     O9 6113   0.462   7.243   8.165  0.2407  0.3994 -0.2698
  124ccc    H28 6114   0.368   7.260   8.146  0.2747  1.3535  0.3805
  124ccc     N3 6115   0.469   6.758   8.149 -0.1124  0.2060  0.4066
  124ccc    C17 6116  -0.112   6.367   8.752 -0.2257  0.6719  0.2232
  124ccc    C18 6117  -0.133   6.515   8.716  0.0908 -0.2512 -0.4170
  124ccc    H29 6118  -0.007   6.339   8.735 -0.6916 -0.9400 -0.1669
  124ccc    C19 6119  -0.101   6.546   8.568  0.1677  0.2157 -0.1261
  124ccc    C20 6120  -0.169   6.447   8.482 -0.4482 -1.3631  0.0803
  124ccc    C21 6121  -0.142   6.301   8.523 -0.9094 -0.0067 -0.4564
  124ccc    H30 6122  -0.276   6.471   8.474 -0.0828  0.8372  1.1012
  124ccc    H31 6123   0.008   6.535   8.554  0.1027  0.0212 -0.4929
  124ccc    H32 6124  -0.036   6.278   8.504 -1.3515 -3.0043  0.2918
  124ccc    O10 6125  -0.214   6.210   8.445  0.5033  0.1994  0.2712
  124ccc    O11 6126  -0.139   6.677   8.535 -0.8606 -0.1362  0.5176
  124ccc    C22 6127  -0.165   6.327   8.894 -0.1148  0.0055  0.1562
  124ccc    H33 6128  -0.133   6.678   8.438 -2.4168  0.1867  0.3993
  124ccc    H34 6129  -0.031   6.425   8.318 -0.0400 -0.1359 -0.3614
  124ccc    H35 6130  -0.101   6.374   8.969 -0.3594 -1.2609  1.1799
  124ccc    H36 6131  -0.148   6.219   8.899 -1.1603 -0.1904 -0.2576
  124ccc    O12 6132  -0.301   6.347   8.923 -0.8813  0.6104  0.1466
  124ccc    H37 6133  -0.333   6.438   8.907  0.5692  1.1493  0.1094
  124ccc    O13 6134  -0.186   6.282   8.658  0.4922  0.0672  0.1768
  124ccc    H38 6135  -0.290   6.259   8.410  1.6493  1.6051 -0.3116
  124ccc    H39 6136  -0.238   6.538   8.735 -0.5295 -1.2303 -2.3964
  124ccc     O5 6137  -0.052   6.603   8.796  0.0366 -0.2678 -0.2825
  124ccc    H40 6138   0.039   6.602   8.760 -0.0725  2.3798 -0.8530
  124ccc     N4 6139  -0.119   6.471   8.343  0.1674  0.1135 -0.0748
  125ccc     N1 6140   0.046   6.992   8.957 -0.3166  0.4179  0.2102
  125ccc     H4 6141   0.030   6.946   8.868 -0.1819 -0.8322  0.8134
  125ccc     C3 6142   0.101   6.921   9.076 -0.2906  0.3624  0.8922
  125ccc     H5 6143   0.172   6.993   9.119  1.4815 -0.9431  0.2957
  125ccc     C4 6144   0.155   6.781   9.037  0.1871 -0.3750 -0.1126
  125ccc     H6 6145   0.023   6.902   9.150  0.5057  0.1048  1.6744
  125ccc     H7 6146   0.229   6.796   8.957  1.0257 -1.4595  0.4311
  125ccc     H8 6147   0.068   6.731   8.992  0.0420 -1.5618  1.4369
  125ccc     N2 6148   0.211   6.696   9.153  0.0834 -0.8125 -0.2057
  125ccc     C5 6149   0.346   6.746   9.188 -0.5191 -0.1237  0.1955
  125ccc     C6 6150   0.221   6.555   9.126  0.0803 -0.1763  0.1020
  125ccc     H9 6151   0.127   6.538   9.071  0.4744  1.4180 -1.1293
  125ccc     C7 6152   0.214   6.470   9.251 -0.0564 -0.6552 -0.6453
  125ccc    H10 6153   0.308   6.526   9.065  0.7066 -0.3069  1.0509
  125ccc    H11 6154   0.159   6.523   9.330  1.0916  0.4113 -0.5402
  125ccc    H12 6155   0.317   6.448   9.284  0.3133 -0.6256 -1.7363
  125ccc     C8 6156   0.152   6.343   9.209  0.2560  0.0070  0.3411
  125ccc     O2 6157   0.033   6.329   9.192 -0.5725 -0.3615 -0.6971
  125ccc    H13 6158   0.393   6.788   9.099 -0.2546  0.9305  0.8043
  125ccc    H14 6159   0.416   6.665   9.213 -0.7430 -0.5279 -0.4772
  125ccc     C9 6160   0.350   6.859   9.290  0.9130 -0.0285  0.0797
  125ccc    H15 6161   0.285   6.838   9.377 -1.9612  3.3693 -0.9783
  125ccc    H16 6162   0.317   6.954   9.247  3.3338  2.1612  2.6462
  125ccc    C10 6163   0.492   6.885   9.332 -0.6752 -0.8442 -0.3177
  125ccc     O4 6164   0.592   6.822   9.305 -0.7873  0.0368  0.0492
  125ccc    C11 6165  -0.048   5.938   9.116  0.1429  0.4392  0.5771
  125ccc    C12 6166   0.018   5.976   8.983 -0.1852 -0.7128 -0.1092
  125ccc    H17 6167  -0.124   6.011   9.148 -2.2896 -0.8936 -1.7260
  125ccc    C13 6168   0.087   6.112   9.006 -0.0442  0.4830  0.7154
  125ccc    C14 6169   0.182   6.113   9.133  1.1167  0.1658  1.1370
  125ccc    C15 6170   0.128   6.036   9.251  0.2790 -1.0217 -0.4762
  125ccc    H18 6171   0.269   6.053   9.104  1.2458  0.7363  0.3062
  125ccc    H19 6172   0.003   6.181   9.022 -2.4599 -1.7376 -1.5187
  125ccc    H20 6173   0.062   6.107   9.302  2.5957  0.2037  1.0022
  125ccc     O1 6174   0.231   5.999   9.342  0.1733  0.0031 -0.0914
  125ccc     O6 6175   0.163   6.141   8.886 -0.6930  0.4190  0.0108
  125ccc    C16 6176  -0.135   5.800   9.104  0.0411 -0.1519 -0.4436
  125ccc    H21 6177   0.105   6.131   8.808  0.4071  1.3918 -0.9905
  125ccc    H22 6178   0.315   6.237   9.233 -0.9350 -0.8679  0.0446
  125ccc    H23 6179  -0.221   5.819   9.040  0.8895 -1.6591 -2.1159
  125ccc    H24 6180  -0.172   5.786   9.206 -1.6056  1.7978 -0.7150
  125ccc     O7 6181  -0.061   5.687   9.058  0.3203  0.4373  0.1567
  125ccc    H25 6182  -0.007   5.676   9.138 -0.0072  0.4731  0.3842
  125ccc     O8 6183   0.053   5.916   9.213  0.0739 -0.0212  0.1681
  125ccc    H26 6184   0.198   5.958   9.424 -0.1015  1.9543  0.8257
  125ccc    H27 6185   0.099   5.904   8.969  0.7756 -0.2862  2.6285
  125ccc     O9 6186  -0.077   5.984   8.877 -0.2311  0.3326  0.3373
  125ccc    H28 6187  -0.021   5.984   8.798  0.4994  0.7923  0.8431
  125ccc     N3 6188   0.231   6.242   9.175 -1.0878 -0.4568  0.2965
  125ccc    C17 6189   0.897   7.189   9.329  0.3315 -0.4807  0.1356
  125ccc    C18 6190   0.777   7.259   9.259  0.3644  0.5456  0.1044
  125ccc    H29 6191   0.948   7.123   9.257  2.9854  2.4008 -0.8429
  125ccc    C19 6192   0.653   7.160   9.255 -0.5643  0.3552  0.7187
  125ccc    C20 6193   0.624   7.092   9.391  0.5126 -0.2072 -0.1436
  125ccc    C21 6194   0.759   7.017   9.434  0.6564 -0.7445  0.0348
  125ccc    H30 6195   0.600   7.175   9.458 -0.4974  1.8191 -2.8250
  125ccc    H31 6196   0.669   7.089   9.172  1.0723 -0.3757  1.6046
  125ccc    H32 6197   0.790   6.946   9.356 -2.4188 -0.2321 -1.8066
  125ccc    O10 6198   0.741   6.964   9.566  0.0222 -0.5458 -0.0908
  125ccc    O11 6199   0.542   7.244   9.221 -0.7585  0.0412  0.1580
  125ccc    C22 6200   0.998   7.306   9.359 -0.0611  0.9725  0.6246
  125ccc    H33 6201   0.552   7.271   9.128 -2.0251 -0.8364 -0.2584
  125ccc    H34 6202   0.414   7.054   9.406 -0.7319 -1.9431  0.5867
  125ccc    H35 6203   0.940   7.372   9.424 -1.1906  0.0745  0.5450
  125ccc    H36 6204   1.017   7.361   9.265 -0.5697  1.2554  0.6866
  125ccc    O12 6205   1.112   7.249   9.422  0.7340 -0.4413 -0.3517
  125ccc    H37 6206   1.079   7.205   9.502  0.7904  0.5694  0.2495
  125ccc    O13 6207   0.857   7.129   9.451  0.3281  0.3662 -0.4936
  125ccc    H38 6208   0.719   7.044   9.618  1.0155  0.0905 -0.6279
  125ccc    H39 6209   0.745   7.348   9.315 -0.7021 -0.7459  1.6438
  125ccc     O5 6210   0.807   7.304   9.127 -0.2508  0.7106  0.1928
  125ccc    H40 6211   0.815   7.401   9.135  0.6728  0.7764 -1.1414
  125ccc     N4 6212   0.503   7.008   9.389 -0.2858 -0.7674 -0.4304
  126SOL     OW 6213   5.300   2.521   1.242  0.2744  0.1670  0.1684
  126SOL    HW1 6214   5.266   2.605   1.275 -2.4659 -0.6614 -0.2706
  126SOL    HW2 6215   5.335   2.478   1.320 -1.5742  0.2970  1.1426
  127SOL     OW 6216   5.734   2.864   6.871 -0.5512 -0.0026 -0.1335
  127SOL    HW1 6217   5.673   2.935   6.850  0.3020  0.7608 -0.1069
  127SOL    HW2 6218   5.722   2.849   6.965 -2.5849 -1.7079 -0.5956
  128SOL     OW 6219   3.173   3.153   0.000  0.8455  0.1189  0.2295
  128SOL    HW1 6220   3.111   3.091   0.039  0.8007  0.1976  0.2831
  128SOL    HW2 6221   3.181   3.223   0.065  0.6956  0.2993  0.0552
  129SOL     OW 6222   5.220   7.863   9.362 -0.0500 -0.5139  0.0882
  129SOL    HW1 6223   5.286   7.917   9.318 -0.4581 -0.3693 -0.3462
  129SOL    HW2 6224   5.139   7.879   9.313 -0.2053 -1.4180  0.0411
  130SOL     OW 6225   0.217   6.164   5.973 -0.3434  0.1491  0.6508
  130SOL    HW1 6226   0.237   6.137   5.883 -2.0723 -0.0277  0.2798
  130SOL    HW2 6227   0.290   6.130   6.025 -0.7032 -2.2779 -0.2814
  131SOL     OW 6228   2.961   5.611   9.603  0.3344  0.5486  0.4782
  131SOL    HW1 6229   3.045   5.567   9.613  0.8769  1.1969 -0.8498
  131SOL    HW2 6230   2.916   5.562   9.533 -0.0658  0.6647  0.6502
  132SOL     OW 6231  10.685   4.040   4.654  0.0104 -0.2807  0.1353
  132SOL    HW1 6232  10.673   3.946   4.646  0.2429 -0.2259 -1.1622
  132SOL    HW2 6233  10.597   4.076   4.644  0.0942 -0.3046 -0.7870
  133SOL     OW 6234   3.075   9.824   3.107  0.4313  0.7577  0.3316
  133SOL    HW1 6235   2.992   9.859   3.138  0.1090  0.4737 -0.1839
  133SOL    HW2 6236   3.091   9.869   3.024  1.0261  1.1478  0.6568
  134SOL     OW 6237   6.540   1.652   6.948  0.0992 -0.1524  0.0888
  134SOL    HW1 6238   6.519   1.578   7.005 -0.5468 -0.4763 -0.5527
  134SOL    HW2 6239   6.502   1.628   6.863  0.3262  0.6904 -0.2581
  135SOL     OW 6240   5.225   2.613   7.790  0.5542  0.4372 -0.7237
  135SOL    HW1 6241   5.309   2.626   7.835  0.4771  1.3645 -0.8263
  135SOL    HW2 6242   5.240   2.648   7.702  0.0105  0.7469 -0.6953
  136SOL     OW 6243   7.646   3.970  10.568  0.3822 -0.2172 -0.4066
  136SOL    HW1 6244   7.647   3.994  10.476 -0.5862  0.6013 -0.2200
  136SOL    HW2 6245   7.738   3.977  10.596  0.5954  0.0738 -1.1679
  137SOL     OW 6246   1.816   9.075   5.077  0.0805 -0.0566 -0.3728
  137SOL    HW1 6247   1.872   9.009   5.119 -2.4810 -2.2002 -0.0720
  137SOL    HW2 6248   1.798   9.138   5.147 -0.4092 -1.0796  0.4513
  138SOL     OW 6249   2.989   5.079   7.984  0.6944 -0.3419 -0.3441
  138SOL    HW1 6250   3.050   5.146   7.953  0.1134  0.5564  0.3962
  138SOL    HW2 6251   2.902   5.117   7.971  0.3096 -1.2850 -0.6447
  139SOL     OW 6252   6.586   8.259   5.880 -0.2192  0.3259 -0.3808
  139SOL    HW1 6253   6.615   8.311   5.806 -1.2391  0.9304 -0.3753
  139SOL    HW2 6254   6.501   8.225   5.854  0.2134 -0.9631 -0.1888
  140SOL     OW 6255   1.959   8.468   5.558 -0.5288 -0.2214  0.1680
  140SOL    HW1 6256   1.897   8.494   5.626 -0.5886  0.2283 -0.0540
  140SOL    HW2 6257   2.031   8.426   5.606 -0.1713  0.8503  0.5954
  141SOL     OW 6258   3.477   4.859   9.150  0.3254 -0.0474 -0.8979
  141SOL    HW1 6259   3.449   4.919   9.080  0.4691  0.3287 -0.6369
  141SOL    HW2 6260   3.519   4.787   9.103  1.2321  0.6398 -1.1688
  142SOL     OW 6261   6.531   0.997   7.243  1.0712 -0.2809 -0.1300
  142SOL    HW1 6262   6.608   0.953   7.281  0.3877 -0.8319  0.6395
  142SOL    HW2 6263   6.465   0.928   7.236  0.5693  0.2406 -0.5909
  143SOL     OW 6264   6.770   2.546   4.112  0.6201 -0.1636  0.0170
  143SOL    HW1 6265   6.783   2.639   4.092 -0.3749  0.4332  1.8732
  143SOL    HW2 6266   6.832   2.529   4.184  1.6501 -1.2867 -1.0892
  144SOL     OW 6267   7.732   2.078   1.973  0.0942  0.2495 -0.1112
  144SOL    HW1 6268   7.692   2.164   1.957 -2.2135 -0.8346 -0.6384
  144SOL    HW2 6269   7.670   2.034   2.031  2.5485 -0.1661  2.4070
  145SOL     OW 6270   6.380   1.198   8.470 -0.2015 -0.1674  0.1423
  145SOL    HW1 6271   6.327   1.143   8.527  1.3960  1.1880  3.1567
  145SOL    HW2 6272   6.417   1.264   8.528  5.0462 -1.1520 -1.5197
  146SOL     OW 6273   2.055   1.986   4.425  0.4310 -0.2794  0.1309
  146SOL    HW1 6274   2.076   1.967   4.333 -1.2972  1.9091 -0.8004
  146SOL    HW2 6275   1.968   1.948   4.438 -0.3579  1.4134  0.0890
  147SOL     OW 6276   6.948   2.615   3.329 -0.2758 -0.0639 -0.4426
  147SOL    HW1 6277   6.858   2.589   3.346  0.2748 -3.0451 -1.4887
  147SOL    HW2 6278   6.951   2.629   3.234  0.5399 -0.9735 -0.5687
  148SOL     OW 6279   6.078   5.320   2.386 -0.1315  0.6141  0.1639
  148SOL    HW1 6280   6.070   5.415   2.373 -0.3219  0.2245 -3.5905
  148SOL    HW2 6281   5.989   5.291   2.404 -0.5724  0.9206 -1.3317
  149SOL     OW 6282   5.792   4.784   9.265 -0.7295 -0.3233 -0.2587
  149SOL    HW1 6283   5.718   4.834   9.231  0.8292  2.9126  0.7147
  149SOL    HW2 6284   5.783   4.790   9.360  0.9299  0.4643 -0.1153
  150SOL     OW 6285   0.789   9.758   0.965  0.1080 -0.3341 -0.4617
  150SOL    HW1 6286   0.807   9.682   0.909 -1.0011 -0.2860 -0.9064
  150SOL    HW2 6287   0.857   9.821   0.942  2.1800 -1.8320  1.2223
  151SOL     OW 6288   5.559   2.082   2.103  0.1016  0.7834  0.4823
  151SOL    HW1 6289   5.517   1.998   2.125  3.2621 -1.8914 -2.4632
  151SOL    HW2 6290   5.537   2.096   2.011  0.8463  2.4528  0.5288
  152SOL     OW 6291   5.042   7.105   6.327 -0.5902 -0.6228 -0.2189
  152SOL    HW1 6292   4.956   7.063   6.334 -1.2598  0.2519 -2.3594
  152SOL    HW2 6293   5.038   7.178   6.389 -0.3133 -2.1464  1.7190
  153SOL     OW 6294   9.842   3.199   6.644 -0.1358 -0.0257 -0.2720
  153SOL    HW1 6295   9.841   3.248   6.726 -3.0862  0.1738 -0.3190
  153SOL    HW2 6296   9.935   3.196   6.619  0.8395  0.1460  2.8690
  154SOL     OW 6297   9.189   6.108   2.703  0.6314  0.3995  0.4214
  154SOL    HW1 6298   9.208   6.130   2.794 -0.2861  1.1930  0.4409
  154SOL    HW2 6299   9.111   6.052   2.708  0.8026  0.1340  0.1449
  155SOL     OW 6300   3.099   9.605   7.322  0.5337 -0.0260  0.2395
  155SOL    HW1 6301   3.057   9.532   7.278  0.5761 -0.5988  1.1366
  155SOL    HW2 6302   3.078   9.593   7.415  0.4977  1.1203  0.3967
  156SOL     OW 6303   5.780   5.415   1.348 -0.1583  0.2745 -0.2169
  156SOL    HW1 6304   5.871   5.445   1.350 -0.4043  1.1769 -1.4879
  156SOL    HW2 6305   5.784   5.329   1.306  0.1421  0.1041  0.1478
  157SOL     OW 6306   0.832   2.809   7.260 -0.7174  0.4062 -0.3005
  157SOL    HW1 6307   0.805   2.900   7.271 -1.4510  0.2483 -0.7691
  157SOL    HW2 6308   0.836   2.774   7.349  0.2252  1.0741 -0.0657
  158SOL     OW 6309   5.477   2.513  10.006  0.1011  0.4517 -0.3176
  158SOL    HW1 6310   5.542   2.527  10.075  1.3644 -0.7298 -1.2167
  158SOL    HW2 6311   5.514   2.443   9.952 -1.8326 -0.1269 -0.9849
  159SOL     OW 6312   1.612   3.053   2.187  0.1821 -0.4238  0.4018
  159SOL    HW1 6313   1.682   3.068   2.123  0.6063  0.9444  1.1558
  159SOL    HW2 6314   1.635   3.108   2.261 -1.5433 -0.1729  0.7897
  160SOL     OW 6315   1.276   1.589   8.008 -0.1923  0.5480 -0.1185
  160SOL    HW1 6316   1.341   1.646   7.966 -0.7728  0.7613 -0.7546
  160SOL    HW2 6317   1.192   1.621   7.974 -0.4938 -1.0686 -0.9670
  161SOL     OW 6318   9.171   4.246   7.169  0.4772  0.3922 -0.0769
  161SOL    HW1 6319   9.263   4.265   7.188  0.3048 -0.1412  1.4695
  161SOL    HW2 6320   9.123   4.318   7.209  0.2702  1.9035 -2.8243
  162SOL     OW 6321   4.456   9.100   7.033  0.1163 -0.2131  0.4106
  162SOL    HW1 6322   4.382   9.051   6.998  1.0649 -0.5884 -1.1595
  162SOL    HW2 6323   4.419   9.154   7.103 -1.3615 -1.4506  0.6194
  163SOL     OW 6324   5.118   9.385   6.642 -0.7000  0.2058 -0.1272
  163SOL    HW1 6325   5.137   9.295   6.669  0.5883  0.5621  0.2300
  163SOL    HW2 6326   5.154   9.392   6.554  0.3846  0.7309  0.3421
  164SOL     OW 6327   6.535   0.400  10.528 -0.0902 -0.2350 -0.1521
  164SOL    HW1 6328   6.624   0.435  10.538 -0.7244  2.0362 -1.7234
  164SOL    HW2 6329   6.526   0.383  10.435 -0.9474 -1.5884  0.1485
  165SOL     OW 6330   4.747   9.564   8.631 -0.3598 -0.7158  0.1087
  165SOL    HW1 6331   4.782   9.565   8.542  0.3204  1.6352  0.3451
  165SOL    HW2 6332   4.727   9.472   8.648  2.1760 -1.6493 -1.4201
  166SOL     OW 6333  10.609   0.996   4.348  0.1683 -0.0423  0.3722
  166SOL    HW1 6334  10.614   1.029   4.437 -2.2957 -0.5969  0.7773
  166SOL    HW2 6335  10.664   0.918   4.348  1.1782  0.6563  1.0430
  167SOL     OW 6336   2.000   1.549   8.066 -0.0464  0.1722 -0.1351
  167SOL    HW1 6337   1.979   1.642   8.059 -1.6638 -0.2133 -0.8673
  167SOL    HW2 6338   1.920   1.504   8.039  1.1977 -1.4396 -1.3758
  168SOL     OW 6339   3.495   8.692   6.452  0.4910 -0.2055 -0.0899
  168SOL    HW1 6340   3.535   8.683   6.365  1.6997  0.0017  0.4194
  168SOL    HW2 6341   3.402   8.703   6.435  0.9485  2.0958 -1.4859
  169SOL     OW 6342   1.456   2.646   4.492 -0.4943  0.7282 -0.4112
  169SOL    HW1 6343   1.514   2.722   4.491 -0.8441  1.0203  0.4891
  169SOL    HW2 6344   1.411   2.651   4.576  1.2287 -1.7896  0.7809
  170SOL     OW 6345   4.088   9.667   6.140  0.0822 -0.1009 -0.2158
  170SOL    HW1 6346   4.054   9.625   6.061  2.1910  0.6066 -1.5925
  170SOL    HW2 6347   4.058   9.612   6.212  0.1319 -2.1533 -1.6896
  171SOL     OW 6348   5.164   8.346  10.551  0.4379 -0.3976  0.3027
  171SOL    HW1 6349   5.157   8.250  10.549  0.6648 -0.4151  0.2401
  171SOL    HW2 6350   5.097   8.374  10.613  0.8110 -0.6419  0.8271
  172SOL     OW 6351   0.145   4.592   8.755  0.6567 -0.5284  0.1836
  172SOL    HW1 6352   0.179   4.562   8.839 -0.2652 -0.9701  0.4167
  172SOL    HW2 6353   0.065   4.641   8.777  0.4568 -0.5680 -0.4266
  173SOL     OW 6354   5.376   3.923   6.768  0.5199 -0.0488  0.4157
  173SOL    HW1 6355   5.441   3.857   6.793  1.3438  0.3430 -0.6241
  173SOL    HW2 6356   5.408   4.004   6.806  0.1950  0.0009  0.5886
  174SOL     OW 6357  10.237   0.141   1.949  0.2387 -0.9010  0.1600
  174SOL    HW1 6358  10.292   0.206   1.905  1.3390 -0.9081  1.4540
  174SOL    HW2 6359  10.178   0.193   2.004  0.3944 -0.9492  0.3767
  175SOL     OW 6360   3.692   7.709   5.044 -0.1959 -0.0223 -0.7935
  175SOL    HW1 6361   3.698   7.772   4.973 -1.2003  0.2787 -0.6290
  175SOL    HW2 6362   3.605   7.669   5.033  0.6008 -1.7425 -1.1906
  176SOL     OW 6363   4.365   0.069   1.837  0.1490  0.1356  0.3234
  176SOL    HW1 6364   4.361   0.106   1.925  0.3990  0.7689  0.0753
  176SOL    HW2 6365   4.286   0.015   1.829 -1.1716  2.0205  0.0861
  177SOL     OW 6366   5.448   6.004   2.394  0.7553  0.3327  0.1765
  177SOL    HW1 6367   5.454   6.098   2.380  1.0571  0.2222 -0.4664
  177SOL    HW2 6368   5.465   5.992   2.488  2.0884  0.7979  0.0167
  178SOL     OW 6369  10.536   3.055  10.173  0.1366 -0.1047 -0.2678
  178SOL    HW1 6370  10.537   2.967  10.134  0.2284 -0.6289  0.8901
  178SOL    HW2 6371  10.578   3.044  10.258  0.9136  1.2410 -0.4519
  179SOL     OW 6372   4.289   2.281   6.563 -0.1385 -0.7369 -0.4503
  179SOL    HW1 6373   4.227   2.210   6.547 -0.8794 -0.6095  1.6213
  179SOL    HW2 6374   4.371   2.250   6.524 -1.2063 -1.3305 -2.3647
  180SOL     OW 6375   4.777   0.132   6.063 -0.2399 -0.5994 -0.2234
  180SOL    HW1 6376   4.819   0.047   6.061  2.1863  0.5142  0.1568
  180SOL    HW2 6377   4.713   0.125   6.134  2.2194 -1.1626  2.1062
  181SOL     OW 6378   2.041   7.942   5.717 -0.4578  0.4597  0.0501
  181SOL    HW1 6379   2.120   7.892   5.697 -0.0682  0.3985  1.6262
  181SOL    HW2 6380   1.979   7.918   5.648  0.0660 -1.3943  0.1806
  182SOL     OW 6381   5.048   3.211   6.458  0.0251  0.0421 -0.9129
  182SOL    HW1 6382   4.957   3.240   6.469 -0.1679 -0.7775 -0.2201
  182SOL    HW2 6383   5.046   3.119   6.484  1.1291  0.1097 -0.5769
  183SOL     OW 6384   4.687   5.205   2.626  0.1008  0.3225  0.0292
  183SOL    HW1 6385   4.713   5.156   2.548  0.4024  1.7230 -0.7682
  183SOL    HW2 6386   4.618   5.151   2.666  0.2558 -0.6287 -0.9404
  184SOL     OW 6387   1.581   9.928   5.181  0.1336 -0.0942 -0.4256
  184SOL    HW1 6388   1.672   9.958   5.180 -0.8337  3.2529 -0.1305
  184SOL    HW2 6389   1.547   9.950   5.095 -0.6334 -0.4831 -0.2363
  185SOL     OW 6390   1.788  10.209   3.153  0.1396  0.0613 -0.4165
  185SOL    HW1 6391   1.849  10.138   3.172  0.6390  0.8735  1.2378
  185SOL    HW2 6392   1.838  10.269   3.097  0.8153  0.5697  0.6754
  186SOL     OW 6393   0.192   0.312   9.578  0.1336  0.3976 -0.3257
  186SOL    HW1 6394   0.113   0.275   9.539 -0.5976  0.4453  1.0514
  186SOL    HW2 6395   0.261   0.250   9.556 -0.3798  0.0751 -1.0782
  187SOL     OW 6396   7.323   8.146   5.407 -0.1381  0.2032 -0.7206
  187SOL    HW1 6397   7.333   8.069   5.462 -0.8096  0.9786  0.5394
  187SOL    HW2 6398   7.404   8.150   5.356 -1.0938 -2.7398 -2.7594
  188SOL     OW 6399   1.269   6.881   9.928  0.5903  0.4019  0.2161
  188SOL    HW1 6400   1.339   6.817   9.944 -1.2639 -2.0201 -0.7330
  188SOL    HW2 6401   1.227   6.891  10.014  1.6049  1.3095  0.6297
  189SOL     OW 6402   4.676  10.239   7.892  0.6576  0.2903 -0.1690
  189SOL    HW1 6403   4.720  10.176   7.835  0.6895  0.5801 -0.4684
  189SOL    HW2 6404   4.591  10.199   7.910  1.4572 -0.8224  1.3627
  190SOL     OW 6405   1.837   3.193   1.794 -0.1032  0.2517 -0.5031
  190SOL    HW1 6406   1.879   3.136   1.730 -1.0122 -0.5695 -0.3887
  190SOL    HW2 6407   1.794   3.261   1.742  0.2067  0.3026 -0.6910
  191SOL     OW 6408   5.366   3.862   8.286 -0.1175  0.2801 -0.5431
  191SOL    HW1 6409   5.440   3.922   8.301 -0.4628  0.4895  0.3434
  191SOL    HW2 6410   5.381   3.829   8.197  1.1182  0.2182 -0.3350
  192SOL     OW 6411   5.140   6.585   4.501  0.1612 -0.0079  0.5773
  192SOL    HW1 6412   5.160   6.492   4.517 -1.1001 -0.6102 -0.9687
  192SOL    HW2 6413   5.055   6.583   4.456 -0.1501  1.9498  1.0080
  193SOL     OW 6414  10.053   3.918   0.722  0.1656  0.2048 -0.3928
  193SOL    HW1 6415  10.113   3.952   0.789 -0.4537 -1.7545  1.2478
  193SOL    HW2 6416   9.976   3.889   0.770 -1.6972  1.5507 -2.3247
  194SOL     OW 6417   3.434   7.506   4.362  0.2190  0.2664  0.1309
  194SOL    HW1 6418   3.474   7.585   4.325  1.0791 -0.4295 -0.4740
  194SOL    HW2 6419   3.453   7.438   4.298 -0.1779 -0.5147  0.8289
  195SOL     OW 6420   5.397  10.084   1.569  0.0009 -0.0614  0.2108
  195SOL    HW1 6421   5.366  10.174   1.565 -0.2441  0.0808  3.0264
  195SOL    HW2 6422   5.476  10.088   1.623  0.2584 -1.4543 -0.0262
  196SOL     OW 6423  10.424   1.580   2.618 -0.3694 -0.3444  0.9995
  196SOL    HW1 6424  10.337   1.547   2.640  0.5552 -0.9790  4.1709
  196SOL    HW2 6425  10.419   1.674   2.633 -0.9647 -0.0593 -0.7342
  197SOL     OW 6426   5.700  10.113   9.395  0.0942  0.3401 -0.6772
  197SOL    HW1 6427   5.787  10.074   9.399  0.3364  0.6677 -2.0856
  197SOL    HW2 6428   5.648  10.052   9.343 -1.4416 -1.4013  2.6614
  198SOL     OW 6429   4.449   0.355   6.906 -0.0555 -1.3456  0.5937
  198SOL    HW1 6430   4.482   0.348   6.996 -0.4623  0.9332  0.9991
  198SOL    HW2 6431   4.471   0.445   6.880 -0.2392 -1.8496 -1.4925
  199SOL     OW 6432  10.024   0.203   3.512 -1.1940 -0.2949 -0.0185
  199SOL    HW1 6433  10.015   0.107   3.514  0.6607 -0.5258 -0.6299
  199SOL    HW2 6434  10.031   0.228   3.604 -0.9577 -0.8356  0.1185
  200SOL     OW 6435   0.471   3.619   1.099  0.8129  0.2652 -0.0732
  200SOL    HW1 6436   0.440   3.531   1.123  0.3005  0.1463 -1.1398
  200SOL    HW2 6437   0.404   3.678   1.131  1.7749  0.4177  1.8329
  201SOL     OW 6438   1.979   0.208   8.391  0.1613  0.3187  0.2522
  201SOL    HW1 6439   2.056   0.221   8.446  0.2808 -0.8038  0.3803
  201SOL    HW2 6440   1.910   0.183   8.453 -0.2969  1.2197  0.1287
  202SOL     OW 6441   6.135   0.535   6.385 -0.4108 -0.4889  0.1034
  202SOL    HW1 6442   6.093   0.451   6.365 -0.9976 -0.4777  1.1803
  202SOL    HW2 6443   6.071   0.581   6.440 -0.0442  0.6161 -0.3660
  203SOL     OW 6444   4.009   2.704   5.532  0.1109  0.0259  0.2008
  203SOL    HW1 6445   3.920   2.718   5.501  0.6676 -0.2399 -1.6317
  203SOL    HW2 6446   4.056   2.783   5.507  0.7694 -0.5391 -0.3997
  204SOL     OW 6447   2.250   8.650   2.771 -0.0879 -0.5698 -0.4985
  204SOL    HW1 6448   2.193   8.573   2.776  1.4141 -1.7120  0.0070
  204SOL    HW2 6449   2.201   8.720   2.813 -1.1884 -1.4468 -0.2739
  205SOL     OW 6450   8.864   1.855  10.063  0.4027 -0.2614  0.0005
  205SOL    HW1 6451   8.829   1.890  10.145 -2.0315  0.0380 -1.0755
  205SOL    HW2 6452   8.849   1.761  10.069  0.2904 -0.2482 -0.0755
  206SOL     OW 6453   0.873   8.768   2.231  0.3085  0.1539  0.3230
  206SOL    HW1 6454   0.890   8.821   2.309 -1.5542 -0.5707  1.2752
  206SOL    HW2 6455   0.942   8.793   2.170  2.7957 -0.3858  2.7314
  207SOL     OW 6456   0.264   8.890   9.833 -0.0472  0.1900 -0.5608
  207SOL    HW1 6457   0.334   8.905   9.897  1.2248  2.0456 -2.2611
  207SOL    HW2 6458   0.185   8.881   9.886  1.2304 -0.4041  1.3602
  208SOL     OW 6459   0.415   5.352   8.766  0.0569 -0.2091 -0.6485
  208SOL    HW1 6460   0.374   5.437   8.753  1.4189  1.3344  3.4361
  208SOL    HW2 6461   0.365   5.311   8.837  1.9813 -0.8268  0.4359
  209SOL     OW 6462   8.186   1.288   4.268 -0.3415 -0.2843  0.0352
  209SOL    HW1 6463   8.193   1.259   4.359  1.8355  1.4742  0.5269
  209SOL    HW2 6464   8.233   1.221   4.218  0.0500 -0.3349  0.4575
  210SOL     OW 6465   3.034   8.926   5.814  0.1711  0.0496  0.3280
  210SOL    HW1 6466   3.068   9.015   5.824  1.0472 -0.1896 -0.4081
  210SOL    HW2 6467   3.110   8.869   5.831 -0.6809 -0.6389  2.1886
  211SOL     OW 6468   0.185   8.526  10.319 -0.2536 -0.0967  0.3145
  211SOL    HW1 6469   0.259   8.519  10.378 -0.8234  0.2434  1.0812
  211SOL    HW2 6470   0.202   8.606  10.268 -0.6485  0.6259  1.2883
  212SOL     OW 6471   3.102   4.541   1.162 -0.2806  0.1340  0.0979
  212SOL    HW1 6472   3.171   4.524   1.098  0.0256 -1.3058  0.7529
  212SOL    HW2 6473   3.141   4.601   1.225  1.1771 -2.2039  1.5841
  213SOL     OW 6474   6.232   4.351   0.911 -0.1888  0.0969  0.0289
  213SOL    HW1 6475   6.312   4.359   0.859 -1.0865  2.7071 -1.1232
  213SOL    HW2 6476   6.223   4.257   0.926  2.5953 -0.3682 -0.5433
  214SOL     OW 6477   4.964   5.203   8.741  0.3861  0.2701 -0.2009
  214SOL    HW1 6478   4.924   5.129   8.786  0.9631 -0.4494 -0.8664
  214SOL    HW2 6479   4.927   5.200   8.653  0.0115  1.0904 -0.0803
  215SOL     OW 6480   7.821   5.604   7.765 -0.8508 -0.2602 -0.4922
  215SOL    HW1 6481   7.912   5.610   7.737 -0.3671 -2.3923  0.3940
  215SOL    HW2 6482   7.770   5.610   7.683  0.3087 -2.4283 -1.4577
  216SOL     OW 6483   2.785   4.552   4.224  0.0534  0.8146 -0.4150
  216SOL    HW1 6484   2.736   4.502   4.159  0.1714  0.2435 -0.0744
  216SOL    HW2 6485   2.848   4.489   4.260 -0.6748  0.8358  0.9631
  217SOL     OW 6486   4.887   7.339   7.178  0.0591 -0.1219 -0.0995
  217SOL    HW1 6487   4.874   7.432   7.162 -0.6983 -0.1001  0.6002
  217SOL    HW2 6488   4.969   7.318   7.133 -1.3156  0.1735 -2.9615
  218SOL     OW 6489  10.659   7.286  10.401 -0.2553 -0.9305  0.4276
  218SOL    HW1 6490  10.575   7.317  10.366  0.0321  0.1227  0.6403
  218SOL    HW2 6491  10.653   7.191  10.396 -0.4939 -0.8585 -1.8705
  219SOL     OW 6492   4.610   1.430   4.878 -0.2384 -0.0651  0.8959
  219SOL    HW1 6493   4.685   1.441   4.819  0.0577  2.8140  1.6932
  219SOL    HW2 6494   4.536   1.468   4.831 -0.9851 -1.6819  0.6802
  220SOL     OW 6495  10.078   8.533   3.498  0.2281 -0.3909 -0.1864
  220SOL    HW1 6496  10.165   8.573   3.498  0.0322  0.0972 -2.1862
  220SOL    HW2 6497  10.023   8.596   3.545  1.1121 -1.2188  2.1195
  221SOL     OW 6498   0.635   8.323   1.580  0.1020  0.1283  0.0320
  221SOL    HW1 6499   0.631   8.339   1.674 -2.5689 -0.1192  0.0532
  221SOL    HW2 6500   0.619   8.409   1.540  0.8743  0.1694 -0.1986
  222SOL     OW 6501   6.386   2.505   6.422  1.1339 -0.2126 -0.4221
  222SOL    HW1 6502   6.308   2.555   6.446 -0.4194 -1.9251 -1.5944
  222SOL    HW2 6503   6.458   2.567   6.432 -0.5006  1.8041 -0.4086
  223SOL     OW 6504   7.975   9.425   9.309  0.5292 -0.4032 -0.1505
  223SOL    HW1 6505   7.887   9.402   9.281  0.3398 -1.4155  1.1491
  223SOL    HW2 6506   8.014   9.341   9.336  0.7862  0.3936  2.2269
  224SOL     OW 6507   1.955   0.487   5.043 -0.6404 -0.2137 -0.1883
  224SOL    HW1 6508   1.925   0.396   5.048  0.3942 -0.5643 -0.1433
  224SOL    HW2 6509   2.039   0.487   5.089 -1.2367  1.0468  0.9752
  225SOL     OW 6510   7.810   9.679   1.118  0.1602  0.0816  0.7263
  225SOL    HW1 6511   7.806   9.599   1.171 -1.0769 -0.4247 -0.0984
  225SOL    HW2 6512   7.855   9.652   1.038 -2.3054 -0.4553 -0.5830
  226SOL     OW 6513   9.149  10.009   8.019 -0.1422  0.3985 -0.0840
  226SOL    HW1 6514   9.072   9.970   8.059  1.8957 -2.0381  1.8351
  226SOL    HW2 6515   9.162  10.092   8.065 -0.3562 -0.2560  1.1788
  227SOL     OW 6516   5.501   6.070  10.136 -0.0041 -0.4782  0.1698
  227SOL    HW1 6517   5.542   6.015  10.070 -0.2904  0.1902 -0.5849
  227SOL    HW2 6518   5.455   6.138  10.086 -1.7607 -1.0043  0.9848
  228SOL     OW 6519   6.438   1.162   6.195 -0.2830  0.1548  0.1888
  228SOL    HW1 6520   6.453   1.163   6.290 -2.3402 -1.1187  0.5784
  228SOL    HW2 6521   6.369   1.227   6.181  0.6747  1.0324 -0.6038
  229SOL     OW 6522   1.635   8.820   5.936 -0.1855 -0.5437  0.1322
  229SOL    HW1 6523   1.557   8.776   5.900  0.7258 -0.6763 -1.8094
  229SOL    HW2 6524   1.689   8.748   5.970 -0.3381 -0.5739  0.3113
  230SOL     OW 6525   4.850   5.362   0.429 -0.5253  0.5569  0.3765
  230SOL    HW1 6526   4.889   5.357   0.516 -0.7152 -0.4046  0.4068
  230SOL    HW2 6527   4.921   5.335   0.370 -0.5561  0.7066  0.2696
  231SOL     OW 6528   1.636   6.598   8.617  0.3666 -0.1823 -0.2685
  231SOL    HW1 6529   1.543   6.611   8.633  0.6301  0.1010  1.1335
  231SOL    HW2 6530   1.655   6.652   8.540 -0.3120  1.0014  0.3811
  232SOL     OW 6531  10.140   1.457   4.705 -0.0651 -0.8018  0.2930
  232SOL    HW1 6532  10.135   1.411   4.788  5.2073 -1.5325  0.5528
  232SOL    HW2 6533  10.202   1.528   4.721 -0.8750  0.6185 -2.3926
  233SOL     OW 6534   6.604   0.359   5.641 -0.4580  0.2264  0.0589
  233SOL    HW1 6535   6.535   0.409   5.598 -1.6268  0.4456  2.0769
  233SOL    HW2 6536   6.566   0.332   5.724  1.7329 -0.0747  1.0284
  234SOL     OW 6537   9.524   1.301   7.648  0.4118  0.1648  0.0753
  234SOL    HW1 6538   9.458   1.308   7.579  0.0557  2.4928  0.5402
  234SOL    HW2 6539   9.521   1.210   7.675 -2.0943  0.0027 -0.4571
  235SOL     OW 6540   7.556   7.079   4.080 -0.1727 -0.2898  0.8533
  235SOL    HW1 6541   7.555   6.985   4.064 -0.4631  0.0659 -1.4950
  235SOL    HW2 6542   7.648   7.104   4.074 -0.2569 -0.1941 -0.0900
  236SOL     OW 6543   2.348  10.224  10.211 -0.2655  0.5153 -0.2927
  236SOL    HW1 6544   2.441  10.218  10.235  0.0428 -0.1637 -1.6049
  236SOL    HW2 6545   2.348  10.249  10.119 -1.3861  0.0406 -0.4406
  237SOL     OW 6546   0.869   7.605   0.727  0.2094  0.8401 -0.0156
  237SOL    HW1 6547   0.923   7.575   0.654 -0.7230  0.5209 -0.6030
  237SOL    HW2 6548   0.902   7.557   0.803  0.9816  0.9319 -0.2899
  238SOL     OW 6549   1.835   2.710   4.159 -0.1914 -0.1108 -0.6623
  238SOL    HW1 6550   1.857   2.776   4.224  0.9281 -0.3783 -0.7491
  238SOL    HW2 6551   1.780   2.647   4.205 -0.9372  0.6642 -0.4762
  239SOL     OW 6552   2.174   0.676   4.445  0.1706  0.0774 -0.2830
  239SOL    HW1 6553   2.121   0.602   4.475 -1.2417  1.1364 -0.0457
  239SOL    HW2 6554   2.214   0.710   4.525 -0.3145  0.4222 -0.1852
  240SOL     OW 6555   3.931  10.089   4.619 -0.4092 -0.2453 -0.4442
  240SOL    HW1 6556   3.947   9.997   4.598 -0.9026 -0.0459 -1.7567
  240SOL    HW2 6557   3.929  10.091   4.715  1.2235 -1.3115 -0.3480
  241SOL     OW 6558   4.817   4.202  10.344 -0.5205  0.0874 -0.3355
  241SOL    HW1 6559   4.844   4.193  10.253 -1.2742  0.8695 -0.6516
  241SOL    HW2 6560   4.894   4.176  10.395  0.0896  0.1782 -1.1922
  242SOL     OW 6561   0.665   9.129   9.745  0.3198 -0.0100  0.4636
  242SOL    HW1 6562   0.632   9.195   9.806 -1.9632 -1.3589  0.7779
  242SOL    HW2 6563   0.589   9.106   9.691  1.1312 -2.1351  0.1508
  243SOL     OW 6564   5.467   4.022  10.217  0.1570 -0.2150  0.0851
  243SOL    HW1 6565   5.521   4.029  10.138  1.1482  0.1054  0.7719
  243SOL    HW2 6566   5.475   3.931  10.244 -0.5834 -0.4527 -0.4340
  244SOL     OW 6567   5.568   3.991   5.479 -0.3062 -0.1403  0.0272
  244SOL    HW1 6568   5.614   3.908   5.470  0.1207  0.3474 -4.2439
  244SOL    HW2 6569   5.605   4.032   5.557  2.6851 -2.0509 -0.2696
  245SOL     OW 6570   1.869   9.450   9.573  0.5081  0.2930 -0.6105
  245SOL    HW1 6571   1.934   9.518   9.590 -0.8391  1.6985 -0.8061
  245SOL    HW2 6572   1.819   9.484   9.498 -1.4532  0.0325  0.5362
  246SOL     OW 6573   8.047   9.180   9.399 -0.4492  0.1199  0.3400
  246SOL    HW1 6574   7.969   9.124   9.399 -0.6997  0.4357 -1.2591
  246SOL    HW2 6575   8.117   9.122   9.430 -0.7708 -1.0260 -0.9467
  247SOL     OW 6576   6.177   7.021   2.704  0.3619  0.2705 -0.3210
  247SOL    HW1 6577   6.159   6.930   2.680 -0.6566  0.7210 -1.3845
  247SOL    HW2 6578   6.237   7.052   2.636  0.4139  0.4968 -0.1738
  248SOL     OW 6579   0.348   7.672  10.331 -0.3622 -0.5284 -0.7994
  248SOL    HW1 6580   0.259   7.708  10.335  0.8717  2.7855  1.1509
  248SOL    HW2 6581   0.371   7.673  10.239 -0.4358  4.3142 -1.0079
  249SOL     OW 6582   1.680   2.545  10.052  0.3341 -0.1307 -0.0272
  249SOL    HW1 6583   1.598   2.592  10.067  1.1831  0.7272  2.2209
  249SOL    HW2 6584   1.667   2.459  10.091  0.3077 -0.1956 -0.1789
  250SOL     OW 6585   0.999   1.407   0.293 -0.1412 -0.1948 -0.0017
  250SOL    HW1 6586   1.087   1.408   0.330 -0.1202 -1.8971  0.0620
  250SOL    HW2 6587   1.000   1.476   0.226  1.5366 -0.8214 -0.6629
  251SOL     OW 6588   5.585   8.252   6.762  0.6883  0.0289 -0.4260
  251SOL    HW1 6589   5.580   8.217   6.851  2.0667 -0.1480 -0.3857
  251SOL    HW2 6590   5.676   8.280   6.753  0.4057  0.6510 -1.5662
  252SOL     OW 6591   4.095   5.605   2.521 -0.7742  0.0814  0.1922
  252SOL    HW1 6592   4.174   5.554   2.504  0.5868  1.6210  1.5487
  252SOL    HW2 6593   4.061   5.627   2.435  0.8236  0.1873 -0.4366
  253SOL     OW 6594   0.995   2.361   7.422 -0.0534 -0.4331  0.1462
  253SOL    HW1 6595   1.063   2.413   7.380  0.8622 -0.5005  1.4991
  253SOL    HW2 6596   0.917   2.376   7.368  0.2392  2.1017  0.3045
  254SOL     OW 6597   7.863   2.722   4.728  0.4318 -0.1059  0.2149
  254SOL    HW1 6598   7.933   2.658   4.719 -1.1919 -2.0833  0.7926
  254SOL    HW2 6599   7.845   2.724   4.822  0.7125  1.5527  0.2639
  255SOL     OW 6600   9.863   2.962   5.704  0.4660  0.3723  0.0821
  255SOL    HW1 6601   9.912   2.939   5.782  0.8902 -0.3986 -0.4008
  255SOL    HW2 6602   9.920   2.937   5.631  0.0909  1.0933 -0.4828
  256SOL     OW 6603   4.995   9.405   7.307  0.3321 -0.0923 -0.1800
  256SOL    HW1 6604   4.988   9.310   7.300 -0.6062 -0.0626  0.1791
  256SOL    HW2 6605   5.052   9.431   7.235 -0.6530 -0.7734 -1.2373
  257SOL     OW 6606   4.009   4.423   6.133  0.3242 -0.8001 -0.1732
  257SOL    HW1 6607   3.992   4.428   6.039 -1.2736 -0.9093  0.0951
  257SOL    HW2 6608   4.086   4.367   6.140  0.7880 -0.3593 -1.4362
  258SOL     OW 6609   5.141   5.816   7.860 -0.3898  0.3316 -0.0581
  258SOL    HW1 6610   5.160   5.886   7.923  1.6143  0.0192 -0.2536
  258SOL    HW2 6611   5.065   5.771   7.897  1.5477 -0.7429  2.9753
  259SOL     OW 6612   7.974   5.252   2.754  0.1582  0.0474 -0.0788
  259SOL    HW1 6613   7.975   5.156   2.747  0.5050 -0.2900  2.9857
  259SOL    HW2 6614   7.942   5.269   2.843 -0.3192  2.8242 -0.6850
  260SOL     OW 6615   8.205  10.584   2.251  0.2930 -0.3872  0.1918
  260SOL    HW1 6616   8.272  10.518   2.230  1.7910 -0.0049  3.1738
  260SOL    HW2 6617   8.123  10.535   2.250  0.9414 -1.5306 -0.7911
  261SOL     OW 6618   9.894   1.835   7.402 -0.2927  0.1531 -0.2479
  261SOL    HW1 6619   9.821   1.790   7.359  0.0091 -0.7319  0.1383
  261SOL    HW2 6620   9.902   1.918   7.355  0.4861 -1.0609 -2.3989
  262SOL     OW 6621   9.516   1.045   5.613 -0.5597 -0.2337  0.3192
  262SOL    HW1 6622   9.444   0.982   5.603  0.2111 -1.0118 -0.4306
  262SOL    HW2 6623   9.589   0.993   5.647  0.5049 -0.0684 -1.5768
  263SOL     OW 6624   4.270   3.600   6.824  0.0805  0.1340  0.0232
  263SOL    HW1 6625   4.179   3.628   6.838 -0.0134 -0.2030  0.0990
  263SOL    HW2 6626   4.264   3.532   6.757  0.2997  0.2491 -0.1142
  264SOL     OW 6627   3.332   1.657   8.026 -0.0749  0.0143  0.0658
  264SOL    HW1 6628   3.282   1.686   7.950  0.7878 -0.3629 -0.6678
  264SOL    HW2 6629   3.267   1.647   8.096 -0.7715  1.0577 -0.4170
  265SOL     OW 6630   5.704   1.980   4.639 -0.3192 -0.4872 -0.2004
  265SOL    HW1 6631   5.715   2.017   4.726 -0.6976 -2.7565  0.8803
  265SOL    HW2 6632   5.634   1.915   4.649  0.1568 -1.3436 -2.0069
  266SOL     OW 6633   2.248   8.456   0.410  0.1150 -0.4419  0.3717
  266SOL    HW1 6634   2.313   8.398   0.369 -0.2921 -0.6704  0.0384
  266SOL    HW2 6635   2.176   8.460   0.347 -0.9990 -1.6550  1.4876
  267SOL     OW 6636   0.830   9.204   0.712 -0.5588 -0.2336  0.0086
  267SOL    HW1 6637   0.883   9.272   0.756  1.7265 -1.4754 -0.6410
  267SOL    HW2 6638   0.894   9.152   0.664 -2.4751 -1.6937 -1.0841
  268SOL     OW 6639   1.763   2.338   6.269 -0.2099  0.6464  0.1464
  268SOL    HW1 6640   1.690   2.349   6.330 -0.4340 -1.7434  0.3824
  268SOL    HW2 6641   1.758   2.247   6.240  0.8571  1.2559 -2.2267
  269SOL     OW 6642   6.019  10.705  10.252  0.0712  0.2971 -0.3497
  269SOL    HW1 6643   6.100  10.662  10.226  0.1921  1.2045 -1.5763
  269SOL    HW2 6644   6.027  10.794  10.219 -1.6232  0.2759 -0.9376
  270SOL     OW 6645   1.784   3.680   6.982 -0.1478 -0.0122 -0.2079
  270SOL    HW1 6646   1.767   3.610   6.919  0.9415  0.0322 -0.5685
  270SOL    HW2 6647   1.872   3.663   7.014 -0.6650 -0.0244  1.3229
  271SOL     OW 6648  10.456   6.322   0.456  0.0775  0.0608 -0.7552
  271SOL    HW1 6649  10.437   6.295   0.546  1.2288 -0.6937 -0.7104
  271SOL    HW2 6650  10.541   6.282   0.437 -0.5780 -0.6046 -2.5010
  272SOL     OW 6651   1.620   9.630   3.813  0.5648  0.3822 -0.2045
  272SOL    HW1 6652   1.644   9.537   3.816  1.9219  0.7289  0.0097
  272SOL    HW2 6653   1.701   9.677   3.828 -0.2207  1.6205  0.3245
  273SOL     OW 6654   3.123   1.870   4.113 -0.1028 -0.2674 -0.1153
  273SOL    HW1 6655   3.048   1.915   4.074 -0.5302 -0.2389  0.6991
  273SOL    HW2 6656   3.123   1.900   4.204  0.1893 -1.1748  0.1889
  274SOL     OW 6657   8.283   8.581   5.560  0.3470 -0.6303 -0.5054
  274SOL    HW1 6658   8.371   8.554   5.532  0.9159  0.5741  0.0376
  274SOL    HW2 6659   8.278   8.552   5.651  0.6789  0.3862 -0.1484
  275SOL     OW 6660   6.859   1.448   4.908  0.1553 -0.1890  0.5075
  275SOL    HW1 6661   6.777   1.466   4.862 -0.3184 -1.0526  0.9799
  275SOL    HW2 6662   6.927   1.483   4.851 -0.4601 -0.6110 -0.5035
  276SOL     OW 6663   6.520   1.434   2.067  0.0186  0.1949 -0.0487
  276SOL    HW1 6664   6.492   1.344   2.084  1.9798 -0.2270  1.2884
  276SOL    HW2 6665   6.585   1.427   1.997 -0.4624  0.7040 -0.5643
  277SOL     OW 6666   6.811   8.538   6.972  0.0606 -0.1176 -0.3853
  277SOL    HW1 6667   6.832   8.590   7.050  0.8671 -1.5742  0.3910
  277SOL    HW2 6668   6.795   8.604   6.904  1.6669  1.1561  0.4025
  278SOL     OW 6669   0.427  10.048   8.437  0.1454 -0.1091  0.2720
  278SOL    HW1 6670   0.445  10.124   8.382 -0.6168  0.8055  1.2599
  278SOL    HW2 6671   0.473  10.066   8.519 -0.9978 -0.1655  0.9358
  279SOL     OW 6672   3.902   4.792   9.841  0.6008 -0.2476 -0.0051
  279SOL    HW1 6673   3.991   4.756   9.841 -0.0550 -2.0939  1.8055
  279SOL    HW2 6674   3.895   4.836   9.926  0.3170  1.4527 -0.8712
  280SOL     OW 6675   4.095   3.645   1.208 -0.5061 -0.6674 -0.3611
  280SOL    HW1 6676   4.142   3.587   1.148 -0.3031  1.0223 -1.9076
  280SOL    HW2 6677   4.012   3.601   1.223  0.0446 -1.8515 -0.6633
  281SOL     OW 6678   4.370   3.148   3.733  0.0068 -0.2996  0.0324
  281SOL    HW1 6679   4.369   3.242   3.751  0.3582 -0.0916 -0.9388
  281SOL    HW2 6680   4.307   3.111   3.794  0.4679  0.4627  0.9970
  282SOL     OW 6681   3.817   1.423  10.078 -0.1173 -0.4753 -0.4192
  282SOL    HW1 6682   3.722   1.413  10.073 -0.1342  0.0651 -1.4043
  282SOL    HW2 6683   3.838   1.407  10.170 -1.4617  1.6669  0.3424
  283SOL     OW 6684   0.846   7.744   1.332 -0.8066  0.4275 -0.1398
  283SOL    HW1 6685   0.861   7.745   1.238  0.2275  1.1481  0.0162
  283SOL    HW2 6686   0.875   7.657   1.360 -1.0808  0.2258 -0.4789
  284SOL     OW 6687   6.176   4.501   9.026 -0.5581  0.0493  0.7483
  284SOL    HW1 6688   6.090   4.466   9.000  0.3644 -1.7751 -0.0220
  284SOL    HW2 6689   6.162   4.595   9.033 -3.6887 -0.4054  4.7194
  285SOL     OW 6690   2.272  10.067   7.863 -0.5241 -0.4798  0.2175
  285SOL    HW1 6691   2.300   9.986   7.904 -0.6134 -1.1238 -0.9632
  285SOL    HW2 6692   2.313  10.136   7.915  0.8215 -1.3148  0.2989
  286SOL     OW 6693   0.183   3.196   8.393  0.2930  0.3489 -0.0894
  286SOL    HW1 6694   0.216   3.106   8.382  1.2227  0.7697 -0.8617
  286SOL    HW2 6695   0.213   3.222   8.480  0.9867  0.2972 -0.3077
  287SOL     OW 6696   3.865   4.126   9.545  0.1419 -0.0693 -0.6617
  287SOL    HW1 6697   3.872   4.221   9.555  0.1789 -0.0633 -0.7407
  287SOL    HW2 6698   3.828   4.096   9.628 -2.2426  0.2674 -1.5440
  288SOL     OW 6699   9.697   7.368   8.161 -0.4622  0.9325 -0.2922
  288SOL    HW1 6700   9.711   7.368   8.066 -2.7589 -1.0838 -0.7424
  288SOL    HW2 6701   9.736   7.450   8.191  1.1273  1.2269 -2.8187
  289SOL     OW 6702   3.225   8.745  10.214 -0.1244  0.2982  0.1941
  289SOL    HW1 6703   3.214   8.650  10.203  1.5577  0.2190 -1.2238
  289SOL    HW2 6704   3.281   8.753  10.291  0.4874  0.0680 -0.2148
  290SOL     OW 6705   4.352   0.800   5.806 -0.5136 -0.1083 -0.3119
  290SOL    HW1 6706   4.302   0.855   5.746 -1.1224 -0.4188 -0.0964
  290SOL    HW2 6707   4.296   0.724   5.822 -0.1212 -0.2994  0.2029
  291SOL     OW 6708   5.988  10.544   8.689 -0.2011 -0.2417 -0.1306
  291SOL    HW1 6709   6.028  10.477   8.745 -1.3870 -0.8116  0.0636
  291SOL    HW2 6710   6.038  10.540   8.608  0.6941 -0.3182  0.4104
  292SOL     OW 6711   1.134   5.751   3.344 -0.1490  0.0006  0.0136
  292SOL    HW1 6712   1.146   5.656   3.338  0.2416  0.1356 -2.9655
  292SOL    HW2 6713   1.039   5.763   3.350 -0.1972 -0.5747  0.4385
  293SOL     OW 6714   6.680   4.639   5.688 -0.2369 -0.4996  0.0557
  293SOL    HW1 6715   6.638   4.632   5.774 -0.9946  2.5764  0.0261
  293SOL    HW2 6716   6.663   4.554   5.647 -2.5895 -0.9557  1.7464
  294SOL     OW 6717   2.337   4.118   7.980 -0.9215  0.1024  0.3837
  294SOL    HW1 6718   2.260   4.163   8.015 -0.7173  0.2248  0.6895
  294SOL    HW2 6719   2.409   4.146   8.038 -0.3861  1.0353 -0.6723
  295SOL     OW 6720   6.631   7.065   0.253 -0.3447  0.1447 -0.0587
  295SOL    HW1 6721   6.589   6.993   0.206  0.1244 -0.5468  0.5590
  295SOL    HW2 6722   6.578   7.142   0.230 -1.1229 -0.4618 -0.3775
  296SOL     OW 6723   9.204   2.286   6.260 -0.1235 -0.0426  0.0935
  296SOL    HW1 6724   9.268   2.271   6.329  1.2699  0.6895 -0.9885
  296SOL    HW2 6725   9.255   2.318   6.185 -1.6317 -0.3153 -1.1248
  297SOL     OW 6726   6.110   0.698   4.420 -0.0427  0.0017  0.2505
  297SOL    HW1 6727   6.068   0.695   4.506  1.3093 -0.8888  0.9161
  297SOL    HW2 6728   6.174   0.770   4.427  2.3057 -2.0134  1.1503
  298SOL     OW 6729  10.565   6.565   0.765  0.5505 -0.1218  0.0793
  298SOL    HW1 6730  10.546   6.617   0.843  0.8844  0.4370 -0.2052
  298SOL    HW2 6731  10.528   6.479   0.784 -1.4951  0.6555 -0.0993
  299SOL     OW 6732   2.810   0.817   1.486  0.3053 -0.1105 -0.3228
  299SOL    HW1 6733   2.777   0.752   1.424 -0.2980  0.2954 -0.4381
  299SOL    HW2 6734   2.796   0.776   1.572 -0.2440 -0.0707 -0.3855
  300SOL     OW 6735   3.248   0.694  10.189  0.2005 -0.3900  0.0589
  300SOL    HW1 6736   3.316   0.680  10.255  1.8938  0.3712 -1.4294
  300SOL    HW2 6737   3.183   0.627  10.207  0.7280 -0.3930  2.3033
  301SOL     OW 6738   8.247   8.497   1.435  0.1983 -0.1516 -0.1621
  301SOL    HW1 6739   8.275   8.585   1.460 -0.1614 -0.3234  0.9035
  301SOL    HW2 6740   8.209   8.461   1.515  0.9623 -1.5348 -0.3974
  302SOL     OW 6741   9.950   3.032   8.533 -0.4212  0.1743 -0.0764
  302SOL    HW1 6742  10.021   3.058   8.474  1.6954 -0.4662  2.0535
  302SOL    HW2 6743   9.906   3.114   8.555  0.5528  0.7846 -0.3221
  303SOL     OW 6744   7.643   5.080   7.762  0.2621 -0.3234 -0.3342
  303SOL    HW1 6745   7.552   5.058   7.742  0.0458  2.7655 -3.8566
  303SOL    HW2 6746   7.690   5.063   7.681  2.2435  0.8757  0.4921
  304SOL     OW 6747   7.643   6.878  10.031 -0.0270  0.5697 -0.1147
  304SOL    HW1 6748   7.569   6.890  10.091 -0.2408 -0.2292 -0.2007
  304SOL    HW2 6749   7.625   6.938   9.958 -1.4399 -0.7142 -0.9012
  305SOL     OW 6750   2.882   7.787  10.620  0.3052  0.0240  0.0021
  305SOL    HW1 6751   2.902   7.861  10.561  0.0510 -1.0190 -1.4553
  305SOL    HW2 6752   2.796   7.808  10.655  0.4559  0.6693  0.0123
  306SOL     OW 6753   3.094   2.767   3.257 -0.1306 -0.4205 -0.2132
  306SOL    HW1 6754   3.088   2.863   3.253  0.5039 -0.3557  0.2948
  306SOL    HW2 6755   3.003   2.738   3.260 -0.3128  0.2300  1.1604
  307SOL     OW 6756   6.767   1.034   1.934  0.0040  0.2717  0.7088
  307SOL    HW1 6757   6.713   0.967   1.977  0.6652 -0.1318  0.9134
  307SOL    HW2 6758   6.807   0.989   1.860  2.2992 -0.2309  2.1673
  308SOL     OW 6759   8.203   7.145   9.332  0.3862  0.0341  0.5655
  308SOL    HW1 6760   8.228   7.110   9.417  1.8251 -1.7633 -0.5116
  308SOL    HW2 6761   8.182   7.068   9.279 -0.8628  1.1249 -0.6247
  309SOL     OW 6762   0.193   0.495   4.974  1.0879 -0.0451  0.2242
  309SOL    HW1 6763   0.280   0.474   4.939  0.3186 -0.9376 -1.2665
  309SOL    HW2 6764   0.190   0.453   5.060  2.1276  0.0410  0.3148
  310SOL     OW 6765   1.556   6.728   5.980 -0.2288  0.1769 -0.4261
  310SOL    HW1 6766   1.512   6.789   6.039 -1.8160  1.3614 -2.6880
  310SOL    HW2 6767   1.488   6.700   5.919  0.7524 -2.9255 -0.3048
  311SOL     OW 6768   7.965   1.278   7.100  0.8974  0.6655  0.2204
  311SOL    HW1 6769   7.900   1.347   7.087 -0.2244 -0.1644  1.2712
  311SOL    HW2 6770   8.045   1.325   7.124  0.7106  1.6909 -1.0278
  312SOL     OW 6771   9.797   1.196   5.030 -0.0626  0.2605  0.1485
  312SOL    HW1 6772   9.852   1.264   5.070  0.5095  0.1978 -0.5040
  312SOL    HW2 6773   9.750   1.157   5.104 -1.2620  2.0887  0.4326
  313SOL     OW 6774   0.287   0.479   7.550  0.4046  0.2313  0.3292
  313SOL    HW1 6775   0.252   0.402   7.505  1.1875 -0.8596  1.5035
  313SOL    HW2 6776   0.277   0.551   7.487 -1.4982 -0.5508 -0.3295
  314SOL     OW 6777   0.607   0.370   1.239  0.4447 -0.2649 -0.2259
  314SOL    HW1 6778   0.529   0.320   1.261  0.3931  0.1527  0.5684
  314SOL    HW2 6779   0.588   0.459   1.268  1.1718 -0.1359 -0.1303
  315SOL     OW 6780   7.691   2.296   4.032  0.7570 -0.2065  0.6049
  315SOL    HW1 6781   7.771   2.338   4.063  2.2813 -0.6309 -2.4433
  315SOL    HW2 6782   7.708   2.202   4.041  0.0907 -0.2901  1.0687
  316SOL     OW 6783   3.107   4.847   5.684  0.1492  0.0371 -0.2090
  316SOL    HW1 6784   3.146   4.843   5.771  0.7235  0.0095 -0.4617
  316SOL    HW2 6785   3.014   4.829   5.698  0.2162  0.1651  0.4115
  317SOL     OW 6786   5.960   3.501   9.794 -0.2434  0.1195 -0.1513
  317SOL    HW1 6787   6.005   3.579   9.760 -0.6191  0.9507  1.1728
  317SOL    HW2 6788   6.016   3.470   9.865 -0.7566 -0.0131  0.2022
  318SOL     OW 6789   9.913   3.279   2.913 -0.2758  0.2969 -0.0468
  318SOL    HW1 6790   9.867   3.325   2.983 -0.5639 -0.4981  0.3051
  318SOL    HW2 6791   9.844   3.237   2.862  0.0393 -3.0821  2.0029
  319SOL     OW 6792  10.344   1.762   2.336  0.0686 -0.0111 -0.3274
  319SOL    HW1 6793  10.315   1.687   2.284  1.4620 -1.7443  1.2939
  319SOL    HW2 6794  10.312   1.745   2.424 -1.8736  2.6691 -0.3931
  320SOL     OW 6795   5.469   6.000   9.373  0.1224 -0.3324  0.1814
  320SOL    HW1 6796   5.376   5.975   9.368  0.4113 -1.5465  0.5850
  320SOL    HW2 6797   5.516   5.925   9.337  1.0332 -0.3171  1.2801
  321SOL     OW 6798   4.387   0.102   7.577  0.1088 -0.7469 -0.5760
  321SOL    HW1 6799   4.375   0.009   7.594 -2.7094 -0.0976  1.6341
  321SOL    HW2 6800   4.380   0.144   7.663 -1.6668  1.7150 -1.7801
  322SOL     OW 6801   2.739   9.803   7.672 -0.2751 -0.2013  0.1766
  322SOL    HW1 6802   2.757   9.879   7.618  3.7097 -0.1814  1.2828
  322SOL    HW2 6803   2.678   9.751   7.619  0.0765  1.7977 -2.4005
  323SOL     OW 6804   8.017   3.921   9.420  0.3755  0.0498 -0.3414
  323SOL    HW1 6805   8.098   3.941   9.465  0.4645  0.1169 -0.5308
  323SOL    HW2 6806   8.036   3.840   9.372  0.8997  1.0262 -1.8316
  324SOL     OW 6807   4.636   5.777   1.935 -0.1155 -0.3258 -0.4802
  324SOL    HW1 6808   4.657   5.775   1.842  0.5824  0.6594 -0.3511
  324SOL    HW2 6809   4.694   5.712   1.974  0.4952  0.1683 -0.5591
  325SOL     OW 6810   8.151   9.370   5.942 -0.8778  0.3639  1.0142
  325SOL    HW1 6811   8.083   9.437   5.939 -1.2648  0.0172  1.7101
  325SOL    HW2 6812   8.103   9.288   5.954 -0.4021 -0.0243  0.3367
  326SOL     OW 6813   3.563   1.852   7.980 -0.4858  0.0812  0.1374
  326SOL    HW1 6814   3.508   1.801   8.040 -0.1264 -0.1612  0.2654
  326SOL    HW2 6815   3.652   1.840   8.013 -0.1915 -0.6790 -0.8767
  327SOL     OW 6816   7.351   7.131   3.188  0.0788 -0.4576  0.1738
  327SOL    HW1 6817   7.339   7.125   3.282  0.5462  1.4068  0.4113
  327SOL    HW2 6818   7.263   7.126   3.151 -0.1670 -0.5709  0.7729
  328SOL     OW 6819   1.650   3.119   5.306  0.1746  0.2214  0.0546
  328SOL    HW1 6820   1.559   3.090   5.294 -0.1589  1.5869 -0.8659
  328SOL    HW2 6821   1.666   3.179   5.234  1.6608  0.4110  0.5079
  329SOL     OW 6822   6.847   5.090   9.966  0.2067  0.2876  0.6595
  329SOL    HW1 6823   6.821   5.176   9.934  1.2677  0.7615  1.0047
  329SOL    HW2 6824   6.788   5.072  10.038 -1.1291 -0.0525 -0.4814
  330SOL     OW 6825   5.246   7.127   1.608  0.6875 -0.0590  0.2143
  330SOL    HW1 6826   5.168   7.129   1.552  0.2460 -0.4262  0.8060
  330SOL    HW2 6827   5.241   7.209   1.657  1.4346  0.5870 -0.7398
  331SOL     OW 6828   1.425   2.303   2.929 -0.3355 -0.0466  0.5106
  331SOL    HW1 6829   1.348   2.255   2.961 -0.5933  0.4802  0.6963
  331SOL    HW2 6830   1.499   2.259   2.970 -0.4828 -1.0067 -0.2254
  332SOL     OW 6831   4.360   2.966   7.089  0.0328  0.0260  0.6448
  332SOL    HW1 6832   4.328   3.045   7.133 -1.6091 -0.6566  0.7736
  332SOL    HW2 6833   4.308   2.961   7.009  0.9028 -0.3411  0.0942
  333SOL     OW 6834   0.680   0.529  10.547  0.0139 -0.4102  0.2353
  333SOL    HW1 6835   0.639   0.596  10.491  0.1265  1.0860  1.8705
  333SOL    HW2 6836   0.774   0.539  10.532 -0.0133 -1.4024 -0.7868
  334SOL     OW 6837   1.191   9.212   6.064 -0.7850  0.3712 -0.2581
  334SOL    HW1 6838   1.148   9.129   6.087 -0.4889  0.3002  0.0491
  334SOL    HW2 6839   1.183   9.266   6.143 -1.3284  0.7866 -0.5879
  335SOL     OW 6840   4.707   7.310  10.145 -0.1012 -0.5749  0.3558
  335SOL    HW1 6841   4.785   7.355  10.115 -0.1842 -0.6325  0.0453
  335SOL    HW2 6842   4.646   7.315  10.071 -0.0486 -1.3464  0.2500
  336SOL     OW 6843   0.120   6.629   7.455  0.0775 -0.0043 -0.2200
  336SOL    HW1 6844   0.067   6.653   7.531 -0.0898  0.2748 -0.4240
  336SOL    HW2 6845   0.147   6.712   7.417  0.1896 -0.1427 -0.4482
  337SOL     OW 6846   5.956   7.655  10.721  0.2652  0.1847  0.2645
  337SOL    HW1 6847   5.887   7.595  10.749  0.4573 -0.2914 -0.2808
  337SOL    HW2 6848   5.913   7.741  10.719 -0.1485 -0.0135  0.5136
  338SOL     OW 6849  10.427   9.486   9.749 -0.1736 -0.0132 -0.3949
  338SOL    HW1 6850  10.405   9.400   9.784  0.3604  0.0279  0.0573
  338SOL    HW2 6851  10.523   9.490   9.753 -0.1277  0.1669 -1.4620
  339SOL     OW 6852   0.648   2.595   4.454 -0.0590  0.0838  0.0149
  339SOL    HW1 6853   0.553   2.589   4.453 -0.0194 -0.7348  0.6244
  339SOL    HW2 6854   0.669   2.638   4.537  0.1501 -0.7929  0.4260
  340SOL     OW 6855   7.619  10.691   6.914  0.1525 -0.3708 -0.1933
  340SOL    HW1 6856   7.582  10.614   6.872  1.0573  0.0447 -1.8371
  340SOL    HW2 6857   7.693  10.658   6.964  0.7426 -0.5550 -1.1605
  341SOL     OW 6858  10.250  10.135  10.634 -0.3622 -0.7046  0.2980
  341SOL    HW1 6859  10.218  10.144  10.723  0.1873  2.3494  0.2979
  341SOL    HW2 6860  10.174  10.152  10.579 -0.1405  0.2579  0.2594
  342SOL     OW 6861   4.533   0.250  10.488 -0.2319 -0.0228 -0.4110
  342SOL    HW1 6862   4.487   0.176  10.527  0.8502 -0.5957 -0.1903
  342SOL    HW2 6863   4.610   0.212  10.445  0.6628  1.0214  0.1899
  343SOL     OW 6864   3.644   4.310   8.618  0.1387 -0.1667 -0.0559
  343SOL    HW1 6865   3.615   4.239   8.675 -2.1634 -0.3151 -1.2697
  343SOL    HW2 6866   3.666   4.268   8.535 -3.2411  0.5473 -1.4978
  344SOL     OW 6867   9.570   4.957   8.324  0.8866 -0.1115  0.2620
  344SOL    HW1 6868   9.649   5.000   8.290  1.6510 -1.5142  0.2065
  344SOL    HW2 6869   9.558   4.881   8.268 -0.1499 -0.2644  0.6771
  345SOL     OW 6870   4.170   2.899   5.408 -0.0437 -0.1245 -0.0050
  345SOL    HW1 6871   4.218   2.899   5.325  1.3091  0.9166  0.7532
  345SOL    HW2 6872   4.123   2.983   5.409  0.8293  0.3664  0.7637
  346SOL     OW 6873   6.620   3.217   9.942  0.2112  0.4267 -0.4191
  346SOL    HW1 6874   6.672   3.269  10.004  0.6679 -0.8054  0.2582
  346SOL    HW2 6875   6.582   3.282   9.883 -2.1838  1.9725  2.5036
  347SOL     OW 6876   5.865   1.686   8.523  0.3738 -0.0941  0.4541
  347SOL    HW1 6877   5.771   1.699   8.528  0.2045 -1.4693  1.3481
  347SOL    HW2 6878   5.884   1.686   8.429 -0.3357  1.2051  0.2879
  348SOL     OW 6879   6.297   8.326   3.615  0.1084 -0.4157  0.1568
  348SOL    HW1 6880   6.253   8.401   3.574 -0.7914 -0.5355  0.8823
  348SOL    HW2 6881   6.246   8.250   3.587 -0.0311 -0.5797  0.8420
  349SOL     OW 6882   4.377   3.623   8.892  0.0578 -0.3513 -0.3181
  349SOL    HW1 6883   4.349   3.575   8.970 -0.3479  1.4597  0.7113
  349SOL    HW2 6884   4.384   3.556   8.824 -0.5034 -1.8422  1.0254
  350SOL     OW 6885   7.101   4.004   7.768 -0.4227  0.4920 -0.3739
  350SOL    HW1 6886   7.038   4.062   7.811 -0.3742 -1.0368  1.9209
  350SOL    HW2 6887   7.085   3.918   7.806  3.6253  0.1626  1.0914
  351SOL     OW 6888   4.793   9.736   5.928 -0.2781  0.4945  0.2738
  351SOL    HW1 6889   4.712   9.701   5.890 -0.4834  0.5244  0.6763
  351SOL    HW2 6890   4.777   9.736   6.023 -0.5820  2.4290  0.2473
  352SOL     OW 6891   9.506   4.055   1.790  0.1666  0.2343  0.1280
  352SOL    HW1 6892   9.489   4.149   1.789  2.5337  0.7154 -0.2302
  352SOL    HW2 6893   9.523   4.034   1.882 -0.3512  0.1491  0.2063
  353SOL     OW 6894   4.307   9.079   5.494  0.4155  0.3045 -0.1470
  353SOL    HW1 6895   4.258   9.004   5.460  0.6094 -0.0399  0.3139
  353SOL    HW2 6896   4.368   9.103   5.424  2.4396 -1.8532  0.7230
  354SOL     OW 6897  10.321   7.782   8.951 -0.3947 -0.0487 -0.8871
  354SOL    HW1 6898  10.396   7.830   8.914 -0.2308  1.3125  1.0578
  354SOL    HW2 6899  10.245   7.831   8.921 -0.5576 -1.2862 -2.6537
  355SOL     OW 6900   8.144   3.328   7.346 -0.4953 -0.2361  0.6051
  355SOL    HW1 6901   8.069   3.369   7.388  0.4909  0.8248  1.3660
  355SOL    HW2 6902   8.170   3.257   7.405 -0.1330  0.1946  0.9646
  356SOL     OW 6903   5.814   0.631   1.991 -0.6724 -1.0468 -0.1266
  356SOL    HW1 6904   5.722   0.605   1.987 -0.2017 -2.9843  0.4050
  356SOL    HW2 6905   5.862   0.552   1.967  0.8881 -0.5070  1.0267
  357SOL     OW 6906  10.071   0.162   9.192 -0.2169 -0.1658 -0.0003
  357SOL    HW1 6907  10.100   0.071   9.188 -0.4729 -0.2154 -1.5584
  357SOL    HW2 6908  10.126   0.202   9.260  1.8993 -0.8350 -1.2067
  358SOL     OW 6909   2.240   8.530   4.528 -0.0758  0.2663 -0.4048
  358SOL    HW1 6910   2.307   8.591   4.558  1.2186 -0.0106 -2.5167
  358SOL    HW2 6911   2.270   8.445   4.558 -0.1372  0.2841 -0.2916
  359SOL     OW 6912   1.863   5.368   3.208 -0.2993  0.5957 -0.3688
  359SOL    HW1 6913   1.954   5.347   3.187 -0.0362 -0.2689  1.4562
  359SOL    HW2 6914   1.868   5.425   3.285 -1.3051 -0.0555  0.2098
  360SOL     OW 6915   4.277   6.590   2.612 -0.1294 -0.4819  0.2366
  360SOL    HW1 6916   4.188   6.580   2.645 -0.1980 -2.5094 -0.4325
  360SOL    HW2 6917   4.325   6.517   2.651  1.7140  1.4741  1.9074
  361SOL     OW 6918  10.648   7.259   4.337  0.4125  0.1331  1.1421
  361SOL    HW1 6919  10.674   7.284   4.248 -1.4308 -1.4735  0.0708
  361SOL    HW2 6920  10.730   7.259   4.387  1.7815 -0.5204 -0.9521
  362SOL     OW 6921   2.109   1.656   4.075  0.8257  0.2140  0.2611
  362SOL    HW1 6922   2.138   1.576   4.119  0.4852  0.6626  1.3275
  362SOL    HW2 6923   2.186   1.685   4.027  0.5321 -1.5607 -1.4036
  363SOL     OW 6924   4.671   8.149   5.710  0.0688  0.2015 -0.2337
  363SOL    HW1 6925   4.708   8.227   5.751  0.5294 -0.7752  1.2856
  363SOL    HW2 6926   4.744   8.110   5.662  1.5676 -2.3271  3.6503
  364SOL     OW 6927   2.549  10.616   1.109 -0.5382 -0.0378 -0.1102
  364SOL    HW1 6928   2.613  10.682   1.137  0.4117 -0.7552 -0.5506
  364SOL    HW2 6929   2.518  10.648   1.024 -1.4986  0.8019  0.5337
  365SOL     OW 6930   1.018   4.483   9.621  0.1113  0.1521  0.0597
  365SOL    HW1 6931   1.047   4.392   9.627 -1.1101 -0.3623 -1.1079
  365SOL    HW2 6932   1.082   4.533   9.672  0.4348 -1.4297  1.2785
  366SOL     OW 6933   3.030   2.055   1.491 -0.3814  0.1439  0.1843
  366SOL    HW1 6934   3.009   2.145   1.466  0.0818  0.3726  0.5968
  366SOL    HW2 6935   2.946   2.017   1.517 -0.6729  0.2753 -0.5461
  367SOL     OW 6936   5.373   1.427   4.433 -0.1637  0.1375 -0.0227
  367SOL    HW1 6937   5.290   1.475   4.430  2.1526  4.6593 -0.2021
  367SOL    HW2 6938   5.395   1.413   4.342  0.2488  1.0062 -0.0710
  368SOL     OW 6939   9.784  10.438   3.639 -0.6846 -0.2645 -0.2096
  368SOL    HW1 6940   9.807  10.405   3.726  2.5150  1.4304 -0.2529
  368SOL    HW2 6941   9.707  10.493   3.654  1.2292  2.0389  2.1786
  369SOL     OW 6942   0.197   4.447   9.257  0.5714  0.3671  0.0803
  369SOL    HW1 6943   0.288   4.417   9.248  0.8242  1.1020  0.1570
  369SOL    HW2 6944   0.156   4.381   9.313  0.2782 -1.5831 -2.2478
  370SOL     OW 6945   9.743   1.605   8.580  0.3060  0.3760  0.1417
  370SOL    HW1 6946   9.828   1.563   8.571 -1.6158 -3.9342  0.0665
  370SOL    HW2 6947   9.718   1.590   8.671 -0.5673  1.2389  0.0642
  371SOL     OW 6948   7.922   7.082   6.990 -0.3896 -0.3503  0.8119
  371SOL    HW1 6949   7.963   7.110   6.908  0.4024 -0.7109  1.0754
  371SOL    HW2 6950   7.916   6.987   6.982 -0.0535 -0.4104  1.2906
  372SOL     OW 6951   1.012   1.243   7.123 -0.7123 -0.8349  0.5383
  372SOL    HW1 6952   1.048   1.240   7.034  2.1932 -2.2609  1.6341
  372SOL    HW2 6953   0.999   1.336   7.140 -0.5458 -0.4773 -1.0765
  373SOL     OW 6954   8.617   3.041   1.190 -0.8970  0.7242 -0.0155
  373SOL    HW1 6955   8.580   2.953   1.178  0.5566  0.1618 -0.8179
  373SOL    HW2 6956   8.543   3.100   1.183 -1.5195 -0.2218 -2.9973
  374SOL     OW 6957   5.213   7.706   9.081  0.0719 -0.6083 -0.0924
  374SOL    HW1 6958   5.250   7.727   8.996  0.6256 -1.6530 -0.1290
  374SOL    HW2 6959   5.185   7.790   9.117 -2.1148 -0.3551 -2.1665
  375SOL     OW 6960   1.839   8.185   6.659 -0.4875  0.2001 -0.4247
  375SOL    HW1 6961   1.933   8.198   6.645 -0.3331 -0.0540  0.3212
  375SOL    HW2 6962   1.832   8.098   6.698 -0.8697  0.8741  1.0782
  376SOL     OW 6963   5.520   1.000   5.559  0.1780  0.0005  0.5214
  376SOL    HW1 6964   5.520   1.033   5.649 -0.3518  1.4046  0.0443
  376SOL    HW2 6965   5.433   0.961   5.548  0.9957 -2.1430  1.2547
  377SOL     OW 6966   7.888   1.341   0.487 -0.0286 -0.3293  0.3021
  377SOL    HW1 6967   7.866   1.250   0.468  0.8903 -0.7845  1.3094
  377SOL    HW2 6968   7.977   1.338   0.520  0.2569  1.0274 -0.2676
  378SOL     OW 6969   4.794   3.461   3.843  0.2287  0.0806  0.5265
  378SOL    HW1 6970   4.728   3.531   3.846 -0.1031 -0.1711 -0.7427
  378SOL    HW2 6971   4.874   3.506   3.815  0.3244  0.1589  0.9064
  379SOL     OW 6972   1.677   6.477   1.112  0.0125 -0.2177  0.4042
  379SOL    HW1 6973   1.675   6.457   1.205 -0.9619  1.5064  0.8043
  379SOL    HW2 6974   1.586   6.467   1.084  0.1984 -0.1855 -0.2290
  380SOL     OW 6975   8.435   0.169   9.961 -0.1927  0.2742  0.2765
  380SOL    HW1 6976   8.492   0.108  10.007  0.1172  1.2413  1.2082
  380SOL    HW2 6977   8.373   0.113   9.914 -2.2185 -0.8276  3.9218
  381SOL     OW 6978   4.954   5.509  10.420  0.1252 -0.3458  0.3677
  381SOL    HW1 6979   4.906   5.532  10.499  0.2641 -1.6243  0.8581
  381SOL    HW2 6980   4.915   5.426  10.391  0.2208 -0.0072 -0.7826
  382SOL     OW 6981   6.871   7.450   0.807 -0.0528  0.0077 -0.5375
  382SOL    HW1 6982   6.933   7.523   0.812 -0.2775  0.2267 -0.8765
  382SOL    HW2 6983   6.788   7.491   0.785 -0.6184 -0.1432  1.1919
  383SOL     OW 6984   3.228   2.769   5.565  0.0336 -0.4307 -0.0150
  383SOL    HW1 6985   3.323   2.780   5.559  0.5698 -2.5315  2.5860
  383SOL    HW2 6986   3.192   2.848   5.526  2.9074  2.1389  2.0725
  384SOL     OW 6987   2.241   0.330   6.249  0.0795 -0.2626 -0.1965
  384SOL    HW1 6988   2.198   0.302   6.168 -1.5348 -2.2745  1.2331
  384SOL    HW2 6989   2.334   0.313   6.235 -0.1271 -0.2456 -1.7380
  385SOL     OW 6990   9.928   0.617   6.290  1.3916  0.0930  0.6151
  385SOL    HW1 6991   9.947   0.557   6.362  1.4432 -1.3735 -0.5629
  385SOL    HW2 6992  10.008   0.617   6.238  0.7845 -0.2027 -0.3383
  386SOL     OW 6993  10.077   9.188   2.058  0.0827 -0.1734  0.2652
  386SOL    HW1 6994  10.126   9.264   2.028 -2.3593  1.2417 -0.4581
  386SOL    HW2 6995  10.041   9.150   1.978 -1.1591 -0.2676  0.8419
  387SOL     OW 6996  10.703   8.717   7.408  0.2918  0.3542 -0.0986
  387SOL    HW1 6997  10.653   8.730   7.328 -0.9904  0.9193  0.7607
  387SOL    HW2 6998  10.637   8.719   7.478  1.5510  1.3701  1.1022
  388SOL     OW 6999   8.536   2.713   9.373  0.1284  0.0574  0.0434
  388SOL    HW1 7000   8.441   2.703   9.362 -0.1321  1.4278  0.7512
  388SOL    HW2 7001   8.574   2.640   9.325 -1.3403 -1.4630  1.0562
  389SOL     OW 7002   5.679   8.211   4.612 -0.6129  0.4823 -0.4176
  389SOL    HW1 7003   5.735   8.179   4.683 -0.4719 -1.3807 -1.3160
  389SOL    HW2 7004   5.644   8.294   4.645  1.1975  0.7815  0.9130
  390SOL     OW 7005   0.612   5.597   3.950 -0.1334 -0.2912  0.0220
  390SOL    HW1 7006   0.561   5.563   4.023 -0.1214  0.1131  0.2169
  390SOL    HW2 7007   0.549   5.647   3.898 -0.2510 -0.9759 -0.5084
  391SOL     OW 7008   8.250   2.401   9.836  0.2321  0.0738  0.1346
  391SOL    HW1 7009   8.291   2.346   9.903  0.9102  1.1152  0.6043
  391SOL    HW2 7010   8.246   2.346   9.759 -0.2959 -1.0636  0.9438
  392SOL     OW 7011   6.259   4.871   1.822  0.4025 -0.1675  0.0611
  392SOL    HW1 7012   6.211   4.930   1.880  0.7572 -0.0939  0.2801
  392SOL    HW2 7013   6.280   4.924   1.745 -1.4542 -0.6846 -0.8742
  393SOL     OW 7014  10.095   0.281   4.970  0.3029  0.0354 -0.1249
  393SOL    HW1 7015  10.134   0.261   4.885  1.8493 -0.6280  0.6872
  393SOL    HW2 7016  10.107   0.375   4.981  2.4439 -0.2373  0.3994
  394SOL     OW 7017   9.712   2.703   0.245  0.2857 -0.2247 -0.5233
  394SOL    HW1 7018   9.753   2.682   0.160  0.3556 -2.1883 -0.0580
  394SOL    HW2 7019   9.773   2.668   0.310  0.9532  2.5183  0.4672
  395SOL     OW 7020   7.988   3.257   5.159 -0.0919  0.2083  0.1301
  395SOL    HW1 7021   8.083   3.267   5.160 -0.1495  0.9332 -0.9310
  395SOL    HW2 7022   7.962   3.265   5.251  0.8373  0.2871  0.3919
  396SOL     OW 7023   7.252   6.777   4.062  0.2365  0.1592  0.2907
  396SOL    HW1 7024   7.174   6.773   4.119 -0.0559  0.1561 -0.1027
  396SOL    HW2 7025   7.294   6.692   4.074  0.0612  0.0783  0.3487
  397SOL     OW 7026   1.037  10.584   1.819 -0.0048  0.2927  0.1871
  397SOL    HW1 7027   1.018  10.602   1.727  2.1381 -0.5436 -0.4827
  397SOL    HW2 7028   0.952  10.559   1.857 -0.6714 -1.0635 -1.9952
  398SOL     OW 7029   8.455  10.671   2.383  0.6043  0.0002  0.4053
  398SOL    HW1 7030   8.526  10.611   2.401  0.2833 -0.2335  0.9045
  398SOL    HW2 7031   8.379  10.615   2.367  0.2915  0.2703  0.9190
  399SOL     OW 7032   7.347   1.919   4.144 -0.0958  0.2381 -0.0754
  399SOL    HW1 7033   7.306   1.999   4.176  0.8939  1.4522 -1.7123
  399SOL    HW2 7034   7.289   1.889   4.074  0.8236  0.9308 -1.1474
  400SOL     OW 7035   1.066   3.473   5.431  0.6195 -0.0856  0.2031
  400SOL    HW1 7036   1.080   3.388   5.472 -0.5134 -0.2364  0.3244
  400SOL    HW2 7037   1.060   3.535   5.504  0.4671 -0.0637  0.1741
  401SOL     OW 7038   8.755   3.346   7.390  0.0593  0.0208  0.0275
  401SOL    HW1 7039   8.832   3.324   7.443  1.9238  2.2440 -1.5330
  401SOL    HW2 7040   8.733   3.436   7.417 -2.1669 -0.6217  0.5544
  402SOL     OW 7041   2.326   3.136   3.505 -0.3477  0.3779 -0.0195
  402SOL    HW1 7042   2.314   3.229   3.523 -0.9177  0.2617  0.2237
  402SOL    HW2 7043   2.414   3.117   3.539 -1.1096  0.3276  2.1295
  403SOL     OW 7044   4.836   9.454   6.259  0.3235 -0.2219  0.2269
  403SOL    HW1 7045   4.812   9.526   6.317  0.8448 -0.6104  0.9499
  403SOL    HW2 7046   4.759   9.438   6.205  0.1771  0.8125  0.1270
  404SOL     OW 7047   7.063   8.180   3.600 -0.4603 -0.1976 -0.3781
  404SOL    HW1 7048   7.104   8.261   3.630 -1.7034  0.1776  0.3873
  404SOL    HW2 7049   7.073   8.119   3.673 -1.6255  0.0413 -0.0002
  405SOL     OW 7050   4.850   2.518   3.219 -0.4516 -0.1853 -0.0555
  405SOL    HW1 7051   4.927   2.570   3.194 -0.7140  1.1882  1.7934
  405SOL    HW2 7052   4.876   2.428   3.201  1.5011  0.2637  0.2497
  406SOL     OW 7053   0.203   6.327  10.027 -0.1002 -0.0275  0.3211
  406SOL    HW1 7054   0.253   6.389  10.080  0.5726  0.2287 -0.5975
  406SOL    HW2 7055   0.253   6.317   9.946 -1.9165  0.8794 -1.0014
  407SOL     OW 7056   7.939  10.112   2.536 -0.2265  0.1445 -0.6171
  407SOL    HW1 7057   7.878  10.160   2.591 -0.9423 -0.9271 -0.4353
  407SOL    HW2 7058   7.891  10.098   2.454  0.8635  1.8171 -1.5916
  408SOL     OW 7059   3.051   0.863   2.765  0.0951  0.3607  0.5168
  408SOL    HW1 7060   3.087   0.921   2.698 -0.4310 -1.3943 -1.4336
  408SOL    HW2 7061   2.957   0.861   2.747 -0.0215 -0.3313  1.1540
  409SOL     OW 7062   6.371   8.426   6.893 -0.7449  0.0770 -0.0033
  409SOL    HW1 7063   6.409   8.488   6.955  0.3366 -0.7681  0.2234
  409SOL    HW2 7064   6.402   8.340   6.924 -1.1756 -0.4633 -1.0265
  410SOL     OW 7065   9.177   5.669   4.865 -0.2615  0.1345  0.4020
  410SOL    HW1 7066   9.231   5.603   4.909 -0.9555 -0.0822  0.9503
  410SOL    HW2 7067   9.155   5.630   4.781  1.7339  0.8725 -0.5259
  411SOL     OW 7068   3.563   6.817   2.128  0.2610 -0.1280  0.2913
  411SOL    HW1 7069   3.574   6.737   2.077 -1.1075 -0.6219  0.7279
  411SOL    HW2 7070   3.501   6.870   2.078  0.6356  0.3678  0.3411
  412SOL     OW 7071   3.570   0.511   3.010 -0.1120  0.2485  0.7018
  412SOL    HW1 7072   3.585   0.572   2.939  0.1245  0.0081  0.5463
  412SOL    HW2 7073   3.574   0.424   2.970  2.0099 -0.0092  1.3148
  413SOL     OW 7074   0.501   1.570   6.593  0.0210 -0.5306  0.0968
  413SOL    HW1 7075   0.557   1.647   6.581  1.2743 -1.5199 -0.6337
  413SOL    HW2 7076   0.560   1.501   6.621 -1.1953 -1.0768  1.4572
  414SOL     OW 7077  10.356  10.533   0.695 -0.0805 -0.1283  0.0931
  414SOL    HW1 7078  10.421  10.598   0.670  0.1025 -1.0400 -2.0158
  414SOL    HW2 7079  10.295  10.530   0.621 -1.1663 -1.0017  0.9778
  415SOL     OW 7080   3.165  10.238   1.250  0.0563  0.7364  0.2702
  415SOL    HW1 7081   3.122  10.292   1.184  0.2863  1.5905  0.7966
  415SOL    HW2 7082   3.215  10.174   1.200 -1.0803  0.3173 -0.3553
  416SOL     OW 7083   0.408   7.709   3.973  0.7912 -0.2675 -0.5782
  416SOL    HW1 7084   0.441   7.633   4.022 -0.5180 -0.4218  0.1143
  416SOL    HW2 7085   0.478   7.774   3.979  1.0389 -0.6268  0.7396
  417SOL     OW 7086   5.598   4.439   0.792 -0.0957 -0.2772  0.3191
  417SOL    HW1 7087   5.512   4.449   0.750 -0.2187  0.0484  0.6475
  417SOL    HW2 7088   5.582   4.380   0.866 -0.2417  0.5527  0.9677
  418SOL     OW 7089   6.459   3.052   1.398  0.3662 -0.2687 -0.3697
  418SOL    HW1 7090   6.415   3.063   1.314  0.9188  1.0099 -0.5106
  418SOL    HW2 7091   6.444   3.135   1.444 -0.4551 -1.1651  1.0626
  419SOL     OW 7092   1.755   4.253   8.051 -0.1210  0.2788  0.1235
  419SOL    HW1 7093   1.782   4.235   8.141 -0.2247 -0.5589 -0.0039
  419SOL    HW2 7094   1.794   4.338   8.030  1.9839 -0.6213  0.1267
  420SOL     OW 7095   7.985   7.855   1.351 -0.1285 -0.1141 -0.2690
  420SOL    HW1 7096   7.930   7.926   1.382  1.8099  0.9483  0.9506
  420SOL    HW2 7097   7.927   7.779   1.346 -1.3069  0.4486  2.8857
  421SOL     OW 7098   3.353   4.218   8.677  0.0299  0.2515  0.0778
  421SOL    HW1 7099   3.355   4.273   8.755 -1.0723  0.3166  0.0801
  421SOL    HW2 7100   3.365   4.129   8.711 -1.5516  0.1594  0.4801
  422SOL     OW 7101   3.926   7.303   9.060  0.2412 -0.4722  0.3173
  422SOL    HW1 7102   3.992   7.316   8.993  2.2810 -1.4099  2.0354
  422SOL    HW2 7103   3.893   7.390   9.080  1.0284  0.0205 -0.5060
  423SOL     OW 7104   4.578   6.862   6.679  0.2464  0.3225 -0.0640
  423SOL    HW1 7105   4.526   6.896   6.606  1.1864 -1.2874 -1.5756
  423SOL    HW2 7106   4.652   6.817   6.637  0.3922 -1.3732  1.8310
  424SOL     OW 7107   5.095   8.950   4.058 -0.1821 -0.2387  0.1423
  424SOL    HW1 7108   5.185   8.951   4.089 -0.2284  0.5545  0.2728
  424SOL    HW2 7109   5.065   8.860   4.073  0.2620 -0.2449  1.0406
  425SOL     OW 7110   0.500   2.395   7.381  0.8029 -0.2138 -0.0868
  425SOL    HW1 7111   0.493   2.426   7.472 -0.7864  0.8409 -0.5255
  425SOL    HW2 7112   0.594   2.384   7.367  1.2834  2.0226  0.9359
  426SOL     OW 7113   6.164   4.905   0.814 -0.0574 -0.7133  0.3000
  426SOL    HW1 7114   6.174   4.850   0.736  0.9536  0.5445 -0.4849
  426SOL    HW2 7115   6.139   4.991   0.780 -0.0445 -0.2556  1.3994
  427SOL     OW 7116   5.116   2.750   6.609 -0.1094 -0.2912 -0.3590
  427SOL    HW1 7117   5.206   2.723   6.589  0.3224  0.1609  0.8886
  427SOL    HW2 7118   5.123   2.843   6.629 -0.8058 -0.3346  0.1043
  428SOL     OW 7119   2.224   4.421   6.830  0.0673  0.1168  0.2176
  428SOL    HW1 7120   2.269   4.347   6.789 -0.7427 -0.6160  0.6124
  428SOL    HW2 7121   2.134   4.390   6.843 -1.0846  2.1569 -2.1952
  429SOL     OW 7122   6.199   6.092   4.251  0.1972 -0.4869  0.3805
  429SOL    HW1 7123   6.123   6.037   4.268 -0.5657  0.8201  1.4132
  429SOL    HW2 7124   6.167   6.158   4.189  1.1735 -1.3349 -1.0745
  430SOL     OW 7125   8.220   1.295   5.359 -0.4616  0.1569 -0.0494
  430SOL    HW1 7126   8.258   1.269   5.443 -2.0312  0.7862  0.8997
  430SOL    HW2 7127   8.147   1.234   5.346 -2.2654  2.0258  0.7002
  431SOL     OW 7128   3.941   8.136   6.255  0.2118  0.0727  0.1574
  431SOL    HW1 7129   3.886   8.208   6.222  1.5370  1.2719  0.4777
  431SOL    HW2 7130   3.886   8.092   6.320 -1.6253 -0.9364 -1.9361
  432SOL     OW 7131   6.823   1.714   7.013  0.1867 -0.5513  0.0509
  432SOL    HW1 7132   6.849   1.623   6.997  0.1870 -0.5610  0.1050
  432SOL    HW2 7133   6.742   1.726   6.963 -0.2871 -0.8409  0.7392
  433SOL     OW 7134   2.640   0.917   7.181 -0.2855  0.0821  0.1459
  433SOL    HW1 7135   2.672   0.935   7.092 -0.1081  0.7602  0.3427
  433SOL    HW2 7136   2.713   0.875   7.225  0.8753  2.7711  0.9896
  434SOL     OW 7137   0.513   1.511   3.539 -0.2335 -0.0575  0.0889
  434SOL    HW1 7138   0.473   1.430   3.508 -1.0476  0.6965 -0.9098
  434SOL    HW2 7139   0.593   1.520   3.487 -0.6301  0.2550 -0.4696
  435SOL     OW 7140   4.850   6.411   9.950 -0.0984 -0.2329  0.0871
  435SOL    HW1 7141   4.795   6.332   9.949 -1.0225  0.4042 -0.5141
  435SOL    HW2 7142   4.915   6.395   9.882 -1.7603  0.4995 -1.7864
  436SOL     OW 7143   7.550   5.369   5.561  0.2049 -0.7236  0.2271
  436SOL    HW1 7144   7.579   5.447   5.514  0.5215 -0.1415  1.3499
  436SOL    HW2 7145   7.559   5.298   5.498  1.6344 -0.1399 -0.2676
  437SOL     OW 7146   6.303   4.579   5.224  0.1968  0.0496 -0.4463
  437SOL    HW1 7147   6.303   4.670   5.253 -0.7049 -0.0428 -0.1233
  437SOL    HW2 7148   6.291   4.528   5.304  1.5788 -0.4050 -0.5100
  438SOL     OW 7149   1.441   3.187   5.592 -0.9725 -0.6872 -0.0347
  438SOL    HW1 7150   1.397   3.131   5.656 -0.9549 -0.8666 -0.1775
  438SOL    HW2 7151   1.416   3.151   5.507 -0.4675 -0.8572 -0.1156
  439SOL     OW 7152   5.414   8.437  10.574  0.6562  0.2251  0.3599
  439SOL    HW1 7153   5.322   8.414  10.560  0.9568 -0.5666 -0.4071
  439SOL    HW2 7154   5.413   8.531  10.592 -0.2520  0.3200 -0.1423
  440SOL     OW 7155   3.705   0.240   8.731 -0.7956 -0.1439 -0.0639
  440SOL    HW1 7156   3.768   0.248   8.802 -1.5153 -0.3692  0.6108
  440SOL    HW2 7157   3.725   0.314   8.673 -0.1473 -0.0082  0.3215
  441SOL     OW 7158   3.719   4.538   0.612 -0.7620  0.3446 -0.4958
  441SOL    HW1 7159   3.790   4.560   0.672 -1.1058 -0.7998  0.3712
  441SOL    HW2 7160   3.699   4.447   0.631 -1.1345  0.0560 -2.1165
  442SOL     OW 7161   6.900   0.624  10.359  0.6360  0.1279  0.3357
  442SOL    HW1 7162   6.921   0.624  10.265  0.5052  0.8386  0.3033
  442SOL    HW2 7163   6.960   0.560  10.397  3.0682  2.2057  0.2776
  443SOL     OW 7164   9.413   7.518   2.443 -0.1559 -0.0387 -0.1163
  443SOL    HW1 7165   9.503   7.488   2.434  0.1131  0.7962 -0.2704
  443SOL    HW2 7166   9.416   7.582   2.514 -0.8658 -0.9176  0.7344
  444SOL     OW 7167   2.034   9.137   1.853 -0.0927  0.9052 -0.2587
  444SOL    HW1 7168   1.974   9.127   1.780 -1.0964 -0.3256  0.6913
  444SOL    HW2 7169   1.978   9.148   1.930  0.7427 -2.0183  0.9120
  445SOL     OW 7170   6.039   8.339  10.248  0.7260 -0.8685  0.4806
  445SOL    HW1 7171   6.106   8.363  10.312  0.7003 -0.6960  0.4442
  445SOL    HW2 7172   6.087   8.330  10.166  0.4608  1.0213  0.0614
  446SOL     OW 7173   0.939   5.324   0.051 -0.3865  0.1465  0.3696
  446SOL    HW1 7174   0.914   5.401   0.000 -1.9691 -0.9063 -0.5218
  446SOL    HW2 7175   0.856   5.287   0.081  0.3045 -1.4667  0.3861
  447SOL     OW 7176   5.105   7.189   9.748 -0.1184 -1.0480 -0.3727
  447SOL    HW1 7177   5.152   7.224   9.672  0.4183 -1.4100 -0.2123
  447SOL    HW2 7178   5.140   7.238   9.823 -1.4088  0.0623 -0.4622
  448SOL     OW 7179   1.509   6.377  10.503  0.6311  0.6180 -0.3120
  448SOL    HW1 7180   1.553   6.424  10.574  0.4854  2.1244 -1.1721
  448SOL    HW2 7181   1.501   6.287  10.535  0.8028  1.1913  1.4629
  449SOL     OW 7182   0.342   9.245   5.089 -0.1322 -0.0792 -0.3093
  449SOL    HW1 7183   0.311   9.224   5.177 -0.6258  2.0223  0.0776
  449SOL    HW2 7184   0.433   9.271   5.102 -0.1023 -0.1036 -0.4726
  450SOL     OW 7185   0.523   6.417   2.340  0.0530  0.2972  0.2445
  450SOL    HW1 7186   0.493   6.326   2.335 -0.8765  0.6195 -0.3066
  450SOL    HW2 7187   0.457   6.462   2.393 -0.6717  1.0881 -1.2572
  451SOL     OW 7188   1.663   2.719   2.849  0.2962  0.0831  0.1990
  451SOL    HW1 7189   1.709   2.803   2.845  0.1360  0.1539 -0.3256
  451SOL    HW2 7190   1.577   2.737   2.811 -0.6321  0.2385  2.2711
  452SOL     OW 7191   2.073   6.394   9.933 -0.0231  0.2824  0.1038
  452SOL    HW1 7192   2.024   6.359   9.858  0.7782  0.6853 -0.6275
  452SOL    HW2 7193   2.064   6.327  10.001 -1.0164  0.0495 -0.2412
  453SOL     OW 7194   0.727   7.482   1.846 -0.1960 -0.9085 -0.1270
  453SOL    HW1 7195   0.673   7.452   1.773 -1.1898 -0.7795  0.5288
  453SOL    HW2 7196   0.798   7.532   1.805 -1.2685 -0.0213 -0.9636
  454SOL     OW 7197   6.110   4.007   3.193  0.5302 -0.1936  0.0601
  454SOL    HW1 7198   6.085   3.996   3.101 -2.0606  0.8142  0.5326
  454SOL    HW2 7199   6.071   4.091   3.218  3.4031  0.8652  1.4370
  455SOL     OW 7200   6.013   4.733   7.117  0.0621  0.2643  0.2530
  455SOL    HW1 7201   5.959   4.677   7.173 -0.0235  0.9655  0.8840
  455SOL    HW2 7202   5.982   4.714   7.028  0.4598 -1.1316  0.3955
  456SOL     OW 7203   2.554   5.781   7.931 -0.4360  0.7378 -0.3879
  456SOL    HW1 7204   2.477   5.833   7.909 -0.1804  0.2873 -2.5689
  456SOL    HW2 7205   2.618   5.844   7.962 -0.7575  1.4941 -1.2312
  457SOL     OW 7206   7.450  10.270   2.610 -0.0152 -0.0075 -0.0523
  457SOL    HW1 7207   7.475  10.216   2.535  1.2576  1.0453 -0.4312
  457SOL    HW2 7208   7.473  10.216   2.686  2.3893  0.3788 -0.4046
  458SOL     OW 7209   0.179   7.132   9.871 -0.2915  0.1027 -0.2916
  458SOL    HW1 7210   0.092   7.122   9.832  0.5003  0.5743 -2.2958
  458SOL    HW2 7211   0.237   7.150   9.797  1.7501 -1.4424  0.8322
  459SOL     OW 7212   4.189   1.738  10.033 -0.1024 -0.7214  0.2382
  459SOL    HW1 7213   4.228   1.738  10.120  1.3128 -0.8335 -0.3682
  459SOL    HW2 7214   4.196   1.829  10.003  2.3068 -1.2179 -0.9499
  460SOL     OW 7215  10.136   5.994   4.800 -0.4915 -0.1685  0.1962
  460SOL    HW1 7216  10.125   5.989   4.705 -0.6051  0.8015  0.1499
  460SOL    HW2 7217  10.163   6.084   4.817 -0.0441 -0.4447  1.0479
  461SOL     OW 7218   3.452   9.895   6.303  0.3775 -0.0849  0.0596
  461SOL    HW1 7219   3.496   9.861   6.380  2.4657  0.3093 -0.8874
  461SOL    HW2 7220   3.412   9.977   6.332 -1.4986 -1.3680  1.4059
  462SOL     OW 7221   0.465   5.207   9.102 -0.2942  0.7339  0.3953
  462SOL    HW1 7222   0.491   5.117   9.124  0.3186  0.8565  0.1949
  462SOL    HW2 7223   0.435   5.201   9.011  0.4148  0.8615  0.1513
  463SOL     OW 7224   5.444   7.896   6.846  0.3446  0.3074 -0.0402
  463SOL    HW1 7225   5.475   7.823   6.793 -1.2605  0.2838 -1.0199
  463SOL    HW2 7226   5.518   7.920   6.901  0.8488 -2.1911  0.4740
  464SOL     OW 7227   6.069   6.630   5.899 -0.1496  0.4112  1.0325
  464SOL    HW1 7228   6.109   6.587   5.976  1.6323  1.7002  0.8939
  464SOL    HW2 7229   6.101   6.720   5.903 -1.3653  0.9381 -0.3407
  465SOL     OW 7230   3.265   5.718   6.424  0.2864 -0.6303  0.3841
  465SOL    HW1 7231   3.178   5.706   6.462  0.8843  0.8718  2.4080
  465SOL    HW2 7232   3.323   5.665   6.478  0.8059 -0.7083 -0.2292
  466SOL     OW 7233   5.244  10.096   4.964  0.1357  0.4383  0.5632
  466SOL    HW1 7234   5.277  10.018   5.008  1.1542  0.6493  0.2062
  466SOL    HW2 7235   5.155  10.106   4.997  0.3065 -0.3434  1.3096
  467SOL     OW 7236   2.739   4.507   3.258 -0.0382  0.2083  0.1503
  467SOL    HW1 7237   2.820   4.459   3.238 -1.0754 -1.6457  0.1842
  467SOL    HW2 7238   2.686   4.499   3.178  1.4444  5.3717 -1.7696
  468SOL     OW 7239   8.210   8.160   1.513  0.0488  0.0684  0.2295
  468SOL    HW1 7240   8.147   8.120   1.572  1.1163 -0.7257  0.8455
  468SOL    HW2 7241   8.197   8.255   1.525 -0.0672 -0.0843  1.3642
  469SOL     OW 7242  10.547  10.311   7.821  0.1448 -0.0899  0.1267
  469SOL    HW1 7243  10.478  10.299   7.756  1.0422 -1.1364 -0.6772
  469SOL    HW2 7244  10.618  10.353   7.772  0.9926 -1.2874  0.2996
  470SOL     OW 7245   6.810   5.653   8.814  0.3808  0.1535  0.4973
  470SOL    HW1 7246   6.793   5.627   8.723 -0.1921 -0.6024  0.8119
  470SOL    HW2 7247   6.874   5.724   8.806 -1.5516  1.8994 -0.6571
  471SOL     OW 7248   2.176   3.502   9.983  0.3076 -0.8963 -0.5120
  471SOL    HW1 7249   2.160   3.411   9.959  1.6022 -1.7087  1.4360
  471SOL    HW2 7250   2.267   3.503  10.012  0.0832  0.8698  0.2392
  472SOL     OW 7251   5.988   7.061   9.994  0.1502  0.1172 -0.0016
  472SOL    HW1 7252   5.926   7.038   9.925  0.3394  1.2036 -0.5587
  472SOL    HW2 7253   5.967   7.152  10.015 -0.0604 -0.2601  1.5471
  473SOL     OW 7254   0.695   9.916  10.653 -0.0534  0.0557 -1.0454
  473SOL    HW1 7255   0.732   9.829  10.667 -0.9385 -0.1619  0.1509
  473SOL    HW2 7256   0.710   9.962  10.736  0.0097  0.9044 -1.5118
  474SOL     OW 7257   9.186   6.068  10.441 -0.1630 -0.2525  0.1593
  474SOL    HW1 7258   9.222   6.151  10.471  2.4914 -1.6963  1.2793
  474SOL    HW2 7259   9.123   6.043  10.509 -0.3545  0.4227  0.2362
  475SOL     OW 7260   0.986   9.435   5.856 -0.1160 -0.5527 -0.3620
  475SOL    HW1 7261   0.989   9.339   5.852  1.0106 -0.5904  0.7764
  475SOL    HW2 7262   0.894   9.456   5.838  0.1364 -1.6378 -3.6193
  476SOL     OW 7263   6.906   7.702   8.156 -0.3380  0.5683  0.3920
  476SOL    HW1 7264   6.814   7.713   8.134 -0.5167 -2.6422 -1.0678
  476SOL    HW2 7265   6.952   7.765   8.100 -1.4986  0.0331 -1.2346
  477SOL     OW 7266   3.008   4.797   6.635 -0.1295  0.2607  0.7288
  477SOL    HW1 7267   3.041   4.886   6.649  0.7555  0.1095 -0.1929
  477SOL    HW2 7268   3.004   4.788   6.540 -0.4565 -0.5967  0.8123
  478SOL     OW 7269   4.623   2.337  10.364 -0.0274 -0.1492 -0.8104
  478SOL    HW1 7270   4.624   2.244  10.385 -1.9900  0.2842  1.6291
  478SOL    HW2 7271   4.657   2.380  10.442 -3.7294  1.3563  0.1917
  479SOL     OW 7272   8.031   1.893   3.835 -0.0894  0.0037  0.6812
  479SOL    HW1 7273   8.086   1.932   3.767  0.2326  1.1900  1.5933
  479SOL    HW2 7274   8.085   1.896   3.914 -0.3096 -1.7256  0.9345
  480SOL     OW 7275   0.475   6.941   1.010  0.0364  0.1671 -0.2015
  480SOL    HW1 7276   0.536   6.889   0.958  0.5655  1.2279 -0.6869
  480SOL    HW2 7277   0.398   6.949   0.954 -0.7157 -1.4566  0.5483
  481SOL     OW 7278   2.616   5.995   0.040 -0.5689  0.7287  0.3475
  481SOL    HW1 7279   2.583   6.083   0.057  1.4163  2.1723 -2.4418
  481SOL    HW2 7280   2.661   5.970   0.121 -1.1309  2.2909  1.1760
  482SOL     OW 7281   0.450   1.493   8.680  0.3972  0.1368 -0.0355
  482SOL    HW1 7282   0.518   1.427   8.692 -0.5419 -1.0423 -0.9170
  482SOL    HW2 7283   0.368   1.445   8.687 -0.3084  0.8806 -2.1720
  483SOL     OW 7284   9.408   3.034   5.651 -0.7085  0.1657 -0.1670
  483SOL    HW1 7285   9.319   3.018   5.622 -0.1058  1.2481 -2.9661
  483SOL    HW2 7286   9.457   2.956   5.624 -0.1259  1.2188 -2.4409
  484SOL     OW 7287   1.362   0.716   6.581  0.0226  0.5087 -0.7091
  484SOL    HW1 7288   1.273   0.727   6.546  0.2393  0.9116 -1.1400
  484SOL    HW2 7289   1.373   0.790   6.642  0.3100  0.8498 -1.1724
  485SOL     OW 7290   7.224   1.196   3.674 -0.6464 -0.7159 -0.1521
  485SOL    HW1 7291   7.163   1.202   3.601 -1.6209 -0.2956  0.6731
  485SOL    HW2 7292   7.248   1.104   3.679 -2.2148 -1.1262  0.2876
  486SOL     OW 7293   2.953   7.517   0.116  0.3919  0.0185  0.2393
  486SOL    HW1 7294   2.860   7.518   0.140  0.4536 -1.1823  0.5829
  486SOL    HW2 7295   2.995   7.574   0.181 -0.2405  1.4619 -0.5872
  487SOL     OW 7296   1.469   4.279   5.760 -0.3615 -0.8393 -0.2378
  487SOL    HW1 7297   1.538   4.343   5.780 -0.2286 -1.3494  0.9980
  487SOL    HW2 7298   1.399   4.330   5.720  0.3566 -0.1664 -0.6527
  488SOL     OW 7299   6.919   5.025   8.674 -0.0285 -0.8277 -0.7382
  488SOL    HW1 7300   6.989   4.961   8.689  1.3464  0.1754 -2.4524
  488SOL    HW2 7301   6.951   5.105   8.716 -1.5869 -1.0988  1.1056
  489SOL     OW 7302   9.349   9.708   4.790  0.3196  0.3935 -0.6368
  489SOL    HW1 7303   9.340   9.614   4.807  3.4215  0.1006 -0.1528
  489SOL    HW2 7304   9.301   9.750   4.861 -0.2201 -0.8156 -0.2689
  490SOL     OW 7305   6.988   8.803   4.743 -1.2531  0.1323 -0.2076
  490SOL    HW1 7306   7.062   8.813   4.683 -0.5045  0.9561  0.8349
  490SOL    HW2 7307   6.929   8.742   4.697 -0.1813 -0.1470 -1.2738
  491SOL     OW 7308   6.743   6.765  10.474  0.2181  0.2359 -0.3985
  491SOL    HW1 7309   6.690   6.795  10.400 -0.8179  1.6126  0.8492
  491SOL    HW2 7310   6.786   6.844  10.506  0.6320 -0.3371  0.4952
  492SOL     OW 7311   6.947   4.239   5.177  0.4628  0.4032 -0.0706
  492SOL    HW1 7312   6.870   4.207   5.224  1.1592  0.5831  1.2426
  492SOL    HW2 7313   6.915   4.261   5.089 -1.4658  2.5662  1.0734
  493SOL     OW 7314   5.533   4.301   0.996  0.4684 -0.4019  0.8114
  493SOL    HW1 7315   5.540   4.207   1.015  0.9804 -0.1681  1.8275
  493SOL    HW2 7316   5.439   4.317   0.990  0.3683 -0.9008  1.0214
  494SOL     OW 7317   5.334   4.897   0.958  0.0455  0.0029 -0.0122
  494SOL    HW1 7318   5.323   4.951   0.880  3.1056 -1.9722 -2.0116
  494SOL    HW2 7319   5.404   4.939   1.008 -1.6205  1.0306  1.6220
  495SOL     OW 7320   8.681   6.403   1.346  0.2393  0.2268  0.2018
  495SOL    HW1 7321   8.657   6.495   1.356  0.9697  0.4093  0.3366
  495SOL    HW2 7322   8.599   6.359   1.324  0.1185  1.1195 -1.2343
  496SOL     OW 7323   8.702   5.234   4.360  0.4380  0.0837 -0.0340
  496SOL    HW1 7324   8.633   5.170   4.343 -1.0724  1.4163  0.7899
  496SOL    HW2 7325   8.748   5.200   4.437  1.1140 -1.1041 -0.9265
  497SOL     OW 7326   0.275   1.459   6.403  0.1172  0.2671 -0.2241
  497SOL    HW1 7327   0.299   1.495   6.489  3.0607 -1.3229 -0.2343
  497SOL    HW2 7328   0.197   1.508   6.377 -0.2358  1.5707  2.8430
  498SOL     OW 7329  10.073   2.456   1.716  0.0276  0.5892 -0.5797
  498SOL    HW1 7330  10.122   2.518   1.770 -2.1601  0.3739  1.8052
  498SOL    HW2 7331  10.106   2.370   1.742 -2.1113  0.3780  1.7561
  499SOL     OW 7332   1.989   3.159   3.342 -0.2781  0.0447 -0.5189
  499SOL    HW1 7333   2.036   3.102   3.402 -2.6492 -1.0074  0.4344
  499SOL    HW2 7334   2.055   3.224   3.316  1.5681 -1.0671  1.0469
  500SOL     OW 7335   8.682   1.878   5.472 -0.3517  0.0020 -0.2114
  500SOL    HW1 7336   8.659   1.833   5.390 -1.9716  0.2980  0.0560
  500SOL    HW2 7337   8.778   1.883   5.470 -0.2166 -2.0641 -0.9705
  501SOL     OW 7338   7.806  10.038   3.648  0.4788 -0.2367 -0.2471
  501SOL    HW1 7339   7.859  10.032   3.728  1.6170 -0.1693 -0.9671
  501SOL    HW2 7340   7.746   9.963   3.654  0.5025 -0.2022  0.6877
  502SOL     OW 7341  10.453   6.767   0.944 -0.2694 -0.0678  0.0863
  502SOL    HW1 7342  10.372   6.733   0.984 -0.5634  2.0969  1.5388
  502SOL    HW2 7343  10.509   6.788   1.019  0.1057  1.9691 -0.7121
  503SOL     OW 7344   5.741   2.710   6.209 -0.2762 -0.3466  0.0735
  503SOL    HW1 7345   5.762   2.625   6.246  0.6170 -0.2564 -0.1920
  503SOL    HW2 7346   5.720   2.692   6.117 -0.1279 -0.2866  0.0275
  504SOL     OW 7347   8.339   4.526   6.698 -0.2414  0.1644 -0.0274
  504SOL    HW1 7348   8.399   4.524   6.773  0.0879  0.1488 -0.2906
  504SOL    HW2 7349   8.276   4.457   6.716  2.0210 -2.5306 -1.5790
  505SOL     OW 7350   4.238   3.119   1.932 -0.3782  0.0634  0.2414
  505SOL    HW1 7351   4.215   3.164   1.851  0.6925  0.0982 -0.0612
  505SOL    HW2 7352   4.245   3.189   1.997 -0.8042  0.0876  0.2600
  506SOL     OW 7353   3.481   4.345   6.785  0.0964  0.0471  0.1516
  506SOL    HW1 7354   3.395   4.376   6.814  0.6739  2.5841 -0.6850
  506SOL    HW2 7355   3.526   4.320   6.866 -1.6736 -2.2066  0.5457
  507SOL     OW 7356   4.095   5.954   9.234 -0.2251 -0.2783  0.4143
  507SOL    HW1 7357   4.146   6.015   9.287 -1.0317  1.1872 -0.4462
  507SOL    HW2 7358   4.012   5.944   9.281 -0.8711  0.8825 -0.4176
  508SOL     OW 7359   5.703   2.503   4.873 -0.0584  0.3918  0.0022
  508SOL    HW1 7360   5.650   2.497   4.952  0.1908  1.1710  0.2398
  508SOL    HW2 7361   5.662   2.441   4.812 -1.5586  1.3110  0.0034
  509SOL     OW 7362   5.836   8.733   3.522 -0.2461 -0.5152 -0.4109
  509SOL    HW1 7363   5.758   8.750   3.469 -0.7056 -0.6952  0.1895
  509SOL    HW2 7364   5.804   8.738   3.613  0.5440 -0.0853 -0.1471
  510SOL     OW 7365   9.558   4.887   1.353 -0.0862  0.4565  0.2486
  510SOL    HW1 7366   9.599   4.877   1.267 -0.7011 -1.5336  0.1423
  510SOL    HW2 7367   9.627   4.861   1.415  0.3142  1.7630  0.3840
  511SOL     OW 7368   0.087   4.407   2.246 -0.5598 -0.0128 -0.0599
  511SOL    HW1 7369   0.089   4.495   2.209 -0.4183  0.0619  0.1204
  511SOL    HW2 7370   0.167   4.401   2.298 -0.7000 -0.1506  0.1454
  512SOL     OW 7371   1.710   9.044   6.630  1.0631  0.6493  0.7975
  512SOL    HW1 7372   1.736   9.031   6.721  0.4650  1.9695  1.1897
  512SOL    HW2 7373   1.779   9.100   6.593  0.8442  0.8611  0.7055
  513SOL     OW 7374   7.800   0.297   6.644  0.1675  0.3557 -0.2828
  513SOL    HW1 7375   7.846   0.380   6.658  0.1126  0.0572  2.1987
  513SOL    HW2 7376   7.707   0.320   6.647  0.1086  0.0931  2.0532
  514SOL     OW 7377   0.352   0.594   1.011 -0.2840 -0.6484  0.1984
  514SOL    HW1 7378   0.387   0.683   1.017  0.3326 -0.8955  0.3715
  514SOL    HW2 7379   0.424   0.542   0.976 -0.7708 -1.0100 -0.2813
  515SOL     OW 7380   5.471   6.436   6.087  0.4740 -0.8456 -0.5701
  515SOL    HW1 7381   5.508   6.348   6.087  2.0510 -0.2322  0.3030
  515SOL    HW2 7382   5.537   6.489   6.133 -0.6669  0.6848 -0.6367
  516SOL     OW 7383   7.710   3.252   0.867  0.1841  0.0548  0.1562
  516SOL    HW1 7384   7.775   3.320   0.847  0.1240  0.1711  0.3477
  516SOL    HW2 7385   7.625   3.297   0.859  0.1736  0.2899  1.3051
  517SOL     OW 7386   0.522   1.743   8.602 -0.1687 -0.0865  0.9158
  517SOL    HW1 7387   0.576   1.726   8.525 -2.6303 -0.4309 -0.8224
  517SOL    HW2 7388   0.504   1.656   8.638 -0.4560 -0.0583  0.8415
  518SOL     OW 7389   2.009   9.632   4.648  0.9049 -0.0736 -0.8291
  518SOL    HW1 7390   1.940   9.667   4.703  1.7768  0.3495  0.0227
  518SOL    HW2 7391   2.016   9.540   4.673  1.6811  0.2503  0.2008
  519SOL     OW 7392   3.815   2.318   3.058  0.5965  0.4375 -0.1018
  519SOL    HW1 7393   3.730   2.315   3.104  0.6447 -1.2585 -0.0571
  519SOL    HW2 7394   3.805   2.389   2.995 -1.6321 -1.0018 -1.5165
  520SOL     OW 7395   2.623   6.126   7.800  0.2645 -0.5244  0.2887
  520SOL    HW1 7396   2.682   6.081   7.740 -0.5497  0.8402 -1.6459
  520SOL    HW2 7397   2.536   6.092   7.779 -0.3102  1.5483 -0.9208
  521SOL     OW 7398   4.405  10.030   2.368 -0.6038  0.5240  0.3858
  521SOL    HW1 7399   4.329   9.982   2.336  0.0941 -0.4077  0.0911
  521SOL    HW2 7400   4.395  10.029   2.463 -1.3829  1.1440  0.3271
  522SOL     OW 7401   3.172   1.123   6.798 -0.6612 -0.2143  0.2541
  522SOL    HW1 7402   3.202   1.140   6.708 -0.1805  0.7769  0.5950
  522SOL    HW2 7403   3.106   1.054   6.788 -0.9041  0.1587 -0.9030
  523SOL     OW 7404   7.116   2.073   5.994 -0.3774 -0.3883 -0.4566
  523SOL    HW1 7405   7.087   2.155   6.032  0.8732 -0.3998  0.5660
  523SOL    HW2 7406   7.075   2.005   6.048  0.6405 -0.4062  0.3250
  524SOL     OW 7407   0.418   0.554   9.183  0.2796 -0.6326 -0.4643
  524SOL    HW1 7408   0.466   0.474   9.206  1.0432 -0.3036 -0.8659
  524SOL    HW2 7409   0.393   0.541   9.092  0.3111 -0.4662 -0.4970
  525SOL     OW 7410   4.555   4.558   8.765 -0.0904 -0.4823 -0.3027
  525SOL    HW1 7411   4.511   4.482   8.727  1.3052 -0.8261 -1.3098
  525SOL    HW2 7412   4.612   4.590   8.695  2.0578 -0.7017  1.2228
  526SOL     OW 7413   4.459   9.589   2.953  0.1881  0.1206 -0.1390
  526SOL    HW1 7414   4.533   9.529   2.964  0.2465  0.3188  0.5505
  526SOL    HW2 7415   4.440   9.586   2.859  0.6038 -0.4867 -0.2068
  527SOL     OW 7416   1.135   8.237   9.815  0.1170 -0.3359  0.0484
  527SOL    HW1 7417   1.162   8.310   9.871 -2.4608  0.0921  0.8257
  527SOL    HW2 7418   1.124   8.163   9.875  0.8028 -0.8734 -0.4610
  528SOL     OW 7419   9.929   4.866   4.353  0.1798  0.4901 -0.1188
  528SOL    HW1 7420   9.916   4.883   4.447 -2.3555  0.9267 -0.4944
  528SOL    HW2 7421   9.934   4.771   4.347 -0.5904  0.4104  0.3635
  529SOL     OW 7422   9.509   6.189   3.628 -0.5275 -0.8110 -0.2703
  529SOL    HW1 7423   9.563   6.174   3.706  2.1610  1.0346 -1.6139
  529SOL    HW2 7424   9.488   6.282   3.630  0.6337 -0.4490 -2.3044
  530SOL     OW 7425   8.582   8.216   2.830  0.1130 -0.8307  0.1014
  530SOL    HW1 7426   8.561   8.254   2.745 -0.4970 -1.4417 -0.0306
  530SOL    HW2 7427   8.634   8.283   2.874 -0.4005 -0.1044 -0.3733
  531SOL     OW 7428   5.913   3.594   5.584  0.2345 -0.5152  0.4466
  531SOL    HW1 7429   5.950   3.610   5.671  0.9381 -1.2251  0.2897
  531SOL    HW2 7430   5.880   3.505   5.589 -1.4393  0.0725  0.5588
  532SOL     OW 7431  10.001   9.346   8.618  0.4488  0.2035 -0.0462
  532SOL    HW1 7432   9.938   9.327   8.687 -0.7037  2.0107 -0.5238
  532SOL    HW2 7433  10.085   9.352   8.663  0.2808 -1.9800  0.6421
  533SOL     OW 7434   5.157   9.755   5.373  0.1142 -0.8038  0.6269
  533SOL    HW1 7435   5.087   9.745   5.437  1.2697 -0.7659  1.9360
  533SOL    HW2 7436   5.231   9.789   5.423  0.6099  0.6933 -1.0116
  534SOL     OW 7437   4.886   8.726   0.245 -0.4549 -0.2756 -0.2749
  534SOL    HW1 7438   4.864   8.665   0.316 -2.1062 -0.4012 -0.8694
  534SOL    HW2 7439   4.930   8.799   0.290 -1.4197 -0.3741  0.8920
  535SOL     OW 7440   9.200   7.033   6.918 -0.2707 -0.2310 -0.1033
  535SOL    HW1 7441   9.287   7.044   6.957 -0.8984 -0.9153  1.5869
  535SOL    HW2 7442   9.159   7.120   6.924  0.4435  0.2289 -1.3941
  536SOL     OW 7443   8.856   0.087   9.907 -0.5345  0.2509 -0.2022
  536SOL    HW1 7444   8.808   0.133   9.838  0.1922  1.6045  0.1660
  536SOL    HW2 7445   8.946   0.084   9.875 -0.5442 -0.8486 -0.1662
  537SOL     OW 7446   2.189   6.069   4.930 -0.2701  0.2296 -0.6725
  537SOL    HW1 7447   2.234   6.050   5.012 -0.8547  0.5870 -0.2617
  537SOL    HW2 7448   2.255   6.111   4.875  0.1833 -0.2086 -0.4663
  538SOL     OW 7449   7.822   3.513   3.722  0.1930 -0.8054 -0.6716
  538SOL    HW1 7450   7.895   3.576   3.724 -0.2766 -0.1061 -2.9340
  538SOL    HW2 7451   7.815   3.488   3.630 -1.7934 -1.6253 -0.3412
  539SOL     OW 7452   6.934   9.697   2.710 -0.2765 -0.4428  0.1432
  539SOL    HW1 7453   7.016   9.653   2.687  0.7383  1.6280 -0.5193
  539SOL    HW2 7454   6.941   9.712   2.804  0.8089  0.9246 -0.1135
  540SOL     OW 7455   3.728   5.947   0.147  0.2495 -0.0821 -0.2036
  540SOL    HW1 7456   3.766   6.012   0.088 -1.6065  0.8809 -0.3902
  540SOL    HW2 7457   3.635   5.971   0.154 -0.0147 -1.3836  1.5053
  541SOL     OW 7458   1.561   5.850  10.089  0.2298 -0.4100  0.1136
  541SOL    HW1 7459   1.531   5.920  10.147 -0.9648 -0.1971 -0.7366
  541SOL    HW2 7460   1.559   5.889  10.001  1.4334 -0.9150 -0.1644
  542SOL     OW 7461   1.813   1.181   9.632  0.7071  0.4901  0.2569
  542SOL    HW1 7462   1.835   1.117   9.699  0.6284  0.5309  0.3221
  542SOL    HW2 7463   1.801   1.263   9.680  0.7980  0.5518  0.1748
  543SOL     OW 7464   6.006   9.705   9.436  0.0714  0.1843 -0.0455
  543SOL    HW1 7465   6.069   9.641   9.403  1.7200  2.2875 -1.2568
  543SOL    HW2 7466   5.980   9.672   9.522  1.8666 -1.3929 -0.0522
  544SOL     OW 7467   6.086   6.271   4.071  0.1118 -0.0970  0.0937
  544SOL    HW1 7468   6.061   6.224   3.992 -0.1195  2.0872 -1.2123
  544SOL    HW2 7469   6.006   6.313   4.101  0.5508  0.4460  0.5362
  545SOL     OW 7470   5.558   1.301   3.657  0.3308 -0.0468  0.2498
  545SOL    HW1 7471   5.500   1.351   3.600 -1.4931 -0.5858  1.5091
  545SOL    HW2 7472   5.632   1.360   3.675 -0.2657  1.0274 -0.6931
  546SOL     OW 7473   2.990   5.451   4.794 -0.0815 -0.1046  0.1379
  546SOL    HW1 7474   2.966   5.497   4.875  1.8843 -0.4057  0.9655
  546SOL    HW2 7475   3.074   5.489   4.769 -0.1071 -0.8294 -1.1238
  547SOL     OW 7476   4.054  10.722  10.332  0.1683 -0.2119 -0.5151
  547SOL    HW1 7477   4.122  10.788  10.345 -1.4362  1.3354  0.4453
  547SOL    HW2 7478   4.067  10.691  10.242  0.9336  1.4590 -1.0203
  548SOL     OW 7479   1.726   2.325   5.111 -0.9046  0.0199 -0.3770
  548SOL    HW1 7480   1.657   2.385   5.083 -0.2562  1.4153  0.8549
  548SOL    HW2 7481   1.791   2.382   5.154 -0.0180 -1.5098  0.3870
  549SOL     OW 7482   8.167   9.398   0.191 -0.0828 -0.1785 -0.3338
  549SOL    HW1 7483   8.144   9.481   0.150  0.5333 -0.6239 -1.6352
  549SOL    HW2 7484   8.148   9.332   0.124 -0.8532 -1.1341  0.7784
  550SOL     OW 7485   5.810   7.090   1.967  0.0258 -0.6232 -0.1736
  550SOL    HW1 7486   5.867   7.148   1.916  0.1022  0.0165  0.6158
  550SOL    HW2 7487   5.723   7.100   1.929 -0.4178  1.7002  1.2874
  551SOL     OW 7488   8.363   2.907   1.377 -0.3913  0.4312 -0.1899
  551SOL    HW1 7489   8.366   2.878   1.286 -0.7188 -0.9495  0.2158
  551SOL    HW2 7490   8.367   3.002   1.372 -0.1337  0.3661 -1.6320
  552SOL     OW 7491   0.874   5.299   8.989  0.4871  0.4735  0.3574
  552SOL    HW1 7492   0.908   5.250   8.914  0.3058  1.3709 -0.3299
  552SOL    HW2 7493   0.798   5.345   8.955 -1.2103 -1.1431  1.7584
  553SOL     OW 7494   0.903   2.819   3.486 -0.6202 -0.0361  0.0028
  553SOL    HW1 7495   0.809   2.824   3.502 -1.0727 -1.3101 -1.8288
  553SOL    HW2 7496   0.917   2.867   3.404  0.4968  0.9136  0.7136
  554SOL     OW 7497   9.139   2.778   3.361 -0.9048  0.0226 -0.1875
  554SOL    HW1 7498   9.214   2.777   3.421  1.1726 -1.5842 -2.6146
  554SOL    HW2 7499   9.106   2.688   3.363  0.3809 -0.6156 -2.6351
  555SOL     OW 7500   6.030   4.770   8.774 -0.3818  0.2209  0.2029
  555SOL    HW1 7501   6.087   4.814   8.711  3.7586 -0.5140  3.0622
  555SOL    HW2 7502   6.009   4.686   8.733  0.8046  0.4106 -0.8431
  556SOL     OW 7503   1.323   8.479   1.802 -0.3349  0.4343  0.0065
  556SOL    HW1 7504   1.293   8.510   1.716  0.7797 -0.8945 -0.9012
  556SOL    HW2 7505   1.413   8.450   1.788 -0.1891  0.0004  1.5851
  557SOL     OW 7506   4.582   4.864   9.260  0.1109  0.2034 -0.6957
  557SOL    HW1 7507   4.613   4.887   9.173  2.0415  1.2135  0.1796
  557SOL    HW2 7508   4.513   4.800   9.246 -0.6090  1.3826 -3.0021
  558SOL     OW 7509   2.268   4.106   0.691  0.2620  0.0287  0.2507
  558SOL    HW1 7510   2.321   4.055   0.752  2.1603 -1.7875 -2.6421
  558SOL    HW2 7511   2.201   4.148   0.745  1.0844 -2.3304  3.3434
  559SOL     OW 7512   7.954   9.555   5.277 -0.5498 -0.1985 -0.4034
  559SOL    HW1 7513   7.869   9.537   5.238 -0.5889 -1.0976  0.0875
  559SOL    HW2 7514   7.998   9.610   5.212 -1.6074  0.5319 -0.5264
  560SOL     OW 7515   4.100   9.538   3.305  0.4602  0.0956 -0.1042
  560SOL    HW1 7516   4.149   9.500   3.231 -0.1878 -0.2506 -0.3659
  560SOL    HW2 7517   4.009   9.531   3.278  0.3252  2.8840 -0.6636
  561SOL     OW 7518   8.661  10.351   1.715  0.1708  0.0155 -0.2735
  561SOL    HW1 7519   8.619  10.265   1.716  0.5018 -0.1664  1.5461
  561SOL    HW2 7520   8.688  10.365   1.806 -0.2672  2.2470 -0.4436
  562SOL     OW 7521   4.103   3.800   4.430 -0.1401 -0.1940  0.2175
  562SOL    HW1 7522   4.062   3.801   4.344 -0.0368 -0.6721  0.1604
  562SOL    HW2 7523   4.045   3.747   4.485 -0.7588  0.9802  0.7295
  563SOL     OW 7524   3.947   1.787   6.999  0.3391  0.4624  0.3789
  563SOL    HW1 7525   4.034   1.813   7.029  0.0118  2.1593  0.0073
  563SOL    HW2 7526   3.905   1.870   6.974 -1.5889 -0.2437  1.0905
  564SOL     OW 7527   3.584  10.622   2.018  0.2550 -0.1781 -0.1783
  564SOL    HW1 7528   3.520  10.553   2.002 -0.1269 -0.0762  0.7950
  564SOL    HW2 7529   3.594  10.666   1.934 -1.8015  0.4965 -0.1315
  565SOL     OW 7530   9.702   7.909   8.540 -0.1623  0.2341 -0.4212
  565SOL    HW1 7531   9.726   7.821   8.570 -1.1981 -0.3638 -1.2829
  565SOL    HW2 7532   9.641   7.894   8.468 -0.2419  1.6687 -0.6797
  566SOL     OW 7533   0.724   4.284   9.796 -0.1638  0.3839 -0.0702
  566SOL    HW1 7534   0.755   4.362   9.751  0.0097 -0.1505 -0.9020
  566SOL    HW2 7535   0.634   4.273   9.765 -0.1431  0.1775 -0.0583
  567SOL     OW 7536   9.069   2.525   2.096  0.2470 -0.2740 -0.6059
  567SOL    HW1 7537   9.139   2.562   2.042  0.4945 -0.3207 -0.3184
  567SOL    HW2 7538   9.115   2.486   2.171 -0.0648 -0.5421 -0.5544
  568SOL     OW 7539   0.536   9.940   1.891  0.3786  0.2089 -0.3251
  568SOL    HW1 7540   0.544   9.993   1.971 -0.1706 -1.2188  0.7284
  568SOL    HW2 7541   0.611   9.965   1.838  1.4880  0.2838  1.2108
  569SOL     OW 7542   3.643   8.388   9.963  0.1849  0.2268  0.1813
  569SOL    HW1 7543   3.633   8.438   9.882 -1.7379 -2.8138 -1.6870
  569SOL    HW2 7544   3.574   8.422  10.021 -0.2231  0.6167 -0.5233
  570SOL     OW 7545   4.427   1.519   8.261  0.4216  0.8973  0.8651
  570SOL    HW1 7546   4.333   1.511   8.279  0.1765 -1.1197 -0.8658
  570SOL    HW2 7547   4.469   1.480   8.337 -0.3457 -1.7168  0.0699
  571SOL     OW 7548   6.518   2.557   2.078 -0.0774  0.4954  0.1735
  571SOL    HW1 7549   6.452   2.597   2.020  0.1451 -1.8268 -1.8682
  571SOL    HW2 7550   6.467   2.516   2.147 -0.6669  0.0182 -0.5357
  572SOL     OW 7551   6.767   5.117   1.721 -0.1212 -0.2659  0.1726
  572SOL    HW1 7552   6.789   5.165   1.801 -1.6289  2.1776 -0.7481
  572SOL    HW2 7553   6.737   5.032   1.751  0.5080  0.1417  2.0968
  573SOL     OW 7554   8.628   0.906   2.437 -0.0185  0.0969 -0.1312
  573SOL    HW1 7555   8.614   0.922   2.343  0.1721 -3.0140 -0.7855
  573SOL    HW2 7556   8.553   0.853   2.464  1.0563 -0.9612  0.9061
  574SOL     OW 7557   4.390   6.127   7.891  0.0614 -0.0374 -0.6742
  574SOL    HW1 7558   4.303   6.115   7.853 -1.8067 -2.2469  3.6210
  574SOL    HW2 7559   4.374   6.179   7.971  2.2253 -2.2066  1.3138
  575SOL     OW 7560   8.549   1.910   3.892  0.4893  0.2244 -0.5754
  575SOL    HW1 7561   8.495   1.940   3.819  0.1337 -0.3745 -0.5667
  575SOL    HW2 7562   8.502   1.835   3.928 -0.3606  1.6320  1.4983
  576SOL     OW 7563   4.510   9.978   8.439  0.0932  1.1749  0.1490
  576SOL    HW1 7564   4.415   9.974   8.430  0.1807  1.2015 -0.8914
  576SOL    HW2 7565   4.528   9.932   8.521 -0.5886 -1.6685 -1.1818
  577SOL     OW 7566   0.742   3.901  10.147 -0.0535  0.0370  0.2471
  577SOL    HW1 7567   0.789   3.925  10.067  0.2662 -4.0128 -0.9893
  577SOL    HW2 7568   0.650   3.897  10.121 -0.2350  0.9278  0.7259
  578SOL     OW 7569   6.092  10.489   1.525  0.2406  0.5053 -0.3872
  578SOL    HW1 7570   6.117  10.578   1.549  0.5528  0.5696 -0.9373
  578SOL    HW2 7571   6.084  10.443   1.609  0.1246  1.0365 -0.1044
  579SOL     OW 7572   5.914   3.076   1.755 -0.8091  0.0989 -0.2363
  579SOL    HW1 7573   5.961   3.079   1.838  2.2856  1.8811 -1.8777
  579SOL    HW2 7574   5.872   3.161   1.748 -0.7285  0.1055 -0.6505
  580SOL     OW 7575   9.017   5.708   4.134 -0.0808 -0.2594  0.4407
  580SOL    HW1 7576   8.970   5.707   4.051  1.0839  0.3747 -0.2502
  580SOL    HW2 7577   8.967   5.648   4.190 -0.5089 -1.2330 -0.9172
  581SOL     OW 7578   2.194   8.483   3.203 -0.1018 -0.5424 -0.2556
  581SOL    HW1 7579   2.103   8.498   3.230 -0.2823 -0.7217 -0.7493
  581SOL    HW2 7580   2.236   8.569   3.213 -0.7036 -0.0788 -1.4299
  582SOL     OW 7581   9.752   9.709   3.246  0.5916 -0.1649  0.5192
  582SOL    HW1 7582   9.712   9.751   3.170  0.4800  0.1125  0.7306
  582SOL    HW2 7583   9.752   9.776   3.313  1.8542 -0.0137  0.3795
  583SOL     OW 7584   8.616   6.543   4.282  0.0912  0.2624  0.0897
  583SOL    HW1 7585   8.592   6.465   4.232 -3.9714  1.8686 -0.8639
  583SOL    HW2 7586   8.673   6.592   4.223  1.7778 -1.3420  0.2698
  584SOL     OW 7587   7.530   7.823   7.004 -0.2526 -0.4667  0.1002
  584SOL    HW1 7588   7.574   7.747   6.965  2.2967  0.5890  0.6836
  584SOL    HW2 7589   7.523   7.802   7.097  1.8459  0.5125  0.5439
  585SOL     OW 7590   4.848   3.524   9.905 -0.3915  0.3540  0.2616
  585SOL    HW1 7591   4.909   3.456   9.933  0.0736  0.2351 -0.9778
  585SOL    HW2 7592   4.818   3.565   9.986 -1.1983 -1.7569  1.0984
  586SOL     OW 7593   6.729   0.566   4.424  0.3971 -0.4093 -0.4559
  586SOL    HW1 7594   6.767   0.519   4.497  1.1744 -0.0083 -0.5939
  586SOL    HW2 7595   6.735   0.506   4.350 -2.6646 -1.8381  0.2614
  587SOL     OW 7596   3.456   1.173   2.832 -0.3562 -0.4733 -0.6934
  587SOL    HW1 7597   3.541   1.169   2.786  0.2532  0.0724  0.3538
  587SOL    HW2 7598   3.396   1.210   2.767  0.4209  0.0091 -1.1621
  588SOL     OW 7599   9.673   7.255   0.839 -0.6909  0.2414 -0.8315
  588SOL    HW1 7600   9.752   7.203   0.852 -0.7418  0.1001 -1.0972
  588SOL    HW2 7601   9.671   7.314   0.915  0.3922  1.1857 -1.5120
  589SOL     OW 7602   8.147   6.074   8.060 -0.2927  0.2478  0.1554
  589SOL    HW1 7603   8.208   6.148   8.060 -0.9750  0.8311  0.9026
  589SOL    HW2 7604   8.086   6.094   7.989  1.0390 -0.9366 -1.4107
  590SOL     OW 7605   4.831   4.891   7.793 -0.5240 -0.2043  0.2161
  590SOL    HW1 7606   4.920   4.921   7.773 -0.5347 -0.3650 -0.0868
  590SOL    HW2 7607   4.779   4.917   7.717 -0.8224  0.2546  0.5771
  591SOL     OW 7608   2.430   5.372   5.403  0.2521  0.8980 -0.3441
  591SOL    HW1 7609   2.500   5.318   5.440  1.2070  3.6122  2.2542
  591SOL    HW2 7610   2.355   5.356   5.460 -0.1580  0.6320 -0.9564
  592SOL     OW 7611  10.135  10.602   2.043 -0.1136  0.0012 -0.0027
  592SOL    HW1 7612  10.179  10.670   1.993 -0.1607 -0.2609 -0.4038
  592SOL    HW2 7613  10.167  10.613   2.132 -1.0589  1.3574  0.2045
  593SOL     OW 7614   2.346   7.438   8.167  0.0692 -0.0797  0.5202
  593SOL    HW1 7615   2.374   7.524   8.197 -0.6203  0.0319  0.8524
  593SOL    HW2 7616   2.251   7.443   8.163  0.1361 -0.0166 -1.9634
  594SOL     OW 7617   8.421   7.629   4.932  0.7074  0.1184 -0.2839
  594SOL    HW1 7618   8.355   7.675   4.879 -0.7747 -0.1125  1.2585
  594SOL    HW2 7619   8.496   7.688   4.934 -0.7529  2.0531  0.7749
  595SOL     OW 7620   4.756   9.226   4.491 -0.7006 -0.2089 -0.3596
  595SOL    HW1 7621   4.798   9.311   4.503 -2.1257  0.1827  3.0832
  595SOL    HW2 7622   4.814   9.178   4.432  1.7686  2.0392  0.0718
  596SOL     OW 7623   2.424   0.273   8.507 -0.3426 -0.0665  0.0507
  596SOL    HW1 7624   2.411   0.252   8.599  0.3353  1.6987  0.5962
  596SOL    HW2 7625   2.519   0.288   8.499 -0.4321  0.0601 -0.8689
  597SOL     OW 7626   6.588   7.956   6.195  0.1603  0.5635 -0.4967
  597SOL    HW1 7627   6.665   8.009   6.214  1.0709 -0.8209 -0.1479
  597SOL    HW2 7628   6.591   7.884   6.258 -0.9304 -0.0026 -1.0431
  598SOL     OW 7629   2.745   1.771  10.686  0.0705  0.2071 -0.2401
  598SOL    HW1 7630   2.737   1.681  10.655  1.6989 -0.2339  0.5350
  598SOL    HW2 7631   2.834   1.797  10.663  0.0878  1.1252  0.7782
  599SOL     OW 7632   4.687   5.610   7.882 -0.5278  0.3179 -0.0303
  599SOL    HW1 7633   4.735   5.582   7.804  1.5279  0.7964  0.9934
  599SOL    HW2 7634   4.630   5.681   7.851  2.3900  2.5724 -0.6747
  600SOL     OW 7635   5.714   1.120   5.135 -0.3457 -0.5944  0.0161
  600SOL    HW1 7636   5.659   1.187   5.096 -0.6184  0.0491  1.4485
  600SOL    HW2 7637   5.690   1.039   5.088 -1.9528 -0.1893  0.0827
  601SOL     OW 7638   5.330   7.298   2.026 -0.1465 -0.0365 -0.6418
  601SOL    HW1 7639   5.360   7.218   1.983  1.5298 -0.4957  1.2093
  601SOL    HW2 7640   5.299   7.268   2.112 -0.6363  1.1726 -0.3796
  602SOL     OW 7641   6.736   5.910   4.370  0.7222  0.9574  0.2372
  602SOL    HW1 7642   6.758   5.874   4.284  0.9673 -1.9774  1.4058
  602SOL    HW2 7643   6.670   5.849   4.404  0.2064  2.3880  1.9005
  603SOL     OW 7644   4.548   7.671   2.586  0.3357 -0.1029 -0.0522
  603SOL    HW1 7645   4.604   7.593   2.579 -0.6018 -0.8116  0.1543
  603SOL    HW2 7646   4.472   7.642   2.637  1.4264  1.7822  2.9121
  604SOL     OW 7647   5.272   5.193   8.807  0.7309  1.1381  0.2556
  604SOL    HW1 7648   5.297   5.125   8.744  2.6289  1.8458  0.1764
  604SOL    HW2 7649   5.199   5.240   8.765  0.5057  0.2086 -0.4112
  605SOL     OW 7650   6.141   8.478  10.687  0.4719  0.1902 -0.0449
  605SOL    HW1 7651   6.062   8.446  10.643  0.7777 -1.0414  0.2815
  605SOL    HW2 7652   6.158   8.414  10.756  1.8437  0.3552 -0.2033
  606SOL     OW 7653   7.252   3.993   4.273  0.4000  0.4475  0.3142
  606SOL    HW1 7654   7.171   3.963   4.232  1.0698  1.1530 -1.6706
  606SOL    HW2 7655   7.318   3.987   4.203  1.7707  1.1097  1.4915
  607SOL     OW 7656   1.321   9.284   9.090  0.5462  0.2862 -0.5162
  607SOL    HW1 7657   1.362   9.353   9.038  1.2522  2.0074  2.0927
  607SOL    HW2 7658   1.394   9.242   9.136 -0.0957 -0.7473 -0.3962
  608SOL     OW 7659   9.219  10.165   2.729 -0.2637 -0.1083 -0.2074
  608SOL    HW1 7660   9.245  10.116   2.807 -0.1391 -1.4876 -1.0764
  608SOL    HW2 7661   9.133  10.130   2.706  0.7622 -1.5798 -2.1115
  609SOL     OW 7662   1.932   9.154   3.278  0.4132  0.0454 -0.0280
  609SOL    HW1 7663   1.926   9.248   3.257 -2.3598 -0.5183 -2.5148
  609SOL    HW2 7664   1.842   9.123   3.271  1.5710 -3.3360 -2.1408
  610SOL     OW 7665   1.319   2.560   1.522 -0.3578 -0.2175  0.8306
  610SOL    HW1 7666   1.229   2.528   1.532  0.4388 -3.0786 -0.2226
  610SOL    HW2 7667   1.315   2.618   1.446 -0.8176 -3.0982 -1.5215
  611SOL     OW 7668   3.561   5.404   0.847  0.1082 -0.0846  0.0380
  611SOL    HW1 7669   3.531   5.341   0.912  1.9457 -1.3546 -0.2525
  611SOL    HW2 7670   3.496   5.400   0.777 -0.4290 -0.7565  0.5674
  612SOL     OW 7671   0.734   1.836   0.079  1.0821 -0.0428  0.5287
  612SOL    HW1 7672   0.720   1.760   0.022 -0.2977 -0.5679  1.5205
  612SOL    HW2 7673   0.769   1.798   0.160  2.4260  0.6334  0.2980
  613SOL     OW 7674   4.839   7.747   1.085 -0.0087 -0.4550 -0.0818
  613SOL    HW1 7675   4.815   7.719   1.174  2.4137  0.5423  0.9764
  613SOL    HW2 7676   4.921   7.701   1.067 -0.0425 -0.0067 -1.4788
  614SOL     OW 7677   4.712   8.172   7.623  0.3800  0.1806  0.1596
  614SOL    HW1 7678   4.763   8.159   7.544 -1.2114 -1.4148 -0.6735
  614SOL    HW2 7679   4.708   8.086   7.664  0.2443  0.7428  1.3921
  615SOL     OW 7680   9.932   7.405   8.571  0.0247  0.1806 -0.5244
  615SOL    HW1 7681   9.964   7.380   8.658 -0.5852  0.3979 -0.2353
  615SOL    HW2 7682   9.915   7.322   8.527  0.4062  0.0688 -0.4614
  616SOL     OW 7683   9.152   3.576   3.791 -0.2903 -0.0531  0.7253
  616SOL    HW1 7684   9.200   3.612   3.866  2.5954  0.2724 -1.1270
  616SOL    HW2 7685   9.214   3.517   3.749 -0.9214  1.4626 -2.6470
  617SOL     OW 7686   0.806  10.673   2.350  0.1324  0.4510 -0.1730
  617SOL    HW1 7687   0.741  10.608   2.324  0.2229  0.4206 -0.3239
  617SOL    HW2 7688   0.862  10.683   2.273  0.0465  0.7953 -0.1946
  618SOL     OW 7689   3.940   4.189   3.639  0.3612  0.2237 -0.4245
  618SOL    HW1 7690   3.853   4.162   3.611  0.6667 -0.2854 -0.9143
  618SOL    HW2 7691   3.953   4.148   3.724 -0.8341  2.3049  0.8307
  619SOL     OW 7692   0.649   3.921   0.138 -0.1016 -0.2365  0.1700
  619SOL    HW1 7693   0.597   3.964   0.206 -1.1287 -2.8249  1.1256
  619SOL    HW2 7694   0.585   3.875   0.084  1.0599 -2.9241  0.9530
  620SOL     OW 7695   6.135  10.130   7.012 -0.8705  0.1584 -0.0356
  620SOL    HW1 7696   6.043  10.104   7.009 -1.1545  1.1492 -0.4471
  620SOL    HW2 7697   6.182  10.057   6.972 -1.4080 -0.6232  0.7391
  621SOL     OW 7698   6.025   9.529   7.594 -0.2740 -0.1760 -0.2217
  621SOL    HW1 7699   6.025   9.443   7.551  1.0768  0.5283 -1.7254
  621SOL    HW2 7700   6.099   9.525   7.655 -0.9320 -0.4573  0.5804
  622SOL     OW 7701   7.180   5.453   5.722 -0.2290  0.1599  0.2866
  622SOL    HW1 7702   7.142   5.365   5.718  1.3117 -0.5004 -1.4181
  622SOL    HW2 7703   7.108   5.511   5.699 -0.8491 -0.8275 -0.3559
  623SOL     OW 7704   5.279   6.666   9.684  0.0750 -0.1634 -0.0542
  623SOL    HW1 7705   5.234   6.750   9.672 -0.2345 -0.3552 -0.2705
  623SOL    HW2 7706   5.316   6.646   9.598  0.2106 -0.2135  0.0154
  624SOL     OW 7707   9.962   0.729   9.010  0.4140  0.0102  0.5819
  624SOL    HW1 7708   9.961   0.810   9.062 -1.4660  0.3192  0.1288
  624SOL    HW2 7709   9.872   0.718   8.980  1.2454 -0.5727 -2.0007
  625SOL     OW 7710   6.413   7.670   7.372  0.2967 -0.1720  0.2914
  625SOL    HW1 7711   6.411   7.760   7.407 -1.2495 -0.2057  0.3750
  625SOL    HW2 7712   6.491   7.631   7.411  0.5668  0.9028  0.8808
  626SOL     OW 7713   9.769   3.718   0.094  0.4061 -0.1649  0.0637
  626SOL    HW1 7714   9.794   3.809   0.081 -0.5605  0.2298  0.8312
  626SOL    HW2 7715   9.698   3.721   0.158 -0.5796 -1.3499 -0.9163
  627SOL     OW 7716   5.784   7.951   3.515  0.4034 -0.2574  0.7328
  627SOL    HW1 7717   5.814   8.020   3.455  0.5958 -0.7127  0.2991
  627SOL    HW2 7718   5.726   7.996   3.577  0.6460  0.3199  0.5436
  628SOL     OW 7719   3.946   0.881   8.197  0.2238  0.2295  0.4223
  628SOL    HW1 7720   4.010   0.915   8.134  1.0922  2.7369  2.5004
  628SOL    HW2 7721   3.883   0.953   8.208  0.7576  0.3604  3.2216
  629SOL     OW 7722   3.452   2.744   1.496  0.0381  0.1617 -0.4221
  629SOL    HW1 7723   3.388   2.683   1.534  0.0361 -0.2469 -1.0706
  629SOL    HW2 7724   3.445   2.822   1.551  0.6692 -0.7144  0.9875
  630SOL     OW 7725   4.573   5.635   7.390 -0.3388 -0.3885 -0.0400
  630SOL    HW1 7726   4.600   5.544   7.378 -0.4581 -0.3159 -0.9396
  630SOL    HW2 7727   4.537   5.660   7.305 -2.8167 -0.3428  0.9248
  631SOL     OW 7728  10.237   8.886  10.700 -0.1289  0.5507  0.2533
  631SOL    HW1 7729  10.251   8.918  10.611  0.1349  0.0394  0.1081
  631SOL    HW2 7730  10.151   8.921  10.725  0.3891  1.8422  0.3243
  632SOL     OW 7731   4.641   3.628   5.802  0.5417 -0.1188  0.3005
  632SOL    HW1 7732   4.650   3.691   5.731  1.1413 -0.6261 -0.0904
  632SOL    HW2 7733   4.627   3.544   5.758  0.7724 -0.4128  0.7794
  633SOL     OW 7734   8.253   4.892   2.582  0.0301  0.5840  0.5316
  633SOL    HW1 7735   8.341   4.923   2.561  0.2486  0.0412  0.6103
  633SOL    HW2 7736   8.268   4.819   2.643 -0.5328  1.4206  1.6991
  634SOL     OW 7737   1.560  10.125   6.987 -0.3352 -0.1183  0.7241
  634SOL    HW1 7738   1.620  10.051   6.992 -1.2954 -1.0679 -0.8246
  634SOL    HW2 7739   1.533  10.127   6.895 -0.4311  2.0929  0.7573
  635SOL     OW 7740   4.115   8.811   5.083 -0.2212  0.0946  0.8090
  635SOL    HW1 7741   4.183   8.795   5.018 -1.3202  0.8175 -0.5683
  635SOL    HW2 7742   4.060   8.733   5.080 -0.9045  0.5909  0.0376
  636SOL     OW 7743   7.190   9.875   7.303  0.7794  0.5345  0.0538
  636SOL    HW1 7744   7.263   9.823   7.338  0.0643 -0.1145  0.6154
  636SOL    HW2 7745   7.153   9.820   7.235  0.6037  0.7142  0.0044
  637SOL     OW 7746   8.042   9.319   5.418 -0.2712 -0.6057  0.1654
  637SOL    HW1 7747   7.993   9.239   5.399 -2.8687  0.4362  2.0072
  637SOL    HW2 7748   7.989   9.390   5.381  0.7432  0.4526  0.6755
  638SOL     OW 7749   4.800   8.407   1.415  0.2713  0.2020  0.2435
  638SOL    HW1 7750   4.839   8.487   1.380 -1.4378  1.0896  0.2883
  638SOL    HW2 7751   4.796   8.348   1.339 -0.7113  1.0609 -0.4048
  639SOL     OW 7752   1.601   5.336  10.582  0.9457 -0.0213  0.0134
  639SOL    HW1 7753   1.691   5.307  10.567  0.9687 -1.2589  2.2138
  639SOL    HW2 7754   1.569   5.280  10.652 -1.2527  1.0136 -0.0933
  640SOL     OW 7755   2.533   8.786   8.891  0.8083  1.3194 -0.0733
  640SOL    HW1 7756   2.615   8.736   8.889  0.4118  0.5991  0.7816
  640SOL    HW2 7757   2.507   8.785   8.983 -0.2686  1.3601 -0.3602
  641SOL     OW 7758   9.410   1.020   2.033 -0.6021 -0.2032  0.4348
  641SOL    HW1 7759   9.334   1.060   1.990  0.2887  1.8394  0.6409
  641SOL    HW2 7760   9.437   1.084   2.098  2.1498 -0.1804 -0.6002
  642SOL     OW 7761   5.614   6.347   6.876 -0.2384  0.3684 -0.4297
  642SOL    HW1 7762   5.620   6.360   6.781 -1.8302  0.3184 -0.5642
  642SOL    HW2 7763   5.523   6.371   6.898  0.6334  2.3475  1.4080
  643SOL     OW 7764   7.798   3.654   9.063  0.5050  0.7057  0.3765
  643SOL    HW1 7765   7.808   3.608   8.980 -1.0969  0.2659  0.3898
  643SOL    HW2 7766   7.829   3.592   9.129  0.6043  0.5735  0.2079
  644SOL     OW 7767   2.066   5.394   4.822  0.2482  0.0114  0.5121
  644SOL    HW1 7768   2.160   5.399   4.836  0.4017  1.3299 -0.7701
  644SOL    HW2 7769   2.033   5.482   4.840 -0.6301 -0.2579  0.2948
  645SOL     OW 7770   9.576   4.696   6.807  0.3809  0.3290  0.5879
  645SOL    HW1 7771   9.495   4.712   6.759 -0.0188  2.8559  1.9744
  645SOL    HW2 7772   9.604   4.782   6.838  3.3361 -0.5234  0.6259
  646SOL     OW 7773  10.189   0.981   6.343 -0.3700  0.1724  0.0587
  646SOL    HW1 7774  10.235   0.900   6.320 -1.5062 -0.1865 -1.0143
  646SOL    HW2 7775  10.145   0.960   6.426 -0.2063 -0.1197  0.0738
  647SOL     OW 7776   4.012   1.265   6.206  0.8967  0.0151 -0.2271
  647SOL    HW1 7777   3.974   1.189   6.162  0.3813 -0.0662  0.3580
  647SOL    HW2 7778   3.947   1.291   6.270  1.0899  0.9266 -0.3847
  648SOL     OW 7779   4.890   9.666   4.437 -0.1059 -0.0510  0.6692
  648SOL    HW1 7780   4.936   9.585   4.458 -1.1699 -0.5338  1.1816
  648SOL    HW2 7781   4.960   9.728   4.417  0.7366 -0.9891  0.6312
  649SOL     OW 7782   9.345   1.578  10.441 -0.2322 -0.1365  0.2473
  649SOL    HW1 7783   9.345   1.650  10.378  0.8547 -1.5890 -1.5221
  649SOL    HW2 7784   9.260   1.584  10.485 -0.1664  2.1743  0.1333
  650SOL     OW 7785   5.517   9.875   8.742  0.6469 -0.0286 -0.3939
  650SOL    HW1 7786   5.560   9.951   8.704  1.2982 -1.2724 -2.3023
  650SOL    HW2 7787   5.527   9.806   8.676  1.3568 -2.1894  1.8336
  651SOL     OW 7788   9.428   6.696   4.158 -0.2341 -0.2592  0.1184
  651SOL    HW1 7789   9.507   6.720   4.206  0.5020  0.6780 -1.4905
  651SOL    HW2 7790   9.455   6.623   4.102 -0.0209  1.0510 -1.5782
  652SOL     OW 7791   9.731   7.197   8.964  0.0613  0.6597  0.6059
  652SOL    HW1 7792   9.725   7.102   8.976  2.6758  0.5880  2.1777
  652SOL    HW2 7793   9.640   7.227   8.960 -0.8589 -1.9981 -1.1517
  653SOL     OW 7794   3.206   8.476  10.149  0.3893  0.3358  0.1146
  653SOL    HW1 7795   3.166   8.399  10.189 -0.8743  0.4625 -0.8379
  653SOL    HW2 7796   3.170   8.479  10.061  0.1644  2.1784  0.2222
  654SOL     OW 7797   3.441   3.468   6.597 -0.1024 -0.0822  0.1059
  654SOL    HW1 7798   3.438   3.448   6.691 -1.7690  1.4981  0.4367
  654SOL    HW2 7799   3.349   3.477   6.572  0.3172 -0.5580 -1.7244
  655SOL     OW 7800  10.512   2.526   2.088 -0.1873  0.1464 -0.1378
  655SOL    HW1 7801  10.526   2.598   2.149  0.6473  0.0463 -0.1968
  655SOL    HW2 7802  10.544   2.559   2.004  2.1864 -0.9571  0.2379
  656SOL     OW 7803   2.218   7.742   6.303  1.2169  0.1106 -0.6714
  656SOL    HW1 7804   2.153   7.672   6.309  0.3684  0.9341 -0.0952
  656SOL    HW2 7805   2.210   7.790   6.385  1.0418  1.5233 -1.4770
  657SOL     OW 7806   8.622  10.618   1.637 -0.5638 -0.4512  0.2826
  657SOL    HW1 7807   8.651  10.698   1.680  2.1533 -1.3017  0.2489
  657SOL    HW2 7808   8.650  10.548   1.696 -1.5475 -1.4348 -0.3819
  658SOL     OW 7809   8.796   7.290   1.999 -0.2363  0.6971 -0.4960
  658SOL    HW1 7810   8.704   7.319   1.996 -0.1749  0.9752  0.1434
  658SOL    HW2 7811   8.803   7.239   2.080  0.2405  0.9257 -0.3865
  659SOL     OW 7812   3.187   6.621   0.227  0.6251 -0.1594 -0.4509
  659SOL    HW1 7813   3.247   6.551   0.203  3.1240  0.5475  3.0342
  659SOL    HW2 7814   3.240   6.701   0.225 -0.6589  0.7983  1.0408
  660SOL     OW 7815   3.142   3.595   6.861  1.3803  0.0121 -0.8059
  660SOL    HW1 7816   3.208   3.632   6.919  0.5987  0.8606 -0.4389
  660SOL    HW2 7817   3.109   3.518   6.909 -1.2305  2.2308  1.2728
  661SOL     OW 7818  10.278   9.878   7.430  0.3185  0.5685 -0.1638
  661SOL    HW1 7819  10.203   9.841   7.383  0.7476 -1.3201  0.5358
  661SOL    HW2 7820  10.346   9.887   7.364  0.3073 -0.2326 -0.2905
  662SOL     OW 7821   4.761   0.281   5.792 -0.3457  0.0169 -0.5229
  662SOL    HW1 7822   4.780   0.233   5.873 -0.0991 -1.6786 -1.5355
  662SOL    HW2 7823   4.669   0.262   5.773 -1.2232  2.5643  0.6843
  663SOL     OW 7824   4.724   4.198   3.161  0.2696 -0.5781  0.0780
  663SOL    HW1 7825   4.806   4.239   3.132 -0.2225 -0.1624 -0.7455
  663SOL    HW2 7826   4.694   4.254   3.233  1.4674 -1.5871  1.4264
  664SOL     OW 7827   9.729   0.568   4.219  0.0327  0.4116 -0.8012
  664SOL    HW1 7828   9.707   0.510   4.292  0.0844  2.3576  0.8490
  664SOL    HW2 7829   9.813   0.607   4.244  0.3682  0.6613 -2.2170
  665SOL     OW 7830   3.304   3.560   7.783  0.4218 -0.3016 -0.0030
  665SOL    HW1 7831   3.303   3.501   7.707 -0.8817 -0.4264  0.0892
  665SOL    HW2 7832   3.238   3.524   7.842  0.8284  0.2798  0.8199
  666SOL     OW 7833   9.472   4.151   3.762 -0.4879 -0.1865  0.3364
  666SOL    HW1 7834   9.481   4.079   3.700  0.9461  0.4854 -0.2889
  666SOL    HW2 7835   9.512   4.225   3.718 -0.1126  0.4973  1.7761
  667SOL     OW 7836   6.770   9.940   9.457 -0.5367  0.4227  0.0816
  667SOL    HW1 7837   6.851   9.989   9.475 -0.1568  0.3405 -1.2953
  667SOL    HW2 7838   6.800   9.858   9.418 -1.2650  0.1088  0.1754
  668SOL     OW 7839   4.383   1.235   3.554 -0.2613 -0.3883 -0.2965
  668SOL    HW1 7840   4.444   1.177   3.509 -1.3497  0.3461 -2.9143
  668SOL    HW2 7841   4.328   1.177   3.605  1.0680 -1.2702  0.1950
  669SOL     OW 7842   3.490   5.171   2.104  0.5645 -0.0783 -0.2945
  669SOL    HW1 7843   3.585   5.161   2.114  1.0710 -1.0680 -4.3791
  669SOL    HW2 7844   3.461   5.089   2.066 -1.2967  1.3539 -2.2286
  670SOL     OW 7845   8.825   3.862   5.733 -0.5490  0.4404  0.3720
  670SOL    HW1 7846   8.800   3.941   5.781  0.2073  1.3588 -0.6955
  670SOL    HW2 7847   8.918   3.875   5.712 -0.4805 -0.6170 -0.0673
  671SOL     OW 7848   9.528   8.512   0.818  0.2286 -0.1615 -0.0335
  671SOL    HW1 7849   9.575   8.575   0.763  1.5323 -0.7268  0.3912
  671SOL    HW2 7850   9.467   8.565   0.869  1.3888  0.7805  0.4169
  672SOL     OW 7851   7.653   4.091   9.415 -0.3388  0.3479 -0.1659
  672SOL    HW1 7852   7.616   4.172   9.381 -0.4783  0.7543  0.9271
  672SOL    HW2 7853   7.727   4.119   9.469 -1.2693 -0.1248  1.4045
  673SOL     OW 7854   2.511   6.136   2.216 -0.0124  0.0101 -0.4809
  673SOL    HW1 7855   2.589   6.189   2.233 -0.1319  1.0200 -2.7188
  673SOL    HW2 7856   2.484   6.104   2.302  3.0501 -0.6699  0.3303
  674SOL     OW 7857   8.429   9.910   2.657  0.0811  0.7029  0.0212
  674SOL    HW1 7858   8.502   9.865   2.613 -1.3335 -0.2227 -1.4647
  674SOL    HW2 7859   8.365   9.925   2.588 -1.8203  0.0943  1.5618
  675SOL     OW 7860   4.556   4.573  10.712 -0.5697 -0.0512  0.0235
  675SOL    HW1 7861   4.505   4.516  10.770 -1.3274  0.8478  0.2615
  675SOL    HW2 7862   4.628   4.603  10.767 -0.8479  0.1755  0.2702
  676SOL     OW 7863   6.505   5.761   5.935 -0.2287 -0.3224 -0.2148
  676SOL    HW1 7864   6.508   5.759   6.031  3.9988  0.6125 -0.1306
  676SOL    HW2 7865   6.457   5.842   5.915 -1.8356 -0.9130  1.0268
  677SOL     OW 7866   9.587   5.378   4.341 -0.3136 -0.0634 -0.2989
  677SOL    HW1 7867   9.510   5.333   4.375 -1.0696  0.7593 -0.9044
  677SOL    HW2 7868   9.634   5.408   4.420 -0.7151 -0.3848  0.0643
  678SOL     OW 7869   5.214   6.929   6.531  0.4118  0.4115 -0.0296
  678SOL    HW1 7870   5.187   6.967   6.614 -1.1570  0.7355 -0.6496
  678SOL    HW2 7871   5.134   6.929   6.477  1.1713 -0.6086 -1.2265
  679SOL     OW 7872  10.013   2.671   6.302 -0.6198  0.6043  0.3319
  679SOL    HW1 7873  10.078   2.667   6.372  0.5586  1.5914 -0.6716
  679SOL    HW2 7874  10.023   2.588   6.255  0.3299  0.9712 -0.1446
  680SOL     OW 7875   5.214   4.706  10.631  0.1597  0.0790 -0.4824
  680SOL    HW1 7876   5.189   4.794  10.603  0.4002  0.6954  1.1391
  680SOL    HW2 7877   5.148   4.682  10.697  0.8901 -0.3790  0.0974
  681SOL     OW 7878   6.574   4.629   5.969  0.1843  0.1601 -0.2741
  681SOL    HW1 7879   6.630   4.659   6.041  0.3640  0.5267 -0.5629
  681SOL    HW2 7880   6.567   4.534   5.982  0.8449  0.1178 -0.2174
  682SOL     OW 7881  10.293   1.778   3.493 -0.1362  0.1905  0.0508
  682SOL    HW1 7882  10.203   1.751   3.510  0.0511  0.1614  1.0151
  682SOL    HW2 7883  10.324   1.717   3.425 -0.3900 -0.6854  0.7059
  683SOL     OW 7884   7.435   0.886   3.358 -0.2986  0.2341 -0.0373
  683SOL    HW1 7885   7.521   0.872   3.396  0.1352 -0.3477 -1.1905
  683SOL    HW2 7886   7.433   0.980   3.338 -0.2454  0.3978  0.6830
  684SOL     OW 7887   8.513   0.189   1.076 -0.2687  0.3858 -0.2738
  684SOL    HW1 7888   8.587   0.157   1.126 -1.2492  0.8229  1.5377
  684SOL    HW2 7889   8.491   0.117   1.017  0.6132 -0.3532  0.2766
  685SOL     OW 7890   8.526   0.476   2.588  0.6468  0.0574 -0.3108
  685SOL    HW1 7891   8.523   0.428   2.505  0.9586 -1.9653  0.7645
  685SOL    HW2 7892   8.443   0.455   2.631 -0.0665  2.0999 -0.5850
  686SOL     OW 7893   8.578   8.153   8.297 -0.4039 -0.2671  0.0330
  686SOL    HW1 7894   8.555   8.098   8.372 -1.2133  0.4238  0.3057
  686SOL    HW2 7895   8.650   8.208   8.328 -0.4068 -0.3260  0.1443
  687SOL     OW 7896   3.981   4.087   8.615  0.2082  0.0514 -0.6310
  687SOL    HW1 7897   4.048   4.045   8.562  0.9593  0.0579  0.2926
  687SOL    HW2 7898   3.923   4.129   8.551  2.8074  2.7513 -1.4157
  688SOL     OW 7899   4.072   1.490  10.637 -0.5224  0.0632 -0.1205
  688SOL    HW1 7900   3.983   1.495  10.602 -0.8452 -0.1303  0.6457
  688SOL    HW2 7901   4.127   1.474  10.561 -1.0844  0.7102 -0.6808
  689SOL     OW 7902   8.345   8.806   3.991 -0.0523 -0.1366  0.6342
  689SOL    HW1 7903   8.434   8.807   4.027  0.0642  1.7896  0.4068
  689SOL    HW2 7904   8.348   8.868   3.918 -0.9573 -2.0173 -1.0874
  690SOL     OW 7905   5.229   0.689  10.150  0.5089 -0.3485 -0.9621
  690SOL    HW1 7906   5.243   0.678  10.244  0.0708 -1.7947 -1.0365
  690SOL    HW2 7907   5.134   0.688  10.140  0.5324  0.5583 -1.3525
  691SOL     OW 7908   6.946   0.401   5.953  0.0380  0.3486 -0.0342
  691SOL    HW1 7909   6.919   0.346   6.026 -1.0738  0.4497 -0.3375
  691SOL    HW2 7910   7.024   0.359   5.918  0.1032 -0.1536  0.7096
  692SOL     OW 7911   7.778   9.432   7.427 -0.1076 -0.2707  0.5895
  692SOL    HW1 7912   7.763   9.394   7.513  0.8386 -0.5025  0.6619
  692SOL    HW2 7913   7.799   9.524   7.444 -1.7938  0.1634  0.4571
  693SOL     OW 7914   4.137   9.776   0.063 -0.5230 -0.0766  0.1251
  693SOL    HW1 7915   4.159   9.688   0.093 -0.8680 -0.7303 -1.4262
  693SOL    HW2 7916   4.045   9.769   0.035 -0.9641  1.1230  1.1462
  694SOL     OW 7917   4.840   0.660   1.758 -0.0517 -0.6649  0.4569
  694SOL    HW1 7918   4.828   0.749   1.790  0.2058 -1.0240  1.6027
  694SOL    HW2 7919   4.861   0.671   1.665  1.2102  0.5483  0.8445
  695SOL     OW 7920   8.578  10.475  10.019 -0.3138 -0.1564 -0.6246
  695SOL    HW1 7921   8.533  10.494   9.937 -1.5521  0.7241  0.2255
  695SOL    HW2 7922   8.630  10.554  10.037  1.2668 -0.9893 -1.3704
  696SOL     OW 7923   9.404   3.568   7.111  0.9864  0.2769 -0.2373
  696SOL    HW1 7924   9.427   3.580   7.019  0.8841  0.2322 -0.2694
  696SOL    HW2 7925   9.407   3.473   7.125 -0.2568  0.1711 -0.5340
  697SOL     OW 7926   4.420   8.516   7.823  0.4260  0.4737 -0.0449
  697SOL    HW1 7927   4.349   8.576   7.801 -0.8390 -0.9135  0.0362
  697SOL    HW2 7928   4.413   8.504   7.918 -0.2755 -0.8689 -0.2390
  698SOL     OW 7929   5.883   9.133   0.052 -0.0152  0.0178  0.0378
  698SOL    HW1 7930   5.941   9.134   0.129  0.7138  1.4367 -0.4993
  698SOL    HW2 7931   5.936   9.092  -0.017 -0.2818 -0.2699  0.0041
  699SOL     OW 7932   2.847   7.647   4.623  0.3274 -0.0975  0.3762
  699SOL    HW1 7933   2.797   7.697   4.557  1.2196 -0.7421 -0.8107
  699SOL    HW2 7934   2.804   7.562   4.626  0.5823 -0.2301  0.2746
  700SOL     OW 7935   6.011   3.671   1.768  0.3689 -0.1380 -0.4272
  700SOL    HW1 7936   6.091   3.635   1.808  1.0499  0.9732 -0.7546
  700SOL    HW2 7937   5.958   3.698   1.842  0.8366  0.2482 -0.2260
  701SOL     OW 7938   2.142   0.675   6.582  0.1019 -0.3471 -0.3802
  701SOL    HW1 7939   2.165   0.757   6.625 -3.3257  0.3456  0.4172
  701SOL    HW2 7940   2.200   0.671   6.506  0.3570  2.8482 -0.4828
  702SOL     OW 7941   9.286   5.205   2.017  0.0905  0.0414  0.1195
  702SOL    HW1 7942   9.213   5.144   2.013 -0.3085  0.5562 -0.9639
  702SOL    HW2 7943   9.302   5.230   1.926 -0.1280  1.9738  0.5647
  703SOL     OW 7944   3.905   4.924   6.000 -0.8021 -0.3404  0.2352
  703SOL    HW1 7945   3.890   4.855   5.935 -0.7222 -1.4322  1.3352
  703SOL    HW2 7946   3.818   4.962   6.015 -0.8006  0.0011 -0.5864
  704SOL     OW 7947   0.704   5.378  10.051  0.1769 -0.1094  0.3630
  704SOL    HW1 7948   0.678   5.335  10.132  1.8072  0.9355  1.4927
  704SOL    HW2 7949   0.748   5.310  10.000 -1.9543 -1.1088 -0.2805
  705SOL     OW 7950   5.011   3.327   8.048  0.0533 -0.7381 -0.3617
  705SOL    HW1 7951   5.054   3.395   7.996  0.5598 -1.2448 -0.6158
  705SOL    HW2 7952   4.917   3.341   8.033  0.0113  1.3514  1.4046
  706SOL     OW 7953   7.281   6.263   5.147 -0.0401 -0.0188  0.0204
  706SOL    HW1 7954   7.271   6.251   5.052 -1.9881  1.3534 -0.0136
  706SOL    HW2 7955   7.191   6.266   5.180  0.5209  2.1031  1.5510
  707SOL     OW 7956   8.792   1.171   9.697 -0.1527 -0.1719  0.5272
  707SOL    HW1 7957   8.805   1.199   9.606  0.6190  1.4337  1.0850
  707SOL    HW2 7958   8.703   1.137   9.699 -0.6667  1.0274 -0.5568
  708SOL     OW 7959   7.882   1.286   9.795  0.1374  0.3542  0.0216
  708SOL    HW1 7960   7.840   1.200   9.790  0.2130  0.3353 -0.3302
  708SOL    HW2 7961   7.965   1.269   9.840 -0.4920  0.4955  1.2845
  709SOL     OW 7962   7.455   5.054   8.204  0.1165 -0.1087 -0.0104
  709SOL    HW1 7963   7.515   4.980   8.199 -1.0385 -1.3990  3.0264
  709SOL    HW2 7964   7.379   5.027   8.152  0.6982  0.0933 -1.0044
  710SOL     OW 7965   7.794  10.100   8.661 -0.7148  0.1913 -0.0285
  710SOL    HW1 7966   7.856  10.046   8.613 -1.9093 -0.7206 -0.5841
  710SOL    HW2 7967   7.842  10.181   8.680  0.4959 -0.3308 -0.7878
  711SOL     OW 7968   9.838   4.499   2.543 -0.1022  0.4533 -0.4865
  711SOL    HW1 7969   9.837   4.426   2.482 -0.8878 -0.1445  0.2086
  711SOL    HW2 7970   9.759   4.549   2.522 -0.0793  0.5611 -0.3203
  712SOL     OW 7971   9.414   8.074   8.442 -0.0507  0.3453  0.3621
  712SOL    HW1 7972   9.404   8.051   8.350  0.5337 -0.6169  0.5161
  712SOL    HW2 7973   9.498   8.120   8.446  1.0890 -1.6544  0.7226
  713SOL     OW 7974   3.851   7.680   0.604  0.0468  0.0501  0.1336
  713SOL    HW1 7975   3.877   7.663   0.514 -0.4321 -0.7353  0.1348
  713SOL    HW2 7976   3.861   7.775   0.615  1.8861 -0.0885 -0.1610
  714SOL     OW 7977   8.661   9.973   3.492 -0.3006  0.3439  0.0571
  714SOL    HW1 7978   8.585   9.997   3.545  0.2617 -0.2251  1.1467
  714SOL    HW2 7979   8.625   9.918   3.423 -0.6861 -1.4353  1.5994
  715SOL     OW 7980   7.357   3.371   9.585  0.1452 -0.3688 -0.0225
  715SOL    HW1 7981   7.320   3.350   9.672  0.5012 -2.0451 -0.2483
  715SOL    HW2 7982   7.282   3.363   9.526  0.2550 -0.8868 -0.0925
  716SOL     OW 7983   7.112   7.740  10.297  0.1765  0.0873 -0.2094
  716SOL    HW1 7984   7.049   7.669  10.286 -0.8963  0.9303  0.3047
  716SOL    HW2 7985   7.130   7.770  10.208 -2.1511  1.5053 -0.2790
  717SOL     OW 7986   2.642   4.580   1.092 -0.1314  0.4889  0.1015
  717SOL    HW1 7987   2.617   4.533   1.171  1.1545  1.8571  1.4149
  717SOL    HW2 7988   2.697   4.519   1.043 -1.0764 -0.4281  0.1513
  718SOL     OW 7989   0.806   4.971   1.770 -0.2280  0.8433 -0.6902
  718SOL    HW1 7990   0.722   4.947   1.730 -0.6806  0.7850  0.2718
  718SOL    HW2 7991   0.852   4.887   1.779 -0.5701  0.7053 -0.1215
  719SOL     OW 7992   0.934  10.347  10.369 -0.2323  0.1176  0.1461
  719SOL    HW1 7993   0.870  10.282  10.397  0.4582 -0.5148  0.3064
  719SOL    HW2 7994   0.887  10.430  10.372 -0.8850 -0.2587  0.7960
  720SOL     OW 7995   0.367   2.185   2.774 -0.3948 -0.2836 -1.0328
  720SOL    HW1 7996   0.426   2.167   2.701 -0.7435  1.8741 -1.9143
  720SOL    HW2 7997   0.423   2.216   2.845 -0.1213 -1.7880 -0.5662
  721SOL     OW 7998   9.867   7.161  10.196  0.1442 -0.3368 -0.1474
  721SOL    HW1 7999   9.812   7.092  10.233  2.0384 -1.3250  0.9981
  721SOL    HW2 8000   9.885   7.133  10.107 -1.4261  0.1703 -0.6547
  722SOL     OW 8001   6.007  10.133   4.669  0.9979 -0.0009  0.3891
  722SOL    HW1 8002   5.979  10.198   4.734  0.8356 -0.0720  0.3933
  722SOL    HW2 8003   5.927  10.082   4.652  0.8668  0.4566 -0.3791
  723SOL     OW 8004   5.025   3.574   4.489  0.2257 -0.2762  0.2317
  723SOL    HW1 8005   4.952   3.606   4.542 -0.0549 -0.2916 -0.1412
  723SOL    HW2 8006   5.091   3.549   4.553 -0.8625 -2.1606  0.7015
  724SOL     OW 8007   3.549   6.697   6.219 -0.5852 -0.2623  0.1971
  724SOL    HW1 8008   3.509   6.774   6.260 -0.3282 -1.6125  3.2845
  724SOL    HW2 8009   3.475   6.639   6.201 -0.6780  0.2575 -1.2611
  725SOL     OW 8010   9.990   7.297   0.549 -0.5822 -0.4306 -0.1741
  725SOL    HW1 8011  10.022   7.306   0.638 -0.0721 -1.4349 -0.2467
  725SOL    HW2 8012   9.992   7.203   0.531  1.2195 -0.1394 -1.9054
  726SOL     OW 8013   9.444   1.917   7.989  0.2216  0.1547  0.6397
  726SOL    HW1 8014   9.382   1.865   7.938  0.4979  0.1744  0.2778
  726SOL    HW2 8015   9.495   1.965   7.924  1.1379 -0.4434  0.8880
  727SOL     OW 8016   9.965   9.347   8.339 -0.1122  0.2044  0.0178
  727SOL    HW1 8017   9.966   9.431   8.294 -1.0321  0.4788  0.4988
  727SOL    HW2 8018   9.989   9.368   8.430 -0.5435 -0.0158  0.1860
  728SOL     OW 8019   5.174   0.161   7.378 -0.4760  0.3023  0.4666
  728SOL    HW1 8020   5.121   0.170   7.298  1.3326  1.6591 -0.6725
  728SOL    HW2 8021   5.160   0.243   7.425  0.8697  0.8644 -0.0577
  729SOL     OW 8022   1.606   1.539   5.973 -0.3402  1.0391  0.9827
  729SOL    HW1 8023   1.653   1.466   6.014  0.6847  1.4791  0.6158
  729SOL    HW2 8024   1.661   1.616   5.990  1.3371  0.9519 -3.0583
  730SOL     OW 8025   3.759   4.946  10.196 -0.1773 -0.4042 -0.0408
  730SOL    HW1 8026   3.827   4.990  10.144  0.3412 -0.8365  0.2607
  730SOL    HW2 8027   3.686   5.008  10.197  0.8482  0.8445  1.1145
  731SOL     OW 8028   5.382   3.400   0.725  0.4550 -0.1528  0.7273
  731SOL    HW1 8029   5.475   3.379   0.718  0.5884  0.4527  0.6300
  731SOL    HW2 8030   5.345   3.374   0.641  0.3491 -1.2509  1.0865
  732SOL     OW 8031   1.256   5.663  10.466 -0.0008  0.2360  0.4887
  732SOL    HW1 8032   1.267   5.749  10.426  0.0340 -0.0598 -0.1562
  732SOL    HW2 8033   1.341   5.620  10.455 -0.6179 -0.6645 -1.1401
  733SOL     OW 8034   3.924   2.353   0.015 -0.4834 -0.6450  0.3147
  733SOL    HW1 8035   3.941   2.300   0.093 -1.0262 -2.5728 -0.8110
  733SOL    HW2 8036   3.922   2.290  -0.057 -0.6979  0.9910 -1.1745
  734SOL     OW 8037   4.902   7.824  10.450 -0.5011  0.5693  0.1310
  734SOL    HW1 8038   4.914   7.795  10.359 -1.0763  0.7834 -0.0194
  734SOL    HW2 8039   4.913   7.919  10.446 -0.8656  0.6149  0.2271
  735SOL     OW 8040   2.026   8.973   4.104 -0.0830  0.5587  0.7795
  735SOL    HW1 8041   1.941   8.929   4.092  0.2234  0.4234 -1.4396
  735SOL    HW2 8042   2.086   8.903   4.130 -0.0180 -0.0195 -0.8003
  736SOL     OW 8043   7.234   3.616   4.520  0.2663 -0.6064  0.1251
  736SOL    HW1 8044   7.176   3.676   4.566  0.2228 -0.3248 -0.2989
  736SOL    HW2 8045   7.178   3.543   4.494  0.0641 -0.2534 -0.4363
  737SOL     OW 8046   9.714   4.554   1.102 -0.5029  0.3364  0.5545
  737SOL    HW1 8047   9.693   4.472   1.055  1.3077  0.1394  0.0216
  737SOL    HW2 8048   9.630   4.600   1.107 -1.3234 -0.9787 -0.2662
  738SOL     OW 8049   4.594   4.647   3.360 -0.0754  0.4816  0.4755
  738SOL    HW1 8050   4.555   4.718   3.410 -0.6357  0.8487 -0.4560
  738SOL    HW2 8051   4.584   4.570   3.416 -0.2757  0.9575  1.1118
  739SOL     OW 8052   7.957   3.251   6.708 -0.3362  0.2309 -0.0862
  739SOL    HW1 8053   7.930   3.164   6.679  0.7765 -0.2934  0.3755
  739SOL    HW2 8054   7.879   3.287   6.750 -1.3419  0.1640 -1.7708
  740SOL     OW 8055   9.853   7.051  10.664 -0.0678 -0.3334  0.1865
  740SOL    HW1 8056   9.947   7.048  10.644  0.5856 -0.7801  2.8805
  740SOL    HW2 8057   9.840   7.137  10.703 -0.6221 -0.5635  0.5183
  741SOL     OW 8058  10.166   1.945   3.701  0.2125 -0.2242  0.1126
  741SOL    HW1 8059  10.156   2.040   3.688 -1.0677 -0.5368 -1.6553
  741SOL    HW2 8060  10.248   1.924   3.658 -0.0044 -0.0495 -0.3980
  742SOL     OW 8061   6.307   4.812   5.785  0.0524  0.0355  0.0002
  742SOL    HW1 8062   6.214   4.812   5.803  0.2761  0.8956  1.2474
  742SOL    HW2 8063   6.339   4.730   5.822 -0.4176 -0.9951 -1.7669
  743SOL     OW 8064   1.405   9.989   0.839  0.4543  0.3320  0.5032
  743SOL    HW1 8065   1.499   9.986   0.857  0.6281  1.4706 -0.1227
  743SOL    HW2 8066   1.376   9.898   0.847  1.5836 -0.0169  0.8042
  744SOL     OW 8067   4.819   8.469   0.390  0.2957 -0.0957 -0.5979
  744SOL    HW1 8068   4.744   8.434   0.342 -0.4638  1.4411 -0.6137
  744SOL    HW2 8069   4.798   8.455   0.482  0.7901 -1.1637 -0.6288
  745SOL     OW 8070   9.371   4.022   1.228 -0.4157  0.7309 -0.4695
  745SOL    HW1 8071   9.429   3.957   1.268 -0.4372 -0.4618 -2.2384
  745SOL    HW2 8072   9.322   4.060   1.301  0.7795 -0.0507  0.7878
  746SOL     OW 8073   3.450   6.017   2.812 -0.0643  0.2616  1.1261
  746SOL    HW1 8074   3.492   5.958   2.873  0.9765  0.1950  0.3656
  746SOL    HW2 8075   3.413   6.086   2.867 -0.2058 -0.4326  1.9139
  747SOL     OW 8076   3.076   5.941   1.129 -0.2717 -0.1259  0.2152
  747SOL    HW1 8077   3.136   6.016   1.132  1.9235 -1.7503 -0.1165
  747SOL    HW2 8078   2.989   5.980   1.124  0.7644  2.3843  0.0982
  748SOL     OW 8079   6.849   3.964  10.172 -0.2605 -0.6129  0.1660
  748SOL    HW1 8080   6.881   3.974  10.262 -1.2545 -0.4876  0.5175
  748SOL    HW2 8081   6.837   3.870  10.161 -0.1645 -0.6262  0.1752
  749SOL     OW 8082   5.701   5.494   7.201 -0.3604  0.7447  0.4359
  749SOL    HW1 8083   5.784   5.477   7.155  0.7417  1.7408  1.9350
  749SOL    HW2 8084   5.644   5.422   7.176  1.6150 -1.0422  0.8038
  750SOL     OW 8085   6.140   2.185   6.389  0.0884 -0.4478 -0.6922
  750SOL    HW1 8086   6.066   2.216   6.441  0.6493 -2.0863  1.2263
  750SOL    HW2 8087   6.112   2.196   6.298 -1.1502  2.0667 -0.0890
  751SOL     OW 8088   0.772   0.581   1.819 -0.5704  0.1214  0.1047
  751SOL    HW1 8089   0.734   0.534   1.745 -1.5299  0.6929  0.2129
  751SOL    HW2 8090   0.727   0.546   1.896 -2.1259  1.9222  0.1000
  752SOL     OW 8091   4.398   0.645   0.692 -0.3817  0.4064 -0.7024
  752SOL    HW1 8092   4.456   0.679   0.759  1.5839 -2.4746 -0.7900
  752SOL    HW2 8093   4.441   0.667   0.609 -0.0832 -0.5715 -0.8166
  753SOL     OW 8094   5.559   1.862   4.980  0.3470 -0.4459  0.0266
  753SOL    HW1 8095   5.605   1.945   4.993  0.2984 -0.4229  0.0505
  753SOL    HW2 8096   5.528   1.866   4.889 -0.2523 -0.1413  0.2378
  754SOL     OW 8097   6.012   3.424  10.046  0.3316  0.6508  0.3428
  754SOL    HW1 8098   6.023   3.407  10.140 -0.1559 -0.8070  0.1632
  754SOL    HW2 8099   6.096   3.401  10.007  0.9091  2.3429  0.5346
  755SOL     OW 8100   0.148   4.664   7.621  0.5121 -0.3494 -0.2016
  755SOL    HW1 8101   0.229   4.652   7.671  0.9671 -0.8114 -1.0274
  755SOL    HW2 8102   0.141   4.584   7.568  0.7411  0.6705 -1.8358
  756SOL     OW 8103   7.215   3.674   0.136 -0.4412 -0.1019  0.1716
  756SOL    HW1 8104   7.157   3.699   0.064 -0.0106  0.2846 -0.0533
  756SOL    HW2 8105   7.257   3.593   0.106  1.3807  1.1828 -1.0151
  757SOL     OW 8106   4.959   9.228   1.490  0.1367 -0.4350 -0.2323
  757SOL    HW1 8107   4.918   9.314   1.499  1.2710  0.0245  0.7610
  757SOL    HW2 8108   4.968   9.196   1.580  1.8493 -0.5642 -0.4201
  758SOL     OW 8109   3.025   3.119   3.949 -0.0896 -0.0950  0.3593
  758SOL    HW1 8110   2.998   3.148   3.862 -1.8424 -0.7968  0.6198
  758SOL    HW2 8111   3.041   3.026   3.939 -0.1311 -0.1439  0.7441
  759SOL     OW 8112   7.882   2.126   2.231 -0.1823 -0.5053  0.6023
  759SOL    HW1 8113   7.868   2.129   2.136  0.9968 -0.2146  0.4171
  759SOL    HW2 8114   7.797   2.150   2.269  0.2284  3.3234 -0.4584
  760SOL     OW 8115   1.135   2.852   7.259  0.2386 -0.2080 -0.0269
  760SOL    HW1 8116   1.055   2.834   7.210  0.5758  0.2266 -0.7476
  760SOL    HW2 8117   1.157   2.942   7.237  0.6458 -0.1531  0.5819
  761SOL     OW 8118   8.172   2.453   9.428  0.0753 -0.5088  0.0827
  761SOL    HW1 8119   8.222   2.380   9.465  0.7524  0.2496  0.6779
  761SOL    HW2 8120   8.208   2.531   9.469 -1.8220  0.0580  0.8187
  762SOL     OW 8121   8.745   7.658   6.623 -0.0112 -0.0375 -0.1760
  762SOL    HW1 8122   8.829   7.690   6.655  0.0064  0.9794 -1.1893
  762SOL    HW2 8123   8.706   7.733   6.579 -0.9063 -0.8508 -0.8059
  763SOL     OW 8124   4.360   0.146   7.847 -0.0532  0.0266  0.3391
  763SOL    HW1 8125   4.319   0.068   7.885 -1.7196  0.0338 -1.3201
  763SOL    HW2 8126   4.445   0.152   7.891 -1.0836 -1.0202  2.6305
  764SOL     OW 8127   2.646   4.844   7.363  0.5171 -1.0121  0.0775
  764SOL    HW1 8128   2.596   4.804   7.292 -0.1306 -0.7295  0.3642
  764SOL    HW2 8129   2.711   4.778   7.386  1.5570 -0.6145 -1.6027
  765SOL     OW 8130   1.862   8.707   8.081  0.4987 -0.0595 -0.0807
  765SOL    HW1 8131   1.781   8.723   8.129  1.5695  2.8322  1.0030
  765SOL    HW2 8132   1.925   8.681   8.148  0.6368 -1.8493 -0.8514
  766SOL     OW 8133   8.345   8.162   2.470 -0.0931 -0.2868  0.2217
  766SOL    HW1 8134   8.413   8.219   2.507  0.2782 -0.3784 -0.3152
  766SOL    HW2 8135   8.382   8.130   2.388 -0.3144 -1.2791  0.4967
  767SOL     OW 8136   6.485   5.940   3.208 -0.6133  0.1553 -0.3711
  767SOL    HW1 8137   6.537   5.998   3.264  1.4160  0.1790 -2.1834
  767SOL    HW2 8138   6.539   5.863   3.196 -2.0180 -0.8575 -0.4645
  768SOL     OW 8139   6.120   8.334   5.194 -0.2709 -0.1305  0.0373
  768SOL    HW1 8140   6.155   8.351   5.282 -0.3843 -1.0313  0.2694
  768SOL    HW2 8141   6.028   8.359   5.199 -0.2828 -0.2038  0.1861
  769SOL     OW 8142   4.246   0.093   9.094  0.4444 -0.9826  0.7370
  769SOL    HW1 8143   4.161   0.103   9.137  0.0615 -2.6611  0.4270
  769SOL    HW2 8144   4.310   0.119   9.160 -0.2895  0.2894  0.9750
  770SOL     OW 8145  10.126   1.819   6.122  0.1702  0.1207 -0.2684
  770SOL    HW1 8146  10.076   1.739   6.107 -1.1510  1.2622 -2.5437
  770SOL    HW2 8147  10.089   1.856   6.203 -0.4545 -0.6618 -0.1861
  771SOL     OW 8148   3.406   2.573   9.677 -0.3378 -0.5749 -0.1721
  771SOL    HW1 8149   3.402   2.524   9.595 -1.4567  0.8845 -1.0325
  771SOL    HW2 8150   3.379   2.662   9.654 -0.9827 -0.1870  1.8239
  772SOL     OW 8151   7.902   2.872   9.294 -0.0474  0.0382 -0.2732
  772SOL    HW1 8152   7.980   2.918   9.323  0.1263 -0.3444 -0.1310
  772SOL    HW2 8153   7.925   2.836   9.209  0.2463 -0.8551  0.1757
  773SOL     OW 8154  10.130   3.235   0.112 -0.2334 -0.0467  0.2189
  773SOL    HW1 8155  10.089   3.163   0.064 -0.7671 -0.1152  0.7627
  773SOL    HW2 8156  10.056   3.287   0.145  0.1389  0.9267 -0.4270
  774SOL     OW 8157   1.692   5.596   7.679  0.1624  0.4063 -0.1428
  774SOL    HW1 8158   1.773   5.645   7.694 -0.2025  0.7774  0.7181
  774SOL    HW2 8159   1.666   5.566   7.766  0.7438 -1.9577 -0.7084
  775SOL     OW 8160   7.181   5.163   7.564 -0.1075 -0.1101  0.1528
  775SOL    HW1 8161   7.186   5.258   7.562 -2.0780  0.0400 -0.4636
  775SOL    HW2 8162   7.155   5.138   7.475  0.0672 -1.2011  0.3830
  776SOL     OW 8163   5.580   1.114   4.635 -0.4835 -0.0154  0.5788
  776SOL    HW1 8164   5.650   1.175   4.613 -0.2500 -0.7366 -0.7612
  776SOL    HW2 8165   5.507   1.170   4.660 -0.4004  0.8494 -0.9939
  777SOL     OW 8166   8.640   3.973   7.162  0.2994  0.2058 -0.6545
  777SOL    HW1 8167   8.629   3.879   7.153 -0.0593 -0.0560  1.8270
  777SOL    HW2 8168   8.726   3.991   7.125  1.3389 -1.4794  0.7907
  778SOL     OW 8169   1.645   1.296   0.720 -0.2285  0.3753 -0.0915
  778SOL    HW1 8170   1.693   1.245   0.656  1.3757 -0.0679  1.3939
  778SOL    HW2 8171   1.609   1.231   0.780  0.9353  0.8853  1.2137
  779SOL     OW 8172   5.359   1.379   9.046 -0.5250  0.1615 -0.0709
  779SOL    HW1 8173   5.330   1.290   9.025 -0.5677  0.3731 -0.9642
  779SOL    HW2 8174   5.394   1.413   8.964  2.6532 -0.1922  0.9940
  780SOL     OW 8175   4.573   3.123   9.916  0.1617 -0.2927  0.3056
  780SOL    HW1 8176   4.593   3.187   9.848 -0.1417  1.0027  1.4065
  780SOL    HW2 8177   4.619   3.044   9.888 -0.4088  0.0149 -1.6883
  781SOL     OW 8178   1.833   8.672   7.483 -0.0534 -0.2899 -0.4559
  781SOL    HW1 8179   1.826   8.748   7.541  0.3683  0.6922 -1.6507
  781SOL    HW2 8180   1.788   8.601   7.531 -1.4814  0.9888  0.1862
  782SOL     OW 8181   1.297   4.161   6.203 -0.4748 -0.1748  0.5149
  782SOL    HW1 8182   1.284   4.251   6.176  1.3429  0.2151  0.8183
  782SOL    HW2 8183   1.350   4.121   6.134 -1.2794 -1.0259  0.3673
  783SOL     OW 8184   6.284   3.763   6.165 -0.5990  0.1750  0.2685
  783SOL    HW1 8185   6.315   3.791   6.250 -2.0989  1.0928  0.5496
  783SOL    HW2 8186   6.307   3.670   6.160  0.8962  0.4912  0.9923
  784SOL     OW 8187   7.644   9.614   0.773 -0.2541  0.8341 -0.0266
  784SOL    HW1 8188   7.562   9.632   0.820 -0.5438  0.3987 -0.3653
  784SOL    HW2 8189   7.636   9.663   0.692  0.0730  1.2564  0.1914
  785SOL     OW 8190   8.919   4.794   5.930  0.6870 -0.4743  0.2778
  785SOL    HW1 8191   8.825   4.791   5.945  0.7878 -0.9124  0.9223
  785SOL    HW2 8192   8.957   4.775   6.016  1.3750  0.6234  0.2352
  786SOL     OW 8193   3.917   5.778   8.843 -0.4584  0.3980  0.3548
  786SOL    HW1 8194   3.946   5.687   8.848  2.5587  1.2569  0.4303
  786SOL    HW2 8195   3.865   5.782   8.762 -0.9785 -1.4399  0.5570
  787SOL     OW 8196   7.398   6.322   9.564 -0.1669 -0.0942 -0.0157
  787SOL    HW1 8197   7.434   6.408   9.587 -1.0539  0.7941 -1.7270
  787SOL    HW2 8198   7.305   6.338   9.549 -0.3369 -1.3371 -0.4467
  788SOL     OW 8199  10.692   1.533   8.632  0.0752 -0.8198  0.4871
  788SOL    HW1 8200  10.714   1.526   8.539  2.3093 -0.5758  0.9356
  788SOL    HW2 8201  10.753   1.598   8.666 -0.1592 -1.4822  2.2773
  789SOL     OW 8202   1.893   9.466   1.601 -0.5844 -0.1351 -0.1911
  789SOL    HW1 8203   1.967   9.467   1.662 -1.3099  0.1238  0.7121
  789SOL    HW2 8204   1.843   9.545   1.622 -0.7750  0.0372 -1.2304
  790SOL     OW 8205   6.285   9.672   8.074  0.0202 -0.0383 -0.0077
  790SOL    HW1 8206   6.269   9.706   7.986 -3.2372  1.8369  1.1164
  790SOL    HW2 8207   6.302   9.579   8.061 -1.1966  0.0047 -2.6017
  791SOL     OW 8208   3.728   2.298  10.128  0.4897 -0.2922  0.0513
  791SOL    HW1 8209   3.764   2.349  10.055  0.8554  0.2326  0.5873
  791SOL    HW2 8210   3.702   2.364  10.192  1.7467 -0.7924  1.1202
  792SOL     OW 8211   4.984   8.210   9.222  0.0846  0.5336 -0.1023
  792SOL    HW1 8212   5.053   8.224   9.287  0.6244  0.7014 -0.7041
  792SOL    HW2 8213   4.913   8.267   9.250 -0.1432 -0.2642  0.9983
  793SOL     OW 8214   1.105   4.684   5.644 -0.3732 -0.0943  0.2775
  793SOL    HW1 8215   1.075   4.611   5.589 -0.9365  0.3725 -0.0538
  793SOL    HW2 8216   1.148   4.642   5.718 -0.2511 -0.7523 -0.1578
  794SOL     OW 8217   4.364   3.849   7.523  0.4106  0.5009 -0.8724
  794SOL    HW1 8218   4.400   3.771   7.480  1.1802  0.5022 -0.2497
  794SOL    HW2 8219   4.338   3.819   7.610 -0.2078  0.7250 -0.9746
  795SOL     OW 8220  10.479  10.418   1.368  0.4360  0.0669 -0.4731
  795SOL    HW1 8221  10.438  10.489   1.320 -0.4274 -1.1256 -1.5531
  795SOL    HW2 8222  10.559  10.399   1.319  0.6787  0.2979 -0.1724
  796SOL     OW 8223   6.170   4.405   4.598 -0.3737 -0.0458  0.0542
  796SOL    HW1 8224   6.079   4.426   4.619  0.0564  1.8928  0.1936
  796SOL    HW2 8225   6.213   4.491   4.588  1.2576 -0.9055 -0.8061
  797SOL     OW 8226   4.471   5.239   2.266  0.4255  0.0893 -0.4846
  797SOL    HW1 8227   4.451   5.148   2.291  1.3013 -0.8368 -2.8194
  797SOL    HW2 8228   4.428   5.250   2.182 -0.6535  2.3072  0.2946
  798SOL     OW 8229   6.869   0.271   0.369  0.1842 -0.2135 -0.4187
  798SOL    HW1 8230   6.961   0.246   0.366  0.4785  0.8941 -0.7698
  798SOL    HW2 8231   6.848   0.273   0.462  1.0743  1.4898 -0.2218
  799SOL     OW 8232   4.539   7.907   2.859 -0.0290  0.4951 -0.3208
  799SOL    HW1 8233   4.634   7.905   2.848  0.1524  1.2413  0.8492
  799SOL    HW2 8234   4.517   7.824   2.900  0.1676  0.4408 -0.3259
  800SOL     OW 8235   1.905   2.839   5.156  0.1439  0.3482  0.4329
  800SOL    HW1 8236   1.948   2.795   5.083 -0.7295 -0.3918  0.3495
  800SOL    HW2 8237   1.831   2.885   5.116 -0.1964  0.1383  0.8184
  801SOL     OW 8238   2.112   7.010   7.820  0.3622 -0.1582 -0.2988
  801SOL    HW1 8239   2.115   6.922   7.783 -0.4864 -0.6639  0.7928
  801SOL    HW2 8240   2.021   7.021   7.847  0.7806  0.5060  0.8712
  802SOL     OW 8241   7.038   3.437   0.077 -0.3153 -0.0438 -0.0649
  802SOL    HW1 8242   6.999   3.506   0.023  1.2482  1.0450  0.1526
  802SOL    HW2 8243   7.100   3.394   0.019  2.5449  2.1395  1.1339
  803SOL     OW 8244   6.438   0.756   7.866  0.1467  0.2787  0.4067
  803SOL    HW1 8245   6.445   0.734   7.773 -0.5204  2.4223 -0.1913
  803SOL    HW2 8246   6.351   0.725   7.891 -1.1554  2.8005 -0.6614
  804SOL     OW 8247   5.033   0.200   9.353  0.5533 -0.2940  0.1060
  804SOL    HW1 8248   5.082   0.282   9.362  1.0802 -0.7761  2.1447
  804SOL    HW2 8249   4.942   0.226   9.363  0.5930  0.2124 -0.7223
  805SOL     OW 8250   9.723   8.888   3.838 -0.3443  0.4025  0.0549
  805SOL    HW1 8251   9.693   8.970   3.878  3.6863  0.9460  2.5162
  805SOL    HW2 8252   9.718   8.823   3.909  1.1937 -0.1865 -0.3404
  806SOL     OW 8253   5.749   2.973   3.484 -0.0332 -0.1718  0.2672
  806SOL    HW1 8254   5.782   3.062   3.473 -1.4324  0.4326  0.7229
  806SOL    HW2 8255   5.673   2.968   3.427 -0.7939 -0.6091  1.2895
  807SOL     OW 8256   1.414   6.425   0.657  0.0626 -0.6357 -0.4342
  807SOL    HW1 8257   1.381   6.384   0.737 -0.4199 -0.4927 -0.5542
  807SOL    HW2 8258   1.496   6.466   0.683 -0.4692  0.0748  0.1832
  808SOL     OW 8259   5.255   1.076   6.047 -0.0580  0.7804 -0.3358
  808SOL    HW1 8260   5.177   1.125   6.072  0.2267  1.3403 -0.5219
  808SOL    HW2 8261   5.318   1.095   6.116 -0.5944 -1.0096  0.7323
  809SOL     OW 8262   7.377   8.584   6.168 -0.1995  0.5258  0.3152
  809SOL    HW1 8263   7.316   8.621   6.231  1.5216  1.0639  1.7546
  809SOL    HW2 8264   7.379   8.647   6.096 -0.4225  1.1053  0.8112
  810SOL     OW 8265   2.124   6.202   0.155 -0.1970  0.0013 -0.2473
  810SOL    HW1 8266   2.199   6.261   0.167  0.3303 -0.0990 -2.5532
  810SOL    HW2 8267   2.048   6.260   0.158 -0.0356  0.1851  1.5335
  811SOL     OW 8268   1.545   1.755   4.298 -0.2884 -0.5489  0.1795
  811SOL    HW1 8269   1.519   1.671   4.260 -0.2400 -0.1459 -0.7868
  811SOL    HW2 8270   1.510   1.753   4.387 -1.9398 -0.8078 -0.4476
  812SOL     OW 8271  10.675   2.798   9.224  0.4225 -0.9165  0.5116
  812SOL    HW1 8272  10.607   2.801   9.291 -0.0423 -1.3244  0.0627
  812SOL    HW2 8273  10.721   2.881   9.232 -0.1847 -0.6040  0.7596
  813SOL     OW 8274   3.353   1.380   7.286  0.1999 -0.3429 -0.1464
  813SOL    HW1 8275   3.277   1.400   7.232  0.1925 -0.1306 -0.0579
  813SOL    HW2 8276   3.366   1.285   7.276  0.9928 -0.1025 -1.5654
  814SOL     OW 8277   3.414   7.629   7.008 -0.6908  0.2782  0.0202
  814SOL    HW1 8278   3.379   7.672   6.930  0.7422 -2.0274 -2.0578
  814SOL    HW2 8279   3.476   7.564   6.973  1.0722  0.0790  3.1688
  815SOL     OW 8280   8.443   0.148  10.679 -0.3209 -0.2110  0.1150
  815SOL    HW1 8281   8.469   0.109  10.596 -1.5807  1.0335 -0.9205
  815SOL    HW2 8282   8.486   0.233  10.680 -0.6248 -0.0576  0.5585
  816SOL     OW 8283   7.957   4.985   5.598  0.0871  0.2486 -0.3784
  816SOL    HW1 8284   7.879   4.930   5.589 -0.0153  0.3991 -0.4113
  816SOL    HW2 8285   8.001   4.950   5.676  0.0987  0.0275 -0.4832
  817SOL     OW 8286  10.394   0.059   6.758  0.3935 -0.1546 -0.1719
  817SOL    HW1 8287  10.391   0.021   6.845 -0.1119  0.7481  0.2171
  817SOL    HW2 8288  10.448  -0.002   6.707  1.6866 -0.1073  1.0620
  818SOL     OW 8289   0.846   7.269   1.611 -0.0525 -0.0286  0.5469
  818SOL    HW1 8290   0.936   7.297   1.589 -0.4213  0.2825 -0.6767
  818SOL    HW2 8291   0.857   7.206   1.682  1.4072 -2.0534 -1.3149
  819SOL     OW 8292   6.170   9.127  10.571  0.9065 -0.2363 -0.0295
  819SOL    HW1 8293   6.163   9.093  10.482  2.1555 -0.5818 -0.0186
  819SOL    HW2 8294   6.146   9.219  10.564  0.2553 -0.4396 -0.5778
  820SOL     OW 8295   4.586   3.907   4.173  0.2977 -0.2113 -0.6329
  820SOL    HW1 8296   4.578   3.999   4.147  1.4519  0.1460  0.2116
  820SOL    HW2 8297   4.676   3.884   4.152 -0.2813 -1.5171 -1.8851
  821SOL     OW 8298   8.942   8.131   8.216 -0.1674 -0.5551 -0.5074
  821SOL    HW1 8299   8.960   8.041   8.244  0.0476  0.0451  1.4560
  821SOL    HW2 8300   8.934   8.180   8.298 -1.2835  1.0307 -1.5199
  822SOL     OW 8301   5.513   6.303   4.107  0.1648  0.0600  0.2006
  822SOL    HW1 8302   5.526   6.233   4.042 -1.6766  0.4513 -0.6494
  822SOL    HW2 8303   5.449   6.267   4.168  3.3662 -1.1312  3.2025
  823SOL     OW 8304   0.975   9.821   7.065  0.0190 -0.0749  0.6374
  823SOL    HW1 8305   0.896   9.872   7.046  0.4081  0.1495 -0.4290
  823SOL    HW2 8306   0.966   9.743   7.011  0.7878  0.2201  0.0720
  824SOL     OW 8307   7.044   1.619   0.941 -0.3172  0.2997  0.2173
  824SOL    HW1 8308   7.056   1.706   0.902  0.7097  0.1203  0.1003
  824SOL    HW2 8309   7.132   1.580   0.939 -0.9443 -1.1512 -0.6986
  825SOL     OW 8310   0.187   8.713   9.626 -0.1349 -0.3433 -0.5232
  825SOL    HW1 8311   0.210   8.766   9.702 -1.6268 -0.6436  0.1842
  825SOL    HW2 8312   0.149   8.775   9.564 -0.9078 -0.3892 -0.1197
  826SOL     OW 8313   0.533   3.153   9.484 -0.7429 -0.1258 -0.4770
  826SOL    HW1 8314   0.595   3.080   9.475 -1.2740 -0.5583 -0.7300
  826SOL    HW2 8315   0.584   3.224   9.520  0.3114  0.0561 -2.2051
  827SOL     OW 8316   7.848   0.966   0.592  0.0450  0.1071 -0.0522
  827SOL    HW1 8317   7.891   0.897   0.642  0.4603 -0.2148 -0.8525
  827SOL    HW2 8318   7.909   0.988   0.522 -0.7592  0.1786 -0.7499
  828SOL     OW 8319   3.341   2.202   8.836  0.2847 -0.5839  0.0416
  828SOL    HW1 8320   3.333   2.114   8.873 -0.9073 -0.1754  0.8259
  828SOL    HW2 8321   3.371   2.257   8.908 -0.5182 -0.0651  0.0006
  829SOL     OW 8322   3.275  10.435   0.527 -0.7633  0.7406 -0.4067
  829SOL    HW1 8323   3.207  10.487   0.568 -1.6077  1.1073 -2.1778
  829SOL    HW2 8324   3.267  10.348   0.566 -0.6908  1.3744  1.0716
  830SOL     OW 8325   6.128   0.192   1.142  0.3728 -0.3811 -0.1506
  830SOL    HW1 8326   6.147   0.118   1.200  1.8281  0.3973  0.4136
  830SOL    HW2 8327   6.147   0.159   1.054  0.3160 -0.8880  0.0224
  831SOL     OW 8328   1.542   2.427   2.276  0.9181 -0.8871  0.3782
  831SOL    HW1 8329   1.636   2.433   2.292  1.0745 -1.4491 -0.2636
  831SOL    HW2 8330   1.510   2.517   2.288  1.5665 -0.6519  0.4002
  832SOL     OW 8331   6.540  10.077   8.941  0.0893  0.3612 -0.1618
  832SOL    HW1 8332   6.620  10.057   8.892 -0.1709  0.6790 -0.7202
  832SOL    HW2 8333   6.472  10.026   8.898  0.2509 -1.1223  1.2659
  833SOL     OW 8334   0.694  10.513   8.003 -0.1026  1.0101 -0.1971
  833SOL    HW1 8335   0.746  10.530   8.081  0.0537  0.3421 -0.1445
  833SOL    HW2 8336   0.754  10.530   7.930  0.3020 -0.0263 -0.1330
  834SOL     OW 8337   2.048   1.579  10.394 -0.2548  0.8643  0.3393
  834SOL    HW1 8338   2.018   1.498  10.354 -0.2347  0.7503  0.5582
  834SOL    HW2 8339   2.117   1.611  10.335  0.1201  0.4415  0.5461
  835SOL     OW 8340   7.502   0.892   0.650 -0.0882  0.2156  0.2341
  835SOL    HW1 8341   7.583   0.940   0.634  0.1853 -0.8346 -1.8830
  835SOL    HW2 8342   7.525   0.824   0.713  0.5773  0.2325  0.0105
  836SOL     OW 8343   0.427   9.024   9.629  0.8685  0.3099  0.6275
  836SOL    HW1 8344   0.388   9.055   9.547  1.3894  0.9603  0.6219
  836SOL    HW2 8345   0.356   8.975   9.671  0.7175 -0.4099 -0.4075
  837SOL     OW 8346   4.204   4.753   4.282 -0.5423  0.2215 -0.0793
  837SOL    HW1 8347   4.293   4.772   4.309 -0.6211  1.6658 -0.7662
  837SOL    HW2 8348   4.153   4.753   4.363 -0.0308  0.0064  0.2425
  838SOL     OW 8349   3.974   8.182   3.306 -0.0201 -0.2060 -0.0770
  838SOL    HW1 8350   3.899   8.221   3.351 -1.1770 -0.8824 -1.3650
  838SOL    HW2 8351   4.040   8.171   3.375 -0.7416  1.2514  0.9048
  839SOL     OW 8352   3.758   9.412   6.269  0.2937  0.1892 -0.0729
  839SOL    HW1 8353   3.743   9.502   6.239  2.1970  0.8545  0.8200
  839SOL    HW2 8354   3.850   9.410   6.295  0.2030 -1.9336  0.2806
  840SOL     OW 8355   2.847   1.696   3.800 -0.2512 -0.5737  0.3857
  840SOL    HW1 8356   2.906   1.653   3.861  0.8869  1.9832  1.2173
  840SOL    HW2 8357   2.896   1.699   3.718  0.6023  0.9967  0.9128
  841SOL     OW 8358   8.282   2.697   4.306  0.1790 -0.6928 -0.3748
  841SOL    HW1 8359   8.280   2.770   4.368 -2.1225 -0.2584 -0.8626
  841SOL    HW2 8360   8.232   2.627   4.348 -0.9550 -0.5792 -1.4619
  842SOL     OW 8361   6.831   5.528   0.553  0.7043 -0.6829  0.0993
  842SOL    HW1 8362   6.799   5.618   0.548  0.8149 -0.6354  0.2286
  842SOL    HW2 8363   6.920   5.532   0.518  1.9162 -0.1384  2.9327
  843SOL     OW 8364   9.669   5.245   5.785 -0.2379  1.3935  0.1164
  843SOL    HW1 8365   9.735   5.306   5.753  3.2422 -0.8737  2.2430
  843SOL    HW2 8366   9.678   5.168   5.730 -1.1323  1.0224  0.4673
  844SOL     OW 8367  10.044   8.816   5.515  0.0925  0.0707  0.1266
  844SOL    HW1 8368   9.988   8.759   5.463 -0.0862  1.1683 -0.9378
  844SOL    HW2 8369   9.993   8.835   5.593  0.3002 -1.4844  0.6740
  845SOL     OW 8370   0.903   8.253   1.310 -0.6622 -0.2519 -0.3317
  845SOL    HW1 8371   0.828   8.197   1.333 -0.8890 -0.0416 -0.5559
  845SOL    HW2 8372   0.956   8.254   1.390 -0.3294 -1.2960 -0.5209
  846SOL     OW 8373   6.392   0.706   0.592  0.1265 -0.4577  0.5833
  846SOL    HW1 8374   6.409   0.630   0.648  2.3878 -2.0182 -1.9808
  846SOL    HW2 8375   6.429   0.682   0.508 -0.7821  2.8125 -0.8912
  847SOL     OW 8376   7.224  10.601   4.209 -0.3066 -0.6612  0.3288
  847SOL    HW1 8377   7.287  10.647   4.154  1.5800 -2.0205  1.2594
  847SOL    HW2 8378   7.150  10.662   4.215  1.3452  1.5029  0.1125
  848SOL     OW 8379   7.991   2.546   5.294  0.0939 -0.1868 -0.2804
  848SOL    HW1 8380   7.979   2.515   5.383 -0.0197 -0.0168 -0.2377
  848SOL    HW2 8381   8.029   2.633   5.303  0.1277 -0.1883 -0.3985
  849SOL     OW 8382   7.305   0.624   0.398 -0.6319  0.2264 -0.4797
  849SOL    HW1 8383   7.250   0.548   0.420 -0.1763 -0.6373 -2.1648
  849SOL    HW2 8384   7.377   0.587   0.348  1.8849  1.2420  2.1181
  850SOL     OW 8385   3.660   4.547   3.558  0.2077  0.5090  0.3801
  850SOL    HW1 8386   3.608   4.542   3.478 -0.9026  1.4157  1.0100
  850SOL    HW2 8387   3.690   4.638   3.562  4.3705 -0.5518 -1.4324
  851SOL     OW 8388   2.626   7.746   9.767  0.5867  0.2587  0.4472
  851SOL    HW1 8389   2.679   7.715   9.694 -0.0832  2.9693 -1.3703
  851SOL    HW2 8390   2.674   7.720   9.845  0.2420 -4.7637 -0.7086
  852SOL     OW 8391   0.960   2.234   2.265 -0.6710 -0.1919  0.1439
  852SOL    HW1 8392   0.877   2.194   2.291 -0.2524 -1.4297 -0.3915
  852SOL    HW2 8393   0.960   2.319   2.310 -2.2668 -0.1204  0.0653
  853SOL     OW 8394  10.536   6.530   3.376 -0.1323  0.2360 -0.2447
  853SOL    HW1 8395  10.563   6.438   3.380 -0.3657  0.2100  2.1970
  853SOL    HW2 8396  10.592   6.575   3.438 -0.2147  1.7364 -1.1939
  854SOL     OW 8397   4.638   9.625   8.330  0.7870 -0.4089 -0.0561
  854SOL    HW1 8398   4.625   9.711   8.370  0.9018 -1.4187  2.3105
  854SOL    HW2 8399   4.571   9.569   8.370  1.6052 -1.7405 -0.4768
  855SOL     OW 8400   9.510   2.205   3.824 -0.5549  0.2601  0.6023
  855SOL    HW1 8401   9.439   2.146   3.800  0.5741 -2.2594  2.9144
  855SOL    HW2 8402   9.470   2.268   3.884 -1.3183  0.5091 -0.1483
  856SOL     OW 8403   9.248   2.844   2.419  0.2717  0.1793  0.2235
  856SOL    HW1 8404   9.273   2.916   2.477  0.3235 -0.7807  1.4291
  856SOL    HW2 8405   9.315   2.777   2.432  0.0823 -0.2093 -0.6814
  857SOL     OW 8406   7.555   3.755   9.133 -0.2176  0.1302 -0.2728
  857SOL    HW1 8407   7.514   3.747   9.047  0.9679 -1.7400 -0.7320
  857SOL    HW2 8408   7.641   3.714   9.123  0.8389  1.7919  1.2671
  858SOL     OW 8409   2.122   3.570   4.376 -0.3084  0.1359  0.2526
  858SOL    HW1 8410   2.168   3.486   4.381  0.0915  0.3803  0.7322
  858SOL    HW2 8411   2.191   3.633   4.352 -0.4158  0.4834  0.8476
  859SOL     OW 8412   8.978   6.748   7.511  0.0912 -0.1184  0.2722
  859SOL    HW1 8413   8.919   6.796   7.453 -0.0316  0.0060  0.4960
  859SOL    HW2 8414   8.968   6.792   7.596 -0.4408 -0.8865  0.6189
  860SOL     OW 8415   2.902   7.489   6.734  0.2288  0.2510  0.6074
  860SOL    HW1 8416   2.828   7.450   6.689  0.5002 -0.2313  0.5752
  860SOL    HW2 8417   2.901   7.581   6.706  0.0962  0.0708  0.0061
  861SOL     OW 8418   2.927  10.359   7.836  0.9983 -0.1531  0.6266
  861SOL    HW1 8419   3.010  10.314   7.820 -0.5330 -2.2100 -2.8760
  861SOL    HW2 8420   2.866  10.317   7.775 -2.4265  1.8578  2.3888
  862SOL     OW 8421   3.382   7.036   6.073 -0.1752  0.2203 -0.1548
  862SOL    HW1 8422   3.395   7.059   5.981  0.2393  1.7952  0.2588
  862SOL    HW2 8423   3.402   7.117   6.120 -0.8108 -0.4384  1.2913
  863SOL     OW 8424   6.020   5.845   2.394 -0.0415 -0.2643  0.4891
  863SOL    HW1 8425   6.023   5.749   2.403 -0.9363 -0.3351  0.1787
  863SOL    HW2 8426   5.961   5.873   2.463  0.0480  0.0437  0.4401
  864SOL     OW 8427   8.498   1.364   6.175 -0.0943 -0.1960  0.2846
  864SOL    HW1 8428   8.434   1.430   6.150  1.1914  1.6054  1.4521
  864SOL    HW2 8429   8.555   1.355   6.099 -0.7726 -0.6369 -0.1850
  865SOL     OW 8430   9.746   6.897   1.036 -0.5673 -0.0593  0.0897
  865SOL    HW1 8431   9.751   6.870   0.944 -0.4096 -0.7197  0.2921
  865SOL    HW2 8432   9.656   6.877   1.062  0.0061 -1.9817  0.7199
  866SOL     OW 8433   2.305   1.705  10.329  0.2417  0.8295 -0.2955
  866SOL    HW1 8434   2.350   1.789  10.342 -0.6022  1.4226 -1.0883
  866SOL    HW2 8435   2.345   1.647  10.393  1.9599  1.3984 -0.7897
  867SOL     OW 8436   3.003   2.879   2.534 -0.0399  0.7395 -1.0558
  867SOL    HW1 8437   2.967   2.966   2.515 -3.4974 -0.9352 -3.0519
  867SOL    HW2 8438   2.935   2.818   2.506  1.0217 -2.6507  2.7861
  868SOL     OW 8439   8.749   2.562   3.531 -0.3686 -0.5692 -0.3808
  868SOL    HW1 8440   8.755   2.622   3.457 -0.1372 -0.8104 -0.5593
  868SOL    HW2 8441   8.739   2.475   3.492  0.7536 -0.8169 -0.1591
  869SOL     OW 8442   6.867   6.852   9.217 -0.4827  0.2283 -0.3008
  869SOL    HW1 8443   6.789   6.903   9.237 -1.0860 -0.4589 -0.8456
  869SOL    HW2 8444   6.833   6.767   9.188  0.4043  0.4575 -2.1450
  870SOL     OW 8445  10.105   1.194   0.054 -0.6740  0.0062  0.0018
  870SOL    HW1 8446  10.056   1.204   0.135 -2.6430  0.9195 -1.2094
  870SOL    HW2 8447  10.139   1.282   0.035 -3.2843  0.7441 -1.8831
  871SOL     OW 8448   8.667   0.305   6.225  0.2391  0.0089 -0.0056
  871SOL    HW1 8449   8.726   0.308   6.300 -0.6236  0.1708  0.6727
  871SOL    HW2 8450   8.641   0.213   6.218 -0.4726  0.1660  0.5214
  872SOL     OW 8451   0.452   9.756   6.362  0.4303  0.4533 -0.6083
  872SOL    HW1 8452   0.426   9.834   6.411 -0.1661 -0.0081 -0.1786
  872SOL    HW2 8453   0.470   9.789   6.274  1.8021  1.3379 -0.0258
  873SOL     OW 8454   9.333   2.079   8.629 -0.2193  0.3241 -0.0361
  873SOL    HW1 8455   9.390   2.149   8.595  0.1434  0.6115  1.1395
  873SOL    HW2 8456   9.301   2.113   8.712  0.0490 -0.9652  0.6028
  874SOL     OW 8457   6.729   5.448   8.239 -0.4565  0.5099  0.3104
  874SOL    HW1 8458   6.685   5.406   8.166 -0.2799 -1.4729  1.2841
  874SOL    HW2 8459   6.792   5.384   8.270  1.4149  2.3366  0.5285
  875SOL     OW 8460   9.871   9.987   9.489  0.0502 -0.4931 -0.2422
  875SOL    HW1 8461   9.821  10.062   9.458 -0.7969 -0.4260  1.1644
  875SOL    HW2 8462   9.909   9.948   9.410  0.1027  1.1120 -1.0365
  876SOL     OW 8463   2.658   3.789   7.422  0.2332 -0.2399 -0.7795
  876SOL    HW1 8464   2.589   3.814   7.360 -0.9981 -4.2284 -1.2935
  876SOL    HW2 8465   2.620   3.716   7.472  2.2203  0.9257  2.7763
  877SOL     OW 8466  10.057  10.077   7.137  0.0580  0.2925  0.5025
  877SOL    HW1 8467  10.039  10.162   7.178 -2.1762  1.6678 -2.9670
  877SOL    HW2 8468  10.136  10.092   7.084  0.4264 -0.2306  0.8834
  878SOL     OW 8469   4.500   2.813   0.210  0.2836  0.0579 -0.2234
  878SOL    HW1 8470   4.521   2.823   0.303 -0.3554  1.4838 -0.2091
  878SOL    HW2 8471   4.570   2.757   0.176  1.0678  0.3067  0.9189
  879SOL     OW 8472   3.282   1.159  10.093  0.5787 -0.1120 -0.0776
  879SOL    HW1 8473   3.371   1.138  10.066 -0.0382  0.4485 -2.7858
  879SOL    HW2 8474   3.233   1.170  10.012 -2.1898 -1.1536  1.2981
  880SOL     OW 8475   0.262   2.974   8.815 -0.3124 -0.2379  0.4124
  880SOL    HW1 8476   0.335   2.920   8.784 -0.2712 -0.7444  1.3689
  880SOL    HW2 8477   0.304   3.044   8.865 -0.3182  1.0862 -1.3232
  881SOL     OW 8478   6.585   4.353   5.982  0.1919 -0.4289  0.1305
  881SOL    HW1 8479   6.630   4.291   5.925 -0.7907 -1.3689  0.3228
  881SOL    HW2 8480   6.524   4.298   6.033  1.7831  0.1820  2.9050
  882SOL     OW 8481   1.553   9.579   9.629 -0.0329  0.3889 -0.1473
  882SOL    HW1 8482   1.458   9.575   9.630 -0.1969  2.2426 -1.3921
  882SOL    HW2 8483   1.579   9.526   9.553  0.0655 -1.2485  0.9897
  883SOL     OW 8484   4.050   4.207   1.416 -0.7666  0.0488  0.4545
  883SOL    HW1 8485   4.112   4.155   1.467 -1.2858  1.6491  2.8837
  883SOL    HW2 8486   4.019   4.147   1.348  1.6669 -1.4938  0.5647
  884SOL     OW 8487   0.498   7.055  10.415 -0.1316  0.4979 -0.9358
  884SOL    HW1 8488   0.455   7.138  10.436 -1.6796 -0.9365  2.0515
  884SOL    HW2 8489   0.466   7.034  10.327 -2.2659  1.5184 -0.4713
  885SOL     OW 8490   6.275   0.866   1.366  0.5050  0.0510 -0.7249
  885SOL    HW1 8491   6.212   0.865   1.294 -2.5117  1.3120  1.6952
  885SOL    HW2 8492   6.296   0.959   1.378 -0.0372  0.0142  0.7399
  886SOL     OW 8493   3.552   0.129   4.028 -0.1754 -0.2974 -0.1705
  886SOL    HW1 8494   3.546   0.128   4.123 -2.8836 -0.3739 -0.2715
  886SOL    HW2 8495   3.578   0.218   4.006  1.6539 -0.5977  0.6371
  887SOL     OW 8496   1.824   5.063   7.236  0.5096 -0.4576  0.1373
  887SOL    HW1 8497   1.865   4.979   7.254  0.0163 -0.4910  1.2068
  887SOL    HW2 8498   1.797   5.058   7.145 -0.1167 -1.7302  0.3659
  888SOL     OW 8499   1.499   8.262   1.010  0.3237  0.2661 -0.1254
  888SOL    HW1 8500   1.555   8.188   0.988 -0.3097 -0.3130  0.1774
  888SOL    HW2 8501   1.412   8.224   1.020  0.1478  0.9096  0.9090
  889SOL     OW 8502   6.729   2.673   0.403  0.4613 -0.4606 -0.4776
  889SOL    HW1 8503   6.810   2.657   0.354  0.1534 -0.0253 -1.1617
  889SOL    HW2 8504   6.747   2.753   0.453  0.5260 -0.4760 -0.4767
  890SOL     OW 8505   1.077   8.515   6.561  0.1844  0.3316  0.3318
  890SOL    HW1 8506   1.121   8.563   6.491  1.4446 -1.0021  0.1771
  890SOL    HW2 8507   1.101   8.562   6.641  0.2015  0.8006  0.0554
  891SOL     OW 8508   0.220  10.262   9.552  0.4110 -0.0420 -0.4647
  891SOL    HW1 8509   0.301  10.308   9.576  0.1620 -0.1781  0.6804
  891SOL    HW2 8510   0.249  10.178   9.518  0.7272 -0.5630  1.0245
  892SOL     OW 8511   1.852   7.662   2.942  0.1813 -0.5471 -0.4439
  892SOL    HW1 8512   1.917   7.631   2.879  1.0368  0.1676  0.0480
  892SOL    HW2 8513   1.853   7.757   2.931 -1.0977 -0.5483 -0.7086
  893SOL     OW 8514   9.692   2.286   4.524 -0.5546  0.8724 -0.0268
  893SOL    HW1 8515   9.612   2.249   4.561  0.6596 -1.8518  0.0854
  893SOL    HW2 8516   9.701   2.244   4.439  1.0464  0.6740  0.2093
  894SOL     OW 8517   6.880   5.932  10.615  0.6933  0.0288  0.2592
  894SOL    HW1 8518   6.852   6.004  10.672  1.6095 -1.1890  2.3764
  894SOL    HW2 8519   6.876   5.854  10.671  2.1724 -1.1720 -1.1977
  895SOL     OW 8520   5.362   0.622   3.506 -0.1694  0.0662 -0.1636
  895SOL    HW1 8521   5.340   0.685   3.437 -0.4505 -0.1140 -0.2395
  895SOL    HW2 8522   5.307   0.546   3.487 -0.6789  0.2337  0.5983
  896SOL     OW 8523   2.858   1.561   6.424 -0.3428  0.3006  0.4636
  896SOL    HW1 8524   2.948   1.548   6.453  0.1917  0.7979 -0.8847
  896SOL    HW2 8525   2.858   1.535   6.332 -1.3750  1.0857  0.2164
  897SOL     OW 8526   8.987   8.009   5.070 -0.6367  0.1377  0.2735
  897SOL    HW1 8527   9.036   7.946   5.124 -0.8396 -0.2549  0.0037
  897SOL    HW2 8528   9.036   8.090   5.078  1.0003 -0.6401 -1.3005
  898SOL     OW 8529   5.852   5.294   4.777  0.0952 -0.1734  0.3439
  898SOL    HW1 8530   5.916   5.231   4.810  0.7135  0.4896  0.4349
  898SOL    HW2 8531   5.865   5.372   4.831 -0.0085  0.3580 -0.3856
  899SOL     OW 8532   1.113   5.621  10.025  0.2501 -1.0308  0.3924
  899SOL    HW1 8533   1.105   5.642   9.932  0.6227 -0.1893  0.5404
  899SOL    HW2 8534   1.207   5.609  10.038  0.1449 -1.7181  0.5478
  900SOL     OW 8535   4.529   9.819   4.248 -0.0614 -0.5588 -0.1790
  900SOL    HW1 8536   4.580   9.870   4.311 -0.7567 -2.6900  2.2537
  900SOL    HW2 8537   4.577   9.737   4.238 -1.6220 -1.5510  0.1311
  901SOL     OW 8538   2.332   8.973   5.339  0.0636  0.2033  0.0079
  901SOL    HW1 8539   2.369   8.894   5.300  0.0818 -0.3215  1.0552
  901SOL    HW2 8540   2.383   8.987   5.418  0.6043  1.7592 -0.5774
  902SOL     OW 8541   1.966   4.100   3.565 -0.3653 -0.6226 -0.0670
  902SOL    HW1 8542   1.894   4.052   3.606  0.0496 -0.4776  0.8431
  902SOL    HW2 8543   2.045   4.061   3.601 -0.0027 -0.0978 -0.2880
  903SOL     OW 8544   3.331   0.280  10.559 -0.2395 -0.3702  0.4643
  903SOL    HW1 8545   3.321   0.356  10.616 -0.8872 -0.7677  0.8975
  903SOL    HW2 8546   3.318   0.205  10.617  2.1776 -0.9004  0.4400
  904SOL     OW 8547   6.345   7.727   5.340  0.1134  0.2048 -0.0087
  904SOL    HW1 8548   6.436   7.754   5.351 -0.1994  1.0013  0.7172
  904SOL    HW2 8549   6.302   7.803   5.301 -0.1412 -0.3500 -0.8432
  905SOL     OW 8550   3.153   0.023   1.449  0.4592  0.2738  0.1521
  905SOL    HW1 8551   3.233   0.027   1.500  0.5595 -0.4143  0.0546
  905SOL    HW2 8552   3.124  -0.068   1.456 -0.3734  0.5436  0.2850
  906SOL     OW 8553   2.141   4.091   2.057 -0.3412 -0.4490  0.5516
  906SOL    HW1 8554   2.231   4.124   2.063 -0.4196 -0.3711  1.5175
  906SOL    HW2 8555   2.104   4.108   2.144 -0.3795 -3.1003  1.1653
  907SOL     OW 8556   8.212   4.431   8.322 -0.1095  0.0768  0.0751
  907SOL    HW1 8557   8.181   4.349   8.359  1.5191 -1.0808 -1.0097
  907SOL    HW2 8558   8.145   4.495   8.347 -0.9929 -1.3727  1.6835
  908SOL     OW 8559   3.482   1.330   4.569  0.5893 -0.8877 -0.0008
  908SOL    HW1 8560   3.489   1.423   4.547 -0.7022 -1.2386 -2.1888
  908SOL    HW2 8561   3.554   1.288   4.522  2.3463 -0.8687  2.4695
  909SOL     OW 8562   3.565   1.977   7.377  0.1864  0.2154 -0.0659
  909SOL    HW1 8563   3.493   1.916   7.391 -0.3393  0.5669 -1.1012
  909SOL    HW2 8564   3.528   2.063   7.396 -0.1968  0.5757 -2.1528
  910SOL     OW 8565   5.518   7.950   1.232  0.1383  0.1155 -0.4143
  910SOL    HW1 8566   5.607   7.924   1.256  0.6681  1.4246 -0.8830
  910SOL    HW2 8567   5.484   7.994   1.311  0.9741  2.1666 -1.1242
  911SOL     OW 8568   2.538   3.809   4.465  0.4188 -0.2915  0.5425
  911SOL    HW1 8569   2.623   3.794   4.424  0.8603  1.3735  0.7666
  911SOL    HW2 8570   2.546   3.771   4.552  0.9824 -0.0315  0.6052
  912SOL     OW 8571   1.882   2.013   3.259  0.0712 -0.1489  0.2544
  912SOL    HW1 8572   1.849   2.103   3.253  1.4451  0.4980  1.6367
  912SOL    HW2 8573   1.827   1.972   3.326 -1.5544 -0.8706 -1.4281
  913SOL     OW 8574   5.944   0.480   9.639  0.6116  0.5043  0.9632
  913SOL    HW1 8575   5.992   0.508   9.561 -1.1194 -0.3136 -0.4607
  913SOL    HW2 8576   5.863   0.442   9.605 -0.9332  1.5518  3.2480
  914SOL     OW 8577   4.885   3.637   3.337 -0.5705 -0.3117 -0.2246
  914SOL    HW1 8578   4.978   3.655   3.344 -0.0495 -2.1406 -1.7222
  914SOL    HW2 8579   4.864   3.587   3.417 -0.0811 -0.5811 -0.2634
  915SOL     OW 8580   9.665   1.580   9.360  0.2198 -0.1047  0.0362
  915SOL    HW1 8581   9.594   1.539   9.410 -1.2160  1.3716 -0.6669
  915SOL    HW2 8582   9.719   1.623   9.426 -0.6508  0.3437  0.4889
  916SOL     OW 8583   3.266   0.460   3.394 -0.1743 -0.1645  0.0445
  916SOL    HW1 8584   3.325   0.391   3.423 -0.6356 -0.2811  0.7190
  916SOL    HW2 8585   3.312   0.501   3.320  0.1903 -1.0499 -0.2346
  917SOL     OW 8586   9.079   5.670   1.265  0.5958 -0.6324  0.2149
  917SOL    HW1 8587   9.007   5.663   1.328  1.2672 -0.2244  1.0442
  917SOL    HW2 8588   9.037   5.699   1.184  0.0537  1.5836  1.2132
  918SOL     OW 8589   4.022   4.723   0.334 -0.2237  0.2606 -0.3249
  918SOL    HW1 8590   4.083   4.650   0.335 -0.6142 -0.0890  2.0367
  918SOL    HW2 8591   4.077   4.800   0.325  0.4928 -0.1117  0.7088
  919SOL     OW 8592   8.901   9.445   1.812  0.1411  0.1851 -0.0751
  919SOL    HW1 8593   8.906   9.450   1.908  2.1870  0.3184 -0.1351
  919SOL    HW2 8594   8.870   9.531   1.785  1.7475  0.9637  0.4097
  920SOL     OW 8595   1.744  10.099   6.408 -0.3228  0.0801  0.4006
  920SOL    HW1 8596   1.819  10.124   6.355  0.0433 -1.7763 -0.0317
  920SOL    HW2 8597   1.781  10.064   6.489 -0.6512 -1.2687  0.0030
  921SOL     OW 8598   5.813  10.177   9.722 -0.5698 -0.1388 -0.4096
  921SOL    HW1 8599   5.733  10.143   9.681  0.2214  0.2708 -2.4412
  921SOL    HW2 8600   5.802  10.272   9.722 -0.2152 -0.0966 -0.4334
  922SOL     OW 8601   1.214   3.525   6.779  0.1417 -0.1877 -0.6362
  922SOL    HW1 8602   1.201   3.488   6.867 -1.2414  0.7584 -0.4088
  922SOL    HW2 8603   1.309   3.532   6.771  0.3092 -0.3948  0.7578
  923SOL     OW 8604   8.010   1.394   3.972  0.0291 -0.2724 -0.5872
  923SOL    HW1 8605   8.100   1.420   3.990 -0.3137  0.4196  0.2017
  923SOL    HW2 8606   7.970   1.387   4.059 -0.5202 -1.1593 -0.9029
  924SOL     OW 8607   8.848   2.104   5.718  0.1589  0.2590  0.0759
  924SOL    HW1 8608   8.926   2.075   5.766 -0.5941 -1.4694  0.3164
  924SOL    HW2 8609   8.810   2.024   5.683 -0.8065  1.2140 -1.1477
  925SOL     OW 8610   5.866   4.710  10.550 -0.0536  0.2438  0.2166
  925SOL    HW1 8611   5.910   4.727  10.467  0.0656  0.5267  0.3385
  925SOL    HW2 8612   5.779   4.679  10.525  0.4008 -0.8965 -0.0376
  926SOL     OW 8613   7.661   7.547   6.334 -0.7499  0.0808 -0.6542
  926SOL    HW1 8614   7.705   7.530   6.417 -2.3199  3.0393  0.9443
  926SOL    HW2 8615   7.728   7.590   6.280 -0.5774  1.0998  0.3302
  927SOL     OW 8616   9.558   3.513   7.937 -0.5259 -0.2381 -0.7350
  927SOL    HW1 8617   9.619   3.515   7.862 -1.4391 -0.7679 -1.5087
  927SOL    HW2 8618   9.503   3.590   7.924 -0.1125  0.1861 -0.0836
  928SOL     OW 8619   8.734   3.998   9.686 -0.3106 -0.7549 -0.4765
  928SOL    HW1 8620   8.748   3.931   9.753 -0.1548 -1.7682 -1.4866
  928SOL    HW2 8621   8.644   4.028   9.700 -0.0352 -0.4063  0.6445
  929SOL     OW 8622   5.381   2.256   9.426 -0.8466  0.1818  0.3866
  929SOL    HW1 8623   5.338   2.341   9.419 -0.2711  0.5737  1.4004
  929SOL    HW2 8624   5.311   2.195   9.449 -0.8287  0.8991  2.5177
  930SOL     OW 8625   8.897   1.407   1.847  0.2495  0.1834 -0.7304
  930SOL    HW1 8626   8.963   1.411   1.916 -0.8993 -0.1561  0.4265
  930SOL    HW2 8627   8.874   1.499   1.832 -0.6560  0.1917  0.5303
  931SOL     OW 8628   1.353   1.107   9.954 -0.1898 -0.0512  0.0757
  931SOL    HW1 8629   1.347   1.086  10.048 -0.2740  0.7593  0.2596
  931SOL    HW2 8630   1.263   1.128   9.930 -0.4691 -1.8641 -0.5913
  932SOL     OW 8631   1.549   1.648   8.159  0.0801 -0.1408 -0.7591
  932SOL    HW1 8632   1.600   1.707   8.214  0.1429 -1.4477  0.6739
  932SOL    HW2 8633   1.460   1.652   8.195 -1.4920  3.5205 -4.3719
  933SOL     OW 8634   2.126  10.689   8.315  0.2430  0.9551  0.5305
  933SOL    HW1 8635   2.048  10.702   8.368 -0.6239 -0.1676 -0.4379
  933SOL    HW2 8636   2.199  10.700   8.377 -0.7455 -2.2052  2.4665
  934SOL     OW 8637   6.272   9.239   7.025  0.1980 -0.4922  0.8009
  934SOL    HW1 8638   6.313   9.229   6.939  1.9608  2.4619  1.1807
  934SOL    HW2 8639   6.178   9.237   7.006  0.5370 -0.3102 -1.1370
  935SOL     OW 8640  10.158   9.025   3.636 -0.7164  0.2201 -0.2903
  935SOL    HW1 8641  10.211   8.962   3.586 -1.6244 -0.6682 -0.1515
  935SOL    HW2 8642  10.169   9.000   3.727  0.8407  1.7689  0.0107
  936SOL     OW 8643   7.763   8.681   9.559  0.0843  0.5465 -0.2288
  936SOL    HW1 8644   7.830   8.616   9.580 -0.4176 -0.1011 -0.6029
  936SOL    HW2 8645   7.788   8.715   9.473 -0.2710  0.0348 -0.5364
  937SOL     OW 8646   8.835   0.991   3.339 -0.2872  0.6625 -0.3429
  937SOL    HW1 8647   8.906   1.036   3.293  2.8546 -1.8727  1.5471
  937SOL    HW2 8648   8.810   1.051   3.409  0.4483  1.3637 -0.6654
  938SOL     OW 8649   6.287   4.336   6.708 -0.0287 -0.0793  0.1432
  938SOL    HW1 8650   6.358   4.386   6.748  0.7991  1.0821 -2.4890
  938SOL    HW2 8651   6.251   4.395   6.642 -0.2384 -2.2625 -1.8576
  939SOL     OW 8652   6.509   3.420   3.523 -0.5755  0.4496 -0.6071
  939SOL    HW1 8653   6.485   3.512   3.535  0.3512  0.5315  0.7931
  939SOL    HW2 8654   6.434   3.372   3.559 -1.0358  0.6281 -1.2884
  940SOL     OW 8655   0.610   2.121   3.421  0.0460  0.3087  0.7640
  940SOL    HW1 8656   0.638   2.032   3.441 -1.4059  0.1388  2.3018
  940SOL    HW2 8657   0.553   2.112   3.344  0.2514 -0.0196  0.6515
  941SOL     OW 8658   2.254   1.219   2.179  0.2874 -0.3299 -0.1840
  941SOL    HW1 8659   2.211   1.256   2.257 -0.9318  1.0884 -1.4702
  941SOL    HW2 8660   2.264   1.293   2.120 -1.0840 -1.8025 -2.3790
  942SOL     OW 8661   3.480   0.297   3.471  0.0874 -0.4763  0.3134
  942SOL    HW1 8662   3.488   0.246   3.551 -0.4070 -1.4574 -0.2468
  942SOL    HW2 8663   3.570   0.310   3.441  0.2539 -0.3652  0.8521
  943SOL     OW 8664   3.588   5.463   7.653 -0.3974 -0.3720 -0.0257
  943SOL    HW1 8665   3.515   5.465   7.715 -0.6341 -1.2404 -0.2679
  943SOL    HW2 8666   3.548   5.479   7.568 -0.2282 -0.3668 -0.1058
  944SOL     OW 8667   3.213   7.961   5.106 -0.2848 -0.1019 -0.3647
  944SOL    HW1 8668   3.221   8.053   5.130  1.4052  0.0982 -1.5391
  944SOL    HW2 8669   3.174   7.962   5.018  2.3397 -0.2790 -1.6374
  945SOL     OW 8670  10.382   5.509   0.601 -0.6455 -0.6264  0.4614
  945SOL    HW1 8671  10.318   5.580   0.590 -0.6903 -0.7266  0.0706
  945SOL    HW2 8672  10.359   5.469   0.685 -0.3072  0.1406  0.9359
  946SOL     OW 8673   6.224   0.269   5.353  0.1241 -0.1714  0.4748
  946SOL    HW1 8674   6.290   0.250   5.419  0.3010  0.7768  0.5838
  946SOL    HW2 8675   6.180   0.185   5.339  0.6473 -0.5775  1.1667
  947SOL     OW 8676   6.816   2.745   5.703 -0.0903  0.1375 -0.7082
  947SOL    HW1 8677   6.726   2.714   5.716 -0.9181  2.8780  1.0715
  947SOL    HW2 8678   6.861   2.672   5.662 -2.6186 -2.1097  0.2180
  948SOL     OW 8679   2.540   6.596   4.144  0.0348  0.0262 -0.0855
  948SOL    HW1 8680   2.472   6.575   4.079  1.3842 -0.4379 -1.4016
  948SOL    HW2 8681   2.572   6.683   4.119  2.0312 -1.0161 -1.4303
  949SOL     OW 8682   0.485   4.187   8.938 -0.2433  0.1077 -0.2485
  949SOL    HW1 8683   0.410   4.133   8.916  0.0985  0.3291 -2.0782
  949SOL    HW2 8684   0.561   4.133   8.916  0.3392 -1.0403  3.6646
  950SOL     OW 8685   8.987  10.206  10.002 -0.2915 -0.4065  0.2437
  950SOL    HW1 8686   8.915  10.226   9.942  0.0118 -0.8255 -0.2645
  950SOL    HW2 8687   9.021  10.292  10.028  2.0994 -0.0985 -3.2309
  951SOL     OW 8688  10.472   3.705   0.102 -0.1882  0.3022 -0.3632
  951SOL    HW1 8689  10.523   3.762   0.045 -0.0490  1.7666  1.1611
  951SOL    HW2 8690  10.524   3.624   0.107 -0.0478  0.2563 -1.9925
  952SOL     OW 8691  10.703   8.311   0.230  0.5721 -0.3765 -0.0650
  952SOL    HW1 8692  10.764   8.246   0.196 -0.6647 -0.7971 -1.6131
  952SOL    HW2 8693  10.692   8.288   0.322  3.4432  0.3173  0.5452
  953SOL     OW 8694   4.590   6.067   0.724 -0.0506 -0.7567  0.3708
  953SOL    HW1 8695   4.636   6.116   0.656 -1.1848  0.4072  0.3962
  953SOL    HW2 8696   4.508   6.041   0.684  0.4548 -2.5331  0.4234
  954SOL     OW 8697   4.948   4.733   6.981 -0.0176 -0.0608 -0.0581
  954SOL    HW1 8698   4.990   4.726   7.067  2.3989  0.8573 -1.0480
  954SOL    HW2 8699   4.961   4.647   6.941 -0.5197 -0.2754  0.2408
  955SOL     OW 8700   2.169   5.069   9.542 -0.0590 -0.1444 -0.2891
  955SOL    HW1 8701   2.130   5.122   9.472 -0.5392  0.8258  0.6937
  955SOL    HW2 8702   2.218   5.131   9.595  1.1298 -1.0321 -0.2996
  956SOL     OW 8703   9.469   5.404   5.210 -0.4820  0.2200  0.2563
  956SOL    HW1 8704   9.555   5.365   5.227 -0.6468 -1.5211 -2.2373
  956SOL    HW2 8705   9.414   5.370   5.280 -0.1246 -2.5882 -0.6723
  957SOL     OW 8706   7.822   4.190   9.615 -0.3283 -0.1488  0.1760
  957SOL    HW1 8707   7.873   4.144   9.682 -0.5949 -1.5314 -0.5435
  957SOL    HW2 8708   7.883   4.200   9.542 -0.3242  0.5098  0.2670
  958SOL     OW 8709   7.279   7.053   4.111 -0.1393 -0.0721  0.5335
  958SOL    HW1 8710   7.244   6.970   4.079 -0.9660  0.1533  0.8319
  958SOL    HW2 8711   7.371   7.052   4.083 -0.5996 -0.2537 -1.0862
  959SOL     OW 8712   7.505   3.211   3.062 -0.2235 -0.3753 -0.3819
  959SOL    HW1 8713   7.421   3.253   3.079 -1.2704 -2.2694 -0.6361
  959SOL    HW2 8714   7.551   3.214   3.146  0.5601  2.8226 -0.7788
  960SOL     OW 8715   2.027   3.651   0.544  0.3950 -0.2466  0.1833
  960SOL    HW1 8716   1.990   3.563   0.555  0.5930 -0.0387  3.5508
  960SOL    HW2 8717   2.122   3.637   0.550  0.5471  0.0269 -1.2584
  961SOL     OW 8718   1.914   7.762   8.499  0.4418  0.1719  0.2422
  961SOL    HW1 8719   1.876   7.849   8.510  1.8940  0.8927 -0.1724
  961SOL    HW2 8720   1.870   7.728   8.421 -0.3469  0.3955  0.5683
  962SOL     OW 8721   6.286   2.376   0.305 -0.0504  0.3111 -0.0552
  962SOL    HW1 8722   6.266   2.395   0.213 -0.9438  1.6242  0.3808
  962SOL    HW2 8723   6.332   2.454   0.337 -0.0971  0.0366  0.7113
  963SOL     OW 8724   9.927  10.002   2.278 -0.4839 -0.3910 -0.2609
  963SOL    HW1 8725   9.995   9.944   2.244  0.9736 -0.2101  2.1255
  963SOL    HW2 8726   9.914   9.974   2.368 -1.2400  1.6371  0.3200
  964SOL     OW 8727  10.488  10.214   0.027  0.2437 -0.0583  0.2212
  964SOL    HW1 8728  10.406  10.178  -0.007  1.0368 -1.7740  0.0340
  964SOL    HW2 8729  10.556  10.155  -0.006  1.3552  0.0610  2.1390
  965SOL     OW 8730   2.038  10.213   7.818 -0.3400 -0.7606  0.2106
  965SOL    HW1 8731   2.026  10.244   7.908 -1.6445 -0.0164 -0.1948
  965SOL    HW2 8732   2.103  10.143   7.826 -0.0793 -0.3976  1.6638
  966SOL     OW 8733   9.792   1.577   5.447 -0.1808 -0.2571 -0.1329
  966SOL    HW1 8734   9.868   1.622   5.411  0.7974 -1.0452  0.8601
  966SOL    HW2 8735   9.829   1.510   5.505 -1.6372 -0.6575  0.3853
  967SOL     OW 8736   0.625   8.655   0.606 -0.1846  0.4096 -0.2357
  967SOL    HW1 8737   0.548   8.600   0.623  0.2223  0.4321  1.9184
  967SOL    HW2 8738   0.589   8.736   0.571 -1.4383  1.2722  2.7309
  968SOL     OW 8739   5.907  10.033   7.574  0.6020 -0.0370  0.2721
  968SOL    HW1 8740   5.918  10.116   7.621 -2.3523  0.0701  0.9519
  968SOL    HW2 8741   5.822  10.041   7.531  0.2999 -2.6712  0.2526
  969SOL     OW 8742   3.596   8.564   9.240  0.0488 -0.7606 -0.9477
  969SOL    HW1 8743   3.503   8.553   9.220 -0.7976  3.2486 -0.1410
  969SOL    HW2 8744   3.633   8.602   9.160  1.0380 -2.2000 -1.2113
  970SOL     OW 8745   0.722   9.488   8.167 -0.2624 -0.2656 -0.3153
  970SOL    HW1 8746   0.723   9.453   8.256  0.6584 -0.5981 -0.4443
  970SOL    HW2 8747   0.742   9.413   8.111 -0.6170 -0.0155 -0.7878
  971SOL     OW 8748  10.296   8.428   7.606 -0.3215  0.3512 -0.9603
  971SOL    HW1 8749  10.282   8.395   7.695 -0.5012  0.3503 -0.9889
  971SOL    HW2 8750  10.208   8.435   7.569 -0.1820 -0.9776 -1.6239
  972SOL     OW 8751   9.989   8.689   3.940  0.3543 -1.0217 -0.4231
  972SOL    HW1 8752   9.978   8.715   3.848  1.3782  2.1004  0.2196
  972SOL    HW2 8753  10.043   8.611   3.936 -2.8223 -3.3624 -2.5532
  973SOL     OW 8754   1.417   2.657   2.577 -0.3150 -0.4727  0.2688
  973SOL    HW1 8755   1.501   2.616   2.597 -1.0125 -1.9693  0.2847
  973SOL    HW2 8756   1.419   2.671   2.482 -0.0233 -0.4549  0.2770
  974SOL     OW 8757   1.609   0.903  10.596 -0.1388  0.4169 -0.3856
  974SOL    HW1 8758   1.532   0.848  10.613 -1.3478  2.0853 -0.2385
  974SOL    HW2 8759   1.596   0.935  10.507 -1.2831  3.1454  0.6414
  975SOL     OW 8760   0.290   3.939   3.596 -0.1608 -0.0655  0.2619
  975SOL    HW1 8761   0.351   3.894   3.538 -1.8826  0.7670 -2.3271
  975SOL    HW2 8762   0.277   3.877   3.668  0.5514 -2.0060 -1.1860
  976SOL     OW 8763  10.246   7.577   0.202  0.6595 -0.2386 -0.1297
  976SOL    HW1 8764  10.250   7.574   0.297  0.1961  2.5958  0.0893
  976SOL    HW2 8765  10.161   7.538   0.180  0.3072  0.0151  0.7362
  977SOL     OW 8766   0.740   9.434   3.964  0.1936  0.4297  0.0669
  977SOL    HW1 8767   0.770   9.523   3.983 -2.1550  1.6391 -1.3610
  977SOL    HW2 8768   0.750   9.426   3.869  1.4508 -1.3153  0.3064
  978SOL     OW 8769   4.129   2.553   1.244 -0.2377 -0.1076  0.7052
  978SOL    HW1 8770   4.174   2.513   1.170 -1.8328 -0.0392 -0.3383
  978SOL    HW2 8771   4.154   2.500   1.319  0.2559 -1.0650 -0.1250
  979SOL     OW 8772   9.777   5.167   0.819  0.3723  0.0155 -0.0400
  979SOL    HW1 8773   9.826   5.234   0.866  0.3031  1.9652 -2.5055
  979SOL    HW2 8774   9.778   5.196   0.728 -1.2112 -2.4536 -0.9638
  980SOL     OW 8775   3.655   5.848   6.343  0.8359  0.7982  0.0611
  980SOL    HW1 8776   3.665   5.890   6.429 -0.1043 -2.4320  1.9340
  980SOL    HW2 8777   3.561   5.852   6.326  0.9814  1.1258 -0.6965
  981SOL     OW 8778   1.787   2.419   2.080  0.1475  0.0503  0.0021
  981SOL    HW1 8779   1.797   2.484   2.010  3.6152 -0.8918 -0.5695
  981SOL    HW2 8780   1.720   2.359   2.048 -1.1928  1.8286 -0.6687
  982SOL     OW 8781   9.239   3.027   5.006 -0.3819  1.0218  0.1367
  982SOL    HW1 8782   9.225   3.094   5.073 -2.0379  0.2803  0.6016
  982SOL    HW2 8783   9.306   3.063   4.949  1.3302  1.5502  2.3493
  983SOL     OW 8784   0.776   4.661   8.076  0.0524 -0.2668 -0.3539
  983SOL    HW1 8785   0.864   4.635   8.105 -0.2538 -0.5624  0.3421
  983SOL    HW2 8786   0.790   4.739   8.023  0.6097  0.5919  1.0065
  984SOL     OW 8787   2.217   2.739   8.663 -0.0891 -0.2535 -0.0302
  984SOL    HW1 8788   2.274   2.680   8.711  0.0832 -0.8286 -0.9179
  984SOL    HW2 8789   2.129   2.706   8.679 -0.3914  1.4849  2.5402
  985SOL     OW 8790   3.791   9.908   9.297  0.5602 -0.1781  0.3811
  985SOL    HW1 8791   3.768   9.883   9.208 -0.3657 -1.0797  0.8578
  985SOL    HW2 8792   3.797  10.004   9.294 -1.1915 -0.0451 -0.2819
  986SOL     OW 8793   3.377   1.234   3.887  0.0292 -0.0405  0.2226
  986SOL    HW1 8794   3.340   1.186   3.813  1.6517 -1.5809  0.3352
  986SOL    HW2 8795   3.302   1.274   3.930 -1.0203  0.3367 -1.8570
  987SOL     OW 8796   8.109   8.033   1.185  0.1048 -0.0820 -0.2181
  987SOL    HW1 8797   8.095   7.991   1.100  0.3242 -1.3261  0.3314
  987SOL    HW2 8798   8.074   7.970   1.248  2.8215 -0.6721  0.8264
  988SOL     OW 8799   0.823   0.298   3.508 -0.1260 -0.1909 -0.7822
  988SOL    HW1 8800   0.826   0.202   3.512  1.7566 -0.1967 -1.1956
  988SOL    HW2 8801   0.900   0.322   3.456 -0.3357  1.5669 -0.3422
  989SOL     OW 8802   0.804   1.635   3.315 -0.0749  0.3157 -0.0562
  989SOL    HW1 8803   0.779   1.559   3.367  1.3770 -2.3520 -2.8934
  989SOL    HW2 8804   0.896   1.651   3.338  0.3059 -0.3170 -1.0501
  990SOL     OW 8805   5.238   3.288   0.480  0.6470 -0.1527  0.2138
  990SOL    HW1 8806   5.298   3.218   0.456 -1.4368 -2.0236  0.1551
  990SOL    HW2 8807   5.269   3.365   0.433  2.3567 -1.3056 -0.6070
  991SOL     OW 8808   9.328   9.180  10.490  0.6766 -0.6266  0.2588
  991SOL    HW1 8809   9.361   9.126  10.418  2.4832  1.0587 -0.2777
  991SOL    HW2 8810   9.286   9.255  10.448 -0.4827 -0.8447  0.9794
  992SOL     OW 8811   7.572   7.986   8.312 -0.0670  0.2939 -0.3437
  992SOL    HW1 8812   7.516   8.008   8.386 -0.4275  0.1544 -0.5749
  992SOL    HW2 8813   7.519   7.929   8.256 -0.5110  1.9747 -1.7183
  993SOL     OW 8814   0.678   5.519   1.501  0.1449 -0.4975  0.4608
  993SOL    HW1 8815   0.633   5.523   1.585 -1.2876 -0.5263 -0.2597
  993SOL    HW2 8816   0.738   5.444   1.509 -0.7000 -1.1251  1.1228
  994SOL     OW 8817   1.715   1.936   0.893 -0.3848  0.5181 -0.7858
  994SOL    HW1 8818   1.730   2.025   0.862  1.7935  0.8437  0.9427
  994SOL    HW2 8819   1.651   1.945   0.963 -1.9785  0.3427 -2.1495
  995SOL     OW 8820   1.854   7.394   3.404  0.0246 -0.2214 -0.1072
  995SOL    HW1 8821   1.931   7.339   3.417 -0.2093 -0.3972  0.5883
  995SOL    HW2 8822   1.877   7.452   3.331  0.7840 -0.3222  0.0508
  996SOL     OW 8823   2.276   0.144   4.719 -0.0417 -0.3809 -0.1816
  996SOL    HW1 8824   2.335   0.071   4.697 -0.9899 -1.1989 -0.0885
  996SOL    HW2 8825   2.219   0.153   4.643  0.6566  0.9108 -0.5836
  997SOL     OW 8826   7.818   4.395   3.622  0.0101 -0.0936 -0.1342
  997SOL    HW1 8827   7.787   4.305   3.609 -0.7114 -0.0979  1.2972
  997SOL    HW2 8828   7.741   4.449   3.605 -0.1233  0.0858  0.9454
  998SOL     OW 8829   9.051   4.716   4.911  0.0397 -0.0680  0.2736
  998SOL    HW1 8830   9.062   4.789   4.973 -0.0337 -1.3279  1.8549
  998SOL    HW2 8831   9.118   4.653   4.937  0.7521 -0.1746 -1.7048
  999SOL     OW 8832   3.696   8.067   6.713 -0.3383  0.5094  0.2155
  999SOL    HW1 8833   3.606   8.087   6.688 -0.0291  1.8572  0.1052
  999SOL    HW2 8834   3.688   7.999   6.780 -1.7431  3.6652  3.5769
 1000SOL     OW 8835   9.765   9.501   8.878 -0.5114 -0.6320 -0.1781
 1000SOL    HW1 8836   9.706   9.426   8.873 -1.4233  0.1214 -1.2187
 1000SOL    HW2 8837   9.718   9.572   8.834  1.3242 -0.1189 -1.4318
 1001SOL     OW 8838   5.385   2.905   5.614  0.3377 -0.2848 -0.0704
 1001SOL    HW1 8839   5.468   2.952   5.608  0.5912 -0.9048 -2.5910
 1001SOL    HW2 8840   5.394   2.833   5.551 -2.2638 -0.0697 -0.7995
 1002SOL     OW 8841   9.370   1.280   8.137  0.0550  0.1061 -0.5964
 1002SOL    HW1 8842   9.397   1.189   8.125  1.6039  0.1610  1.8753
 1002SOL    HW2 8843   9.446   1.332   8.112 -0.6257  0.7275 -1.4442
 1003SOL     OW 8844   7.528   0.570   1.723  0.7257  0.2013 -0.2644
 1003SOL    HW1 8845   7.462   0.555   1.791  0.3906 -0.3065 -0.6926
 1003SOL    HW2 8846   7.585   0.493   1.727  1.4980  0.7789  0.3143
 1004SOL     OW 8847   2.681   4.311   9.455  0.2140  0.2994 -0.1575
 1004SOL    HW1 8848   2.745   4.358   9.402  0.4093 -0.8709 -1.0159
 1004SOL    HW2 8849   2.684   4.353   9.540  2.0220  0.3698 -0.2224
 1005SOL     OW 8850   3.413   7.152   2.248 -0.0040  0.1013  0.6399
 1005SOL    HW1 8851   3.474   7.217   2.214 -0.6675  1.4289  1.8505
 1005SOL    HW2 8852   3.398   7.092   2.175  0.7630  1.2134 -0.4740
 1006SOL     OW 8853   4.022   0.129   9.537 -0.5270 -0.1415  0.1195
 1006SOL    HW1 8854   4.005   0.151   9.445  1.7166 -1.4443 -0.6938
 1006SOL    HW2 8855   3.967   0.053   9.554  2.4657 -3.0282 -1.8163
 1007SOL     OW 8856   4.835   6.114  10.357 -0.4527 -0.3062  0.1599
 1007SOL    HW1 8857   4.852   6.173  10.431 -0.9281  1.0645 -0.7745
 1007SOL    HW2 8858   4.740   6.115  10.346 -0.4127 -0.7556 -0.2620
 1008SOL     OW 8859   3.881   3.393   4.774  0.1061  0.1205 -0.2908
 1008SOL    HW1 8860   3.865   3.445   4.853 -0.1518  0.6330 -0.6677
 1008SOL    HW2 8861   3.887   3.303   4.805  2.5719  0.5477  0.6416
 1009SOL     OW 8862   2.739   4.399   1.910  0.1550 -0.0032  0.5218
 1009SOL    HW1 8863   2.699   4.467   1.966 -0.1717 -0.4190  0.8001
 1009SOL    HW2 8864   2.695   4.410   1.826  0.8692  0.8305  0.2409
 1010SOL     OW 8865   2.117   6.778   8.009  0.5325 -0.3596 -0.5525
 1010SOL    HW1 8866   2.098   6.685   7.998  2.2013 -0.9553  1.0651
 1010SOL    HW2 8867   2.168   6.802   7.932  0.8856 -1.0404 -0.5374
 1011SOL     OW 8868   1.559   8.954   8.968  0.0146 -0.4474 -0.3490
 1011SOL    HW1 8869   1.605   8.883   9.013 -0.1125  0.7603  1.8172
 1011SOL    HW2 8870   1.629   9.015   8.943 -0.1843  0.7104  1.6984
 1012SOL     OW 8871   4.708   4.864   6.907  0.7839 -0.5418 -0.2469
 1012SOL    HW1 8872   4.783   4.821   6.948  1.7367  1.3912  0.1107
 1012SOL    HW2 8873   4.724   4.853   6.813  0.9557 -1.0293 -0.1680
 1013SOL     OW 8874   4.394   6.431   0.064 -0.1249  0.2739 -0.7134
 1013SOL    HW1 8875   4.468   6.422   0.004  0.9137  0.2023  0.5118
 1013SOL    HW2 8876   4.434   6.423   0.151 -1.5591  0.4422 -0.0162
 1014SOL     OW 8877   0.929   6.024   2.521 -0.4559  0.1702 -0.4912
 1014SOL    HW1 8878   0.975   5.943   2.500  0.5294  0.5296  0.2230
 1014SOL    HW2 8879   0.856   5.996   2.577  0.8413 -0.0904  1.1446
 1015SOL     OW 8880   1.411   1.471   6.865  0.0561 -0.2943 -0.4426
 1015SOL    HW1 8881   1.364   1.482   6.783  0.4472 -0.3496 -0.6788
 1015SOL    HW2 8882   1.345   1.441   6.927 -0.0428 -1.3126 -1.0038
 1016SOL     OW 8883   8.231  10.705   4.762 -0.8350  0.1907 -0.3357
 1016SOL    HW1 8884   8.199  10.747   4.683  1.2372 -0.5311 -1.6325
 1016SOL    HW2 8885   8.203  10.613   4.754  2.0264 -0.6721 -1.9291
 1017SOL     OW 8886   2.172   0.321   8.855 -0.4477  0.4069  0.0622
 1017SOL    HW1 8887   2.156   0.391   8.791  0.1713  0.8200  0.3533
 1017SOL    HW2 8888   2.086   0.303   8.892 -0.7980  0.2576 -0.7827
 1018SOL     OW 8889   4.152   0.828   2.771  0.1404 -0.3153  1.0762
 1018SOL    HW1 8890   4.176   0.909   2.816 -0.8244  0.0118  1.0225
 1018SOL    HW2 8891   4.119   0.771   2.841  0.0489 -0.3548  1.0015
 1019SOL     OW 8892   2.021  10.690   3.947 -0.3550  0.9414  0.0363
 1019SOL    HW1 8893   1.928  10.676   3.933 -0.0365 -2.8867  0.7601
 1019SOL    HW2 8894   2.056  10.710   3.860 -1.3804 -1.4050 -0.9984
 1020SOL     OW 8895   8.582   7.850   4.971  1.1613 -0.2488 -0.0015
 1020SOL    HW1 8896   8.594   7.854   4.876  0.8068 -0.5004 -0.0589
 1020SOL    HW2 8897   8.645   7.913   5.006 -0.9050  2.3079 -0.5809
 1021SOL     OW 8898   3.381   5.666   9.889 -0.0277  0.0665 -0.5158
 1021SOL    HW1 8899   3.305   5.621   9.926 -0.6005  1.0407 -0.4673
 1021SOL    HW2 8900   3.344   5.740   9.841  0.9752  1.9651  1.4560
 1022SOL     OW 8901   7.857   1.786   7.278  0.2348 -0.7613  0.1129
 1022SOL    HW1 8902   7.877   1.807   7.369  1.0133  0.2462 -0.2641
 1022SOL    HW2 8903   7.762   1.781   7.274  0.1416  0.1442  0.7996
 1023SOL     OW 8904   4.098   7.071   1.257  0.0620  0.4043 -0.5364
 1023SOL    HW1 8905   4.064   7.078   1.346 -0.2886 -0.9384 -0.5409
 1023SOL    HW2 8906   4.022   7.047   1.204  0.7416 -1.5043 -0.7293
 1024SOL     OW 8907   3.225   3.808   1.179  0.4123  0.0550 -0.0669
 1024SOL    HW1 8908   3.202   3.736   1.237  1.0270  0.4640  0.6935
 1024SOL    HW2 8909   3.320   3.804   1.171  0.3755  0.2571 -0.7224
 1025SOL     OW 8910  10.253   1.005  10.194 -0.2534 -0.4294 -0.0388
 1025SOL    HW1 8911  10.298   0.928  10.229  2.0907  0.5828 -0.6137
 1025SOL    HW2 8912  10.246   0.987  10.100 -0.5038 -0.3100 -0.0429
 1026SOL     OW 8913   9.178   2.137   0.104  0.2479 -0.0980 -0.2540
 1026SOL    HW1 8914   9.176   2.233   0.103  0.5767 -0.0141 -3.3104
 1026SOL    HW2 8915   9.089   2.112   0.079  0.0494 -0.6357  0.9358
 1027SOL     OW 8916   3.543   7.967   2.311  1.3258 -0.2419 -0.5291
 1027SOL    HW1 8917   3.453   7.961   2.281  1.3038 -0.2388 -0.4646
 1027SOL    HW2 8918   3.550   8.055   2.350  1.2559 -0.3773 -0.2090
 1028SOL     OW 8919  10.021   2.464  10.711  0.2386  0.0856  0.4208
 1028SOL    HW1 8920  10.084   2.529  10.741 -0.0309  1.4566 -1.7894
 1028SOL    HW2 8921  10.062   2.426  10.633 -0.8454 -0.3551  0.0512
 1029SOL     OW 8922   9.019   8.565  10.674  0.1693  0.2138  0.2935
 1029SOL    HW1 8923   8.998   8.561  10.580 -0.0617 -2.8644  0.3760
 1029SOL    HW2 8924   9.114   8.559  10.678  0.1557 -0.0446  0.2535
 1030SOL     OW 8925   3.949   7.644   9.360  0.6528  0.1508  0.4077
 1030SOL    HW1 8926   3.955   7.573   9.424 -0.5931 -0.2096  0.1571
 1030SOL    HW2 8927   3.923   7.720   9.412 -0.1554 -0.0937  0.3801
 1031SOL     OW 8928   7.841   1.964   9.730  0.4019 -0.2878 -0.1283
 1031SOL    HW1 8929   7.859   1.966   9.824  1.0329  3.0741 -0.1853
 1031SOL    HW2 8930   7.746   1.959   9.724  0.3563 -0.6240  0.6804
 1032SOL     OW 8931  10.019   1.881   6.381 -0.2704 -0.1962 -0.6702
 1032SOL    HW1 8932   9.928   1.911   6.370 -0.3522 -0.4403 -0.6650
 1032SOL    HW2 8933  10.069   1.961   6.398 -0.6158 -0.1489  0.1670
 1033SOL     OW 8934   8.577   1.077  10.264  0.2403  0.0289  0.3226
 1033SOL    HW1 8935   8.492   1.034  10.260  0.7233 -0.8684 -0.7759
 1033SOL    HW2 8936   8.623   1.034  10.335 -0.4721  1.0507  1.4525
 1034SOL     OW 8937  10.621   6.980   1.327  0.3452  0.0975  0.6620
 1034SOL    HW1 8938  10.636   6.895   1.369  0.3421 -0.3091 -0.1365
 1034SOL    HW2 8939  10.698   6.994   1.273  0.6563  0.9345  1.3004
 1035SOL     OW 8940   7.990   9.503   6.905 -0.0570  0.1310 -0.3741
 1035SOL    HW1 8941   8.078   9.499   6.944 -0.0035 -2.9918 -0.5600
 1035SOL    HW2 8942   7.932   9.472   6.974 -0.6900 -0.1767 -1.0397
 1036SOL     OW 8943   9.551   2.639   4.676 -0.3781 -0.1413 -0.4229
 1036SOL    HW1 8944   9.520   2.700   4.742  1.4694 -0.7927  1.1434
 1036SOL    HW2 8945   9.535   2.552   4.715 -0.9082 -0.6057 -1.6314
 1037SOL     OW 8946   6.038   8.079   1.476 -0.1397 -0.0700  0.4790
 1037SOL    HW1 8947   6.100   8.072   1.403 -0.6389 -0.5431  0.0892
 1037SOL    HW2 8948   5.992   8.161   1.461  0.3451  0.2507  0.7340
 1038SOL     OW 8949   6.537   5.583   1.410  0.0067  0.0381 -0.4286
 1038SOL    HW1 8950   6.521   5.489   1.401  0.9517 -0.1350 -0.4121
 1038SOL    HW2 8951   6.591   5.591   1.489 -1.2681  0.7444  0.4230
 1039SOL     OW 8952   2.476   7.150   5.639 -0.3591  0.2163 -0.5358
 1039SOL    HW1 8953   2.508   7.082   5.579 -0.5264 -0.2640 -0.0912
 1039SOL    HW2 8954   2.410   7.197   5.588 -1.3994 -0.9767 -0.3686
 1040SOL     OW 8955   3.689   0.111   5.354  0.0458 -0.1397 -0.6225
 1040SOL    HW1 8956   3.657   0.152   5.273 -0.4759  0.5729 -0.0643
 1040SOL    HW2 8957   3.624   0.134   5.420 -0.6976 -2.5284 -0.4242
 1041SOL     OW 8958  10.191  10.479   2.479 -1.0363  0.4854  0.0280
 1041SOL    HW1 8959  10.140  10.406   2.515  0.9407 -0.9875  0.0263
 1041SOL    HW2 8960  10.230  10.521   2.555  0.5042 -0.5971 -0.1079
 1042SOL     OW 8961  10.305   3.962   0.473  0.4940  0.1787  0.5710
 1042SOL    HW1 8962  10.270   4.037   0.425  0.9991 -0.1375 -0.3295
 1042SOL    HW2 8963  10.236   3.896   0.468  0.7312 -0.0327 -0.1991
 1043SOL     OW 8964  10.676   5.564   3.554  0.0112 -0.5154  0.4348
 1043SOL    HW1 8965  10.655   5.649   3.517  1.0547  0.0474  1.0809
 1043SOL    HW2 8966  10.753   5.534   3.506 -0.6086 -1.3067 -0.0871
 1044SOL     OW 8967   2.755   7.380   4.690  0.1239  0.5388  0.6020
 1044SOL    HW1 8968   2.806   7.306   4.657  1.0517  0.4834  2.0383
 1044SOL    HW2 8969   2.791   7.396   4.778 -1.8119  1.0291  1.3563
 1045SOL     OW 8970   6.625   1.770   6.576 -0.0792 -0.1956  0.2904
 1045SOL    HW1 8971   6.712   1.807   6.563  0.3359 -1.2826 -0.1364
 1045SOL    HW2 8972   6.583   1.829   6.639  1.4125 -0.3590  1.4911
 1046SOL     OW 8973   7.811   4.184   4.855  0.0090 -0.1948 -0.6326
 1046SOL    HW1 8974   7.720   4.171   4.830  0.1753  2.2377 -2.8524
 1046SOL    HW2 8975   7.806   4.222   4.943 -0.8763 -2.9691  0.6382
 1047SOL     OW 8976   2.371   8.297   6.944 -0.1019 -0.2661 -0.3003
 1047SOL    HW1 8977   2.389   8.320   7.035  2.3310 -1.1183 -0.4799
 1047SOL    HW2 8978   2.322   8.215   6.948  0.0933 -0.3558  0.2520
 1048SOL     OW 8979  10.687   8.974   6.084  0.0499 -0.3744  0.5382
 1048SOL    HW1 8980  10.758   8.947   6.144 -0.4513 -1.4977  0.6569
 1048SOL    HW2 8981  10.622   8.904   6.092 -0.7116  0.2393 -0.1849
 1049SOL     OW 8982  10.667   0.739   2.402 -0.1218  0.0592  0.1292
 1049SOL    HW1 8983  10.654   0.825   2.362 -0.7109  0.3568  0.9123
 1049SOL    HW2 8984  10.599   0.684   2.363 -0.2080  0.1427  0.1618
 1050SOL     OW 8985   5.937   9.405   2.033  0.2737  0.5258  0.6997
 1050SOL    HW1 8986   5.857   9.370   2.072  0.2180 -1.1059 -0.7197
 1050SOL    HW2 8987   5.941   9.496   2.061 -2.7274  1.0131 -0.1813
 1051SOL     OW 8988  10.397   7.151   6.589  0.3327 -0.0507 -0.1779
 1051SOL    HW1 8989  10.483   7.160   6.549  0.2540 -0.2496 -0.3951
 1051SOL    HW2 8990  10.368   7.063   6.565 -1.1259  0.9570 -2.4836
 1052SOL     OW 8991   0.339   0.473   7.195  0.6685  0.2855 -0.6844
 1052SOL    HW1 8992   0.303   0.400   7.244  1.7015 -0.1453 -0.5638
 1052SOL    HW2 8993   0.316   0.454   7.104  1.3847 -0.4620 -0.7157
 1053SOL     OW 8994   7.893   0.001   9.053 -0.2144  0.3685 -0.3372
 1053SOL    HW1 8995   7.864   0.034   9.138 -2.6117 -2.5964  0.1945
 1053SOL    HW2 8996   7.963  -0.061   9.074 -0.4270  0.0436 -0.5763
 1054SOL     OW 8997   8.471  10.282   8.558 -0.2217 -0.2428  0.5922
 1054SOL    HW1 8998   8.543  10.345   8.558 -0.8437  0.4910  0.3830
 1054SOL    HW2 8999   8.399  10.329   8.516 -0.4660 -1.3831 -0.3013
 1055SOL     OW 9000   5.136   0.530  10.382 -0.4670 -0.3053 -0.1180
 1055SOL    HW1 9001   5.077   0.586  10.432  0.7119 -0.9619  2.1761
 1055SOL    HW2 9002   5.086   0.449  10.368 -0.4183 -0.5847  1.1613
 1056SOL     OW 9003   5.385   3.750   7.208  0.0656 -0.3669 -0.5686
 1056SOL    HW1 9004   5.300   3.786   7.234  0.1749  0.0047 -0.7204
 1056SOL    HW2 9005   5.413   3.701   7.285 -0.5688 -1.0123 -0.7393
 1057SOL     OW 9006   7.276   4.552   7.495  0.0175 -0.6367 -0.0056
 1057SOL    HW1 9007   7.289   4.581   7.586  1.0722 -2.8939  0.6317
 1057SOL    HW2 9008   7.229   4.469   7.503 -0.8139 -0.3576 -1.6119
 1058SOL     OW 9009   7.336   8.907   8.321 -0.2887 -0.0444 -0.0892
 1058SOL    HW1 9010   7.375   8.826   8.354 -0.2875  0.5977  1.5818
 1058SOL    HW2 9011   7.368   8.975   8.380 -1.2625  0.9982 -0.7250
 1059SOL     OW 9012   5.240   5.663   6.618 -0.4950 -0.6962 -0.7261
 1059SOL    HW1 9013   5.273   5.575   6.637 -0.1925 -0.8250 -1.7879
 1059SOL    HW2 9014   5.319   5.717   6.611 -0.7334  0.2736  2.5211
 1060SOL     OW 9015   0.785   2.351   9.570  0.2253  0.3762 -1.3134
 1060SOL    HW1 9016   0.721   2.347   9.642  1.2081  0.4421 -0.4113
 1060SOL    HW2 9017   0.776   2.266   9.526  0.7899 -0.3590 -0.0573
 1061SOL     OW 9018   1.266   0.352   9.438  0.0610 -0.2442  0.1609
 1061SOL    HW1 9019   1.208   0.374   9.512 -0.7681 -0.0442 -0.5277
 1061SOL    HW2 9020   1.328   0.425   9.434 -0.8119  0.4935 -0.2475
 1062SOL     OW 9021   0.100   0.935   1.123  0.3350 -0.9230 -0.3146
 1062SOL    HW1 9022   0.122   0.956   1.214  0.9382 -1.2697 -0.3761
 1062SOL    HW2 9023   0.020   0.985   1.106  0.4239 -0.5604  0.2857
 1063SOL     OW 9024  10.177   0.085  10.568 -0.1209  0.8366  0.0916
 1063SOL    HW1 9025  10.190   0.012  10.629 -0.2704  1.5637  1.0309
 1063SOL    HW2 9026  10.240   0.151  10.597 -0.5321  1.3852 -0.2425
 1064SOL     OW 9027   8.662  10.481   4.838  0.0509 -0.2130  0.3821
 1064SOL    HW1 9028   8.686  10.541   4.767 -1.8257 -1.1455 -1.1594
 1064SOL    HW2 9029   8.638  10.538   4.910  0.4815  0.8306 -0.2690
 1065SOL     OW 9030   9.360   0.542   1.844 -0.1529  0.0222 -0.1079
 1065SOL    HW1 9031   9.355   0.637   1.843 -0.5276  0.2801  4.3965
 1065SOL    HW2 9032   9.445   0.522   1.805  0.8230  2.3964  0.6085
 1066SOL     OW 9033   0.003   6.365   9.579 -0.1774 -0.2039 -0.0557
 1066SOL    HW1 9034  -0.002   6.442   9.636  0.1043 -0.1167 -0.1479
 1066SOL    HW2 9035  -0.082   6.324   9.588  0.7962 -1.8653  2.7826
 1067SOL     OW 9036   7.784   4.693   4.995  0.3427  0.0067 -0.0403
 1067SOL    HW1 9037   7.875   4.718   5.005  0.2150  0.3683  0.2436
 1067SOL    HW2 9038   7.744   4.765   4.945  0.2347 -0.1970 -0.2536
 1068SOL     OW 9039   5.218   6.487   1.652  0.0115 -0.0020  0.0955
 1068SOL    HW1 9040   5.276   6.508   1.578  0.6104  0.2941  0.6385
 1068SOL    HW2 9041   5.277   6.454   1.720 -0.1784  2.1404  1.3745
 1069SOL     OW 9042   9.518   3.017   7.900 -0.2589 -0.7299  0.0308
 1069SOL    HW1 9043   9.440   3.043   7.851 -1.2154 -1.8046  0.8968
 1069SOL    HW2 9044   9.484   2.961   7.970  0.8909  1.5844  2.6344
 1070SOL     OW 9045   2.500   1.329   8.004 -0.5263 -0.3244  0.1761
 1070SOL    HW1 9046   2.476   1.243   8.038  0.0632 -1.1598 -1.4395
 1070SOL    HW2 9047   2.421   1.382   8.016 -1.6782 -1.7266 -0.8387
 1071SOL     OW 9048   7.044   2.467  10.472  0.4315 -1.0237 -0.3663
 1071SOL    HW1 9049   7.087   2.397  10.521  0.3808 -1.0999 -0.4275
 1071SOL    HW2 9050   6.960   2.479  10.516  1.5821  1.0038  1.4248
 1072SOL     OW 9051   8.696   1.571   0.584 -0.7683 -0.2330  0.6083
 1072SOL    HW1 9052   8.638   1.540   0.515  0.3730  0.6947 -0.8291
 1072SOL    HW2 9053   8.653   1.650   0.617  0.4536  1.5302 -1.7320
 1073SOL     OW 9054   5.123   1.530   4.198  0.4918  0.1512 -0.2372
 1073SOL    HW1 9055   5.200   1.572   4.160  0.8604  1.7432  2.0757
 1073SOL    HW2 9056   5.051   1.557   4.142  1.4195 -0.5612 -1.8658
 1074SOL     OW 9057   8.002   4.186   4.542 -0.2046 -0.1265  0.3292
 1074SOL    HW1 9058   8.032   4.169   4.453 -1.0321 -2.4067  0.4132
 1074SOL    HW2 9059   7.948   4.265   4.534 -0.4749 -0.4249 -1.2430
 1075SOL     OW 9060   8.064   7.658   5.100 -0.0740  0.1103 -0.1751
 1075SOL    HW1 9061   8.079   7.751   5.117 -0.1156  0.5078 -2.1705
 1075SOL    HW2 9062   8.125   7.614   5.159  0.2459  1.4021  0.5045
 1076SOL     OW 9063   9.466   2.758   4.896  0.2201  0.0824 -0.4034
 1076SOL    HW1 9064   9.422   2.710   4.966  2.0359  0.1402  0.8472
 1076SOL    HW2 9065   9.431   2.846   4.901 -0.4775 -0.1955 -0.3101
 1077SOL     OW 9066   5.301   7.165   5.783 -0.0710  0.2441 -0.1723
 1077SOL    HW1 9067   5.208   7.160   5.802 -0.0828 -1.0427 -0.4513
 1077SOL    HW2 9068   5.340   7.205   5.861 -0.7163 -0.3275  0.4584
 1078SOL     OW 9069   9.992  10.204   9.817  0.2882 -0.5191 -0.0435
 1078SOL    HW1 9070   9.990  10.285   9.765  1.4612  0.0974  0.8070
 1078SOL    HW2 9071  10.030  10.139   9.758  0.5727 -0.1064 -0.3259
 1079SOL     OW 9072   4.723   1.483   1.671 -0.2405 -0.1468  0.4281
 1079SOL    HW1 9073   4.798   1.451   1.721 -0.2481  1.5435  1.6157
 1079SOL    HW2 9074   4.652   1.422   1.693 -0.0039  0.0390  1.8048
 1080SOL     OW 9075   9.810   2.890   7.430 -1.2636  0.0343  0.4170
 1080SOL    HW1 9076   9.884   2.913   7.375 -0.1018 -0.1216  1.8554
 1080SOL    HW2 9077   9.791   2.799   7.409  0.0403 -0.4389  1.1928
 1081SOL     OW 9078   1.163   3.757   2.789  0.5515 -0.1755 -0.0806
 1081SOL    HW1 9079   1.105   3.832   2.804 -2.3723 -2.2467 -0.1398
 1081SOL    HW2 9080   1.173   3.716   2.875  2.1053  0.2043 -0.0481
 1082SOL     OW 9081   0.364   8.383   5.295 -0.2287  0.5136 -0.0176
 1082SOL    HW1 9082   0.356   8.455   5.233 -2.3328 -0.3100 -0.7697
 1082SOL    HW2 9083   0.455   8.353   5.285  0.3828  2.3585 -0.4219
 1083SOL     OW 9084   5.855   1.097   6.081  0.3383 -0.2126  0.7531
 1083SOL    HW1 9085   5.822   1.044   6.154 -0.2312  0.3308  0.8965
 1083SOL    HW2 9086   5.783   1.157   6.061  0.5853 -0.1874 -0.0944
 1084SOL     OW 9087   0.711   1.178   1.402  0.1659 -0.1285 -0.1884
 1084SOL    HW1 9088   0.743   1.089   1.415  1.5322  0.5626  1.5547
 1084SOL    HW2 9089   0.777   1.233   1.444 -0.2470  1.7740 -1.9095
 1085SOL     OW 9090   6.797   2.290   8.353 -0.1999 -0.5901  0.0831
 1085SOL    HW1 9091   6.721   2.240   8.382 -1.2858 -0.7292 -2.7167
 1085SOL    HW2 9092   6.774   2.320   8.265  2.6991 -0.0252 -0.5796
 1086SOL     OW 9093   8.639   4.135   3.394  0.2430  0.3634 -0.0474
 1086SOL    HW1 9094   8.683   4.154   3.311  1.7491  0.6455  0.7799
 1086SOL    HW2 9095   8.641   4.039   3.401  1.3434  0.3873  0.2626
 1087SOL     OW 9096  10.571   4.110  10.546 -0.1093  0.3820  0.1344
 1087SOL    HW1 9097  10.637   4.119  10.478  0.1599  2.5679  0.6053
 1087SOL    HW2 9098  10.573   4.193  10.594 -1.7310 -0.2823  1.5057
 1088SOL     OW 9099   2.652  10.004   6.807  0.3410  0.2130  0.0695
 1088SOL    HW1 9100   2.641  10.099   6.799  0.6938  0.2340 -0.1943
 1088SOL    HW2 9101   2.569   9.968   6.777  0.0804  0.4449  0.4903
 1089SOL     OW 9102   7.148   6.973   7.462 -0.2587 -0.1449 -0.3477
 1089SOL    HW1 9103   7.063   6.932   7.474  0.1669 -0.5532  1.7562
 1089SOL    HW2 9104   7.188   6.969   7.549  2.9459 -2.2794 -1.7254
 1090SOL     OW 9105   6.729   4.571   0.306  0.3843  0.2910 -0.0943
 1090SOL    HW1 9106   6.646   4.553   0.351  0.6035 -0.6006 -0.0149
 1090SOL    HW2 9107   6.782   4.616   0.370  1.1324 -2.0182  1.0221
 1091SOL     OW 9108  10.622   8.615   1.225  0.3987 -0.1573 -0.5300
 1091SOL    HW1 9109  10.635   8.670   1.302  0.9935  0.6066 -1.1469
 1091SOL    HW2 9110  10.583   8.673   1.160 -0.0172 -0.7653 -0.8352
 1092SOL     OW 9111   7.911   8.889   6.424  0.4459 -0.2338  0.0920
 1092SOL    HW1 9112   7.930   8.795   6.412  1.4323 -0.2871  1.7113
 1092SOL    HW2 9113   7.967   8.915   6.497  0.2255  1.6519 -0.3670
 1093SOL     OW 9114   5.960   7.771  10.312 -0.0299  0.6708  0.0289
 1093SOL    HW1 9115   5.865   7.761  10.310  0.1313 -1.8161  1.3793
 1093SOL    HW2 9116   5.992   7.714  10.242  0.5027  0.4550  0.4368
 1094SOL     OW 9117   9.351   2.779   8.807 -0.0299 -0.3533  0.4620
 1094SOL    HW1 9118   9.294   2.855   8.806 -1.9824 -1.6925  1.4789
 1094SOL    HW2 9119   9.347   2.748   8.898  1.0555 -1.4108  0.1705
 1095SOL     OW 9120   6.628   8.539   2.791 -0.5385  0.0939  0.4900
 1095SOL    HW1 9121   6.624   8.515   2.884  0.2514  0.6463  0.6775
 1095SOL    HW2 9122   6.683   8.473   2.751 -0.7686 -0.0669  0.4369
 1096SOL     OW 9123   0.006   3.000   3.788 -0.6282  0.1107  0.1562
 1096SOL    HW1 9124  -0.071   3.035   3.831 -0.9014 -0.3765  0.0792
 1096SOL    HW2 9125   0.033   2.926   3.843  0.1526  0.6468  0.5174
 1097SOL     OW 9126   7.323   1.114   1.832 -0.3578 -0.1318 -0.4523
 1097SOL    HW1 9127   7.329   1.019   1.844  0.0109 -0.1676 -0.8832
 1097SOL    HW2 9128   7.292   1.147   1.916 -0.7818 -0.6640 -0.3994
 1098SOL     OW 9129   4.779   9.101   7.396 -0.2293 -0.1914 -0.4073
 1098SOL    HW1 9130   4.854   9.089   7.454  0.0300 -0.0502 -0.7080
 1098SOL    HW2 9131   4.818   9.108   7.309 -0.7421 -2.3733 -0.8670
 1099SOL     OW 9132   7.591   7.441  10.074 -0.0738  0.3762 -0.1999
 1099SOL    HW1 9133   7.500   7.459  10.101 -0.0009 -0.2394  0.4941
 1099SOL    HW2 9134   7.601   7.347  10.087  0.6638  0.4405 -0.2877
 1100SOL     OW 9135   2.473   9.886   3.779 -0.1840 -0.1979 -0.1545
 1100SOL    HW1 9136   2.512   9.842   3.704  1.2571  0.6184  0.0882
 1100SOL    HW2 9137   2.509   9.841   3.856 -0.3163  0.0668  0.0672
 1101SOL     OW 9138   0.443   6.143   2.014 -0.1960 -0.3192  0.0127
 1101SOL    HW1 9139   0.357   6.150   1.973 -0.7312 -1.4413  0.8799
 1101SOL    HW2 9140   0.497   6.097   1.950 -0.7366 -1.1554  0.1472
 1102SOL     OW 9141   6.812   4.425   1.923 -0.1779 -0.2403 -0.3944
 1102SOL    HW1 9142   6.822   4.393   1.834  1.3442  1.9320 -1.0750
 1102SOL    HW2 9143   6.886   4.483   1.937 -1.6060  1.2871  1.4761
 1103SOL     OW 9144   0.229   1.679   9.940 -0.3755  0.6084  0.0171
 1103SOL    HW1 9145   0.160   1.614   9.951 -0.5767  0.0361 -3.6066
 1103SOL    HW2 9146   0.183   1.763   9.942 -0.8712  0.3510 -0.3994
 1104SOL     OW 9147   8.292   7.481   7.353 -0.4033  0.0297  0.1942
 1104SOL    HW1 9148   8.227   7.505   7.420  0.4538  0.2030  0.9833
 1104SOL    HW2 9149   8.330   7.399   7.386 -0.6756 -0.4247 -0.5960
 1105SOL     OW 9150   5.587   3.654   3.435  0.1977  0.2513 -0.3232
 1105SOL    HW1 9151   5.526   3.645   3.507 -0.6423  0.5445 -0.9879
 1105SOL    HW2 9152   5.656   3.589   3.454 -1.3666 -1.5950 -0.6259
 1106SOL     OW 9153   7.205   2.481  10.259 -0.1542 -0.1084  0.1915
 1106SOL    HW1 9154   7.146   2.422  10.213 -2.3414  1.2031  1.1251
 1106SOL    HW2 9155   7.158   2.504  10.340  0.5895  2.7407 -0.0562
 1107SOL     OW 9156   2.737   2.024   1.312 -0.0308  0.5115 -0.0731
 1107SOL    HW1 9157   2.799   2.097   1.307  0.3927  0.1481 -0.3254
 1107SOL    HW2 9158   2.784   1.957   1.363 -0.8109  0.7897  1.0573
 1108SOL     OW 9159   9.453   6.084   9.587  0.5907  0.3519 -0.3275
 1108SOL    HW1 9160   9.378   6.132   9.550  0.3876 -0.7122 -1.3704
 1108SOL    HW2 9161   9.415   6.031   9.657  0.3132 -0.3438 -0.9919
 1109SOL     OW 9162   9.585   2.103   7.787  0.0717 -0.0928  0.3913
 1109SOL    HW1 9163   9.518   2.158   7.744 -0.2342  1.1140  2.2870
 1109SOL    HW2 9164   9.633   2.164   7.843  3.0106 -0.8594 -1.0651
 1110SOL     OW 9165   4.418   3.500   1.366  0.4724 -0.5392 -0.1165
 1110SOL    HW1 9166   4.488   3.541   1.417  0.2373  1.3537 -1.2271
 1110SOL    HW2 9167   4.465   3.443   1.304  1.0089  0.1338 -0.3485
 1111SOL     OW 9168   1.348   6.291   3.767  0.2701  0.1280  0.1552
 1111SOL    HW1 9169   1.430   6.241   3.756 -0.5215 -0.9601 -1.1086
 1111SOL    HW2 9170   1.290   6.230   3.813  0.0650  0.7853  0.7703
 1112SOL     OW 9171   6.183   4.973   6.247  0.5008  0.3688 -0.4723
 1112SOL    HW1 9172   6.220   5.060   6.259  2.3603 -0.4391 -0.0106
 1112SOL    HW2 9173   6.110   4.969   6.309  1.9793  0.7494  1.3904
 1113SOL     OW 9174   2.294   4.576   2.918  0.2993  0.2456  0.5362
 1113SOL    HW1 9175   2.315   4.503   2.860 -0.8938  0.7247 -0.5615
 1113SOL    HW2 9176   2.353   4.646   2.889  0.2271  0.2533  0.4063
 1114SOL     OW 9177   6.774   5.142   6.580 -0.0515  0.3706 -0.1550
 1114SOL    HW1 9178   6.714   5.184   6.518  0.9489  1.4690 -0.4285
 1114SOL    HW2 9179   6.845   5.206   6.592  0.2296 -0.1829  1.4424
 1115SOL     OW 9180   3.313   1.403   7.816  0.0072 -0.9530  0.1020
 1115SOL    HW1 9181   3.321   1.461   7.739 -0.1286  0.2740  0.9873
 1115SOL    HW2 9182   3.390   1.347   7.811  0.4556 -0.3084 -0.4794
 1116SOL     OW 9183   6.826   8.101   2.514  0.3046  0.0867  0.3308
 1116SOL    HW1 9184   6.868   8.063   2.437 -1.1315  1.1292 -1.0274
 1116SOL    HW2 9185   6.809   8.192   2.489  0.1486  0.5568  2.0420
 1117SOL     OW 9186   2.912   0.420   1.587 -0.1938  0.0074 -0.2753
 1117SOL    HW1 9187   2.923   0.458   1.500 -1.2596  1.0369  0.0233
 1117SOL    HW2 9188   2.818   0.418   1.601 -0.2735 -3.2595 -0.4492
 1118SOL     OW 9189   3.076  10.247  10.088 -0.0957 -0.8893 -0.3044
 1118SOL    HW1 9190   2.991  10.205  10.082 -0.5719 -0.0429  0.3559
 1118SOL    HW2 9191   3.060  10.339  10.069  0.3701 -0.4104  1.4396
 1119SOL     OW 9192   8.352   3.170   1.936  0.1767 -0.6724 -0.0298
 1119SOL    HW1 9193   8.386   3.182   1.847 -1.1103 -0.7259 -0.5463
 1119SOL    HW2 9194   8.304   3.251   1.954  0.0614 -0.8462  0.4526
 1120SOL     OW 9195   5.202   3.113   3.078 -0.4283  0.2778  0.5479
 1120SOL    HW1 9196   5.292   3.095   3.052  0.0594  0.3888  2.0672
 1120SOL    HW2 9197   5.168   3.029   3.108 -1.8420 -0.4594 -2.6113
 1121SOL     OW 9198  10.596   6.059   2.815 -0.4333 -0.6812  0.2272
 1121SOL    HW1 9199  10.593   6.068   2.720 -1.2374 -1.8890  0.1215
 1121SOL    HW2 9200  10.509   6.083   2.845 -0.1730 -0.2655  0.6735
 1122SOL     OW 9201   2.063   9.483   1.007 -0.4522 -0.1132  0.3529
 1122SOL    HW1 9202   2.085   9.519   0.921  0.3865 -0.3090  0.4775
 1122SOL    HW2 9203   2.071   9.388   0.995 -2.4697 -0.2768  0.0748
 1123SOL     OW 9204   2.537   9.212   4.216  0.3934 -0.1045  0.7635
 1123SOL    HW1 9205   2.549   9.305   4.232 -1.2553 -0.0687  1.9961
 1123SOL    HW2 9206   2.443   9.199   4.219  0.6444 -1.9947  1.6833
 1124SOL     OW 9207   2.367   9.106   0.234  0.4009  0.3404  0.0623
 1124SOL    HW1 9208   2.370   9.015   0.262  0.2378  0.3535  0.1219
 1124SOL    HW2 9209   2.284   9.114   0.187 -0.3156  0.8380  1.3694
 1125SOL     OW 9210   8.962   8.792   0.121 -0.2410  0.4749 -0.7707
 1125SOL    HW1 9211   8.957   8.714   0.067  0.7957  2.0381 -3.3036
 1125SOL    HW2 9212   8.875   8.831   0.116 -0.6369 -0.2466  0.1535
 1126SOL     OW 9213   4.468   7.700   9.417  0.2339 -0.3250 -0.1549
 1126SOL    HW1 9214   4.387   7.751   9.424  0.2533 -0.4498  1.1826
 1126SOL    HW2 9215   4.506   7.702   9.505  1.1790 -1.1009 -0.5245
 1127SOL     OW 9216   1.403   9.656   1.408 -0.3599 -0.2161  0.0976
 1127SOL    HW1 9217   1.486   9.700   1.429 -0.5443  0.3361 -0.3206
 1127SOL    HW2 9218   1.415   9.566   1.440  0.4772 -0.1986 -0.1475
 1128SOL     OW 9219   4.404   3.881   1.116  0.1649 -0.2068 -0.4388
 1128SOL    HW1 9220   4.402   3.829   1.197 -1.1403 -0.5239 -0.6481
 1128SOL    HW2 9221   4.447   3.825   1.052 -0.4046 -0.6719 -0.4192
 1129SOL     OW 9222   3.190   6.194  10.350 -0.0209  0.1767 -0.7766
 1129SOL    HW1 9223   3.268   6.163  10.302  0.7400  0.4638  0.2434
 1129SOL    HW2 9224   3.152   6.114  10.388  0.5646  0.1862 -0.1501
 1130SOL     OW 9225   6.920   3.974   3.965  1.0017 -0.2236  0.3532
 1130SOL    HW1 9226   6.967   3.926   4.034 -1.4537 -1.8333  1.0576
 1130SOL    HW2 9227   6.891   4.054   4.007  0.8140 -0.4940  0.7478
 1131SOL     OW 9228   7.573   7.424   2.840  0.0248  0.3400 -0.3002
 1131SOL    HW1 9229   7.571   7.360   2.912 -1.1008  0.7075  0.0167
 1131SOL    HW2 9230   7.537   7.377   2.765  3.1020 -0.7176 -1.2649
 1132SOL     OW 9231   5.045   8.160   6.141  0.3396 -0.1905 -0.0206
 1132SOL    HW1 9232   5.138   8.147   6.119  0.3436 -0.2121  0.0092
 1132SOL    HW2 9233   5.040   8.252   6.167  0.1194  0.1607 -1.2216
 1133SOL     OW 9234   3.880   2.125   0.521 -0.0809 -0.0056 -0.7363
 1133SOL    HW1 9235   3.963   2.113   0.565  0.2820  0.5867 -1.2336
 1133SOL    HW2 9236   3.854   2.215   0.542 -1.6877 -0.8458  1.2011
 1134SOL     OW 9237   3.277   6.569   1.964 -0.0238 -0.0514  0.0863
 1134SOL    HW1 9238   3.243   6.562   1.875 -2.1929  0.1203  0.8460
 1134SOL    HW2 9239   3.217   6.518   2.018  2.1090 -1.4678  1.3073
 1135SOL     OW 9240   6.051   8.276   7.543 -0.3242  0.0012 -0.0362
 1135SOL    HW1 9241   6.126   8.318   7.584  0.8481 -1.2873 -0.7645
 1135SOL    HW2 9242   6.039   8.194   7.592 -0.6928 -0.2139 -0.4700
 1136SOL     OW 9243   4.716  10.492   6.925 -0.0815 -0.0082 -0.2317
 1136SOL    HW1 9244   4.781  10.437   6.969  1.0990  2.1653  0.9022
 1136SOL    HW2 9245   4.731  10.580   6.960 -3.3220  0.7025 -0.3281
 1137SOL     OW 9246   9.487   5.994   0.658  0.2753 -0.2472 -0.0921
 1137SOL    HW1 9247   9.500   6.042   0.577  1.5577  0.2713  0.3897
 1137SOL    HW2 9248   9.484   6.062   0.726 -0.3814 -0.6910  0.3312
 1138SOL     OW 9249   5.122   9.643   6.196  0.1460 -0.1601 -0.2202
 1138SOL    HW1 9250   5.042   9.592   6.186  0.5139 -0.4100 -2.5265
 1138SOL    HW2 9251   5.111   9.691   6.278 -0.8131 -2.8442  1.3352
 1139SOL     OW 9252   5.210   8.865   7.496  0.0811  0.6671 -0.3281
 1139SOL    HW1 9253   5.191   8.806   7.423 -0.4402 -0.5893  0.7935
 1139SOL    HW2 9254   5.242   8.808   7.566 -1.7024  1.4946  1.2447
 1140SOL     OW 9255   0.632   8.776   2.559 -0.1566  0.4776  0.3697
 1140SOL    HW1 9256   0.554   8.739   2.519  0.2372 -0.2554  0.2527
 1140SOL    HW2 9257   0.617   8.871   2.559 -0.2303  0.5007 -1.4071
 1141SOL     OW 9258   8.627   9.266   2.161 -0.2746  1.3853  0.0051
 1141SOL    HW1 9259   8.686   9.214   2.106 -2.7506 -0.3390 -1.2464
 1141SOL    HW2 9260   8.596   9.204   2.228 -0.0206  2.5046  1.2057
 1142SOL     OW 9261   5.763   5.988   8.888 -0.6122 -0.1253  0.6129
 1142SOL    HW1 9262   5.807   5.924   8.945 -0.9881 -1.2291 -0.3005
 1142SOL    HW2 9263   5.754   6.066   8.943  0.7199 -0.5254  1.4500
 1143SOL     OW 9264   1.412   8.794   8.680  0.0755 -0.1250 -0.1601
 1143SOL    HW1 9265   1.380   8.875   8.721  1.2646 -0.2210  1.0466
 1143SOL    HW2 9266   1.445   8.822   8.595  0.9197  0.7741  0.4356
 1144SOL     OW 9267   7.198   0.084   6.881 -0.7364 -0.0468 -0.0311
 1144SOL    HW1 9268   7.196   0.000   6.927  0.8207 -0.2340 -0.2659
 1144SOL    HW2 9269   7.108   0.095   6.849 -0.8400 -1.9184 -0.5110
 1145SOL     OW 9270   5.125   9.050   4.379 -0.4476 -0.0044  0.4827
 1145SOL    HW1 9271   5.215   9.080   4.368 -0.3258 -0.2172  0.8583
 1145SOL    HW2 9272   5.127   8.996   4.458 -0.9000 -0.0364  0.4785
 1146SOL     OW 9273   8.116   1.236   9.919  0.2242  0.2524  0.5114
 1146SOL    HW1 9274   8.143   1.156   9.873  0.3928  1.4255 -1.5139
 1146SOL    HW2 9275   8.081   1.204  10.002  0.5573 -1.9108 -0.1052
 1147SOL     OW 9276   6.542   1.695   1.264 -0.6443 -0.0704 -0.4367
 1147SOL    HW1 9277   6.523   1.786   1.241  0.4751  0.2641 -0.1359
 1147SOL    HW2 9278   6.628   1.678   1.225 -0.7700 -0.9430 -0.3492
 1148SOL     OW 9279   1.058   1.779   9.716  0.2984  0.3092  0.1483
 1148SOL    HW1 9280   1.069   1.718   9.643  0.7433  1.7100 -0.9901
 1148SOL    HW2 9281   1.144   1.818   9.728  0.1278  0.3963  1.1742
 1149SOL     OW 9282   5.916   4.011   2.899 -0.4587  0.8813  0.0187
 1149SOL    HW1 9283   5.894   4.021   2.992 -1.0824 -0.4658  0.0401
 1149SOL    HW2 9284   5.848   4.060   2.853 -0.0830  1.6496  0.2613
 1150SOL     OW 9285   5.756   0.913   0.372 -0.2343 -0.1409  0.4916
 1150SOL    HW1 9286   5.845   0.932   0.402  0.6774 -0.8732 -1.5750
 1150SOL    HW2 9287   5.744   0.971   0.297 -1.0894 -0.8396  0.0840
 1151SOL     OW 9288   0.014   5.171   3.979 -0.9930  0.1335  0.1221
 1151SOL    HW1 9289   0.063   5.237   4.028 -0.3922 -0.2312  0.0275
 1151SOL    HW2 9290   0.071   5.150   3.905 -2.4356  1.6171 -1.4971
 1152SOL     OW 9291   6.933   9.965   9.765  0.2834  0.0842 -0.0664
 1152SOL    HW1 9292   6.912   9.974   9.673  1.8990  1.4317 -0.3529
 1152SOL    HW2 9293   6.938  10.055   9.798  1.2423 -0.3097  0.9409
 1153SOL     OW 9294   3.548   1.317  10.023 -0.0126 -0.4186  0.0329
 1153SOL    HW1 9295   3.483   1.281   9.962 -1.5476 -1.6573  2.2376
 1153SOL    HW2 9296   3.574   1.242  10.077  2.4405  0.3073 -0.0077
 1154SOL     OW 9297   6.189   6.297   5.028  0.0236 -0.0759  0.2150
 1154SOL    HW1 9298   6.114   6.241   5.051  0.7935 -0.3787  2.1167
 1154SOL    HW2 9299   6.227   6.255   4.951 -0.7756 -0.8674  0.2307
 1155SOL     OW 9300   5.569   1.410   5.647 -0.1575 -0.2459 -0.2686
 1155SOL    HW1 9301   5.598   1.381   5.561  0.3392  0.0765 -0.2196
 1155SOL    HW2 9302   5.502   1.476   5.630  0.8922  0.8002 -0.4470
 1156SOL     OW 9303   3.259   9.529  10.070  0.2872  0.0647  0.4107
 1156SOL    HW1 9304   3.244   9.536  10.164 -2.0498 -0.7994  0.1743
 1156SOL    HW2 9305   3.262   9.435  10.053  0.6624  0.2160 -0.3937
 1157SOL     OW 9306   3.760   9.448   6.623 -0.4090 -0.3540  0.1486
 1157SOL    HW1 9307   3.751   9.352   6.622 -1.7077 -0.2454 -0.4623
 1157SOL    HW2 9308   3.689   9.479   6.567  1.3872  0.8721 -1.5846
 1158SOL     OW 9309   2.276   0.890   6.204  0.4843  0.6080  0.2130
 1158SOL    HW1 9310   2.335   0.824   6.241 -1.3761 -1.2300  0.0879
 1158SOL    HW2 9311   2.292   0.887   6.110  0.4334  0.3790  0.2122
 1159SOL     OW 9312   7.705   1.174   4.500  0.1247  0.2905 -0.1796
 1159SOL    HW1 9313   7.748   1.090   4.518  0.1149  0.7009  2.0849
 1159SOL    HW2 9314   7.663   1.162   4.415  1.1885 -1.5508 -0.4973
 1160SOL     OW 9315   1.742   9.270   5.294 -0.1390  0.5585  0.1260
 1160SOL    HW1 9316   1.774   9.229   5.374  0.1100  2.3169  0.9814
 1160SOL    HW2 9317   1.716   9.358   5.321  1.1118  1.6423 -1.9309
 1161SOL     OW 9318  10.441   2.872   2.459  0.1063  0.0271 -0.4346
 1161SOL    HW1 9319  10.505   2.943   2.453  0.6646 -0.2863  1.2786
 1161SOL    HW2 9320  10.442   2.847   2.551 -0.2045 -2.0866 -0.9558
 1162SOL     OW 9321   3.928   2.876   0.165  0.2032  0.2568  0.3208
 1162SOL    HW1 9322   3.991   2.883   0.236  1.0942  0.6948 -0.4909
 1162SOL    HW2 9323   3.961   2.805   0.110 -1.4581 -1.3449  1.2658
 1163SOL     OW 9324   2.686   9.379   3.988 -0.4428 -0.4936 -0.1668
 1163SOL    HW1 9325   2.630   9.301   3.988 -0.4334 -0.5002 -0.1516
 1163SOL    HW2 9326   2.649   9.435   4.057  0.6373 -1.2538  1.0797
 1164SOL     OW 9327   1.685   6.812   0.800  0.6445 -0.4655  0.3716
 1164SOL    HW1 9328   1.643   6.887   0.757  0.4969 -0.3571  0.7059
 1164SOL    HW2 9329   1.669   6.825   0.893  1.1586 -0.5818  0.4806
 1165SOL     OW 9330   3.031   7.593   3.950  0.2870  0.4481  0.6069
 1165SOL    HW1 9331   3.054   7.548   3.869  0.6628  1.4981  0.1039
 1165SOL    HW2 9332   2.998   7.524   4.007  2.3066 -0.7318  0.4473
 1166SOL     OW 9333   3.676  10.251   5.162 -0.1343 -0.0749 -0.1777
 1166SOL    HW1 9334   3.684  10.246   5.258 -0.1926 -0.2515 -0.1815
 1166SOL    HW2 9335   3.582  10.241   5.146 -0.4955  2.5077 -0.0940
 1167SOL     OW 9336   7.504   7.058   7.788 -0.1738  0.2559  0.0743
 1167SOL    HW1 9337   7.489   7.151   7.770 -1.2054 -0.0021 -0.4061
 1167SOL    HW2 9338   7.513   7.018   7.702 -1.6434 -0.3985  0.2085
 1168SOL     OW 9339   0.944   5.523  10.586  0.2014 -0.1042 -0.1309
 1168SOL    HW1 9340   1.027   5.533  10.540  0.0933 -0.6127 -0.4420
 1168SOL    HW2 9341   0.877   5.524  10.517 -0.2535  2.2913  0.2385
 1169SOL     OW 9342   9.375   8.888   3.303 -0.4296 -0.3457  0.1185
 1169SOL    HW1 9343   9.408   8.901   3.392  1.1274 -1.7395 -0.2163
 1169SOL    HW2 9344   9.401   8.967   3.256 -2.1706  0.8893  1.0901
 1170SOL     OW 9345   7.986   1.271   2.859 -0.2880  0.0943  0.3725
 1170SOL    HW1 9346   7.893   1.295   2.861 -0.8344 -1.8025  3.2984
 1170SOL    HW2 9347   8.032   1.353   2.881 -1.2320  1.0216 -0.9776
 1171SOL     OW 9348   6.257   6.594   1.085 -0.3647 -0.9606  0.0925
 1171SOL    HW1 9349   6.296   6.593   1.172 -2.4110  2.2633  1.2488
 1171SOL    HW2 9350   6.302   6.666   1.040  0.3225 -2.2734 -1.3725
 1172SOL     OW 9351   8.027   7.367   9.643  0.4407 -0.6989  0.6380
 1172SOL    HW1 9352   7.985   7.346   9.559 -1.0573 -1.2812  1.4929
 1172SOL    HW2 9353   8.045   7.461   9.638 -1.0436 -0.4072  0.2531
 1173SOL     OW 9354   8.960   2.785   2.035 -0.3720  0.3645  0.4909
 1173SOL    HW1 9355   9.022   2.713   2.040  0.0932  0.7464  0.1903
 1173SOL    HW2 9356   8.961   2.812   1.944 -2.0656 -0.5728  0.1514
 1174SOL     OW 9357   4.896   2.662   6.484 -0.7164  0.0379 -0.0408
 1174SOL    HW1 9358   4.891   2.577   6.528 -0.9963 -0.1655 -0.4574
 1174SOL    HW2 9359   4.963   2.711   6.533  1.4883 -1.4022 -1.4180
 1175SOL     OW 9360   5.742   3.731   6.537 -0.2429  0.2445  0.3651
 1175SOL    HW1 9361   5.694   3.669   6.591  1.7213 -0.0682  1.8878
 1175SOL    HW2 9362   5.751   3.809   6.592 -0.9934  1.1927 -0.7868
 1176SOL     OW 9363   9.608   1.971   5.243 -0.3303  0.4481 -0.2238
 1176SOL    HW1 9364   9.677   1.930   5.296  0.0828  1.3613 -0.0269
 1176SOL    HW2 9365   9.545   1.901   5.227  1.0590 -0.6644 -1.1558
 1177SOL     OW 9366   3.129   7.259   7.387 -0.3337 -0.3668 -0.0564
 1177SOL    HW1 9367   3.143   7.344   7.429 -1.0853 -0.0630 -0.4135
 1177SOL    HW2 9368   3.209   7.244   7.336 -0.1414  0.0612  0.1131
 1178SOL     OW 9369   9.290  10.537   0.950 -0.3282  0.2885  0.0081
 1178SOL    HW1 9370   9.236  10.545   1.029 -1.9027 -1.3829 -0.8154
 1178SOL    HW2 9371   9.304  10.443   0.939  0.3137  0.5182 -1.3927
 1179SOL     OW 9372   4.328   6.714   6.058  0.5954 -0.6360 -0.3711
 1179SOL    HW1 9373   4.242   6.674   6.044 -0.3213  1.3951 -0.9239
 1179SOL    HW2 9374   4.368   6.660   6.127 -0.7541 -2.1348 -0.6900
 1180SOL     OW 9375   4.586   2.103   9.801  0.2945 -0.4213 -0.0953
 1180SOL    HW1 9376   4.583   2.106   9.897  0.9935 -0.0031 -0.0857
 1180SOL    HW2 9377   4.576   2.194   9.774  0.2138 -0.5262 -0.4194
 1181SOL     OW 9378   4.433  10.035   2.852 -0.5998 -0.7180  0.2409
 1181SOL    HW1 9379   4.510  10.041   2.910 -1.5438 -1.2978  1.6171
 1181SOL    HW2 9380   4.425  10.122   2.814  0.5972 -0.5785  0.2639
 1182SOL     OW 9381   8.716   7.285   8.129 -0.0048 -0.5551 -0.1456
 1182SOL    HW1 9382   8.746   7.244   8.210 -2.3219 -1.1526  0.4886
 1182SOL    HW2 9383   8.643   7.230   8.100 -0.1261  0.4472 -1.8797
 1183SOL     OW 9384   9.546   4.460   5.576  0.3772 -0.3565  0.3014
 1183SOL    HW1 9385   9.598   4.398   5.626 -1.5413 -1.0618  1.5351
 1183SOL    HW2 9386   9.606   4.494   5.509  3.3234  1.1720  3.4084
 1184SOL     OW 9387   1.805   8.538   1.503  0.0045  0.5212  0.7792
 1184SOL    HW1 9388   1.810   8.447   1.532  1.3671  0.4556  0.4372
 1184SOL    HW2 9389   1.846   8.588   1.574  2.0582  0.5088 -0.3262
 1185SOL     OW 9390   3.899   3.110   5.641  0.0597  0.2165  0.2085
 1185SOL    HW1 9391   3.951   3.078   5.568  1.6471  1.6675  0.6342
 1185SOL    HW2 9392   3.808   3.108   5.609  0.3044 -2.4631 -0.5235
 1186SOL     OW 9393   7.611   8.546   6.664 -0.3942 -0.3195 -0.1091
 1186SOL    HW1 9394   7.700   8.583   6.666  0.2178 -1.6065 -1.5427
 1186SOL    HW2 9395   7.554   8.622   6.678  0.9019  0.5723  0.6562
 1187SOL     OW 9396   6.978   0.227   8.927 -0.0351  0.2549  0.5609
 1187SOL    HW1 9397   7.073   0.225   8.925  0.0749  1.6770 -2.7808
 1187SOL    HW2 9398   6.957   0.306   8.978  0.5087 -0.3019  1.6851
 1188SOL     OW 9399   8.949   1.696   6.834  0.2710 -0.1957  0.5932
 1188SOL    HW1 9400   8.854   1.692   6.845  0.0185  0.2141 -1.1072
 1188SOL    HW2 9401   8.984   1.674   6.920 -1.3287 -1.8123  0.8947
 1189SOL     OW 9402   5.265   0.119   3.835  0.3185  0.1340 -0.1348
 1189SOL    HW1 9403   5.257   0.049   3.770 -0.1190 -0.8700  0.9745
 1189SOL    HW2 9404   5.346   0.165   3.811  0.1708 -0.2254 -1.3677
 1190SOL     OW 9405   5.897   2.775  10.608 -0.1800 -0.1061  0.3613
 1190SOL    HW1 9406   5.897   2.794  10.702  0.8293  1.1386  0.1385
 1190SOL    HW2 9407   5.947   2.847  10.570 -1.1038 -0.2641 -1.2058
 1191SOL     OW 9408  10.196   4.646  10.262 -0.0472  0.4223  0.2925
 1191SOL    HW1 9409  10.267   4.610  10.208  0.3803  0.4185  0.8410
 1191SOL    HW2 9410  10.126   4.582  10.257  0.3676 -0.0535  0.5349
 1192SOL     OW 9411   6.987   8.439   5.374  0.2632  0.8890  0.6128
 1192SOL    HW1 9412   7.056   8.501   5.398 -0.3676  1.7666  0.1954
 1192SOL    HW2 9413   6.947   8.476   5.296 -0.4234  0.1864  0.6216
 1193SOL     OW 9414   0.900   3.804   2.608 -0.2296  0.6204 -0.3193
 1193SOL    HW1 9415   0.827   3.757   2.648  0.1096  1.4511  1.3602
 1193SOL    HW2 9416   0.935   3.858   2.679  0.0691  2.5885 -1.8983
 1194SOL     OW 9417   8.285   1.542   5.254 -0.0743 -0.5759  0.3958
 1194SOL    HW1 9418   8.195   1.574   5.250 -0.2474 -1.1557 -0.8150
 1194SOL    HW2 9419   8.276   1.447   5.266  0.4123 -0.4436  2.0837
 1195SOL     OW 9420   6.744   6.851   4.384  0.0154 -0.0893 -0.1448
 1195SOL    HW1 9421   6.704   6.938   4.386  0.1799  0.0039 -0.6782
 1195SOL    HW2 9422   6.707   6.809   4.306 -2.3514 -1.6263  1.6481
 1196SOL     OW 9423   1.826   1.667   5.650 -0.4685  0.6802 -0.1678
 1196SOL    HW1 9424   1.820   1.756   5.685  3.2135  1.9199 -2.1531
 1196SOL    HW2 9425   1.881   1.620   5.712  2.0335  1.4855 -1.6206
 1197SOL     OW 9426   3.013   9.251   2.985  0.0104 -0.2316 -0.2023
 1197SOL    HW1 9427   3.070   9.293   3.050 -0.6338  3.0934 -1.5651
 1197SOL    HW2 9428   3.060   9.259   2.903 -0.9617 -0.5699 -0.8071
 1198SOL     OW 9429   9.963   0.826   7.806 -0.1321  0.0643  0.1084
 1198SOL    HW1 9430   9.994   0.916   7.794  0.6283 -0.1026  0.7690
 1198SOL    HW2 9431   9.909   0.809   7.728  0.1845  0.8926 -0.3062
 1199SOL     OW 9432   8.108   2.591   1.208 -0.8459  0.1980  0.2359
 1199SOL    HW1 9433   8.065   2.668   1.244  0.2950  1.3017 -0.6649
 1199SOL    HW2 9434   8.115   2.531   1.282 -0.6522  1.4577  1.2794
 1200SOL     OW 9435  10.001   9.066   2.615 -0.3308 -0.4681  0.2323
 1200SOL    HW1 9436   9.958   9.127   2.555 -0.0271 -0.8594 -0.3904
 1200SOL    HW2 9437   9.935   8.998   2.630 -1.6118  1.1759  2.8554
 1201SOL     OW 9438   7.699   7.052   9.824 -0.3567  0.0857 -0.3012
 1201SOL    HW1 9439   7.630   7.068   9.760 -0.6551 -3.2727 -1.0321
 1201SOL    HW2 9440   7.739   7.138   9.838 -1.6489  1.3667 -3.3832
 1202SOL     OW 9441   9.187   6.215   2.952  0.4384 -0.1651 -0.3001
 1202SOL    HW1 9442   9.112   6.173   2.993  1.1729 -0.0688  1.2011
 1202SOL    HW2 9443   9.206   6.290   3.008  0.8970  0.5448 -1.3649
 1203SOL     OW 9444   6.584   5.828   0.970  0.2377 -0.7508  0.3139
 1203SOL    HW1 9445   6.566   5.837   0.876 -1.4006 -0.8027  0.5984
 1203SOL    HW2 9446   6.546   5.744   0.994 -2.1035  0.5935  1.6031
 1204SOL     OW 9447  10.577   8.210   8.254  0.1476 -0.0578  0.2630
 1204SOL    HW1 9448  10.576   8.235   8.347 -2.5730  0.6229  0.1569
 1204SOL    HW2 9449  10.612   8.121   8.254 -1.4973 -0.7957  2.2301
 1205SOL     OW 9450   7.789   8.117   6.086  0.0631  0.0350  0.2602
 1205SOL    HW1 9451   7.793   8.149   6.176  1.4921  0.0192  0.2278
 1205SOL    HW2 9452   7.763   8.193   6.035 -0.4517  0.1256  0.6502
 1206SOL     OW 9453   4.953   4.497   6.840  0.2930 -0.1339 -0.4145
 1206SOL    HW1 9454   5.011   4.428   6.871  0.3394 -0.1303 -0.4923
 1206SOL    HW2 9455   4.865   4.467   6.861  0.3461  0.0600  0.1079
 1207SOL     OW 9456   9.027  10.292   2.534  0.0686  0.0326 -0.2421
 1207SOL    HW1 9457   9.029  10.197   2.551 -0.2355  0.2220  0.9759
 1207SOL    HW2 9458   8.934  10.314   2.531  0.1182  0.5529  1.2051
 1208SOL     OW 9459   7.678   3.318   2.841 -0.6313  0.5463 -0.0046
 1208SOL    HW1 9460   7.656   3.410   2.858  1.7590  1.2317 -0.2549
 1208SOL    HW2 9461   7.623   3.269   2.902 -0.8528  2.2429  1.2342
 1209SOL     OW 9462   9.039   2.065   9.172  0.4335  0.0996  0.1068
 1209SOL    HW1 9463   9.128   2.066   9.138  0.8901 -2.0665  1.0688
 1209SOL    HW2 9464   9.044   2.111   9.256  0.8417 -0.6421  0.5045
 1210SOL     OW 9465   5.728   5.422   3.232  0.4506 -0.0867  0.2190
 1210SOL    HW1 9466   5.754   5.513   3.247 -0.7287  0.1085  1.1670
 1210SOL    HW2 9467   5.795   5.370   3.276  0.0446  0.3809  1.4293
 1211SOL     OW 9468  10.458   5.783   2.427 -0.1204  0.7229  0.4340
 1211SOL    HW1 9469  10.480   5.697   2.390  0.2655  0.8285  0.4112
 1211SOL    HW2 9470  10.543   5.825   2.440 -0.1648  0.3317  2.3273
 1212SOL     OW 9471   4.949   4.070   0.302 -0.0063 -0.3693  0.5229
 1212SOL    HW1 9472   4.980   4.023   0.224 -0.1380 -0.8877  0.7758
 1212SOL    HW2 9473   4.914   4.152   0.268 -0.8466 -0.9553 -0.0779
 1213SOL     OW 9474   5.541   4.151   3.147 -0.0141 -0.0250 -0.0602
 1213SOL    HW1 9475   5.480   4.080   3.168 -0.4300  0.2670 -0.2692
 1213SOL    HW2 9476   5.594   4.161   3.226  0.1334 -0.6514 -0.0700
 1214SOL     OW 9477   2.169   2.631   0.796  0.0658 -0.5144  0.5729
 1214SOL    HW1 9478   2.142   2.564   0.858  1.5581  0.0005  1.8584
 1214SOL    HW2 9479   2.202   2.702   0.851  1.1851  0.0741 -0.8037
 1215SOL     OW 9480   9.389   9.095   8.403 -0.1870  0.3765 -0.0434
 1215SOL    HW1 9481   9.324   9.156   8.371  1.4931  3.6147  2.1259
 1215SOL    HW2 9482   9.469   9.118   8.356  0.4954 -0.0873  0.8520
 1216SOL     OW 9483   4.728   3.523   3.114  0.2691  0.5175 -0.3579
 1216SOL    HW1 9484   4.707   3.447   3.060 -0.3239  0.3352  0.1089
 1216SOL    HW2 9485   4.812   3.503   3.154  0.4791  0.4451 -0.8423
 1217SOL     OW 9486   2.916   4.677   7.932 -0.5583  0.1072  0.2459
 1217SOL    HW1 9487   2.986   4.715   7.985 -0.0954 -0.0797 -0.2293
 1217SOL    HW2 9488   2.870   4.618   7.992 -1.0448  1.0995  0.8856
 1218SOL     OW 9489   4.661   9.104   4.085  0.5697 -0.0987 -0.2756
 1218SOL    HW1 9490   4.627   9.177   4.138 -1.6175 -0.3772 -1.1962
 1218SOL    HW2 9491   4.695   9.145   4.006 -0.9505 -0.0696 -0.9341
 1219SOL     OW 9492   6.703   6.207  10.121  0.2851  0.5423  0.0418
 1219SOL    HW1 9493   6.664   6.138  10.069 -0.8108 -0.8342  2.5167
 1219SOL    HW2 9494   6.651   6.285  10.101  0.0211  0.1014 -1.0288
 1220SOL     OW 9495   7.128   1.461   9.911  0.1229 -0.0199 -0.4843
 1220SOL    HW1 9496   7.169   1.517   9.976 -2.4167  0.1490  1.0823
 1220SOL    HW2 9497   7.185   1.468   9.834  0.9170  3.1663  0.2689
 1221SOL     OW 9498   0.807   3.059   5.417  0.3145 -0.1930 -0.1918
 1221SOL    HW1 9499   0.831   2.981   5.367 -0.4569 -0.2560 -0.4772
 1221SOL    HW2 9500   0.722   3.085   5.381  0.7144  0.9672 -0.3209
 1222SOL     OW 9501   2.630   5.698   4.297  0.1803 -0.2448  0.0873
 1222SOL    HW1 9502   2.589   5.736   4.220 -1.6254 -0.7870  0.7245
 1222SOL    HW2 9503   2.710   5.656   4.265 -0.1491  0.1935 -1.3465
 1223SOL     OW 9504   1.459   9.289   7.785  0.5541  0.7283  0.1023
 1223SOL    HW1 9505   1.510   9.288   7.865 -1.8178 -1.8744  1.7895
 1223SOL    HW2 9506   1.517   9.251   7.719  1.1903 -1.2941  1.7105
 1224SOL     OW 9507   9.469   4.329   1.775  0.7979 -0.8193 -0.0068
 1224SOL    HW1 9508   9.480   4.406   1.720 -0.2765 -0.3532  0.3969
 1224SOL    HW2 9509   9.387   4.289   1.744  1.4887 -1.9865 -0.4186
 1225SOL     OW 9510   8.387   7.267   7.536  0.0803  0.2563 -0.8485
 1225SOL    HW1 9511   8.384   7.191   7.478  0.5635 -1.8104  1.6743
 1225SOL    HW2 9512   8.300   7.272   7.575  0.0580  0.9908 -0.9821
 1226SOL     OW 9513   5.348   2.025  10.472  0.3921 -0.2431 -0.2148
 1226SOL    HW1 9514   5.320   2.092  10.534  1.4111  0.9516 -0.9956
 1226SOL    HW2 9515   5.267   1.990  10.436 -0.2433 -1.2289  2.0118
 1227SOL     OW 9516   2.301   7.866   5.014  0.6066  0.5048 -0.5575
 1227SOL    HW1 9517   2.320   7.925   5.087  0.8301  0.0978 -0.2879
 1227SOL    HW2 9518   2.261   7.923   4.948  0.5151  0.8970 -0.1705
 1228SOL     OW 9519   2.017  10.233   9.021 -0.3134 -0.7234  0.0228
 1228SOL    HW1 9520   1.969  10.315   9.035 -0.4487 -0.6976 -0.5746
 1228SOL    HW2 9521   2.064  10.219   9.103  4.0831  2.8097 -1.4789
 1229SOL     OW 9522   2.461   0.784  10.692 -0.1788 -0.8083  0.2235
 1229SOL    HW1 9523   2.386   0.807  10.747  1.9437 -0.2222  3.1230
 1229SOL    HW2 9524   2.452   0.840  10.615 -1.0272  1.7534  2.0270
 1230SOL     OW 9525   1.917   0.120   4.595  0.3483 -0.4890 -0.5399
 1230SOL    HW1 9526   1.951   0.031   4.600 -0.6309 -0.8584 -0.0328
 1230SOL    HW2 9527   1.992   0.176   4.617  0.6393 -1.2637  0.5205
 1231SOL     OW 9528   4.140   8.738   8.278 -0.1644 -0.2966  0.0238
 1231SOL    HW1 9529   4.183   8.730   8.193  1.0586  0.1946  0.5708
 1231SOL    HW2 9530   4.056   8.779   8.259  0.8186  1.4508 -0.7804
 1232SOL     OW 9531   3.790   4.467   4.533  0.2621  0.3154  0.0179
 1232SOL    HW1 9532   3.848   4.401   4.570 -0.1315  0.8435  1.6412
 1232SOL    HW2 9533   3.822   4.550   4.569 -1.1686  0.6647  0.5311
 1233SOL     OW 9534   3.598   5.176   2.889  0.0373 -0.0114  0.7940
 1233SOL    HW1 9535   3.640   5.209   2.968 -0.8902  0.8265  0.9526
 1233SOL    HW2 9536   3.628   5.234   2.819 -0.3843  0.2256  0.8065
 1234SOL     OW 9537   3.575   0.365  10.449 -0.0838 -0.1197  0.2557
 1234SOL    HW1 9538   3.652   0.340  10.499 -0.8522 -2.4110  0.4029
 1234SOL    HW2 9539   3.502   0.326  10.497 -1.1413  0.3947 -0.8901
 1235SOL     OW 9540   2.481   9.716   2.713  0.1048 -0.4557 -0.4650
 1235SOL    HW1 9541   2.539   9.717   2.637 -0.4757 -1.0504 -0.9229
 1235SOL    HW2 9542   2.396   9.745   2.680  0.0868  0.2566  0.1692
 1236SOL     OW 9543   9.251   3.624   5.522 -0.1904  0.2067 -0.7317
 1236SOL    HW1 9544   9.265   3.626   5.616 -1.3270 -0.3919 -0.5364
 1236SOL    HW2 9545   9.219   3.711   5.500 -2.2299 -0.3565 -0.1601
 1237SOL     OW 9546   9.299   1.204   1.611 -0.1980 -0.0111  0.4450
 1237SOL    HW1 9547   9.278   1.221   1.519 -0.2495  0.9985  0.6398
 1237SOL    HW2 9548   9.347   1.282   1.640 -0.8068  0.0012  1.4743
 1238SOL     OW 9549   7.109   8.668   6.326 -0.1911  0.0271  0.3281
 1238SOL    HW1 9550   7.114   8.603   6.396  0.6834  1.1302  1.3272
 1238SOL    HW2 9551   7.019   8.700   6.329 -0.7615 -1.4251 -0.4740
 1239SOL     OW 9552   1.581   2.217   5.340 -1.0881 -0.4857 -0.8565
 1239SOL    HW1 9553   1.638   2.261   5.276  0.2474 -0.7567  0.1038
 1239SOL    HW2 9554   1.493   2.246   5.317 -0.6247 -0.3462 -2.6366
 1240SOL     OW 9555   0.440   4.907   1.017  0.2952 -0.1991 -0.2276
 1240SOL    HW1 9556   0.468   4.963   0.945  5.2249 -0.5076  1.0945
 1240SOL    HW2 9557   0.416   4.967   1.087 -1.1834  0.0954 -0.9447
 1241SOL     OW 9558   4.510   8.389   6.310  0.3522 -0.3614  0.2274
 1241SOL    HW1 9559   4.476   8.453   6.247 -0.1649 -1.4700 -0.6485
 1241SOL    HW2 9560   4.456   8.402   6.388 -2.0764 -1.9427 -1.0695
 1242SOL     OW 9561   9.617   6.540   6.674  0.1124  0.0502  0.1005
 1242SOL    HW1 9562   9.588   6.450   6.655  1.1968  0.1728 -2.5285
 1242SOL    HW2 9563   9.549   6.595   6.636 -0.6210  0.4003  1.8307
 1243SOL     OW 9564   9.010   8.768   0.870  0.2288  0.3790 -0.1245
 1243SOL    HW1 9565   9.010   8.834   0.938 -0.4349  0.2121  0.0443
 1243SOL    HW2 9566   9.032   8.686   0.916 -0.7455  0.1737 -0.0089
 1244SOL     OW 9567   9.604   8.847   9.201  0.1160  0.3584  0.4464
 1244SOL    HW1 9568   9.620   8.902   9.278 -0.0189  0.8969  0.0916
 1244SOL    HW2 9569   9.603   8.757   9.236  0.2864  0.5796  1.0340
 1245SOL     OW 9570  10.151   2.223   0.559 -0.2487  0.0653  0.2080
 1245SOL    HW1 9571  10.120   2.312   0.574  0.1867  0.3075 -0.2971
 1245SOL    HW2 9572  10.245   2.233   0.541 -0.0189 -0.5745  0.9541
 1246SOL     OW 9573  10.708  10.231   6.754  0.0957 -0.6766  0.1007
 1246SOL    HW1 9574  10.738  10.316   6.724 -0.0985 -0.2976  0.9621
 1246SOL    HW2 9575  10.654  10.250   6.831  0.4471 -1.6129  0.5910
 1247SOL     OW 9576   8.525   4.589   5.079  0.3091  0.2634 -0.0972
 1247SOL    HW1 9577   8.618   4.608   5.095  0.9265 -1.4529 -1.2979
 1247SOL    HW2 9578   8.508   4.510   5.131 -0.2029 -0.0004 -0.6605
 1248SOL     OW 9579   2.437   7.875   9.099 -0.2678 -0.1967 -0.3151
 1248SOL    HW1 9580   2.375   7.948   9.099  1.5568  1.5196 -2.7532
 1248SOL    HW2 9581   2.382   7.797   9.106 -2.3285  1.3225  2.1053
 1249SOL     OW 9582   2.261   8.465   1.476 -0.1690 -0.1495  0.7184
 1249SOL    HW1 9583   2.274   8.535   1.412 -0.3413 -0.4883  0.3015
 1249SOL    HW2 9584   2.276   8.506   1.561  1.1856  0.0612  0.4132
 1250SOL     OW 9585  10.471   5.271   1.032  0.3705 -0.0585  0.0361
 1250SOL    HW1 9586  10.492   5.352   1.078  1.9140 -0.3110 -0.1808
 1250SOL    HW2 9587  10.477   5.203   1.099  1.3802 -0.2667 -0.2442
 1251SOL     OW 9588   4.986   3.145   3.824 -0.2177 -0.1126 -0.4267
 1251SOL    HW1 9589   4.978   3.135   3.729  0.4707  1.2676 -0.6482
 1251SOL    HW2 9590   5.080   3.148   3.840 -0.3410  0.1638  0.2466
 1252SOL     OW 9591   6.763   9.449   7.835 -0.2691 -0.3987 -0.1499
 1252SOL    HW1 9592   6.835   9.387   7.847 -0.7696 -0.7846  1.0875
 1252SOL    HW2 9593   6.743   9.445   7.742 -1.3605 -3.4139  0.0964
 1253SOL     OW 9594   0.140   3.699   4.467 -0.4003 -0.0771  0.1365
 1253SOL    HW1 9595   0.227   3.731   4.443 -0.3566  0.6177  1.1542
 1253SOL    HW2 9596   0.100   3.674   4.384  0.7518 -0.3753 -0.3525
 1254SOL     OW 9597   4.513   8.411   2.905  0.2772  0.8846  0.0489
 1254SOL    HW1 9598   4.489   8.320   2.890  2.1614  0.3024  0.2951
 1254SOL    HW2 9599   4.496   8.425   2.998 -0.7766  1.0565 -0.1565
 1255SOL     OW 9600   5.541   0.665   7.126 -0.3199 -0.4728 -0.0719
 1255SOL    HW1 9601   5.504   0.731   7.068 -1.1369  0.3831  1.3425
 1255SOL    HW2 9602   5.569   0.715   7.203  0.7578 -1.5503  0.2694
 1256SOL     OW 9603   7.300   7.729  10.080 -0.4089 -0.6698 -0.5620
 1256SOL    HW1 9604   7.394   7.725  10.100 -0.2962  1.2035 -0.5223
 1256SOL    HW2 9605   7.264   7.650  10.120  0.7249 -0.0252  1.9570
 1257SOL     OW 9606   4.536  10.451   9.461 -0.1341  0.2963 -0.0578
 1257SOL    HW1 9607   4.557  10.514   9.392 -0.8187  0.6176  0.0225
 1257SOL    HW2 9608   4.571  10.368   9.428 -0.4738  0.4387 -0.8095
 1258SOL     OW 9609   6.625   6.131   7.367 -0.3361 -0.0008  0.2030
 1258SOL    HW1 9610   6.707   6.179   7.353  0.8330 -0.9300  3.1603
 1258SOL    HW2 9611   6.576   6.184   7.430 -1.8353  0.2381 -1.0790
 1259SOL     OW 9612   1.751   8.457   5.361  0.4939  0.2106  0.3757
 1259SOL    HW1 9613   1.823   8.487   5.416 -0.2636 -0.7523  1.9348
 1259SOL    HW2 9614   1.705   8.537   5.335  1.8264  0.7963 -0.2770
 1260SOL     OW 9615   8.923   1.622   8.481 -0.0933 -0.3433 -0.1917
 1260SOL    HW1 9616   9.001   1.666   8.514 -0.1659  0.8717 -1.5473
 1260SOL    HW2 9617   8.955   1.538   8.448  0.0583 -1.3554  2.3475
 1261SOL     OW 9618   0.715   6.289   0.679  0.0247 -0.4082  0.0662
 1261SOL    HW1 9619   0.729   6.382   0.662 -0.7550 -0.6717 -2.2498
 1261SOL    HW2 9620   0.784   6.245   0.630  0.4049 -1.0727  1.1690
 1262SOL     OW 9621   5.968   7.007   2.423  0.4534  0.2876 -0.0006
 1262SOL    HW1 9622   5.894   7.014   2.364  1.7525 -0.3900 -1.7933
 1262SOL    HW2 9623   6.009   7.094   2.420  0.5688  0.2279 -0.1714
 1263SOL     OW 9624   2.352   1.450   5.508  0.4665 -0.2153  0.4800
 1263SOL    HW1 9625   2.320   1.529   5.551 -0.2037  0.3541 -0.9685
 1263SOL    HW2 9626   2.273   1.403   5.483  0.6995  0.5870 -2.0465
 1264SOL     OW 9627   9.633   1.474   6.088  0.7441  0.3030  0.0436
 1264SOL    HW1 9628   9.594   1.441   6.169  0.8448  1.7184  0.6991
 1264SOL    HW2 9629   9.723   1.442   6.090  0.1947 -1.4226 -0.5712
 1265SOL     OW 9630   6.635   6.650   1.456  0.0163 -0.1951  1.0657
 1265SOL    HW1 9631   6.652   6.602   1.375 -1.1335  1.8377 -0.4823
 1265SOL    HW2 9632   6.722   6.664   1.494  0.4678 -2.4588  1.0244
 1266SOL     OW 9633   9.564   0.357   6.261  0.0783  0.5317  0.5996
 1266SOL    HW1 9634   9.510   0.283   6.232  0.3213  0.1529  1.1028
 1266SOL    HW2 9635   9.535   0.373   6.351  2.0036 -0.8154  1.5113
 1267SOL     OW 9636   5.502   4.017   1.058  0.1624 -0.1736 -0.0669
 1267SOL    HW1 9637   5.466   3.942   1.106  1.1282 -1.1427 -0.8046
 1267SOL    HW2 9638   5.501   3.990   0.967 -0.7798  1.2840 -0.5184
 1268SOL     OW 9639   5.157   0.872   3.765  0.1472 -0.5582 -0.1345
 1268SOL    HW1 9640   5.148   0.781   3.737 -1.7656 -0.6646  0.6674
 1268SOL    HW2 9641   5.091   0.883   3.834  0.5043  1.3689 -0.0312
 1269SOL     OW 9642   0.667   4.002   3.227  0.1499  0.5325 -0.1911
 1269SOL    HW1 9643   0.700   3.979   3.140  1.4007 -0.0316  0.4066
 1269SOL    HW2 9644   0.612   4.079   3.212  1.8599  1.6208 -1.2419
 1270SOL     OW 9645   8.840   5.158   4.575 -0.1397 -0.3021 -0.3078
 1270SOL    HW1 9646   8.836   5.192   4.665  0.8048  2.3932 -1.1709
 1270SOL    HW2 9647   8.917   5.101   4.575  0.4238  0.4203  0.4109
 1271SOL     OW 9648   1.484   5.507   9.044  0.7362 -0.1076 -0.1578
 1271SOL    HW1 9649   1.439   5.539   9.122  0.8147 -1.5954  0.5195
 1271SOL    HW2 9650   1.577   5.508   9.068  0.8565  0.4319 -0.6204
 1272SOL     OW 9651   4.818   8.995   4.641 -0.4303 -0.2967  0.0255
 1272SOL    HW1 9652   4.746   9.046   4.605  1.8400  2.1406 -1.4806
 1272SOL    HW2 9653   4.856   9.052   4.708  0.6853 -1.0288  0.0393
 1273SOL     OW 9654   2.091   4.068   6.288 -0.8354 -0.3351  0.0373
 1273SOL    HW1 9655   2.022   4.094   6.349 -2.4844  1.5627 -2.4629
 1273SOL    HW2 9656   2.067   4.109   6.205  2.6850 -0.6066 -1.2803
 1274SOL     OW 9657   1.564   9.504   1.176 -0.9444 -0.3303 -0.7878
 1274SOL    HW1 9658   1.638   9.509   1.116 -1.0408  2.5818 -0.7917
 1274SOL    HW2 9659   1.602   9.526   1.262 -1.8164  1.6616 -0.8677
 1275SOL     OW 9660   0.880   6.215   0.108  0.2816  0.3313  0.1764
 1275SOL    HW1 9661   0.948   6.149   0.092 -0.6533 -1.2183  2.1323
 1275SOL    HW2 9662   0.805   6.187   0.056 -0.0927 -0.1248  0.9507
 1276SOL     OW 9663   1.366   1.410   8.507 -0.6744 -0.1775 -0.3528
 1276SOL    HW1 9664   1.398   1.488   8.462  0.3380 -0.3244  0.0782
 1276SOL    HW2 9665   1.330   1.355   8.437 -0.6487  0.3163 -0.7624
 1277SOL     OW 9666   5.875   2.466   8.394 -0.0747 -0.7383  0.0771
 1277SOL    HW1 9667   5.797   2.520   8.409 -0.5362 -1.6105  0.9410
 1277SOL    HW2 9668   5.900   2.484   8.303  0.0173  1.2035  0.4527
 1278SOL     OW 9669   2.045   8.682   9.802  0.1118 -0.1719 -0.7029
 1278SOL    HW1 9670   2.024   8.590   9.817 -1.4710  0.1434 -0.8835
 1278SOL    HW2 9671   1.967   8.730   9.829 -0.0995  0.9271 -2.9764
 1279SOL     OW 9672   8.050   2.965   0.347  0.0097 -0.4994 -0.1659
 1279SOL    HW1 9673   8.002   2.961   0.430  0.5784 -1.7874  0.1275
 1279SOL    HW2 9674   7.986   2.937   0.281 -0.1548 -0.4600 -0.0239
 1280SOL     OW 9675   1.889   8.170   8.776  0.0374 -0.7342  0.3703
 1280SOL    HW1 9676   1.979   8.201   8.788  0.3837 -1.1601 -0.8950
 1280SOL    HW2 9677   1.853   8.165   8.865  0.9986  0.1873  0.8363
 1281SOL     OW 9678   8.219  10.642   5.876 -0.1641 -0.2214 -0.5374
 1281SOL    HW1 9679   8.249  10.679   5.793 -3.1411 -0.4054 -1.8164
 1281SOL    HW2 9680   8.144  10.589   5.853  0.0191 -1.7996  2.1071
 1282SOL     OW 9681   8.985   3.373   8.058  0.1471  0.8947 -0.0058
 1282SOL    HW1 9682   8.936   3.436   8.110 -1.1843 -0.0021 -0.1158
 1282SOL    HW2 9683   9.056   3.343   8.116 -1.0567  0.2188  1.1772
 1283SOL     OW 9684   7.666   0.280   3.301  0.1618  0.0629  0.0254
 1283SOL    HW1 9685   7.649   0.292   3.208 -0.2829  0.2853  0.1336
 1283SOL    HW2 9686   7.744   0.333   3.319  0.1972  0.0873 -0.2014
 1284SOL     OW 9687   9.646   5.259   1.692 -0.4280  0.6813  0.1500
 1284SOL    HW1 9688   9.650   5.323   1.763  0.2235  0.2331  0.5259
 1284SOL    HW2 9689   9.617   5.178   1.734 -1.4124  0.7598 -0.3518
 1285SOL     OW 9690  10.100   0.689   9.738 -0.5865  0.2177 -0.2612
 1285SOL    HW1 9691  10.139   0.740   9.667  0.6392  2.2649  1.7280
 1285SOL    HW2 9692  10.006   0.704   9.730 -0.4731  0.4070 -1.4147
 1286SOL     OW 9693   4.479   4.797   4.800  0.1707  0.0457 -0.3525
 1286SOL    HW1 9694   4.522   4.749   4.730  0.8105  0.7432 -0.4524
 1286SOL    HW2 9695   4.436   4.871   4.756 -2.2598 -1.3207 -0.4428
 1287SOL     OW 9696   8.549   6.821   8.267  0.0969  0.3699  0.2124
 1287SOL    HW1 9697   8.598   6.757   8.319 -0.1401 -0.1727 -0.2174
 1287SOL    HW2 9698   8.596   6.826   8.184 -1.4479 -1.4368 -0.8734
 1288SOL     OW 9699   4.019   7.478   4.507  0.4841  0.1846 -0.6577
 1288SOL    HW1 9700   4.042   7.554   4.455 -0.5638  3.4586  3.1280
 1288SOL    HW2 9701   4.071   7.486   4.587 -2.8957 -0.3549  1.8544
 1289SOL     OW 9702   2.591   2.957   4.655  0.0541 -0.0853 -0.0723
 1289SOL    HW1 9703   2.619   3.000   4.736 -0.1346  0.2077 -0.1607
 1289SOL    HW2 9704   2.500   2.982   4.645 -0.3139 -1.2058  0.3172
 1290SOL     OW 9705   5.168   9.728   3.806 -0.5143  0.0600  0.2470
 1290SOL    HW1 9706   5.145   9.641   3.775 -0.0704 -0.3105  0.9442
 1290SOL    HW2 9707   5.146   9.786   3.733  0.3655 -0.7722 -0.7152
 1291SOL     OW 9708   5.925   9.533   3.454 -0.1956 -0.3924  0.2558
 1291SOL    HW1 9709   5.923   9.475   3.530 -2.2731 -0.2452  0.3611
 1291SOL    HW2 9710   5.931   9.474   3.379  2.1792 -0.5317  0.4676
 1292SOL     OW 9711   9.997   4.981   4.941 -0.1624  0.3328  0.3296
 1292SOL    HW1 9712   9.907   4.965   4.970 -0.1825 -1.8460 -0.7769
 1292SOL    HW2 9713  10.051   4.937   5.006  0.1780  1.9159  1.1757
 1293SOL     OW 9714   2.965   3.239   2.493 -0.3980 -0.2317 -0.3658
 1293SOL    HW1 9715   2.997   3.325   2.518 -0.4567 -0.1716 -0.4974
 1293SOL    HW2 9716   2.974   3.186   2.572 -3.2995  0.7022  0.7064
 1294SOL     OW 9717  10.664   7.190   6.549  0.0660  0.0938  0.2766
 1294SOL    HW1 9718  10.658   7.249   6.473  0.0784 -0.7569 -0.3988
 1294SOL    HW2 9719  10.746   7.215   6.591  0.7905 -0.3482 -0.8071
 1295SOL     OW 9720   2.747   9.649   0.518 -0.4009  0.3192 -0.6278
 1295SOL    HW1 9721   2.823   9.591   0.530 -0.7766 -0.2030 -0.7062
 1295SOL    HW2 9722   2.674   9.598   0.553 -0.3792  1.7354  1.6439
 1296SOL     OW 9723   7.399  10.472   0.370  0.1411 -0.3157 -0.3051
 1296SOL    HW1 9724   7.387  10.408   0.300 -2.0196 -1.4243  0.9521
 1296SOL    HW2 9725   7.364  10.554   0.335 -1.2559 -0.9419 -0.4481
 1297SOL     OW 9726   8.988   7.276   1.259  0.6059 -0.0422 -0.2112
 1297SOL    HW1 9727   8.987   7.238   1.171  1.0134  0.9496 -0.6631
 1297SOL    HW2 9728   8.917   7.341   1.257  0.6226 -0.0115  0.1925
 1298SOL     OW 9729   0.706   8.714   9.288  0.4665  0.4749  0.0095
 1298SOL    HW1 9730   0.674   8.755   9.369 -0.6999 -1.6770  0.7513
 1298SOL    HW2 9731   0.736   8.627   9.316  0.4263 -0.1681 -1.8016
 1299SOL     OW 9732   8.922   1.184   2.150 -0.2332 -0.0593 -0.0288
 1299SOL    HW1 9733   8.964   1.100   2.170 -1.0016 -0.4570 -0.0882
 1299SOL    HW2 9734   8.862   1.165   2.078 -0.2525  0.5905 -0.1893
 1300SOL     OW 9735   1.034  10.686   5.667  0.5595 -0.0628  0.4833
 1300SOL    HW1 9736   0.990  10.667   5.750 -0.3384 -0.0941  0.0117
 1300SOL    HW2 9737   1.049  10.780   5.669 -2.3333  0.5330 -0.6321
 1301SOL     OW 9738   4.663  10.149   6.736  0.0681  0.2175 -0.1406
 1301SOL    HW1 9739   4.682  10.105   6.653  0.1187 -0.9350  0.4597
 1301SOL    HW2 9740   4.736  10.125   6.794 -0.3949  0.2980  0.4903
 1302SOL     OW 9741   3.129   3.452   5.145  0.4023 -0.0744  0.1588
 1302SOL    HW1 9742   3.052   3.395   5.151  0.8343 -0.6066  0.7819
 1302SOL    HW2 9743   3.128   3.503   5.226  2.0235 -1.8252  1.3778
 1303SOL     OW 9744   4.948   2.852   4.006 -0.0300  0.1680 -0.6135
 1303SOL    HW1 9745   4.899   2.798   4.068 -1.5991 -1.0344 -2.7692
 1303SOL    HW2 9746   4.881   2.899   3.956  1.0787  0.0519 -2.2846
 1304SOL     OW 9747   9.847   0.121   7.201  0.6356 -0.4182 -0.2678
 1304SOL    HW1 9748   9.880   0.038   7.236 -1.0061 -0.7970  0.4877
 1304SOL    HW2 9749   9.886   0.188   7.257 -0.9086 -0.9377  1.5281
 1305SOL     OW 9750   5.235   8.279   1.168  0.1763  0.9003  0.0066
 1305SOL    HW1 9751   5.246   8.282   1.263  0.5913 -2.3060  0.1850
 1305SOL    HW2 9752   5.161   8.336   1.149  0.0180  1.5069  2.2705
 1306SOL     OW 9753   7.483   8.819   9.522  0.8039 -0.1099 -0.4147
 1306SOL    HW1 9754   7.446   8.731   9.515  0.4846  0.0442 -0.6952
 1306SOL    HW2 9755   7.421   8.875   9.475  1.2441  0.1971 -0.6365
 1307SOL     OW 9756   9.112   6.574   0.055  0.1900  0.3863  0.2213
 1307SOL    HW1 9757   9.121   6.546  -0.037 -0.0081  0.5904  0.1383
 1307SOL    HW2 9758   9.202   6.580   0.087  0.4265  2.5261 -0.6353
 1308SOL     OW 9759   8.258   8.986   4.821  0.3385 -0.0970  0.0233
 1308SOL    HW1 9760   8.304   9.061   4.861  0.8767 -0.2980 -0.2094
 1308SOL    HW2 9761   8.246   8.925   4.893  0.8254 -0.2253  0.0029
 1309SOL     OW 9762   4.627   8.038   0.616  0.3261  0.3118 -0.6722
 1309SOL    HW1 9763   4.641   7.955   0.660 -1.3731  0.4156  0.1068
 1309SOL    HW2 9764   4.641   8.104   0.684 -0.0245  0.5906 -0.8707
 1310SOL     OW 9765   9.325   5.750   9.448 -0.3209 -0.0210  0.0740
 1310SOL    HW1 9766   9.408   5.703   9.456 -0.1726  0.3907  1.1207
 1310SOL    HW2 9767   9.350   5.837   9.417 -0.4652 -0.2111 -0.5837
 1311SOL     OW 9768   7.470   2.606   3.441  0.0357 -0.0267  0.3599
 1311SOL    HW1 9769   7.493   2.515   3.424 -1.2606 -0.1887 -0.6957
 1311SOL    HW2 9770   7.387   2.619   3.395  1.4900  2.4341 -1.8933
 1312SOL     OW 9771   3.476   9.766   2.605  0.4474 -0.1696  0.4403
 1312SOL    HW1 9772   3.535   9.693   2.627 -0.7084 -2.0561 -2.2265
 1312SOL    HW2 9773   3.475   9.820   2.684  2.6909 -2.1292  1.9540
 1313SOL     OW 9774   7.337   9.070   9.694 -0.2491 -0.4786  0.2260
 1313SOL    HW1 9775   7.242   9.062   9.690 -0.3436  0.5572  0.3343
 1313SOL    HW2 9776   7.355   9.158   9.663  0.6477 -0.5084  0.6466
 1314SOL     OW 9777   6.114   8.917   8.170 -0.1815  0.0912 -0.1736
 1314SOL    HW1 9778   6.057   8.978   8.124  0.0805  0.2758 -0.2593
 1314SOL    HW2 9779   6.121   8.842   8.112 -0.0427  0.2246 -0.3328
 1315SOL     OW 9780  10.517   8.416   1.401 -0.2311 -0.1055  0.1262
 1315SOL    HW1 9781  10.560   8.493   1.366  0.9807 -0.7381  0.1826
 1315SOL    HW2 9782  10.493   8.365   1.323  0.7839 -0.6172  0.1312
 1316SOL     OW 9783   5.358   6.724   8.598 -0.1082  0.1872  0.4771
 1316SOL    HW1 9784   5.308   6.799   8.564  0.3369  0.2665 -0.0140
 1316SOL    HW2 9785   5.389   6.678   8.519 -0.0496 -0.2953  0.7758
 1317SOL     OW 9786   8.506   4.649   7.882 -0.3692  0.4811  0.5440
 1317SOL    HW1 9787   8.587   4.608   7.913 -0.9995 -0.9408  0.4259
 1317SOL    HW2 9788   8.436   4.599   7.925 -1.2011  0.6573 -0.5434
 1318SOL     OW 9789   9.099   7.535   8.456 -0.3969  0.6636 -0.6082
 1318SOL    HW1 9790   9.078   7.575   8.541 -0.4150  2.0355 -1.2400
 1318SOL    HW2 9791   9.061   7.447   8.462  0.0832  0.5253  1.0090
 1319SOL     OW 9792   6.684   2.838   0.905 -0.3935 -0.3220 -0.1505
 1319SOL    HW1 9793   6.767   2.818   0.861  0.0126  2.6339 -0.9905
 1319SOL    HW2 9794   6.617   2.801   0.848  0.2634  0.1680 -1.2761
 1320SOL     OW 9795   5.942   1.631   3.977 -0.3705  0.1148  0.1724
 1320SOL    HW1 9796   5.987   1.646   3.894 -1.9109 -0.9194 -0.9143
 1320SOL    HW2 9797   5.938   1.536   3.986 -0.8991  0.2062  1.0228
 1321SOL     OW 9798   2.361   6.054   2.427  0.5021 -0.7471  0.0266
 1321SOL    HW1 9799   2.386   5.987   2.491 -0.4670 -0.0889  1.1390
 1321SOL    HW2 9800   2.266   6.046   2.420  0.4921 -0.1388 -0.5695
 1322SOL     OW 9801   8.421   3.050   2.633 -0.6721 -0.5825  0.7154
 1322SOL    HW1 9802   8.483   2.995   2.585  1.9056  2.3176  0.4424
 1322SOL    HW2 9803   8.342   3.051   2.579  1.2553  0.5921 -2.3309
 1323SOL     OW 9804   7.056   2.363   0.218  0.1118 -0.2012  0.2784
 1323SOL    HW1 9805   7.019   2.389   0.133 -1.7730  0.5718  1.2632
 1323SOL    HW2 9806   7.108   2.285   0.199 -0.1694  0.0259 -1.6088
 1324SOL     OW 9807  10.191   1.183   8.937  0.4639 -0.1621  0.0306
 1324SOL    HW1 9808  10.201   1.214   8.847 -0.2425  0.3309  0.1182
 1324SOL    HW2 9809  10.193   1.088   8.929  0.6480 -0.1215 -0.4795
 1325SOL     OW 9810   5.773   7.227  10.197 -0.6788 -0.2592  0.0451
 1325SOL    HW1 9811   5.719   7.174  10.256  1.4109 -0.1167  2.2140
 1325SOL    HW2 9812   5.820   7.287  10.255  0.7188  0.6121 -1.8829
 1326SOL     OW 9813   0.886   4.677   1.776  0.1491  0.4144 -0.9442
 1326SOL    HW1 9814   0.957   4.655   1.837  0.3880 -0.4811 -1.5259
 1326SOL    HW2 9815   0.931   4.710   1.698 -0.1417  1.2261 -0.7770
 1327SOL     OW 9816   6.812  10.017   1.243 -0.0582 -0.0670  0.6375
 1327SOL    HW1 9817   6.855   9.942   1.201  0.0798 -0.0415  0.7352
 1327SOL    HW2 9818   6.772   9.980   1.321 -0.5866 -0.1790  0.3198
 1328SOL     OW 9819   7.216   5.320   4.923  0.3917  0.0093 -0.0244
 1328SOL    HW1 9820   7.183   5.394   4.973  1.3540 -0.5543  1.4958
 1328SOL    HW2 9821   7.259   5.360   4.847 -1.9582  0.8247 -1.0085
 1329SOL     OW 9822   6.173   9.264   5.480 -0.2586 -0.4813  0.2443
 1329SOL    HW1 9823   6.086   9.227   5.467 -0.5204  0.0588  0.4662
 1329SOL    HW2 9824   6.225   9.227   5.409 -1.1833  0.8446 -1.1953
 1330SOL     OW 9825   6.245   9.163  10.028 -0.1728  0.0477 -0.3954
 1330SOL    HW1 9826   6.322   9.161   9.972  0.3347 -1.7258  0.2874
 1330SOL    HW2 9827   6.205   9.077  10.017 -1.7987  0.7682 -0.3633
 1331SOL     OW 9828   2.098   4.509   2.321  0.3615  0.0768  0.0175
 1331SOL    HW1 9829   2.180   4.521   2.273  0.4268  1.6581  0.4501
 1331SOL    HW2 9830   2.034   4.485   2.255  0.8156  0.5203 -0.5963
 1332SOL     OW 9831  10.600   2.594   1.844 -0.2648  0.0706 -0.7836
 1332SOL    HW1 9832  10.615   2.524   1.781 -2.2346  0.4668 -1.7808
 1332SOL    HW2 9833  10.627   2.674   1.799 -0.3621  0.2168 -0.5856
 1333SOL     OW 9834   8.349   5.605   9.063  1.0370  0.4300  0.6723
 1333SOL    HW1 9835   8.259   5.592   9.032  1.6962 -0.4258 -0.9760
 1333SOL    HW2 9836   8.341   5.672   9.132 -1.0704 -0.8865  1.8036
 1334SOL     OW 9837   5.792   7.684   7.022  0.1712 -0.0808  0.1179
 1334SOL    HW1 9838   5.767   7.600   7.060  0.5954  0.2464  1.1705
 1334SOL    HW2 9839   5.885   7.692   7.042  0.9891 -0.8739 -2.9584
 1335SOL     OW 9840   7.303   8.363   0.176 -0.1992  0.4339  0.1399
 1335SOL    HW1 9841   7.397   8.348   0.179 -0.0870  1.1495  2.2547
 1335SOL    HW2 9842   7.269   8.320   0.254 -1.8994 -1.1548 -1.3793
 1336SOL     OW 9843   8.427   2.762   5.486  0.0398  0.1435  0.2620
 1336SOL    HW1 9844   8.475   2.797   5.411  1.1267 -0.3184  0.7172
 1336SOL    HW2 9845   8.414   2.669   5.465 -1.4833  0.4343 -0.2563
 1337SOL     OW 9846   6.537   4.328   2.700  0.0802 -0.2836  0.3107
 1337SOL    HW1 9847   6.443   4.331   2.713 -0.0776  0.0129 -0.8044
 1337SOL    HW2 9848   6.557   4.404   2.646  1.1488  0.3640  1.5600
 1338SOL     OW 9849   4.429   4.952   2.324  0.3713 -0.2762 -1.0700
 1338SOL    HW1 9850   4.414   4.911   2.239  0.8268 -1.3227 -0.6747
 1338SOL    HW2 9851   4.365   4.910   2.382 -0.8696  1.4034 -1.1426
 1339SOL     OW 9852   8.395   0.475   3.557 -0.0218  0.3587 -0.0176
 1339SOL    HW1 9853   8.445   0.503   3.481  1.5770 -2.4569 -0.1159
 1339SOL    HW2 9854   8.369   0.385   3.538  0.1972 -0.3517  2.6066
 1340SOL     OW 9855   4.598   3.207   3.858 -0.3350  0.3451  0.3802
 1340SOL    HW1 9856   4.652   3.286   3.855  1.6173 -0.9019  0.5414
 1340SOL    HW2 9857   4.551   3.206   3.775  2.3378 -0.0923 -1.2369
 1341SOL     OW 9858   3.696   0.879   5.504  0.1701  0.0592  0.8299
 1341SOL    HW1 9859   3.752   0.844   5.574  1.2680  1.0011  0.4572
 1341SOL    HW2 9860   3.701   0.974   5.515  0.0007  0.2037 -0.2629
 1342SOL     OW 9861  10.663   7.878   0.848  0.2222 -0.1929  0.2659
 1342SOL    HW1 9862  10.748   7.900   0.808 -0.1793 -0.6751 -0.8783
 1342SOL    HW2 9863  10.677   7.792   0.888  0.1751 -0.4438 -0.2480
 1343SOL     OW 9864   4.959   9.793   8.011 -0.0127 -0.0277 -0.1280
 1343SOL    HW1 9865   4.899   9.867   8.008  0.2094  0.1571 -0.0166
 1343SOL    HW2 9866   4.926   9.733   7.944 -0.4689 -0.0404  0.0952
 1344SOL     OW 9867   4.655   0.648   6.266  0.3938  0.3388 -0.9870
 1344SOL    HW1 9868   4.718   0.708   6.224  0.7489 -0.0486 -1.0111
 1344SOL    HW2 9869   4.594   0.625   6.195 -0.4339  1.5594 -0.7119
 1345SOL     OW 9870   8.961   3.058   9.948  0.5705  0.3474  0.0778
 1345SOL    HW1 9871   9.009   3.089   9.871  0.1034 -0.6015 -0.6200
 1345SOL    HW2 9872   9.009   3.095  10.022  0.4427  2.1565 -0.6658
 1346SOL     OW 9873   1.301   1.386   7.109 -0.4225  0.1740  0.0726
 1346SOL    HW1 9874   1.334   1.301   7.136 -0.4724  0.2404  0.3451
 1346SOL    HW2 9875   1.256   1.421   7.186  0.5798  0.9372  0.3317
 1347SOL     OW 9876   3.833  10.100   1.073 -0.1081 -0.4711  0.1813
 1347SOL    HW1 9877   3.812  10.047   0.996 -0.4302 -0.4624  0.2626
 1347SOL    HW2 9878   3.773  10.174   1.068  1.0640  0.4711 -0.5237
 1348SOL     OW 9879   2.034   0.659   5.990 -0.1579  0.4773 -0.2996
 1348SOL    HW1 9880   1.966   0.599   5.958  1.0959 -0.8741 -0.5788
 1348SOL    HW2 9881   2.116   0.616   5.964  0.7964  2.5642 -0.9139
 1349SOL     OW 9882   0.910   5.821   1.578  0.0749  0.1210  0.0338
 1349SOL    HW1 9883   0.921   5.793   1.487  0.4418 -0.8045  0.3479
 1349SOL    HW2 9884   0.838   5.766   1.610  0.4383 -0.0851  0.5059
 1350SOL     OW 9885   5.746   3.725   2.188 -0.2589 -0.2744 -0.0310
 1350SOL    HW1 9886   5.728   3.681   2.271  2.3408  1.0918  1.3885
 1350SOL    HW2 9887   5.680   3.794   2.182 -0.1865 -0.0689  1.1896
 1351SOL     OW 9888   3.978   7.035   7.011 -0.1402  1.2166  0.2344
 1351SOL    HW1 9889   3.892   7.019   6.972 -1.1967  1.2482  2.4212
 1351SOL    HW2 9890   4.001   7.123   6.981  0.5505  0.1430 -2.7346
 1352SOL     OW 9891   1.746   4.069   5.436  0.4586 -0.2128 -0.3034
 1352SOL    HW1 9892   1.719   3.980   5.414 -0.2334 -0.0881  0.0068
 1352SOL    HW2 9893   1.722   4.121   5.360  0.2257 -0.1810 -0.2109
 1353SOL     OW 9894   0.207   1.988   1.640 -0.2082 -0.9348  0.2625
 1353SOL    HW1 9895   0.168   1.920   1.695 -1.5317  1.3938  2.4171
 1353SOL    HW2 9896   0.299   1.963   1.633 -0.5363 -2.6556  1.3661
 1354SOL     OW 9897  10.057   9.632   7.650  0.0992 -0.2680  0.8066
 1354SOL    HW1 9898  10.086   9.712   7.694 -0.7697  1.4963 -1.6577
 1354SOL    HW2 9899  10.138   9.590   7.620  0.4817  1.1842 -0.2997
 1355SOL     OW 9900  10.172   4.359   0.005  0.0891 -0.0719 -0.6045
 1355SOL    HW1 9901  10.219   4.441   0.018 -0.4790  0.0439  0.9675
 1355SOL    HW2 9902  10.081   4.385  -0.004 -0.4370 -0.5856  2.2058
 1356SOL     OW 9903   0.105   9.209   0.154 -0.1472  0.2930 -0.4735
 1356SOL    HW1 9904   0.014   9.205   0.183 -0.1613 -0.9304 -0.6168
 1356SOL    HW2 9905   0.100   9.203   0.058  0.0376  1.3809 -0.5597
 1357SOL     OW 9906   1.386  10.593   5.314 -0.2204 -0.3288  0.7929
 1357SOL    HW1 9907   1.433  10.571   5.395  0.7892 -0.7526  0.1133
 1357SOL    HW2 9908   1.348  10.679   5.332  1.2321  0.2624  1.2174
 1358SOL     OW 9909   3.379   0.676   2.292 -0.0411  0.1955  0.6519
 1358SOL    HW1 9910   3.339   0.668   2.379 -0.3334  0.5715  0.5558
 1358SOL    HW2 9911   3.307   0.699   2.235  0.2388  0.4401  0.3955
 1359SOL     OW 9912   8.631   9.996   6.029 -0.2443 -0.1187  0.6098
 1359SOL    HW1 9913   8.641  10.081   5.987 -1.1043  0.5638  1.7265
 1359SOL    HW2 9914   8.662   9.933   5.964  0.1337  1.0189 -0.3453
 1360SOL     OW 9915   8.336   2.402   6.968  0.0718  0.4352  0.3106
 1360SOL    HW1 9916   8.391   2.368   7.039 -0.3449 -0.4551  0.2274
 1360SOL    HW2 9917   8.282   2.469   7.009 -0.8271 -0.7217  1.0737
 1361SOL     OW 9918   0.836   8.009   3.199 -0.1306 -0.4296  0.5014
 1361SOL    HW1 9919   0.811   8.102   3.195  0.5524 -0.2380  0.5336
 1361SOL    HW2 9920   0.753   7.962   3.188 -0.3781  0.1773 -0.4022
 1362SOL     OW 9921   2.523   4.950   8.899 -0.5956  0.0155  0.2471
 1362SOL    HW1 9922   2.561   4.881   8.954 -1.8866 -0.3015  0.7895
 1362SOL    HW2 9923   2.548   4.927   8.810 -0.3164 -0.6895  0.5000
 1363SOL     OW 9924   5.660   7.400   5.013  0.2715  0.1119 -0.0534
 1363SOL    HW1 9925   5.676   7.458   4.939  1.5233  1.8929  1.5369
 1363SOL    HW2 9926   5.652   7.313   4.974  0.9777  0.9861 -2.2592
 1364SOL     OW 9927   9.310   0.385   3.004  0.2210  0.5725  1.2853
 1364SOL    HW1 9928   9.301   0.437   2.924  1.8853 -2.0913 -0.7961
 1364SOL    HW2 9929   9.223   0.349   3.019 -0.3633  1.9436  1.3533
 1365SOL     OW 9930   8.678   8.104   0.461 -0.3190 -0.1850  0.0680
 1365SOL    HW1 9931   8.635   8.177   0.505 -1.6291 -1.3606  0.8620
 1365SOL    HW2 9932   8.634   8.097   0.377 -1.0975 -0.8244  0.5126
 1366SOL     OW 9933   2.070   5.106   8.415 -0.0841 -0.1800 -0.5439
 1366SOL    HW1 9934   1.982   5.108   8.375 -0.2133 -0.5395 -0.2730
 1366SOL    HW2 9935   2.104   5.019   8.394 -1.0482 -1.2720  2.0497
 1367SOL     OW 9936   4.473   2.461   4.662 -0.0350  0.0648 -0.1768
 1367SOL    HW1 9937   4.494   2.537   4.607 -0.0625 -1.0267 -1.7700
 1367SOL    HW2 9938   4.378   2.459   4.663 -0.0501  0.6287  0.7384
 1368SOL     OW 9939   4.316   5.772  10.170 -0.3995 -0.7689  0.7550
 1368SOL    HW1 9940   4.337   5.687  10.207 -1.7732 -0.7145  1.7431
 1368SOL    HW2 9941   4.290   5.752  10.080  1.5386 -1.0788  0.2255
 1369SOL     OW 9942  10.173   7.366   4.415 -0.1743 -0.6746  0.0033
 1369SOL    HW1 9943  10.263   7.367   4.447 -0.6484  1.2244  1.4385
 1369SOL    HW2 9944  10.180   7.391   4.322  0.7021  0.6180  0.3950
 1370SOL     OW 9945   9.610   4.481  10.272  0.6405  0.5169  0.1886
 1370SOL    HW1 9946   9.544   4.518  10.329  0.1960  0.5084 -0.3127
 1370SOL    HW2 9947   9.659   4.420  10.328 -0.8120 -0.7061  0.1866
 1371SOL     OW 9948  10.504   8.996   1.225  0.2106 -0.2927  0.6708
 1371SOL    HW1 9949  10.436   8.933   1.250  0.9671 -0.8542  1.3796
 1371SOL    HW2 9950  10.571   8.942   1.183 -0.0166  0.3305 -0.5444
 1372SOL     OW 9951   9.819   2.262   1.093 -0.1040  0.1146  0.0643
 1372SOL    HW1 9952   9.754   2.201   1.059 -0.2569  0.8418 -0.9740
 1372SOL    HW2 9953   9.767   2.332   1.134 -0.0726  1.4954 -2.1225
 1373SOL     OW 9954   3.538   2.604   6.410  0.7274 -0.4335 -0.4943
 1373SOL    HW1 9955   3.537   2.633   6.501  1.0884 -1.4554 -0.1601
 1373SOL    HW2 9956   3.628   2.578   6.393  0.4236 -1.3381 -0.7872
 1374SOL     OW 9957   2.211   6.913   1.649  0.0245 -0.3741 -0.4666
 1374SOL    HW1 9958   2.268   6.845   1.613  3.4762  1.8600  0.2796
 1374SOL    HW2 9959   2.204   6.978   1.579 -0.2740  0.1405  0.0351
 1375SOL     OW 9960   7.286   1.443   7.906  0.0458  0.5483 -0.0751
 1375SOL    HW1 9961   7.257   1.480   7.823 -1.6926 -2.5417 -0.9954
 1375SOL    HW2 9962   7.260   1.351   7.902 -0.6716  0.3538  4.1137
 1376SOL     OW 9963   0.963   7.507   1.423  0.3302  0.3336  0.4471
 1376SOL    HW1 9964   0.921   7.439   1.370 -0.0277  0.7194  0.2264
 1376SOL    HW2 9965   1.057   7.491   1.413  0.2550  0.0474  0.1709
 1377SOL     OW 9966   6.500   6.184   2.093 -0.0189  0.2778 -0.8342
 1377SOL    HW1 9967   6.474   6.114   2.153  2.2342 -0.1070 -0.2337
 1377SOL    HW2 9968   6.522   6.258   2.150  3.0885 -0.4027 -1.0072
 1378SOL     OW 9969   1.385   3.435   1.973 -0.8736 -0.3641 -0.2025
 1378SOL    HW1 9970   1.392   3.347   1.936 -1.1239 -0.8567  0.8824
 1378SOL    HW2 9971   1.333   3.424   2.052 -0.6708  0.7200  0.1041
 1379SOL     OW 9972   2.412   5.031   9.271 -0.2060  0.4647 -0.3168
 1379SOL    HW1 9973   2.407   4.970   9.344  2.2131  0.2171 -0.2897
 1379SOL    HW2 9974   2.469   4.988   9.207  2.0289  2.8460 -0.0929
 1380SOL     OW 9975   8.045   0.418   6.921 -0.1706 -0.4227 -0.6113
 1380SOL    HW1 9976   7.956   0.447   6.942  0.6817  0.1694  2.8062
 1380SOL    HW2 9977   8.096   0.499   6.917  0.7047 -0.9036  0.4420
 1381SOL     OW 9978   0.276   1.082   0.989  0.3949  0.1478 -0.0058
 1381SOL    HW1 9979   0.229   1.019   1.044  0.6177 -0.6429 -0.6972
 1381SOL    HW2 9980   0.359   1.096   1.035 -0.8964  2.4801  1.8627
 1382SOL     OW 9981   8.901   8.911   4.808  0.0284  0.5272 -0.3897
 1382SOL    HW1 9982   8.942   8.825   4.817 -0.7735  0.1931  0.1946
 1382SOL    HW2 9983   8.931   8.943   4.723  2.0158  0.5994  0.2944
 1383SOL     OW 9984   5.419   2.766   3.237  0.0908  0.3962  0.5786
 1383SOL    HW1 9985   5.437   2.706   3.164 -0.8968  0.0261  0.6214
 1383SOL    HW2 9986   5.426   2.711   3.315 -1.3079  0.1922  0.5863
 1384SOL     OW 9987   4.033   8.033   5.565  0.3328  0.7030 -0.8170
 1384SOL    HW1 9988   4.077   8.088   5.630  2.2699 -1.7297  0.1278
 1384SOL    HW2 9989   3.973   7.979   5.616  0.8299 -0.2425 -1.1875
 1385SOL     OW 9990  10.139   4.120   8.535  0.0163 -0.3390 -0.1636
 1385SOL    HW1 9991  10.140   4.216   8.537  1.9100 -0.2924 -1.1393
 1385SOL    HW2 9992  10.066   4.099   8.476 -1.6679  0.3827  1.5315
 1386SOL     OW 9993   1.670  10.691   7.478  0.7253 -0.1423 -0.3656
 1386SOL    HW1 9994   1.631  10.621   7.427  1.6070  0.0037 -1.2859
 1386SOL    HW2 9995   1.680  10.655   7.566 -1.3237 -0.2153 -0.1223
 1387SOL     OW 9996   7.944  10.445   4.141 -0.2402  0.4066 -0.6122
 1387SOL    HW1 9997   7.866  10.500   4.140 -0.9238 -0.3229  2.4703
 1387SOL    HW2 9998   8.013  10.501   4.174 -0.3562  0.1411  0.1193
 1388SOL     OW 9999   1.697   6.986   0.311 -0.8650  0.1718 -0.0184
 1388SOL    HW110000   1.744   6.906   0.287 -2.1150  0.0460 -2.2905
 1388SOL    HW210001   1.765   7.043   0.347 -0.0382 -2.0816  2.3146
 1389SOL     OW10002   2.816   8.191   1.477 -0.3482 -0.2386 -0.0192
 1389SOL    HW110003   2.870   8.269   1.475  0.2240 -0.6492 -1.7183
 1389SOL    HW210004   2.873   8.122   1.511 -0.1598 -0.3985 -0.6448
 1390SOL     OW10005   4.280   7.658   3.539  0.3482  0.3427 -0.1252
 1390SOL    HW110006   4.231   7.580   3.511  0.4703  0.6172 -1.1704
 1390SOL    HW210007   4.270   7.719   3.466  0.5285  1.1831  0.5490
 1391SOL     OW10008   5.223   9.757   0.397  0.0864 -0.5835  0.1277
 1391SOL    HW110009   5.266   9.698   0.460 -1.1130 -1.6591 -0.0248
 1391SOL    HW210010   5.130   9.752   0.420  0.0613  2.4722  1.1027
 1392SOL     OW10011   5.821   0.173   0.577 -0.2689 -0.1711  0.0607
 1392SOL    HW110012   5.829   0.165   0.672  2.3505 -2.5113 -0.2284
 1392SOL    HW210013   5.727   0.166   0.560 -0.6157 -2.2581  2.3524
 1393SOL     OW10014   2.728   3.686   7.123  0.3334  0.6763  0.9074
 1393SOL    HW110015   2.645   3.731   7.143 -0.6290 -1.3607  1.7402
 1393SOL    HW210016   2.710   3.594   7.141  1.9417 -0.2352 -1.6117
 1394SOL     OW10017   8.056   5.782   3.281 -0.5407  0.0940  0.0482
 1394SOL    HW110018   8.141   5.768   3.323 -0.6910 -1.3859 -0.0747
 1394SOL    HW210019   7.993   5.752   3.346 -0.8579 -0.6672 -0.5950
 1395SOL     OW10020   4.820   9.107   9.643  0.1368 -0.1458 -0.1918
 1395SOL    HW110021   4.771   9.146   9.570  0.2608  0.4563  0.0407
 1395SOL    HW210022   4.886   9.172   9.665  0.9416 -0.8751 -0.3840
 1396SOL     OW10023   0.252   4.594  10.486 -0.0445 -0.0887 -0.3035
 1396SOL    HW110024   0.269   4.614  10.394  0.4680  0.7787 -0.0379
 1396SOL    HW210025   0.274   4.502  10.495  1.2725  0.1530 -0.7501
 1397SOL     OW10026   6.820   3.004   3.443  0.3215 -0.1714 -0.2826
 1397SOL    HW110027   6.856   3.011   3.355 -0.2042 -0.2502 -0.5021
 1397SOL    HW210028   6.747   3.065   3.445 -0.5142 -1.1315 -0.3326
 1398SOL     OW10029   8.174   2.827   2.785 -0.3252 -0.8152  1.0635
 1398SOL    HW110030   8.235   2.869   2.725  0.3799 -0.7242  1.8297
 1398SOL    HW210031   8.122   2.768   2.729  0.2904 -0.7127  0.3674
 1399SOL     OW10032   7.187   2.283   4.954 -0.2347  0.0066 -0.1817
 1399SOL    HW110033   7.211   2.236   5.034  1.0178  1.0395  0.0786
 1399SOL    HW210034   7.182   2.374   4.980 -2.0055  0.1311 -0.8304
 1400SOL     OW10035   2.713   3.661   0.239 -0.0687  0.2668  0.0044
 1400SOL    HW110036   2.696   3.747   0.277 -1.5936 -0.4328  1.0469
 1400SOL    HW210037   2.762   3.678   0.159  3.7650  1.8476  2.4006
 1401SOL     OW10038   6.422   1.384   4.942  0.1300 -0.1655 -0.1168
 1401SOL    HW110039   6.363   1.361   5.015 -0.8681  2.0113 -0.1461
 1401SOL    HW210040   6.448   1.300   4.905 -0.8113 -1.2842  1.6023
 1402SOL     OW10041   3.138   8.208  10.233  0.0523  0.3111  0.3935
 1402SOL    HW110042   3.181   8.185  10.151 -1.8635 -0.6486 -0.4101
 1402SOL    HW210043   3.056   8.159  10.231 -1.4480  2.5950  1.4645
 1403SOL     OW10044   1.963   7.037   9.138 -0.2516  0.4537  0.1535
 1403SOL    HW110045   1.944   6.944   9.148 -1.5409  0.5413 -1.1255
 1403SOL    HW210046   2.010   7.043   9.055 -3.9140  1.2946 -2.0669
 1404SOL     OW10047   6.894   4.849   6.478  0.2499  0.1352 -0.1000
 1404SOL    HW110048   6.830   4.780   6.494  0.5139 -0.0843  0.0042
 1404SOL    HW210049   6.977   4.803   6.465  0.5105  0.4528  0.4124
 1405SOL     OW10050   8.025   6.670   9.854  0.6169 -0.0529 -0.1958
 1405SOL    HW110051   7.990   6.738   9.912 -1.5816 -0.2276 -1.1912
 1405SOL    HW210052   8.106   6.707   9.820 -0.6574  2.2431 -0.9387
 1406SOL     OW10053   9.467   2.082   5.922 -0.5812  0.9355  0.1155
 1406SOL    HW110054   9.463   2.033   5.840 -2.1897 -0.0607  0.7319
 1406SOL    HW210055   9.398   2.148   5.914 -2.7458 -0.9702  1.6806
 1407SOL     OW10056   5.730   5.632   6.119 -0.3719 -0.1879 -0.6058
 1407SOL    HW110057   5.759   5.649   6.030  2.8671  0.5636  0.4726
 1407SOL    HW210058   5.699   5.717   6.151  3.8693  1.1084  0.6745
 1408SOL     OW10059   6.936   2.782   6.893  0.0900 -0.3136  0.1045
 1408SOL    HW110060   6.893   2.698   6.877 -0.3785 -0.0206 -0.2013
 1408SOL    HW210061   7.023   2.772   6.854 -0.3349 -0.3010 -0.8772
 1409SOL     OW10062   1.612   0.820   7.556  0.4173  0.0663  0.1916
 1409SOL    HW110063   1.621   0.736   7.511 -0.2634 -0.2422  0.6003
 1409SOL    HW210064   1.698   0.861   7.551  0.0451  0.7110 -2.6712
 1410SOL     OW10065   3.178   6.653   4.058  0.2702 -0.1757 -0.2410
 1410SOL    HW110066   3.214   6.677   3.973 -2.6657  1.1448 -1.2546
 1410SOL    HW210067   3.175   6.735   4.107 -1.0549 -0.2540 -0.1445
 1411SOL     OW10068  10.025   0.750  10.669  0.0424 -0.4372  0.4879
 1411SOL    HW110069  10.087   0.722  10.601 -1.4211 -0.2852 -0.9942
 1411SOL    HW210070   9.941   0.714  10.640 -0.9163  1.0000  1.3594
 1412SOL     OW10071   2.258   0.408   9.511  0.7606  0.1403  0.2657
 1412SOL    HW110072   2.349   0.378   9.505  0.9260  0.3226  1.5685
 1412SOL    HW210073   2.246   0.429   9.604  0.1917  2.6783 -0.3211
 1413SOL     OW10074   4.540   1.092   8.308  0.1495 -0.2287 -0.5889
 1413SOL    HW110075   4.485   1.115   8.383  0.9241  2.1127 -0.6416
 1413SOL    HW210076   4.596   1.169   8.296  1.5484 -1.4412 -2.2188
 1414SOL     OW10077   2.568   4.170   8.114  0.0477  0.2008 -0.0628
 1414SOL    HW110078   2.650   4.122   8.099  0.1552  0.2606  0.3322
 1414SOL    HW210079   2.577   4.250   8.063 -0.2465 -0.3165 -0.9559
 1415SOL     OW10080  10.079   7.309   9.611  0.2312  0.1318 -0.1516
 1415SOL    HW110081  10.024   7.388   9.611 -0.1521 -0.1288  0.2287
 1415SOL    HW210082  10.104   7.297   9.520  0.7528  1.0097 -0.1367
 1416SOL     OW10083   9.139   2.981   5.706  0.0908 -0.5263 -0.7788
 1416SOL    HW110084   9.155   3.026   5.789  0.1382  3.0318 -2.5297
 1416SOL    HW210085   9.045   2.987   5.693  0.0255 -1.4680 -0.8247
 1417SOL     OW10086   4.415   0.200   9.436 -0.7012 -0.3424  0.3298
 1417SOL    HW110087   4.490   0.140   9.439 -0.4970 -0.0844  0.5840
 1417SOL    HW210088   4.412   0.230   9.345 -0.6747 -0.5776  0.2510
 1418SOL     OW10089   4.357   7.727   6.356  0.0474 -0.2396  0.5444
 1418SOL    HW110090   4.334   7.643   6.318 -1.2264  0.1731  0.3671
 1418SOL    HW210091   4.342   7.790   6.286  0.5892  0.1858  0.8066
 1419SOL     OW10092   7.589   2.551  10.257  0.2145 -0.5824 -0.0454
 1419SOL    HW110093   7.583   2.462  10.223  1.8499 -1.3179  1.4128
 1419SOL    HW210094   7.607   2.540  10.351  0.2514  1.2928  0.2185
 1420SOL     OW10095   5.884   2.515   3.005 -0.1616 -0.0555  0.6003
 1420SOL    HW110096   5.802   2.515   3.053  0.7477 -2.6485  2.3995
 1420SOL    HW210097   5.908   2.422   2.998  0.9669  0.3239 -2.8909
 1421SOL     OW10098   0.455   3.396   7.341 -0.2983  0.2007  0.3074
 1421SOL    HW110099   0.486   3.485   7.321 -1.1913  0.4563  0.0198
 1421SOL    HW210100   0.529   3.355   7.386  0.7441  0.5349 -1.0309
 1422SOL     OW10101   0.703   6.284   6.066  0.5354  0.3798 -0.4730
 1422SOL    HW110102   0.780   6.247   6.024 -0.2338 -0.4605 -1.1816
 1422SOL    HW210103   0.738   6.347   6.130  1.9832 -2.3426  1.6595
 1423SOL     OW10104   4.630   5.755   1.326 -0.3039 -0.6016  0.5776
 1423SOL    HW110105   4.687   5.678   1.323  2.8801  1.5776 -0.5800
 1423SOL    HW210106   4.599   5.766   1.236  0.2649  0.1069  0.4582
 1424SOL     OW10107   8.107   2.331   6.440 -0.7236  0.3289 -0.3787
 1424SOL    HW110108   8.190   2.319   6.485 -1.1440  1.5778  0.8177
 1424SOL    HW210109   8.055   2.254   6.463 -0.1859 -0.0599 -0.4674
 1425SOL     OW10110   2.075  10.612   4.603 -0.6378  0.6682  0.1406
 1425SOL    HW110111   2.143  10.568   4.655 -0.7094  1.8862  1.3149
 1425SOL    HW210112   2.108  10.608   4.513 -0.1653 -0.8478  0.3485
 1426SOL     OW10113   4.495   2.551   6.526  0.2458 -0.1172 -0.5150
 1426SOL    HW110114   4.406   2.543   6.560  0.5166  2.4814  1.0906
 1426SOL    HW210115   4.547   2.490   6.579 -0.2192  0.0056  0.0942
 1427SOL     OW10116   4.575   2.214   2.873 -0.1291 -0.0347 -0.7213
 1427SOL    HW110117   4.570   2.151   2.802 -1.5204 -0.2127 -0.4972
 1427SOL    HW210118   4.605   2.163   2.948 -1.6433 -0.5617 -0.4386
 1428SOL     OW10119   7.322   8.408   5.238  0.8260 -0.3732  0.4766
 1428SOL    HW110120   7.264   8.484   5.234  1.7424  0.4807  2.2471
 1428SOL    HW210121   7.263   8.333   5.251  0.0421  0.2912  0.8290
 1429SOL     OW10122   0.486   1.910   6.420  0.4674 -0.4588 -0.5201
 1429SOL    HW110123   0.482   1.822   6.382 -0.4108 -1.1971  1.2032
 1429SOL    HW210124   0.578   1.935   6.413  0.9442 -1.9907 -0.0274
 1430SOL     OW10125   7.764   9.850   1.885 -0.0748  0.3433 -0.6800
 1430SOL    HW110126   7.703   9.856   1.811 -0.5665  3.0685 -0.1388
 1430SOL    HW210127   7.829   9.919   1.869  0.7689 -0.1039  0.6168
 1431SOL     OW10128   8.801   9.769   9.518  0.3014 -0.2981  0.1315
 1431SOL    HW110129   8.718   9.780   9.471 -0.3172 -0.7265  1.1097
 1431SOL    HW210130   8.780   9.787   9.609  1.5442  0.7498  0.2429
 1432SOL     OW10131   6.762   8.971   3.390  0.0048 -0.0800 -0.2073
 1432SOL    HW110132   6.727   8.921   3.464 -1.5451  2.3637  0.8267
 1432SOL    HW210133   6.691   8.976   3.327  0.3657  0.2403 -0.6004
 1433SOL     OW10134   3.096   0.147   6.763  0.4177  0.5976 -0.2254
 1433SOL    HW110135   3.027   0.128   6.826 -0.0610 -0.4084 -1.0151
 1433SOL    HW210136   3.165   0.083   6.782  1.6401  2.2807  1.2521
 1434SOL     OW10137   7.002   9.418   9.178 -0.5501  0.2783  0.0307
 1434SOL    HW110138   7.081   9.397   9.129 -0.0023  0.9813  0.5986
 1434SOL    HW210139   7.028   9.489   9.236 -1.4794  0.1992  0.5562
 1435SOL     OW10140  10.227   8.575  10.369 -0.0516 -0.2782  0.5944
 1435SOL    HW110141  10.134   8.594  10.382  0.1148  0.1940  1.1455
 1435SOL    HW210142  10.235   8.482  10.391 -1.0300 -1.3429 -2.9651
 1436SOL     OW10143   6.733   8.268   6.959  0.2011 -0.7344  0.4930
 1436SOL    HW110144   6.741   8.300   7.049  1.2727 -1.5424  0.7084
 1436SOL    HW210145   6.812   8.299   6.915  0.3878 -1.5310  0.2332
 1437SOL     OW10146   0.034   0.526   9.037 -0.0118 -0.3072  0.0437
 1437SOL    HW110147   0.082   0.560   9.113  0.6827  2.6088 -1.5498
 1437SOL    HW210148  -0.022   0.457   9.073 -0.9108  1.9769  3.5295
 1438SOL     OW10149   5.163   4.463   3.202  0.3296 -0.2995  0.9812
 1438SOL    HW110150   5.256   4.455   3.223  0.5628  0.0031  0.1013
 1438SOL    HW210151   5.142   4.382   3.156 -0.4225 -1.4141  3.1386
 1439SOL     OW10152   3.103   0.673   4.795  0.2662  0.2566 -0.0497
 1439SOL    HW110153   3.008   0.680   4.788  0.2816  1.0595  0.3766
 1439SOL    HW210154   3.124   0.590   4.753 -0.4991  0.6516 -1.2755
 1440SOL     OW10155   8.755   0.984   8.638  0.2136  0.1492  0.1097
 1440SOL    HW110156   8.812   0.924   8.588  1.1303  1.3341 -0.3219
 1440SOL    HW210157   8.689   1.013   8.575 -0.1444 -0.2919  0.2803
 1441SOL     OW10158   3.319  10.376   3.495 -0.1959 -0.4329 -0.3646
 1441SOL    HW110159   3.355  10.418   3.574  0.1376 -1.0505 -0.1861
 1441SOL    HW210160   3.240  10.427   3.476 -0.6086 -0.6348  0.7063
 1442SOL     OW10161  10.659   9.056   3.408 -0.3859 -0.4217  0.3902
 1442SOL    HW110162  10.678   9.145   3.377 -3.1932  0.1425  0.0752
 1442SOL    HW210163  10.746   9.018   3.423  0.9809  1.5032 -1.8182
 1443SOL     OW10164   6.279   1.728   1.072 -0.1569 -0.6310  0.2863
 1443SOL    HW110165   6.235   1.670   1.134 -1.3900  0.2102  0.2238
 1443SOL    HW210166   6.237   1.710   0.988  0.5651 -0.7881 -0.0493
 1444SOL     OW10167   2.399   8.842   6.841 -0.4811 -0.1553 -0.1728
 1444SOL    HW110168   2.381   8.837   6.748 -1.8229 -1.1703  0.1202
 1444SOL    HW210169   2.359   8.764   6.878 -0.1679  0.3428  1.2938
 1445SOL     OW10170   4.376   7.500   4.360 -0.0740 -0.5746 -0.0992
 1445SOL    HW110171   4.311   7.570   4.358  1.6536  1.1818  1.0608
 1445SOL    HW210172   4.396   7.483   4.268 -1.9307 -0.9718 -0.4683
 1446SOL     OW10173   6.051   5.869   1.388  0.9143  0.3386 -0.0157
 1446SOL    HW110174   5.956   5.863   1.376  0.9364  2.9917 -2.7719
 1446SOL    HW210175   6.087   5.842   1.304  2.5820  0.2010  0.7145
 1447SOL     OW10176   7.769   7.199   3.799  0.0826 -0.3171  0.5900
 1447SOL    HW110177   7.795   7.291   3.799 -0.6057 -0.0838 -1.2649
 1447SOL    HW210178   7.677   7.200   3.826  0.0565 -0.4439  0.5088
 1448SOL     OW10179   9.728   8.451   3.465  0.2389 -0.2401 -0.6266
 1448SOL    HW110180   9.728   8.506   3.387 -0.3899 -0.8417 -1.0597
 1448SOL    HW210181   9.638   8.453   3.496  0.3377 -0.5570 -0.3097
 1449SOL     OW10182   4.508   3.351   6.337  0.2696 -0.2313  0.2091
 1449SOL    HW110183   4.456   3.344   6.257 -0.5361 -1.0581  0.7872
 1449SOL    HW210184   4.499   3.266   6.379 -1.1176  0.8398  2.2691
 1450SOL     OW10185   0.692   5.583   9.005 -0.2164 -0.2145  0.0218
 1450SOL    HW110186   0.611   5.565   9.053 -0.2141  0.5380  0.3113
 1450SOL    HW210187   0.662   5.623   8.923 -0.2818 -2.3143 -1.0594
 1451SOL     OW10188  10.018   9.655   8.779 -0.4440  0.8615  0.4724
 1451SOL    HW110189  10.064   9.621   8.702 -0.3627  1.5064  0.2317
 1451SOL    HW210190  10.077   9.638   8.852 -0.0793  1.1579  0.2479
 1452SOL     OW10191   6.014   4.150   9.277 -0.3471  0.3449 -0.3972
 1452SOL    HW110192   5.999   4.132   9.184 -2.8995  2.2748 -0.4633
 1452SOL    HW210193   5.986   4.071   9.322 -0.3072 -0.1320 -1.1883
 1453SOL     OW10194   9.414   3.223  10.278  0.6088 -0.0974  0.1331
 1453SOL    HW110195   9.504   3.223  10.245  1.3116  0.2336  1.9426
 1453SOL    HW210196   9.403   3.136  10.318  0.2447 -0.0138  0.2185
 1454SOL     OW10197   3.469   0.494   2.607 -0.1854  0.0983  0.1420
 1454SOL    HW110198   3.551   0.500   2.558 -0.5729 -0.1444 -0.5350
 1454SOL    HW210199   3.496   0.463   2.694  0.3928 -0.4128 -0.2129
 1455SOL     OW10200   9.127   2.948   9.275  0.3870 -0.4134 -0.3822
 1455SOL    HW110201   9.134   2.890   9.199 -0.0939  0.6169 -1.2554
 1455SOL    HW210202   9.065   3.016   9.247  1.3983  0.8653  0.3461
 1456SOL     OW10203   4.494   5.947   8.280  0.1419  0.1356 -0.1629
 1456SOL    HW110204   4.488   6.015   8.347  0.7533  0.5953 -0.5690
 1456SOL    HW210205   4.525   5.992   8.202 -1.9480 -0.1139 -1.2172
 1457SOL     OW10206   8.688   9.903   2.982 -0.0626 -0.1458 -0.4403
 1457SOL    HW110207   8.638   9.960   2.924 -0.0802 -0.4133 -0.6884
 1457SOL    HW210208   8.770   9.886   2.936  0.6911  1.0751  0.3748
 1458SOL     OW10209   3.900   9.564   7.462 -0.0276  0.7062 -0.7019
 1458SOL    HW110210   3.906   9.483   7.413  0.9459 -0.8916  1.8449
 1458SOL    HW210211   3.980   9.612   7.440  1.3900 -0.8973  0.7210
 1459SOL     OW10212   5.380   4.369   1.722  0.4611  0.1571 -0.2590
 1459SOL    HW110213   5.460   4.318   1.736 -0.1522 -0.3110  1.8646
 1459SOL    HW210214   5.317   4.306   1.687  1.2725  0.7802 -3.1017
 1460SOL     OW10215   9.868   2.376   1.983  0.5563 -0.4011  0.5241
 1460SOL    HW110216   9.935   2.336   2.038  1.6458  0.4855 -0.1114
 1460SOL    HW210217   9.899   2.362   1.893 -0.6138 -0.8238  0.1603
 1461SOL     OW10218   3.728   9.650   6.127 -0.1442  0.5171  0.2021
 1461SOL    HW110219   3.782   9.729   6.135 -3.6379  3.0261  1.2045
 1461SOL    HW210220   3.668   9.669   6.056 -0.4396 -1.7582 -0.2382
 1462SOL     OW10221   5.984   0.030   3.697  0.1039  0.1403  0.0475
 1462SOL    HW110222   6.046   0.084   3.746  0.3429  0.1098 -0.2180
 1462SOL    HW210223   5.975   0.074   3.613 -0.2831  0.1781  0.1086
 1463SOL     OW10224  10.644   2.337   0.672  0.1526  0.4476  0.0394
 1463SOL    HW110225  10.651   2.244   0.696 -0.7064  0.3451 -0.0475
 1463SOL    HW210226  10.692   2.383   0.741  0.5684 -0.0628  0.0964
 1464SOL     OW10227   6.867   6.515   9.636 -1.0714 -0.2599 -0.0993
 1464SOL    HW110228   6.836   6.435   9.679  1.2916 -2.1682 -1.6552
 1464SOL    HW210229   6.918   6.560   9.703 -1.2682 -0.7651  0.3991
 1465SOL     OW10230   4.059   9.546   4.127 -0.1460  0.5897 -0.0641
 1465SOL    HW110231   4.131   9.515   4.183 -1.6014  0.6805  1.9438
 1465SOL    HW210232   4.025   9.623   4.173 -1.3175  0.7481 -1.1636
 1466SOL     OW10233   3.839   9.398   2.665 -0.0643  0.1872  0.1609
 1466SOL    HW110234   3.935   9.392   2.666  0.0930  2.0064 -0.4413
 1466SOL    HW210235   3.814   9.344   2.590  0.5805  0.3678 -0.2038
 1467SOL     OW10236   2.251   7.976   8.681  0.6629 -0.2294  0.2456
 1467SOL    HW110237   2.296   8.051   8.718  2.3738 -1.6558  1.2250
 1467SOL    HW210238   2.184   7.953   8.746  0.7743 -0.1130  0.4009
 1468SOL     OW10239   6.512   0.542   5.078  0.1884 -0.1927  0.2856
 1468SOL    HW110240   6.513   0.454   5.116 -2.0926  0.0445  1.0472
 1468SOL    HW210241   6.521   0.601   5.152  1.4336  0.2375 -0.1938
 1469SOL     OW10242   6.570   0.361   0.351  0.7439 -0.2395 -0.1097
 1469SOL    HW110243   6.653   0.385   0.311  0.8048 -0.0950  0.1043
 1469SOL    HW210244   6.544   0.280   0.306  0.0995  0.6800 -1.4563
 1470SOL     OW10245   9.694   1.229   3.450 -0.1438  0.8298  0.0283
 1470SOL    HW110246   9.614   1.177   3.451 -1.1351  2.2825  2.2597
 1470SOL    HW210247   9.764   1.165   3.459 -1.2783 -0.2327  1.9086
 1471SOL     OW10248   8.757   4.734   8.278 -0.3895  0.1072  0.1459
 1471SOL    HW110249   8.678   4.680   8.286 -0.7413 -0.0405 -2.9211
 1471SOL    HW210250   8.726   4.816   8.240  0.6493  0.9990  1.1602
 1472SOL     OW10251   1.991   7.459   2.270 -0.3644 -0.0990  0.1705
 1472SOL    HW110252   2.083   7.474   2.292 -0.6435  0.9841  0.6578
 1472SOL    HW210253   1.970   7.375   2.311  0.7249 -0.9675 -0.9716
 1473SOL     OW10254   8.647   4.319   2.145  0.4705  0.4781  0.1565
 1473SOL    HW110255   8.617   4.369   2.070  0.2547 -0.6439 -0.5347
 1473SOL    HW210256   8.688   4.383   2.202  1.0292  1.2925 -1.1193
 1474SOL     OW10257   3.476   6.238   5.840 -0.1921 -0.1191 -0.3647
 1474SOL    HW110258   3.483   6.188   5.921  0.5048  1.0720  0.3403
 1474SOL    HW210259   3.566   6.244   5.808 -0.4234 -0.3236 -1.0963
 1475SOL     OW10260   4.917   9.005   9.961  0.3872 -0.3319  0.2491
 1475SOL    HW110261   4.866   9.071   9.914  0.7574  0.2732  0.6893
 1475SOL    HW210262   4.980   8.973   9.897  0.5615  0.1329  0.1863
 1476SOL     OW10263   5.081   4.904   6.802  0.0126  0.8840  0.2243
 1476SOL    HW110264   5.116   4.958   6.873  0.6852 -0.1796  0.7190
 1476SOL    HW210265   5.026   4.839   6.846  0.8572 -0.1179 -0.1593
 1477SOL     OW10266   3.306   3.108   2.685 -0.4383 -0.9105  0.3368
 1477SOL    HW110267   3.277   3.022   2.653 -2.4442  0.1385 -0.9021
 1477SOL    HW210268   3.313   3.161   2.606 -2.1998  0.8475  1.2808
 1478SOL     OW10269   5.767   1.681   1.911  0.1217 -0.1942  1.1718
 1478SOL    HW110270   5.806   1.727   1.985 -0.5871  1.7598  0.4200
 1478SOL    HW210271   5.832   1.616   1.885  1.2698  0.5174  2.2016
 1479SOL     OW10272   2.559   2.455   3.599  0.2112  0.1257 -0.4314
 1479SOL    HW110273   2.483   2.512   3.607 -0.3193 -0.7638  1.0928
 1479SOL    HW210274   2.613   2.476   3.676  0.4925 -0.7320 -0.3872
 1480SOL     OW10275   9.222   5.862   2.987 -0.0491  0.3240 -0.1582
 1480SOL    HW110276   9.233   5.773   3.020 -0.8847  0.1405 -0.3526
 1480SOL    HW210277   9.201   5.914   3.065 -0.4345  0.1866 -0.1694
 1481SOL     OW10278   9.836   1.157   1.606 -0.5222  0.0360  0.0069
 1481SOL    HW110279   9.854   1.085   1.546 -0.0686  0.4817 -0.4063
 1481SOL    HW210280   9.754   1.132   1.649 -0.1710 -0.9037  0.1573
 1482SOL     OW10281   6.866   4.351   0.961  0.5120 -0.2313  0.4384
 1482SOL    HW110282   6.943   4.344   1.018 -0.1527  0.0205  1.3941
 1482SOL    HW210283   6.889   4.420   0.899  1.1680 -0.3606  0.5293
 1483SOL     OW10284   2.116  10.378   9.913  0.2893  0.5567  0.2076
 1483SOL    HW110285   2.083  10.455   9.959  0.5556  0.3317  0.7854
 1483SOL    HW210286   2.095  10.305   9.971 -1.5578 -0.0511 -1.1121
 1484SOL     OW10287  10.273  10.608   4.107  0.2217  0.1554  0.0791
 1484SOL    HW110288  10.281  10.534   4.047  0.8532 -0.3734  0.7899
 1484SOL    HW210289  10.184  10.640   4.094  0.5280  0.4379 -1.5612
 1485SOL     OW10290   8.372   3.459   0.960  0.3427  0.0358 -0.3202
 1485SOL    HW110291   8.409   3.370   0.956  1.2908  0.4362 -0.6544
 1485SOL    HW210292   8.401   3.493   1.044  0.6489  0.3116 -0.5352
 1486SOL     OW10293   1.774   1.740   7.167  0.2093  0.3801 -0.7940
 1486SOL    HW110294   1.813   1.740   7.254  0.8602  4.6867 -0.8542
 1486SOL    HW210295   1.687   1.700   7.179  0.3694  0.6406  1.7684
 1487SOL     OW10296   7.880   4.360   7.415  0.2164  0.5598 -0.1470
 1487SOL    HW110297   7.949   4.296   7.436  0.4646  0.6684 -0.6183
 1487SOL    HW210298   7.851   4.336   7.327 -0.3970  0.4762  0.0730
 1488SOL     OW10299   3.251  10.329   2.619 -0.0413  0.2063  0.3985
 1488SOL    HW110300   3.195  10.405   2.634  0.6480  0.7205  0.4218
 1488SOL    HW210301   3.268  10.331   2.525  0.6053  0.5423  0.5145
 1489SOL     OW10302   6.956   2.308   0.697 -0.2353  0.0719 -0.4686
 1489SOL    HW110303   6.979   2.274   0.611  2.1676  2.1270 -0.7764
 1489SOL    HW210304   6.987   2.241   0.758 -0.4478 -0.6613 -1.1498
 1490SOL     OW10305   0.885   9.620   7.563  0.1034  0.3059  0.3827
 1490SOL    HW110306   0.836   9.589   7.639 -0.9835 -1.6579 -1.0511
 1490SOL    HW210307   0.818   9.643   7.498  1.0233  0.5507 -0.5187
 1491SOL     OW10308   6.535   0.910   5.425  0.3886 -0.6393  0.5859
 1491SOL    HW110309   6.614   0.937   5.380 -0.1045  2.1792  1.2353
 1491SOL    HW210310   6.493   0.992   5.453 -2.2194 -2.0432  1.1806
 1492SOL     OW10311   2.333   7.695   4.308 -0.3852  0.3822  0.4068
 1492SOL    HW110312   2.322   7.667   4.217 -0.0592 -2.4938  1.1735
 1492SOL    HW210313   2.375   7.781   4.302  0.1690 -0.0066 -2.1340
 1493SOL     OW10314   9.623   4.453   4.245 -0.5155  0.0311  0.3330
 1493SOL    HW110315   9.597   4.390   4.313  0.8252  0.0011  0.8430
 1493SOL    HW210316   9.704   4.418   4.209 -0.8700  0.3939 -0.8485
 1494SOL     OW10317   1.674   3.508   0.789 -0.0562 -0.2724 -0.1584
 1494SOL    HW110318   1.636   3.569   0.852 -1.3607 -0.1902 -0.9841
 1494SOL    HW210319   1.707   3.564   0.719 -0.9999 -0.4779 -0.7848
 1495SOL     OW10320   5.601  10.273   3.087  0.4703 -0.0704 -0.2408
 1495SOL    HW110321   5.521  10.225   3.068  0.8395 -0.9293  0.3403
 1495SOL    HW210322   5.672  10.209   3.076  0.9800  0.3680  0.3950
 1496SOL     OW10323   4.585   0.046   2.110 -0.6668 -0.1279  0.0436
 1496SOL    HW110324   4.499   0.089   2.114 -0.5664  0.3433 -1.9307
 1496SOL    HW210325   4.572  -0.028   2.052  0.2786 -0.0013 -0.3390
 1497SOL     OW10326   6.467   4.191   8.271  0.0972 -0.0024  0.0520
 1497SOL    HW110327   6.547   4.151   8.237 -0.7317 -1.5270 -0.1966
 1497SOL    HW210328   6.432   4.126   8.332 -0.7949  0.7738  0.3921
 1498SOL     OW10329   4.953   8.734   4.345 -0.3626  0.2213  0.4620
 1498SOL    HW110330   4.973   8.780   4.426  3.5289 -0.7175  0.2320
 1498SOL    HW210331   4.966   8.642   4.365 -0.6445 -0.1342 -0.8830
 1499SOL     OW10332   5.507   6.578   1.839  0.0142 -0.4472  0.1262
 1499SOL    HW110333   5.559   6.659   1.830 -0.2209 -0.1932  0.9708
 1499SOL    HW210334   5.573   6.509   1.850  0.1938 -0.0228  2.0043
 1500SOL     OW10335   6.384   1.798   7.112 -0.4671  0.2585 -0.0409
 1500SOL    HW110336   6.386   1.796   7.208 -1.4411 -0.0154 -0.0242
 1500SOL    HW210337   6.441   1.726   7.085 -1.2804 -0.5436  0.3446
 1501SOL     OW10338   7.732   8.200   2.308 -0.0824  0.2101  0.3151
 1501SOL    HW110339   7.805   8.260   2.297 -0.1417  0.0020 -1.4061
 1501SOL    HW210340   7.700   8.217   2.397 -0.1506  2.7753 -0.1426
 1502SOL     OW10341  10.611   4.567   9.676 -0.6806 -0.4024 -0.1492
 1502SOL    HW110342  10.631   4.536   9.764  1.2173 -0.6320 -0.6271
 1502SOL    HW210343  10.594   4.488   9.626  1.6259 -0.5501 -0.7642
 1503SOL     OW10344   2.635  10.575   0.092  0.2593  0.1242 -0.5510
 1503SOL    HW110345   2.673  10.619   0.169  0.5992  0.1618 -0.7354
 1503SOL    HW210346   2.621  10.645   0.029  1.3968 -0.1068 -1.0831
 1504SOL     OW10347   5.967   7.520   4.514 -0.2908 -0.0817  0.1177
 1504SOL    HW110348   6.042   7.474   4.476  1.0886  1.8636  0.3533
 1504SOL    HW210349   5.995   7.541   4.603  0.0850  3.1343 -0.6591
 1505SOL     OW10350   4.742   0.382   7.926  0.7671  0.6706  0.3999
 1505SOL    HW110351   4.758   0.472   7.898 -1.5861  1.2292  0.6663
 1505SOL    HW210352   4.722   0.335   7.845  0.1299  0.8528  0.4420
 1506SOL     OW10353   2.887   5.086   4.641 -0.0264 -0.3446  0.2787
 1506SOL    HW110354   2.870   5.149   4.571  0.6641  2.1306  2.1963
 1506SOL    HW210355   2.978   5.060   4.629  0.7402  1.6392  1.3202
 1507SOL     OW10356   7.278   7.443   7.483 -0.2707 -0.2087  0.4078
 1507SOL    HW110357   7.241   7.502   7.418 -0.3080 -1.5005 -0.7904
 1507SOL    HW210358   7.244   7.357   7.460  1.5986 -1.0848  0.6827
 1508SOL     OW10359   7.286   1.251   6.657 -0.2610  0.4273  0.6364
 1508SOL    HW110360   7.372   1.253   6.616  0.4774 -0.6327  2.0339
 1508SOL    HW210361   7.231   1.307   6.602  0.4942 -1.3442 -2.0861
 1509SOL     OW10362   8.416   8.807   7.792  0.1318  0.1492 -0.0412
 1509SOL    HW110363   8.329   8.777   7.765  0.4737 -0.1398 -0.8560
 1509SOL    HW210364   8.428   8.771   7.880  0.2777 -1.6313 -0.7528
 1510SOL     OW10365   0.326  10.648   4.815 -0.7644  0.1864  0.5771
 1510SOL    HW110366   0.348  10.651   4.722 -0.9705  0.4469  0.5355
 1510SOL    HW210367   0.262  10.577   4.823 -1.1797  0.5370  0.4256
 1511SOL     OW10368   3.266   6.666  10.464 -0.5460 -0.0751  0.6587
 1511SOL    HW110369   3.356   6.659  10.434 -1.2785  1.1794 -2.2218
 1511SOL    HW210370   3.252   6.760  10.479 -1.6967 -0.0622 -0.2874
 1512SOL     OW10371   8.076   8.878   8.468  0.1053 -0.2658 -0.9170
 1512SOL    HW110372   8.020   8.875   8.546 -1.3647 -2.8347 -1.9459
 1512SOL    HW210373   8.015   8.898   8.397  1.0249 -0.2267 -1.7026
 1513SOL     OW10374   2.558   3.030   9.973 -0.5922 -0.2958 -0.1454
 1513SOL    HW110375   2.591   3.055   9.886  1.0551  1.6483  0.9554
 1513SOL    HW210376   2.499   3.101   9.998  0.2039  0.0007  0.9654
 1514SOL     OW10377   8.467   9.757   1.151  0.9131  1.0872  0.5517
 1514SOL    HW110378   8.527   9.777   1.223  0.9002  1.3698  0.4858
 1514SOL    HW210379   8.427   9.674   1.176  2.2873  0.2164 -0.0193
 1515SOL     OW10380   2.900   4.387   8.638  0.7040 -0.3713  0.3388
 1515SOL    HW110381   2.966   4.424   8.696  1.2290 -0.4261 -0.2152
 1515SOL    HW210382   2.857   4.319   8.691  1.4678 -0.7169  0.5302
 1516SOL     OW10383   9.868   5.987   3.796  0.6300 -0.1370 -0.4177
 1516SOL    HW110384   9.911   5.986   3.881  0.7370 -0.1232 -0.4716
 1516SOL    HW210385   9.882   6.076   3.763 -0.2624  0.1605 -0.0159
 1517SOL     OW10386   7.108   4.995   9.058 -0.1321 -0.1379  0.5078
 1517SOL    HW110387   7.159   5.045   8.994 -0.9893 -1.9008 -1.6972
 1517SOL    HW210388   7.058   5.061   9.105  1.0936  1.2990 -0.1048
 1518SOL     OW10389   3.322   9.280   9.141  0.1507  0.8232 -0.0300
 1518SOL    HW110390   3.350   9.268   9.051 -2.1028 -2.5814 -0.4746
 1518SOL    HW210391   3.229   9.300   9.135 -0.2304 -0.2625  1.4909
 1519SOL     OW10392   6.800  10.133   8.353 -0.1758  0.0287 -0.0618
 1519SOL    HW110393   6.872  10.196   8.359 -0.5873  0.4819  0.2480
 1519SOL    HW210394   6.779  10.129   8.259  0.5361 -0.4381 -0.2036
 1520SOL     OW10395   7.264   9.235   3.870  0.3328  0.2006  0.4616
 1520SOL    HW110396   7.176   9.244   3.834  0.3932 -2.1057 -0.4732
 1520SOL    HW210397   7.252   9.239   3.965 -0.3470  2.6946  0.3241
 1521SOL     OW10398   6.460   4.992   9.913  0.0217 -0.1188 -1.0167
 1521SOL    HW110399   6.484   4.911   9.868 -2.1804 -1.7620  0.5312
 1521SOL    HW210400   6.480   4.976  10.005 -2.0466  0.3586 -0.4271
 1522SOL     OW10401   6.974   8.936   5.643  0.7069  0.0210  0.4895
 1522SOL    HW110402   7.007   9.023   5.621  0.2152  0.2250  0.5493
 1522SOL    HW210403   7.049   8.890   5.681  0.9519  0.4351  0.5056
 1523SOL     OW10404   8.008   2.661   8.743 -0.2474 -0.1714  0.6647
 1523SOL    HW110405   7.982   2.569   8.744  0.0848 -0.2704  1.4060
 1523SOL    HW210406   7.980   2.694   8.829  1.5664 -0.1586  1.2902
 1524SOL     OW10407   8.399   8.557   4.370 -0.1682  0.6203  0.4074
 1524SOL    HW110408   8.468   8.496   4.342 -0.1405  0.7230  0.2472
 1524SOL    HW210409   8.439   8.643   4.360 -0.9848  0.8068 -1.6327
 1525SOL     OW10410   7.239   2.953   5.652 -0.3467 -0.3315 -0.1621
 1525SOL    HW110411   7.205   2.864   5.657 -1.1084 -0.0363  0.0012
 1525SOL    HW210412   7.164   3.006   5.626 -0.4731  0.5978  1.8902
 1526SOL     OW10413   7.599   9.772   7.570  0.3963 -0.5099 -0.2262
 1526SOL    HW110414   7.560   9.859   7.561  1.3123 -0.2317 -1.9303
 1526SOL    HW210415   7.525   9.713   7.576 -0.2749  0.2217 -1.0437
 1527SOL     OW10416   2.305  10.335   4.178  0.0292 -0.6643  0.1444
 1527SOL    HW110417   2.391  10.329   4.219  0.1977 -0.5011 -0.1741
 1527SOL    HW210418   2.313  10.408   4.117 -0.6947  0.1123  0.9565
 1528SOL     OW10419   9.436   8.927   7.394 -0.7182 -0.2111 -0.3053
 1528SOL    HW110420   9.436   8.917   7.299  0.0604 -0.4954 -0.2785
 1528SOL    HW210421   9.469   9.015   7.409 -0.9429 -0.1270 -0.2969
 1529SOL     OW10422   1.428   1.094   3.490  0.5596  0.5631 -0.8476
 1529SOL    HW110423   1.494   1.050   3.544  1.0410  1.8640 -0.3480
 1529SOL    HW210424   1.467   1.178   3.467 -0.3017  0.7069 -1.8715
 1530SOL     OW10425   7.871   1.245   3.779  1.1118  0.3253 -0.1015
 1530SOL    HW110426   7.906   1.279   3.861  0.0402 -1.4129  1.1477
 1530SOL    HW210427   7.904   1.155   3.774 -1.2735 -0.6373  0.0237
 1531SOL     OW10428   3.544   4.722  10.565 -0.3063 -0.0043 -0.1865
 1531SOL    HW110429   3.585   4.744  10.481 -0.4506  0.8843 -0.0379
 1531SOL    HW210430   3.618   4.712  10.625 -0.1852 -0.9417 -0.4716
 1532SOL     OW10431   2.346  10.508   5.783 -0.6070 -0.0189 -0.1463
 1532SOL    HW110432   2.333  10.500   5.688  2.5432 -3.5060 -0.5017
 1532SOL    HW210433   2.396  10.589   5.793 -0.1724 -0.0668 -1.6321
 1533SOL     OW10434   9.848   4.323   0.809 -0.1095  0.4832  0.2956
 1533SOL    HW110435   9.771   4.360   0.852 -0.2910  1.0726 -0.5123
 1533SOL    HW210436   9.813   4.278   0.732  0.0974 -1.4727  1.2835
 1534SOL     OW10437   6.889   5.983   4.811  0.0407 -0.6708  0.7360
 1534SOL    HW110438   6.901   5.955   4.721  1.1107 -1.4172  1.0908
 1534SOL    HW210439   6.794   5.993   4.821 -0.0150  0.8641 -0.8675
 1535SOL     OW10440   9.697   7.786   1.697 -0.1224 -0.3056  0.5138
 1535SOL    HW110441   9.669   7.696   1.711 -2.9256  0.2303 -0.8373
 1535SOL    HW210442   9.667   7.833   1.774  1.8296 -0.5498  1.4781
 1536SOL     OW10443   7.807   6.293   9.548  0.1982  0.6264 -0.0477
 1536SOL    HW110444   7.815   6.213   9.497  0.1927  0.7897 -0.3096
 1536SOL    HW210445   7.894   6.308   9.585  0.1060  0.3068  0.2927
 1537SOL     OW10446   5.235  10.652   6.291 -0.7777 -0.0902  0.0584
 1537SOL    HW110447   5.200  10.732   6.331  0.7379 -0.0778  1.4511
 1537SOL    HW210448   5.191  10.581   6.337 -0.8758 -0.0691 -0.0017
 1538SOL     OW10449   6.039   0.334   1.365  0.0840  0.2645 -0.3007
 1538SOL    HW110450   6.122   0.371   1.396  1.1244 -1.1866 -1.2071
 1538SOL    HW210451   6.065   0.275   1.294 -1.4401 -2.2094  1.0673
 1539SOL     OW10452   3.424  10.188   1.769 -0.1823  0.3313  0.8582
 1539SOL    HW110453   3.469  10.212   1.688  1.1118 -1.9636  0.8192
 1539SOL    HW210454   3.331  10.191   1.746  0.1605 -0.6108 -0.8447
 1540SOL     OW10455   6.817   1.129   0.877  0.0613  0.4628 -0.1106
 1540SOL    HW110456   6.738   1.166   0.840 -0.6942 -0.4892  0.4980
 1540SOL    HW210457   6.786   1.068   0.944  1.2766 -0.3624 -0.2572
 1541SOL     OW10458   4.997   8.781   6.951  0.2039 -0.3427  0.3581
 1541SOL    HW110459   4.931   8.843   6.919  1.5362  0.6155 -0.6720
 1541SOL    HW210460   4.947   8.718   7.003 -1.6409 -0.1188 -0.9948
 1542SOL     OW10461   4.577   2.208   0.355  0.2641  0.0587  0.0206
 1542SOL    HW110462   4.599   2.210   0.262  2.6326  1.7943  0.5207
 1542SOL    HW210463   4.518   2.133   0.364 -0.0103 -0.1932 -2.8369
 1543SOL     OW10464   8.908   9.618   2.315 -0.1619  0.0881  0.0207
 1543SOL    HW110465   8.871   9.580   2.395  2.0629 -1.4521  0.4143
 1543SOL    HW210466   8.951   9.698   2.344  0.3565 -0.2950  0.3196
 1544SOL     OW10467   7.951   9.265  10.242  0.0623  0.4617 -0.5618
 1544SOL    HW110468   8.024   9.286  10.184  1.1699 -0.0093  0.6198
 1544SOL    HW210469   7.922   9.350  10.275  0.4814  0.6040 -0.5534
 1545SOL     OW10470   9.721   3.693   5.038  0.2912 -0.4287  0.2389
 1545SOL    HW110471   9.747   3.719   5.127  1.3231 -1.9169  0.4070
 1545SOL    HW210472   9.786   3.736   4.982 -1.3288  1.8897 -0.0060
 1546SOL     OW10473   8.549   1.770  10.193  0.0071  0.5300  0.3013
 1546SOL    HW110474   8.472   1.743  10.143  1.9549 -0.1110 -2.6298
 1546SOL    HW210475   8.599   1.689  10.205  1.7147  1.3596 -0.7693
 1547SOL     OW10476   5.465   4.170   6.882  0.0539  0.0151 -0.3671
 1547SOL    HW110477   5.431   4.253   6.849 -0.3517 -0.7635 -2.0253
 1547SOL    HW210478   5.522   4.138   6.812 -0.2583 -1.3761 -0.0083
 1548SOL     OW10479   3.807   4.218   5.168 -0.4126 -0.0193 -0.0660
 1548SOL    HW110480   3.898   4.243   5.151 -0.8013  1.9846  0.5925
 1548SOL    HW210481   3.759   4.250   5.091 -0.7649  0.2416  0.2604
 1549SOL     OW10482   7.544   0.954   0.020 -0.8255  0.4249 -0.3479
 1549SOL    HW110483   7.556   0.935   0.113 -2.1886  0.6187 -0.1130
 1549SOL    HW210484   7.605   0.895  -0.025 -0.1704  0.3103  0.6489
 1550SOL     OW10485   1.854   2.883   0.990 -0.3082  0.7016 -0.4283
 1550SOL    HW110486   1.779   2.878   0.932 -0.1227  2.5155 -0.8875
 1550SOL    HW210487   1.826   2.941   1.061  0.3837  0.7268 -0.1654
 1551SOL     OW10488   9.197   3.469   6.952 -0.3722 -0.1956 -0.0692
 1551SOL    HW110489   9.181   3.502   6.864 -1.7636  0.3936  0.3745
 1551SOL    HW210490   9.254   3.534   6.993  0.3742 -0.5324 -0.5626
 1552SOL     OW10491   2.382   3.552   5.134  0.4364 -0.5055 -0.1060
 1552SOL    HW110492   2.429   3.547   5.217  0.5996 -0.0312 -0.1666
 1552SOL    HW210493   2.381   3.646   5.113 -1.2846 -0.3910  0.3337
 1553SOL     OW10494  10.389   8.207   0.036  0.3801  0.7635 -0.6529
 1553SOL    HW110495  10.455   8.176   0.098 -1.1467 -0.4726  0.4528
 1553SOL    HW210496  10.372   8.132  -0.021 -1.0610  0.5641 -0.0026
 1554SOL     OW10497   1.760   6.990   3.264  0.1924  0.3098  0.0851
 1554SOL    HW110498   1.665   6.999   3.270  0.0570 -1.5203  1.8933
 1554SOL    HW210499   1.789   7.071   3.223 -2.2025  0.5438 -1.3486
 1555SOL     OW10500   5.296   9.934   2.802 -0.0749  0.5677  0.0492
 1555SOL    HW110501   5.382   9.895   2.790 -0.7456 -0.7406 -0.6811
 1555SOL    HW210502   5.254   9.928   2.716 -1.2011  0.4345  0.5876
 1556SOL     OW10503   3.922   2.662   6.813 -1.4064 -0.5981 -0.1434
 1556SOL    HW110504   4.007   2.626   6.835 -0.7334  0.1112 -1.4340
 1556SOL    HW210505   3.921   2.665   6.717 -1.7138  1.9785 -0.1507
 1557SOL     OW10506   6.916   2.264  10.693 -0.2586 -0.0496  0.1325
 1557SOL    HW110507   6.948   2.243  10.605 -2.2677 -1.0091 -0.4267
 1557SOL    HW210508   6.925   2.182  10.742  0.8842  0.4883  0.8672
 1558SOL     OW10509   4.485  10.221   5.369  0.0534 -0.6887  0.0073
 1558SOL    HW110510   4.458  10.298   5.319  1.1682 -2.3085 -3.4306
 1558SOL    HW210511   4.560  10.251   5.421 -0.7141  0.9275  0.2547
 1559SOL     OW10512   1.496   0.234   5.267  0.7758 -0.3916  0.4020
 1559SOL    HW110513   1.425   0.295   5.288  2.1283  0.8499  1.5975
 1559SOL    HW210514   1.479   0.158   5.322  2.3940  1.4607  3.8174
 1560SOL     OW10515   8.887   4.573   9.841 -0.0732  0.4241 -0.1325
 1560SOL    HW110516   8.883   4.669   9.834 -0.6578  0.5736  1.8631
 1560SOL    HW210517   8.872   4.543   9.751  2.1897  2.2126 -1.2335
 1561SOL     OW10518   5.374   3.812   6.118  0.1903  0.1516  0.5870
 1561SOL    HW110519   5.298   3.755   6.107  0.7591 -0.4703 -0.1464
 1561SOL    HW210520   5.403   3.832   6.029  1.1106  0.0832  0.8609
 1562SOL     OW10521   3.496   5.351   9.188  0.2998 -0.2402 -0.0427
 1562SOL    HW110522   3.450   5.342   9.105  0.6768 -1.6370 -0.1218
 1562SOL    HW210523   3.566   5.286   9.183  1.4777  0.9277  0.6116
 1563SOL     OW10524   4.066   5.373   9.403  0.0088 -0.0296  0.2779
 1563SOL    HW110525   4.033   5.376   9.313  1.3613  1.5928 -0.2258
 1563SOL    HW210526   4.043   5.285   9.434  0.1394 -0.9075 -1.8983
 1564SOL     OW10527   2.263   6.740  10.102  0.3848 -0.1757 -0.1253
 1564SOL    HW110528   2.188   6.706  10.153 -0.1662 -1.1946 -1.5411
 1564SOL    HW210529   2.236   6.828  10.076 -0.2134 -0.4279 -0.3819
 1565SOL     OW10530   9.460   8.209   9.176  0.0584 -0.7586 -0.2538
 1565SOL    HW110531   9.483   8.273   9.108  0.4015 -1.2158 -0.5768
 1565SOL    HW210532   9.469   8.124   9.132 -1.6338 -0.9942 -0.2160
 1566SOL     OW10533   3.978   2.564   9.402 -0.6924  0.2734  0.0972
 1566SOL    HW110534   4.054   2.623   9.408 -0.7838  0.2708  2.0263
 1566SOL    HW210535   3.988   2.520   9.318  1.4003  0.3640  0.2474
 1567SOL     OW10536   2.022   8.056   5.058 -0.1499  0.0588  0.5026
 1567SOL    HW110537   1.992   8.018   4.976  1.0935  0.2031 -0.0360
 1567SOL    HW210538   2.030   7.981   5.118  1.2051 -0.4020 -0.2169
 1568SOL     OW10539   5.853   7.917   4.643 -0.3195 -0.2430  0.0243
 1568SOL    HW110540   5.828   7.974   4.716  0.5457 -0.3242  0.3854
 1568SOL    HW210541   5.802   7.837   4.656 -0.8193  0.0710  0.0437
 1569SOL     OW10542   6.883   1.824   3.169  0.0034 -0.0113 -0.7099
 1569SOL    HW110543   6.954   1.774   3.129 -0.2187 -0.8242 -0.1192
 1569SOL    HW210544   6.833   1.859   3.095 -0.3150 -1.3643 -1.1756
 1570SOL     OW10545   1.640   8.185   3.706 -0.1789  0.6012 -0.1382
 1570SOL    HW110546   1.717   8.141   3.671  0.4948  0.5209  1.3425
 1570SOL    HW210547   1.632   8.264   3.654 -1.0998 -0.9379 -2.5154
 1571SOL     OW10548   5.481   6.987   5.645  0.4014  0.5672 -0.7752
 1571SOL    HW110549   5.427   7.030   5.711 -0.4892  1.0269 -1.7773
 1571SOL    HW210550   5.548   7.052   5.623  0.2746  0.6736 -0.8443
 1572SOL     OW10551   0.110   2.801  10.243 -0.4166  0.3534  0.0783
 1572SOL    HW110552   0.192   2.846  10.262 -0.4479 -0.0589  1.2488
 1572SOL    HW210553   0.128   2.709  10.261 -0.3415 -0.1707 -2.3248
 1573SOL     OW10554   8.427   8.202   3.566 -0.0393  0.1349 -0.5034
 1573SOL    HW110555   8.359   8.238   3.510 -1.6789 -0.3596  1.0752
 1573SOL    HW210556   8.449   8.117   3.527 -0.4954  0.1943 -0.8907
 1574SOL     OW10557   5.178   8.368   8.241  0.0222 -0.0434 -0.3729
 1574SOL    HW110558   5.108   8.367   8.176 -1.1032 -0.0135  0.7941
 1574SOL    HW210559   5.170   8.453   8.284  0.3617 -0.2967  0.2031
 1575SOL     OW10560   1.079   3.627   6.091  0.4612  0.3367 -0.2201
 1575SOL    HW110561   1.155   3.570   6.083 -0.3719 -0.7933 -0.2515
 1575SOL    HW210562   1.019   3.581   6.149 -0.8329  0.4997 -1.3619
 1576SOL     OW10563   2.399   8.607   3.660  0.3372 -0.1226 -0.4612
 1576SOL    HW110564   2.404   8.664   3.737  1.7355 -1.2426  0.3326
 1576SOL    HW210565   2.424   8.663   3.586  1.2550  0.4228  0.2442
 1577SOL     OW10566   0.533   2.264   5.260  0.0760 -0.3972 -0.1807
 1577SOL    HW110567   0.480   2.312   5.324  0.4814  0.7213 -0.6520
 1577SOL    HW210568   0.485   2.182   5.246 -2.9681  1.5364 -2.4501
 1578SOL     OW10569   4.918   2.176   8.355  0.3431 -0.0472 -0.2595
 1578SOL    HW110570   4.962   2.253   8.320 -0.1389 -0.2722 -1.4072
 1578SOL    HW210571   4.947   2.171   8.446  1.1665  0.9025 -0.4531
 1579SOL     OW10572   2.854   9.633   2.767  0.4454  0.1803  0.2725
 1579SOL    HW110573   2.893   9.550   2.795 -1.5505 -0.6360  0.7829
 1579SOL    HW210574   2.832   9.678   2.848  1.1011  1.0386 -0.0054
 1580SOL     OW10575   9.109   9.223   8.383 -0.2979  0.2782 -0.0948
 1580SOL    HW110576   9.136   9.132   8.374 -0.1114 -0.1452  3.3217
 1580SOL    HW210577   9.019   9.225   8.349 -0.8271 -1.5779  1.0424
 1581SOL     OW10578   3.887   5.702   6.318 -0.1993 -0.1356 -0.4203
 1581SOL    HW110579   3.898   5.685   6.412 -1.2879  1.0745 -0.0395
 1581SOL    HW210580   3.806   5.753   6.313  0.1176  0.2531 -1.9749
 1582SOL     OW10581   3.324   4.846   8.049 -0.5342 -0.8238 -0.0642
 1582SOL    HW110582   3.403   4.799   8.024 -0.0038 -0.2584  0.4907
 1582SOL    HW210583   3.294   4.888   7.968  0.5663  0.1359  0.0035
 1583SOL     OW10584   3.438   9.033  10.459  0.2279 -0.1697  0.2224
 1583SOL    HW110585   3.456   9.100  10.525 -0.1174  2.0874 -1.8322
 1583SOL    HW210586   3.352   8.999  10.482 -0.2173  1.1273  0.5460
 1584SOL     OW10587   0.383   4.370   3.407  0.8612  0.2012 -0.5002
 1584SOL    HW110588   0.306   4.337   3.453  1.4223 -2.9194 -1.5285
 1584SOL    HW210589   0.455   4.358   3.469  0.7552  1.8742 -0.0171
 1585SOL     OW10590   7.429   6.326   3.349 -0.2809  0.0961  0.1501
 1585SOL    HW110591   7.389   6.244   3.320  0.4376 -0.6967  1.3200
 1585SOL    HW210592   7.495   6.345   3.283 -1.2433  0.3912 -0.7642
 1586SOL     OW10593   4.176   2.954   6.872 -0.0568  0.1274  0.0707
 1586SOL    HW110594   4.083   2.953   6.849 -0.0189  2.4508 -0.4428
 1586SOL    HW210595   4.219   2.908   6.800 -0.6132  1.2561 -1.0276
 1587SOL     OW10596   5.341   0.149   4.895  0.7903  0.0853 -0.1985
 1587SOL    HW110597   5.352   0.056   4.917 -0.1711 -0.2929 -1.2135
 1587SOL    HW210598   5.246   0.162   4.898  0.9969  1.5074  1.6985
 1588SOL     OW10599   7.413   8.692   1.019  0.4222 -0.5843  0.4118
 1588SOL    HW110600   7.423   8.598   1.028  1.6903 -0.5927 -0.7977
 1588SOL    HW210601   7.337   8.713   1.073 -0.1372 -2.3442  0.3671
 1589SOL     OW10602   7.075   8.099   1.876  0.1017 -0.1351 -0.4139
 1589SOL    HW110603   7.014   8.029   1.853 -0.9533  0.3356  0.8148
 1589SOL    HW210604   7.044   8.131   1.961  1.7750  0.4640  0.0168
 1590SOL     OW10605   3.481   1.093   4.714 -0.5429 -0.5418 -0.1034
 1590SOL    HW110606   3.492   1.017   4.657 -0.1227 -0.4403 -0.1576
 1590SOL    HW210607   3.479   1.168   4.654  1.7919 -0.2431  0.1164
 1591SOL     OW10608   4.617   8.171   3.105 -0.0338 -0.1376  0.6086
 1591SOL    HW110609   4.554   8.230   3.145 -0.5785  0.3562 -0.9248
 1591SOL    HW210610   4.572   8.135   3.028  0.5823 -1.9073  1.0112
 1592SOL     OW10611   3.893   4.951   1.747 -0.8838 -0.0511  0.4092
 1592SOL    HW110612   3.926   4.952   1.657 -2.4379 -1.1485 -0.2137
 1592SOL    HW210613   3.924   5.034   1.784  1.4328 -0.4209 -0.4743
 1593SOL     OW10614   5.431   7.978   7.556 -0.6961  0.3777  0.4938
 1593SOL    HW110615   5.428   7.924   7.478 -1.5804  1.4088 -0.2126
 1593SOL    HW210616   5.474   8.059   7.527  3.4866 -0.9541  2.2222
 1594SOL     OW10617   6.979   6.410   0.461 -0.2992 -0.1973  0.1708
 1594SOL    HW110618   6.952   6.419   0.553 -1.9515 -0.4965 -0.2449
 1594SOL    HW210619   7.069   6.441   0.459 -0.2067 -0.2506  1.9073
 1595SOL     OW10620   1.756   1.415   9.813 -0.1638 -0.1582 -0.6504
 1595SOL    HW110621   1.810   1.424   9.891  0.2932 -1.9290 -0.7084
 1595SOL    HW210622   1.669   1.390   9.846 -0.0481 -0.6202 -0.6931
 1596SOL     OW10623   0.498  10.180   4.707 -0.0298  0.4668 -0.1420
 1596SOL    HW110624   0.498  10.191   4.802  0.6822 -0.5219 -0.0122
 1596SOL    HW210625   0.557  10.248   4.675 -0.1622  0.7125  0.1283
 1597SOL     OW10626   3.316   0.054   6.149 -0.1083 -0.0130 -0.1397
 1597SOL    HW110627   3.255   0.040   6.077 -0.2869  0.8303 -0.1624
 1597SOL    HW210628   3.396   0.086   6.107 -0.0910  0.1247 -0.0050
 1598SOL     OW10629   3.387   2.784   3.275 -0.0359  0.0257 -0.6087
 1598SOL    HW110630   3.296   2.785   3.306  0.5480  0.8279  1.2115
 1598SOL    HW210631   3.388   2.849   3.204 -0.2689  2.4178  1.4541
 1599SOL     OW10632   6.145   5.567   9.115 -0.2332  0.3103  0.4808
 1599SOL    HW110633   6.151   5.493   9.175 -2.5523 -0.1542  0.2149
 1599SOL    HW210634   6.099   5.533   9.038  0.7379  1.4560 -0.6716
 1600SOL     OW10635   5.597   9.859   2.326  0.0502  0.4855  0.8285
 1600SOL    HW110636   5.602   9.944   2.282 -2.0737  0.9929  1.4318
 1600SOL    HW210637   5.548   9.803   2.266  2.6627 -0.8673 -0.2239
 1601SOL     OW10638   4.365   3.123  10.075 -0.4091  0.3856 -0.3964
 1601SOL    HW110639   4.391   3.111  10.166  0.0497  1.6234 -0.3476
 1601SOL    HW210640   4.446   3.113  10.025 -0.2197  1.9853 -0.4485
 1602SOL     OW10641   2.919   0.137   1.893 -0.7918 -0.1561 -0.4983
 1602SOL    HW110642   2.953   0.150   1.805  2.3949  0.1563  0.6250
 1602SOL    HW210643   2.893   0.224   1.922 -0.0730  0.0785 -0.5268
 1603SOL     OW10644   4.474   1.963   9.392 -0.0744 -0.1675 -0.1528
 1603SOL    HW110645   4.460   2.013   9.312 -2.5021  1.1627  0.9872
 1603SOL    HW210646   4.483   1.872   9.363  1.1113  0.4980 -2.0337
 1604SOL     OW10647  10.525   7.912   3.870  0.7016  0.0832  0.4406
 1604SOL    HW110648  10.542   7.837   3.814 -0.8838 -0.8377  1.1341
 1604SOL    HW210649  10.487   7.875   3.950 -2.0693  1.6677  0.0129
 1605SOL     OW10650   8.031   9.275   6.393 -0.1039  0.4047  0.5945
 1605SOL    HW110651   8.112   9.244   6.353 -0.5784 -0.5040  0.3165
 1605SOL    HW210652   8.058   9.347   6.450  0.7162  1.0063 -0.5282
 1606SOL     OW10653   2.968   0.543   0.693 -0.0478  0.5971  0.0447
 1606SOL    HW110654   2.962   0.613   0.628  0.4632  0.3110 -0.3184
 1606SOL    HW210655   2.903   0.479   0.666 -0.5376  0.9444  0.3949
 1607SOL     OW10656  10.362   8.019   3.157  0.2806 -0.4264  0.0281
 1607SOL    HW110657  10.433   8.007   3.220 -1.8958 -0.4205  2.6317
 1607SOL    HW210658  10.302   7.947   3.174 -0.8287  0.0954 -1.4545
 1608SOL     OW10659   5.438   2.608   3.480 -0.4790  0.1827  0.1654
 1608SOL    HW110660   5.505   2.552   3.520 -1.0445 -1.9999 -1.7170
 1608SOL    HW210661   5.422   2.676   3.545  0.9066 -1.3265  2.2318
 1609SOL     OW10662   4.942   3.738   5.849  0.8456  0.0457  0.3064
 1609SOL    HW110663   4.923   3.738   5.755  0.7937  2.3634  0.2533
 1609SOL    HW210664   5.013   3.674   5.859  1.2189  0.1346 -1.3860
 1610SOL     OW10665   0.007   9.465   5.743  0.0475  0.0642  0.3429
 1610SOL    HW110666   0.086   9.448   5.794 -0.2411 -0.2996  0.6750
 1610SOL    HW210667   0.036   9.521   5.672  0.2815  1.3878  1.4433
 1611SOL     OW10668   9.313   1.559   3.646 -0.2809  0.4946  0.1456
 1611SOL    HW110669   9.298   1.622   3.575 -0.4009  0.3000 -0.0046
 1611SOL    HW210670   9.368   1.491   3.607  0.3086  0.7855  0.4656
 1612SOL     OW10671   5.149   5.404   2.315  0.5435 -0.5905 -0.3015
 1612SOL    HW110672   5.173   5.311   2.317  3.3797  0.0754 -0.2946
 1612SOL    HW210673   5.120   5.418   2.225  1.3454 -1.2220 -0.6745
 1613SOL     OW10674   1.137   9.755   0.617 -0.0189  0.0311  0.3191
 1613SOL    HW110675   1.097   9.786   0.698 -1.7613  0.1567 -0.5334
 1613SOL    HW210676   1.146   9.661   0.630  0.2361  0.1285  0.8690
 1614SOL     OW10677   3.717   7.607   4.516  0.2383 -0.2172  0.0057
 1614SOL    HW110678   3.649   7.642   4.459  0.8933  0.3530 -0.4340
 1614SOL    HW210679   3.796   7.606   4.462  0.7430 -0.2032  0.7315
 1615SOL     OW10680   2.466   3.859   2.071 -0.3313 -0.6380  0.5061
 1615SOL    HW110681   2.503   3.782   2.028  1.7859  0.5937  0.0057
 1615SOL    HW210682   2.499   3.933   2.021 -0.3121  0.7033  2.4044
 1616SOL     OW10683   7.439   7.027   3.706 -0.1920  0.3544 -0.2639
 1616SOL    HW110684   7.521   6.982   3.690  0.1713  1.2974 -1.0928
 1616SOL    HW210685   7.379   6.957   3.736  0.2532 -0.7361 -1.8134
 1617SOL     OW10686   7.286   2.470   2.235  0.0443 -0.5467  0.5778
 1617SOL    HW110687   7.261   2.430   2.152 -0.0473  0.9318 -0.1416
 1617SOL    HW210688   7.239   2.553   2.238  1.0607  0.0385  1.4824
 1618SOL     OW10689   1.940   5.891   1.868 -0.2429 -0.3771  0.0587
 1618SOL    HW110690   1.895   5.825   1.921 -1.2650 -0.5715 -1.0268
 1618SOL    HW210691   2.018   5.847   1.835  0.9449  0.0291  2.1416
 1619SOL     OW10692   6.714   3.662   6.518  0.3326 -0.1158  0.0299
 1619SOL    HW110693   6.682   3.608   6.591 -1.4188  2.5569  1.4074
 1619SOL    HW210694   6.809   3.653   6.523  0.2503 -0.4975  2.3197
 1620SOL     OW10695   0.632   9.314   2.126 -0.2726 -0.0178  0.6211
 1620SOL    HW110696   0.688   9.392   2.124 -1.1254  0.6184 -1.4265
 1620SOL    HW210697   0.594   9.310   2.038 -2.4125 -1.1881  1.5389
 1621SOL     OW10698   6.271   0.354   4.920  0.1904  0.2691  0.0151
 1621SOL    HW110699   6.188   0.364   4.966 -0.7152 -0.3960 -1.4037
 1621SOL    HW210700   6.276   0.261   4.898  1.4347  0.2508  0.2580
 1622SOL     OW10701   1.730   5.660   3.893  0.0015 -0.4784  0.3066
 1622SOL    HW110702   1.806   5.687   3.944 -0.7314  1.3953  0.5189
 1622SOL    HW210703   1.679   5.741   3.882  0.0254 -0.8110 -3.2652
 1623SOL     OW10704   3.011  10.595   8.392  0.3006  0.4690  0.0152
 1623SOL    HW110705   3.034  10.604   8.484 -0.9352  1.1730  0.2813
 1623SOL    HW210706   2.925  10.555   8.392  0.5405 -0.0875 -0.8676
 1624SOL     OW10707   4.172   8.400  10.065  0.0415  0.3621 -0.6110
 1624SOL    HW110708   4.235   8.453  10.016  0.6990 -1.4333 -1.8296
 1624SOL    HW210709   4.206   8.399  10.154  2.5406 -1.5133 -1.4494
 1625SOL     OW10710   4.512   4.707   7.034  0.1897  0.2491  0.5010
 1625SOL    HW110711   4.512   4.742   7.123  0.3665 -1.1471  1.0707
 1625SOL    HW210712   4.561   4.772   6.983  1.3126  0.4041  1.7147
 1626SOL     OW10713   6.108   4.312   1.469  0.1510  0.3337 -0.7061
 1626SOL    HW110714   6.194   4.352   1.480 -0.5473  2.1761 -1.5540
 1626SOL    HW210715   6.051   4.361   1.527 -0.1419 -1.7487  0.8835
 1627SOL     OW10716   8.903   0.943   6.144  0.2286  0.2547 -0.0375
 1627SOL    HW110717   8.954   0.989   6.211  0.4026  1.8313 -1.1749
 1627SOL    HW210718   8.814   0.976   6.156 -0.2265 -1.2027  0.8465
 1628SOL     OW10719   3.768   3.690   4.079 -0.4075  0.3714 -0.1148
 1628SOL    HW110720   3.753   3.708   4.172 -0.7962  1.4897 -0.3745
 1628SOL    HW210721   3.785   3.776   4.041  0.3004 -0.1402 -0.9882
 1629SOL     OW10722   4.152   0.610   5.851  0.3566 -0.3436  0.2049
 1629SOL    HW110723   4.063   0.621   5.883  0.5651  1.9495  0.1706
 1629SOL    HW210724   4.148   0.532   5.795 -1.3576 -0.9053  1.0460
 1630SOL     OW10725   5.951   1.589   3.672 -0.1322 -0.3148 -0.2668
 1630SOL    HW110726   5.925   1.676   3.643 -0.8889 -0.5340 -0.2546
 1630SOL    HW210727   6.036   1.574   3.629  0.6368  0.9329  0.7390
 1631SOL     OW10728   2.881   1.060   2.254  0.5845 -0.0094 -0.6716
 1631SOL    HW110729   2.840   1.058   2.341 -0.6238  0.9805 -1.1874
 1631SOL    HW210730   2.968   1.097   2.270  0.1390  0.7730  0.0386
 1632SOL     OW10731   8.662   7.219   7.011  0.5938 -0.5145 -0.0026
 1632SOL    HW110732   8.570   7.243   7.000  0.4338 -1.3820 -0.6896
 1632SOL    HW210733   8.708   7.272   6.946  0.7555  0.8312  1.1641
 1633SOL     OW10734   9.463   6.198   3.279 -0.2118  0.4741  0.1895
 1633SOL    HW110735   9.457   6.293   3.286  0.6303  0.5718 -0.1937
 1633SOL    HW210736   9.521   6.184   3.204  1.4948 -0.3030  1.5750
 1634SOL     OW10737   7.664   4.514   1.899  0.0141 -0.4184  0.2390
 1634SOL    HW110738   7.725   4.456   1.943  0.2770  1.0697  1.9834
 1634SOL    HW210739   7.605   4.456   1.851  1.9381 -1.9446 -0.3866
 1635SOL     OW10740   5.441   7.489   8.700  0.8967  0.5806 -0.4605
 1635SOL    HW110741   5.348   7.502   8.718  0.9107 -1.5369  1.6510
 1635SOL    HW210742   5.479   7.466   8.785  2.9748 -0.5253 -1.5990
 1636SOL     OW10743   0.968   0.680   8.693 -0.1326  0.1836 -0.2583
 1636SOL    HW110744   0.893   0.736   8.672 -0.0327  0.9482  1.2975
 1636SOL    HW210745   1.040   0.741   8.706  0.5101 -0.4760 -0.6615
 1637SOL     OW10746   9.676   6.039   4.160  0.2590 -0.1142  0.6328
 1637SOL    HW110747   9.648   5.979   4.230  0.1289  0.8783  1.4486
 1637SOL    HW210748   9.657   6.126   4.194  0.1154  0.3918 -0.6867
 1638SOL     OW10749   8.086  10.643   7.147 -0.2409  0.3164  0.3117
 1638SOL    HW110750   8.054  10.731   7.129 -0.1231  0.2042 -0.4969
 1638SOL    HW210751   8.181  10.653   7.158 -0.3264  0.4032  1.0485
 1639SOL     OW10752   8.581   6.687   3.681 -0.1928 -0.3131  0.3011
 1639SOL    HW110753   8.536   6.669   3.598 -1.7910 -0.3004  1.1193
 1639SOL    HW210754   8.592   6.601   3.721 -0.6386 -0.2028  0.6663
 1640SOL     OW10755   0.081  10.108   9.993 -0.0158 -0.5091  0.3263
 1640SOL    HW110756   0.130  10.074   9.919  3.0541 -0.8152  2.3122
 1640SOL    HW210757   0.084  10.203   9.984  1.6513 -0.4978  0.7667
 1641SOL     OW10758   8.489   9.511   1.865 -0.0213  0.2667 -0.4278
 1641SOL    HW110759   8.558   9.567   1.901  0.3207 -1.3005  1.5042
 1641SOL    HW210760   8.411   9.533   1.915 -0.0626 -0.4623 -0.1680
 1642SOL     OW10761   4.781   8.811   5.521 -0.0208  0.1443 -0.5445
 1642SOL    HW110762   4.742   8.891   5.558  0.6023 -0.1078  0.7256
 1642SOL    HW210763   4.871   8.836   5.500 -0.1153  0.0413 -1.0780
 1643SOL     OW10764   9.458   0.358   5.288  0.0537 -0.1415 -0.1311
 1643SOL    HW110765   9.412   0.288   5.334  0.5894  0.2214  0.9672
 1643SOL    HW210766   9.551   0.340   5.302  0.2020  1.6712  1.5666
 1644SOL     OW10767   5.193   6.242   7.216  0.0607  0.1109  0.0761
 1644SOL    HW110768   5.162   6.176   7.155  0.9049  1.9574 -2.5025
 1644SOL    HW210769   5.132   6.316   7.205  1.0388  0.9942  0.4472
 1645SOL     OW10770   6.948   2.260  10.188  0.0055  0.6748 -0.4829
 1645SOL    HW110771   6.983   2.323  10.126  1.8575 -0.2525 -0.4616
 1645SOL    HW210772   6.853   2.270  10.182  0.2086  2.2432 -1.7097
 1646SOL     OW10773   6.478   9.983   7.326 -0.0118  0.1873 -0.1810
 1646SOL    HW110774   6.438   9.918   7.384 -1.1857 -0.9685 -2.1845
 1646SOL    HW210775   6.404  10.027   7.285  0.7877  1.8502  0.0668
 1647SOL     OW10776  10.280   6.782   1.155 -0.4003  0.5874 -0.0156
 1647SOL    HW110777  10.187   6.795   1.141 -0.8441  1.0545  2.7870
 1647SOL    HW210778  10.316   6.870   1.168  0.6724  0.5026 -2.0103
 1648SOL     OW10779   1.577   4.072   9.370  0.0490 -0.0855  0.0229
 1648SOL    HW110780   1.651   4.098   9.424 -0.3322 -0.7160  0.8770
 1648SOL    HW210781   1.545   3.992   9.411  0.0210 -0.8327 -1.4101
 1649SOL     OW10782   2.278  10.636   3.090  0.4747  0.2848  0.9536
 1649SOL    HW110783   2.360  10.681   3.113  0.2542  0.5207  1.2731
 1649SOL    HW210784   2.210  10.701   3.107  0.2147  0.0652  0.7441
 1650SOL     OW10785   3.160   3.682   3.432 -0.3022 -0.5960 -0.4359
 1650SOL    HW110786   3.205   3.764   3.415  0.2062 -0.6556  0.5385
 1650SOL    HW210787   3.118   3.659   3.349 -0.1649  0.4652 -0.8055
 1651SOL     OW10788   7.927   3.841   8.246  0.4317 -0.0925  0.2165
 1651SOL    HW110789   8.014   3.810   8.221  0.5860 -0.0710  0.7216
 1651SOL    HW210790   7.913   3.807   8.334 -0.0338 -0.0144  0.1766
 1652SOL     OW10791   9.569   3.917   6.109 -0.1363 -0.4519 -0.0626
 1652SOL    HW110792   9.641   3.892   6.166  1.5178 -1.0358 -2.2789
 1652SOL    HW210793   9.611   3.950   6.029 -2.3221  0.0236 -1.1084
 1653SOL     OW10794   1.762   8.544   0.594  0.0436 -0.0737 -0.2096
 1653SOL    HW110795   1.781   8.478   0.660  0.2361 -0.2229 -0.4139
 1653SOL    HW210796   1.817   8.619   0.617  0.7016 -0.4143 -0.6572
 1654SOL     OW10797   5.427   3.456   9.424  0.0514  0.0663  0.0171
 1654SOL    HW110798   5.389   3.466   9.337  0.2612 -1.9765 -0.3541
 1654SOL    HW210799   5.386   3.377   9.459  1.7611 -0.5263  0.7795
 1655SOL     OW10800   0.920   2.263   4.232 -0.4447 -0.7555  0.2736
 1655SOL    HW110801   0.913   2.225   4.144 -2.2311 -1.2789  0.6029
 1655SOL    HW210802   1.010   2.244   4.259 -0.4887 -2.4517 -0.6172
 1656SOL     OW10803   4.952   0.713  10.455 -0.5788  0.1167 -0.1844
 1656SOL    HW110804   4.974   0.750  10.369  0.8269  1.4377  0.6769
 1656SOL    HW210805   4.871   0.758  10.481 -1.0373 -0.3298 -0.8291
 1657SOL     OW10806   8.944   5.332   2.043  0.4683  0.0559  0.3799
 1657SOL    HW110807   8.892   5.365   1.970  0.0603 -1.6090 -0.1235
 1657SOL    HW210808   8.880   5.298   2.105  0.8822 -0.3332  0.6045
 1658SOL     OW10809  10.393   1.731   8.042 -0.0709 -0.7245  0.0748
 1658SOL    HW110810  10.367   1.815   8.004  0.3196 -0.8278 -0.4312
 1658SOL    HW210811  10.313   1.697   8.082 -0.1313  0.0883  0.6754
 1659SOL     OW10812   8.687   7.861  10.530 -0.1434 -0.0712 -0.2297
 1659SOL    HW110813   8.686   7.806  10.452 -0.6046 -0.0138 -0.2720
 1659SOL    HW210814   8.698   7.799  10.603 -0.3231 -0.1895 -0.3008
 1660SOL     OW10815   6.716   9.493   7.577  0.0494 -0.2666  0.1544
 1660SOL    HW110816   6.765   9.477   7.496  0.4131 -0.2862  0.3754
 1660SOL    HW210817   6.724   9.588   7.590  2.7529 -0.6234  1.8694
 1661SOL     OW10818   8.551   8.953   2.706 -0.0019 -0.2917  0.1116
 1661SOL    HW110819   8.611   8.879   2.694 -0.7847 -0.7235 -1.4266
 1661SOL    HW210820   8.477   8.915   2.754  0.2785 -0.1156  0.6942
 1662SOL     OW10821   2.864   2.388   5.584 -0.2865  0.1694  0.0902
 1662SOL    HW110822   2.910   2.471   5.572 -0.2856  0.0568 -0.7382
 1662SOL    HW210823   2.890   2.358   5.671  1.8404 -0.2836 -0.6435
 1663SOL     OW10824   7.697   6.898   9.069 -0.2187 -0.0756  0.1156
 1663SOL    HW110825   7.670   6.871   8.981  0.1186  1.9178 -0.6475
 1663SOL    HW210826   7.674   6.823   9.125 -3.6292 -0.0907 -1.0963
 1664SOL     OW10827   7.905   0.146   5.822 -0.2007 -0.0063  0.2045
 1664SOL    HW110828   7.935   0.211   5.886 -1.9557  0.1284  0.9533
 1664SOL    HW210829   7.831   0.103   5.865  0.2638 -1.8172 -0.6808
 1665SOL     OW10830   1.645   5.610   9.763  0.4914 -0.1443 -0.9714
 1665SOL    HW110831   1.647   5.675   9.693  0.1537  0.0310 -0.8239
 1665SOL    HW210832   1.699   5.538   9.731  0.3879 -0.0417 -1.3843
 1666SOL     OW10833   3.963   3.812   2.453  0.6822 -1.0176 -0.0356
 1666SOL    HW110834   4.020   3.824   2.377  1.4413 -0.1772  0.6332
 1666SOL    HW210835   3.957   3.899   2.492  0.6285 -1.5080  1.0828
 1667SOL     OW10836   7.808   9.082   1.028  0.3223  0.4439  0.0291
 1667SOL    HW110837   7.722   9.041   1.034  0.9756 -0.9881  0.0391
 1667SOL    HW210838   7.803   9.158   1.086 -1.4053  1.3097 -1.1466
 1668SOL     OW10839   0.269   4.606   6.526 -0.5171 -0.1216 -0.2213
 1668SOL    HW110840   0.356   4.571   6.504 -1.1611 -1.0400 -1.3545
 1668SOL    HW210841   0.228   4.536   6.577 -0.7965  0.1012 -0.1427
 1669SOL     OW10842   4.530   5.101   0.365 -0.4838 -0.0249  0.3568
 1669SOL    HW110843   4.543   5.154   0.444  1.1554  0.8395 -0.4458
 1669SOL    HW210844   4.538   5.011   0.396 -0.4832  0.2799  1.2887
 1670SOL     OW10845   4.856   0.621   1.445  0.0649  0.1649 -0.6384
 1670SOL    HW110846   4.950   0.601   1.444 -0.1511 -1.0865  0.3568
 1670SOL    HW210847   4.818   0.560   1.382 -0.2078 -0.2664 -0.0743
 1671SOL     OW10848   2.327   3.420   2.899 -0.3598  0.5422 -0.0023
 1671SOL    HW110849   2.328   3.497   2.957 -0.7833  0.9035 -0.4686
 1671SOL    HW210850   2.351   3.454   2.813 -0.6170  0.1633 -0.2272
 1672SOL     OW10851   5.986   4.203   1.262  0.2255 -1.1351  0.4903
 1672SOL    HW110852   5.914   4.154   1.302 -0.2485 -0.4054  0.5590
 1672SOL    HW210853   6.032   4.243   1.336 -1.2644  1.0600  0.3436
 1673SOL     OW10854   0.195   8.835   0.728 -0.7371  0.4709 -0.3022
 1673SOL    HW110855   0.225   8.911   0.779  2.4962 -0.3241 -0.8020
 1673SOL    HW210856   0.208   8.761   0.786  0.4742 -0.1602 -1.3481
 1674SOL     OW10857   0.660   2.263   7.083  0.4345 -0.4627 -0.0032
 1674SOL    HW110858   0.709   2.289   7.005 -1.7986  0.7789 -1.0883
 1674SOL    HW210859   0.581   2.220   7.049 -1.2222  1.2390  1.4716
 1675SOL     OW10860   9.352   4.507   9.031  0.5895 -0.1726 -0.4954
 1675SOL    HW110861   9.365   4.497   9.125 -2.6689 -0.3548  0.0702
 1675SOL    HW210862   9.437   4.534   8.997  1.6253  0.9580  2.6458
 1676SOL     OW10863   9.452  10.448   5.442  0.2117 -0.4475  0.3210
 1676SOL    HW110864   9.431  10.491   5.359  1.7406 -1.6377 -0.7310
 1676SOL    HW210865   9.493  10.365   5.417  1.0521 -0.6763  2.2567
 1677SOL     OW10866   0.517   4.060   3.948  0.2805 -0.0786  0.2145
 1677SOL    HW110867   0.588   4.114   3.985  0.6485 -1.1221  1.0923
 1677SOL    HW210868   0.522   4.076   3.854  0.8769  0.8215  0.3746
 1678SOL     OW10869   7.685   2.637   4.086 -0.2494  0.0486 -0.3164
 1678SOL    HW110870   7.689   2.720   4.134 -0.4582 -0.4605  0.5999
 1678SOL    HW210871   7.619   2.586   4.133  0.6439 -1.0485 -0.2202
 1679SOL     OW10872   7.198   5.418   6.708  0.1515  0.1279  0.2860
 1679SOL    HW110873   7.272   5.439   6.651  0.3638 -0.4824  0.3358
 1679SOL    HW210874   7.200   5.485   6.776  1.5004 -0.6858  1.0833
 1680SOL     OW10875   7.586   0.689   2.125  0.7581 -0.4345 -0.0098
 1680SOL    HW110876   7.625   0.758   2.071  0.6803  0.0534  0.5506
 1680SOL    HW210877   7.613   0.608   2.083  0.9149 -0.0638 -0.6341
 1681SOL     OW10878  10.475   8.058   9.137 -0.1816  0.8706 -0.2175
 1681SOL    HW110879  10.523   8.001   9.077 -0.9177 -0.6519  0.5769
 1681SOL    HW210880  10.387   8.021   9.140 -0.8667  2.4267 -0.1210
 1682SOL     OW10881   3.116   1.627  10.346 -0.4010 -0.2647 -0.1304
 1682SOL    HW110882   3.174   1.670  10.284 -1.2709 -0.9873 -1.4850
 1682SOL    HW210883   3.174   1.597  10.416  0.7480 -0.2411 -1.0445
 1683SOL     OW10884   3.238  10.287   2.933  0.4608 -0.1614  0.5190
 1683SOL    HW110885   3.259  10.303   2.841  0.0812  0.3240  0.5116
 1683SOL    HW210886   3.158  10.337   2.948  0.8271  0.2191  1.2557
 1684SOL     OW10887   6.310  10.196   0.891 -0.2451  0.4120 -0.4108
 1684SOL    HW110888   6.296  10.206   0.985  0.4727  2.4583 -0.4662
 1684SOL    HW210889   6.401  10.224   0.877 -0.3916  0.2854 -1.7413
 1685SOL     OW10890   5.757  10.476   6.070 -0.0994 -0.3550  0.4095
 1685SOL    HW110891   5.765  10.387   6.105 -0.4465 -1.0750 -1.2583
 1685SOL    HW210892   5.780  10.468   5.977 -2.9020  0.7080 -0.4772
 1686SOL     OW10893   8.630   6.866  10.469 -0.3862  0.1719 -0.2178
 1686SOL    HW110894   8.677   6.872  10.385  0.6432  0.6508  0.3790
 1686SOL    HW210895   8.636   6.774  10.493 -0.6752  0.0345 -0.6628
 1687SOL     OW10896   1.026   5.327   1.336  0.1190 -1.0198 -0.5128
 1687SOL    HW110897   1.058   5.416   1.321 -1.6884 -0.4068 -0.9262
 1687SOL    HW210898   1.096   5.271   1.302  0.6005  0.2440 -1.7266
 1688SOL     OW10899   1.433   2.087   7.109  0.2176  0.2260 -0.3719
 1688SOL    HW110900   1.450   2.022   7.041 -0.0952 -0.3766  0.1046
 1688SOL    HW210901   1.445   2.171   7.066 -1.3469 -0.1060 -1.5532
 1689SOL     OW10902   5.331   0.296   9.564 -0.2440 -0.0078  0.0333
 1689SOL    HW110903   5.405   0.241   9.588  0.2566  0.1866 -1.0256
 1689SOL    HW210904   5.330   0.296   9.469 -0.9792  0.8269  0.0218
 1690SOL     OW10905   8.362   2.776   1.612 -0.2718 -0.2341  0.1067
 1690SOL    HW110906   8.341   2.832   1.687  0.2029 -0.1837  0.2025
 1690SOL    HW210907   8.359   2.835   1.536 -0.4945 -0.2330  0.1140
 1691SOL     OW10908   1.341   6.289   1.387 -0.5781 -0.3470 -0.6735
 1691SOL    HW110909   1.407   6.245   1.333 -2.1479 -3.0719 -0.5010
 1691SOL    HW210910   1.324   6.229   1.459 -0.8985  1.7861  1.1581
 1692SOL     OW10911   6.130   8.675   4.444  0.3847  0.0651  0.1334
 1692SOL    HW110912   6.051   8.679   4.390 -0.3327  0.0435  1.1439
 1692SOL    HW210913   6.107   8.615   4.515  1.8523 -1.1774 -0.3848
 1693SOL     OW10914   2.122   9.753   5.520  0.1899  0.0327 -0.3785
 1693SOL    HW110915   2.152   9.792   5.438 -2.6932  1.6470 -0.8066
 1693SOL    HW210916   2.049   9.696   5.494 -1.9636  1.9352  1.1282
 1694SOL     OW10917   8.112   3.699   9.694 -0.2743  0.4536  0.2824
 1694SOL    HW110918   8.097   3.740   9.609  0.4504 -0.1869 -0.1654
 1694SOL    HW210919   8.151   3.768   9.748 -1.0496  0.9594  0.2121
 1695SOL     OW10920   7.638   2.626   2.585 -0.4013 -0.1709  0.3951
 1695SOL    HW110921   7.558   2.662   2.547 -0.1856  0.6042  0.6586
 1695SOL    HW210922   7.634   2.650   2.677  0.9830  1.4912  0.0779
 1696SOL     OW10923   8.573   2.912   1.937 -0.1151 -0.7010  0.1006
 1696SOL    HW110924   8.545   2.909   1.846  1.5618 -1.9863 -0.4234
 1696SOL    HW210925   8.606   3.001   1.949 -0.8488 -0.3534 -0.3610
 1697SOL     OW10926   7.159   2.426   1.456 -0.5458  0.3520  0.4191
 1697SOL    HW110927   7.114   2.457   1.377  0.9375 -0.8090 -0.9588
 1697SOL    HW210928   7.190   2.505   1.499  0.7239  0.9694 -1.5015
 1698SOL     OW10929   3.769   2.929   1.713  0.3137  0.3298  0.4458
 1698SOL    HW110930   3.747   2.843   1.678  0.3745  0.5580 -0.1550
 1698SOL    HW210931   3.776   2.986   1.636 -0.1979  0.9789  0.8681
 1699SOL     OW10932   2.299   5.879  10.514  0.1639  0.1911  0.0292
 1699SOL    HW110933   2.238   5.878  10.440  2.0078 -0.1738 -1.5554
 1699SOL    HW210934   2.244   5.899  10.590 -1.8395  0.3173 -1.3788
 1700SOL     OW10935  10.225   9.408   2.040 -0.1341  0.0802 -0.7419
 1700SOL    HW110936  10.222   9.457   2.122 -1.9071  0.7517 -1.1499
 1700SOL    HW210937  10.264   9.469   1.977  1.1456 -0.4048 -0.4419
 1701SOL     OW10938   7.634   4.069   1.482 -0.7289  0.2287 -0.1944
 1701SOL    HW110939   7.686   4.092   1.558  1.4198 -0.5959 -1.3371
 1701SOL    HW210940   7.629   3.973   1.483 -2.2111  0.2742 -0.1645
 1702SOL     OW10941   3.979   7.587   5.743  0.0342 -0.1704  0.3463
 1702SOL    HW110942   4.062   7.593   5.790  0.1162 -1.0864  0.3404
 1702SOL    HW210943   3.959   7.493   5.741 -0.9529  0.0245  0.2624
 1703SOL     OW10944   1.060   6.604   3.423 -0.1733 -0.1935  0.6020
 1703SOL    HW110945   1.107   6.556   3.355 -1.3237 -0.1237 -0.2807
 1703SOL    HW210946   1.114   6.682   3.439  0.8453 -0.9316  0.8317
 1704SOL     OW10947   4.114   5.751   7.475 -0.3234  0.6348  0.7495
 1704SOL    HW110948   4.058   5.785   7.545 -2.2871 -1.9084  0.5835
 1704SOL    HW210949   4.188   5.710   7.520 -2.3527 -2.4032  1.6586
 1705SOL     OW10950   2.172   0.721   9.238  0.4620  0.3081  0.0635
 1705SOL    HW110951   2.179   0.707   9.332  2.3863  0.2939 -0.0481
 1705SOL    HW210952   2.085   0.688   9.215  0.6170 -1.2884  1.5663
 1706SOL     OW10953   3.705   3.772   1.584  0.1747 -0.0990 -0.3318
 1706SOL    HW110954   3.746   3.853   1.552  0.7453 -0.4932 -0.6093
 1706SOL    HW210955   3.626   3.763   1.531  0.5436 -0.1655 -0.8753
 1707SOL     OW10956   7.881   0.666   4.593  0.1469  0.1704 -0.2084
 1707SOL    HW110957   7.862   0.621   4.675 -2.1731  1.1199 -0.1288
 1707SOL    HW210958   7.975   0.683   4.596  1.2160 -4.4294 -0.2332
 1708SOL     OW10959   4.590   8.803   7.963 -0.4445  0.2613  0.6635
 1708SOL    HW110960   4.552   8.865   7.902 -0.0339  0.3334  0.4836
 1708SOL    HW210961   4.667   8.768   7.919 -1.2220 -1.1304  0.3393
 1709SOL     OW10962   6.996   3.846   4.205  0.1343 -0.3434  0.1718
 1709SOL    HW110963   6.909   3.871   4.235  0.0538 -0.1379 -0.2279
 1709SOL    HW210964   6.997   3.750   4.212  0.5876 -0.2438  2.1064
 1710SOL     OW10965   4.266   3.609   0.448 -0.0721  0.0687  0.3369
 1710SOL    HW110966   4.345   3.653   0.480  0.5696 -0.4902 -0.4384
 1710SOL    HW210967   4.294   3.519   0.431 -0.5992  0.1363 -0.9734
 1711SOL     OW10968   7.001   7.250   8.206 -0.2381  0.8595 -0.1290
 1711SOL    HW110969   7.020   7.217   8.118 -0.9010 -1.3569  0.4993
 1711SOL    HW210970   6.911   7.281   8.201 -0.7996 -0.6396  0.0848
 1712SOL     OW10971  10.723   2.685   9.678  0.6330  0.0724 -0.4295
 1712SOL    HW110972  10.681   2.658   9.596 -0.3001  1.9532 -0.6267
 1712SOL    HW210973  10.718   2.607   9.734 -0.3498 -0.6906 -1.5221
 1713SOL     OW10974   1.196   2.956   3.644 -0.1500 -0.7152 -0.3885
 1713SOL    HW110975   1.143   2.895   3.694  0.2177 -0.1295  0.7583
 1713SOL    HW210976   1.241   2.902   3.579  1.2128 -1.8968  1.4511
 1714SOL     OW10977   5.862   4.269   8.457 -0.1620 -0.7138 -0.3829
 1714SOL    HW110978   5.938   4.211   8.463  0.9419  0.7759  0.7014
 1714SOL    HW210979   5.825   4.251   8.370  1.2856 -1.6361 -0.8490
 1715SOL     OW10980   7.047   4.933   1.044 -0.3191 -0.4490 -0.0152
 1715SOL    HW110981   7.050   5.018   1.086  0.7822 -1.0313  1.1649
 1715SOL    HW210982   6.955   4.919   1.023 -0.8739 -0.0145  1.9878
 1716SOL     OW10983   5.450   7.009   9.651  0.2846 -0.4504  0.1630
 1716SOL    HW110984   5.527   6.952   9.654 -0.5692 -1.6273  0.1924
 1716SOL    HW210985   5.420   7.006   9.560 -0.4057 -0.9393  0.3985
 1717SOL     OW10986   5.788   5.301   5.544  0.0772 -0.0494  0.3503
 1717SOL    HW110987   5.796   5.373   5.607 -0.5844  0.3226  0.0318
 1717SOL    HW210988   5.766   5.345   5.462  0.3389 -0.5734  0.0012
 1718SOL     OW10989   3.688   6.688   1.669  0.2418  0.0353  0.1541
 1718SOL    HW110990   3.641   6.750   1.613 -0.8869 -1.4451 -0.5959
 1718SOL    HW210991   3.774   6.729   1.682 -0.1371  1.3231 -1.0630
 1719SOL     OW10992   1.873   4.438   9.558 -0.0455  0.0127  0.7016
 1719SOL    HW110993   1.799   4.495   9.536 -1.0852 -1.0979  1.2075
 1719SOL    HW210994   1.848   4.352   9.523  0.6782 -0.5438  1.5050
 1720SOL     OW10995   6.691  10.070   0.443 -0.3495 -0.4008  0.2427
 1720SOL    HW110996   6.713  10.143   0.500 -0.7960 -0.2548  0.2326
 1720SOL    HW210997   6.614  10.100   0.394  1.1222  0.2148 -1.8202
 1721SOL     OW10998  10.168   3.128   4.853  0.3942 -0.2165 -0.3051
 1721SOL    HW110999  10.223   3.059   4.891  0.5212 -0.0333 -0.1544
 1721SOL    HW211000  10.201   3.209   4.892 -0.8376 -0.2242  0.7901
 1722SOL     OW11001   5.848   6.590   1.739  0.1167 -0.0381 -0.0435
 1722SOL    HW111002   5.824   6.625   1.653  0.2064 -0.1349 -0.1094
 1722SOL    HW211003   5.942   6.602   1.744  0.1304 -0.1546 -0.0148
 1723SOL     OW11004   7.577   9.795   4.992  0.0253  0.3168 -0.3737
 1723SOL    HW111005   7.672   9.787   4.987  0.0044 -0.1760 -0.1295
 1723SOL    HW211006   7.559   9.810   5.084 -0.0922  1.1355 -0.5243
 1724SOL     OW11007   0.832   0.068   9.353  0.6228 -0.0825 -0.4120
 1724SOL    HW111008   0.896   0.131   9.319  1.4183 -0.1190  0.9351
 1724SOL    HW211009   0.872   0.035   9.433  0.1306 -2.1896 -0.9907
 1725SOL     OW11010   3.175   8.507   2.106 -0.1053 -0.2719 -0.9228
 1725SOL    HW111011   3.103   8.444   2.106 -0.4433  0.0930  0.5843
 1725SOL    HW211012   3.228   8.481   2.030 -0.0668 -2.5694 -0.2009
 1726SOL     OW11013   6.304   1.998   9.128  0.3272  0.2882  0.2773
 1726SOL    HW111014   6.314   1.936   9.055 -0.1852  0.4010  0.1055
 1726SOL    HW211015   6.250   1.951   9.191 -0.2399  0.6280  0.0545
 1727SOL     OW11016   8.576   9.821   3.297 -0.1707  0.0398 -0.0492
 1727SOL    HW111017   8.484   9.797   3.286 -0.3717  0.6332  0.2965
 1727SOL    HW211018   8.619   9.786   3.219 -0.5093 -1.1148  0.2634
 1728SOL     OW11019   6.785   8.222   3.225  0.5917 -0.4259  0.2129
 1728SOL    HW111020   6.825   8.308   3.215 -0.1786 -0.0362  0.4701
 1728SOL    HW211021   6.831   8.182   3.299  0.1216  0.2478  0.8773
 1729SOL     OW11022   9.725   8.326   0.874  0.2138  0.8148 -0.2869
 1729SOL    HW111023   9.739   8.337   0.968 -1.1260 -1.1100  0.1934
 1729SOL    HW211024   9.654   8.386   0.853 -2.2441 -1.5100  0.8335
 1730SOL     OW11025  10.288   8.731   8.672 -0.3648  0.7785 -0.1422
 1730SOL    HW111026  10.206   8.757   8.631 -0.0965  1.4256 -0.2908
 1730SOL    HW211027  10.326   8.668   8.611 -0.8121  0.3678 -0.0026
 1731SOL     OW11028   3.354   4.932   6.731 -1.3053 -0.4144  0.1133
 1731SOL    HW111029   3.330   4.903   6.819  1.8998  0.1951  1.3231
 1731SOL    HW211030   3.390   4.855   6.688 -2.3068 -0.5664 -0.4901
 1732SOL     OW11031   9.804   5.162   1.965 -0.1805  0.1022  0.0021
 1732SOL    HW111032   9.723   5.162   2.016  0.6165  1.0269  1.3599
 1732SOL    HW211033   9.840   5.250   1.979  0.2188  0.2962 -1.9790
 1733SOL     OW11034   3.850   5.871   2.562  0.0966  0.4437  0.2732
 1733SOL    HW111035   3.842   5.777   2.582  0.6999 -0.0968 -1.7295
 1733SOL    HW211036   3.935   5.896   2.596  0.0656  0.1809  0.5452
 1734SOL     OW11037   8.785   2.619  10.140 -0.7032 -0.1867 -0.4394
 1734SOL    HW111038   8.735   2.551  10.096 -1.4796  0.9350 -1.3704
 1734SOL    HW211039   8.775   2.696  10.084 -1.3889  1.1935  1.4588
 1735SOL     OW11040   4.095   4.962   6.661 -0.3652 -0.3968 -0.1091
 1735SOL    HW111041   4.036   4.893   6.629 -2.4484  0.3208  1.8688
 1735SOL    HW211042   4.098   5.025   6.589 -1.5071 -0.7757 -0.5244
 1736SOL     OW11043   1.416   1.324   2.360 -0.0297  0.2186 -0.1883
 1736SOL    HW111044   1.452   1.336   2.448 -0.8507 -1.0331  0.3415
 1736SOL    HW211045   1.404   1.413   2.327 -0.6047  0.7420  1.3448
 1737SOL     OW11046  10.287   7.700   0.855  0.2699  0.1713  0.1779
 1737SOL    HW111047  10.321   7.787   0.878 -0.3132  0.6515 -0.7300
 1737SOL    HW211048  10.242   7.713   0.772  0.1928 -1.0136  0.0198
 1738SOL     OW11049   7.672   4.928   4.802  0.0360 -0.1047 -0.3096
 1738SOL    HW111050   7.659   4.986   4.727 -0.1748  0.8384  0.4435
 1738SOL    HW211051   7.585   4.895   4.823  0.3557 -2.0241 -1.7466
 1739SOL     OW11052   5.574   0.822   9.624 -0.4950  0.7272 -0.1733
 1739SOL    HW111053   5.507   0.869   9.674 -1.3327 -1.0253  0.4459
 1739SOL    HW211054   5.545   0.731   9.625  0.4147  0.3573 -2.3723
 1740SOL     OW11055   2.108   7.854   8.874 -0.1197  0.0380 -0.2154
 1740SOL    HW111056   2.171   7.784   8.861 -0.6142 -0.1333 -2.0098
 1740SOL    HW211057   2.030   7.810   8.907 -0.5110 -0.3442 -1.5667
 1741SOL     OW11058   2.715   3.661   4.091 -0.6329 -0.3198  0.9406
 1741SOL    HW111059   2.744   3.575   4.061 -3.9196 -1.1671 -0.2098
 1741SOL    HW211060   2.646   3.643   4.156 -1.9494  1.3658  0.1174
 1742SOL     OW11061  10.190  10.324   4.933 -1.0200  0.5529 -0.4343
 1742SOL    HW111062  10.274  10.358   4.901 -2.2662  1.9965 -2.4659
 1742SOL    HW211063  10.189  10.233   4.904  0.2771  0.1861  0.5893
 1743SOL     OW11064   3.998   4.923   3.868 -0.5345 -0.4540 -0.1900
 1743SOL    HW111065   4.013   4.829   3.856 -0.4412 -0.4012 -0.5073
 1743SOL    HW211066   4.030   4.942   3.955  0.6768 -0.4595 -0.6224
 1744SOL     OW11067   4.475   7.257   0.259 -0.2022 -0.3818 -0.1074
 1744SOL    HW111068   4.461   7.163   0.256 -0.6173 -0.3596  0.7911
 1744SOL    HW211069   4.388   7.294   0.279  0.2385  0.0740  1.0418
 1745SOL     OW11070   8.628  10.573   8.504  0.3984 -0.6794  0.3349
 1745SOL    HW111071   8.625  10.607   8.593  2.3823 -0.5024  0.3727
 1745SOL    HW211072   8.593  10.643   8.450  1.5628  0.2265  0.7304
 1746SOL     OW11073   8.080   2.026   1.165  0.4182 -0.2378 -0.0827
 1746SOL    HW111074   8.060   2.073   1.246 -1.9903 -0.4015 -0.5133
 1746SOL    HW211075   8.057   2.088   1.095  0.1269 -0.9712 -0.6506
 1747SOL     OW11076  10.377   3.344   7.337  0.6843 -0.1445 -0.2219
 1747SOL    HW111077  10.347   3.341   7.246 -0.6580  0.3558  0.1832
 1747SOL    HW211078  10.338   3.267   7.377  1.4180 -0.4594 -0.0929
 1748SOL     OW11079   7.559   3.680   0.144  0.0962 -0.1276  0.5912
 1748SOL    HW111080   7.579   3.773   0.130  1.2804 -0.5331 -0.5781
 1748SOL    HW211081   7.465   3.673   0.126  0.2318  0.6370 -0.5406
 1749SOL     OW11082   0.719   9.142  10.117  0.0057  0.5426  0.3581
 1749SOL    HW111083   0.769   9.201  10.061 -0.6085  0.3946 -0.3640
 1749SOL    HW211084   0.648   9.197  10.151 -0.9179  0.0945 -0.7916
 1750SOL     OW11085   7.150   6.295   8.667  0.1602  0.3295 -0.1911
 1750SOL    HW111086   7.181   6.380   8.698  0.0227  0.7026 -1.0664
 1750SOL    HW211087   7.224   6.236   8.680  0.2426  0.5613  0.4575
 1751SOL     OW11088   0.237   0.497   7.805  1.0911  0.4025 -0.6057
 1751SOL    HW111089   0.298   0.439   7.850  3.3131  1.3260 -2.2090
 1751SOL    HW211090   0.263   0.492   7.713 -1.3912  0.7590 -1.4132
 1752SOL     OW11091   6.542   7.436   5.253 -0.2145 -0.5540 -0.5763
 1752SOL    HW111092   6.569   7.360   5.201  1.5990 -0.1684 -0.2727
 1752SOL    HW211093   6.618   7.454   5.309 -0.7502  1.2625 -0.3948
 1753SOL     OW11094   7.821  10.008  10.656  0.0251  0.4389  0.2627
 1753SOL    HW111095   7.752  10.026  10.592  0.9812  0.5786 -0.7538
 1753SOL    HW211096   7.841  10.093  10.695  0.3163  0.5733 -0.1717
 1754SOL     OW11097   1.586   1.862   4.752  0.4098 -0.2854 -0.4119
 1754SOL    HW111098   1.666   1.865   4.806  0.1535 -1.4803  0.0709
 1754SOL    HW211099   1.592   1.940   4.697  0.3947  1.3560  1.7534
 1755SOL     OW11100   7.505   8.920   7.016  0.1065 -0.8091  0.5781
 1755SOL    HW111101   7.492   8.872   6.934 -0.5078 -2.3594  1.5321
 1755SOL    HW211102   7.425   8.971   7.027  0.2693 -0.4513  0.1226
 1756SOL     OW11103   3.602  10.510   0.517 -0.3263 -0.9666  0.2889
 1756SOL    HW111104   3.602  10.599   0.554  0.8848 -1.1669  0.8419
 1756SOL    HW211105   3.512  10.496   0.488 -0.9121 -0.1537  1.6246
 1757SOL     OW11106  10.568  10.010   8.648  0.3148  0.2083 -0.5947
 1757SOL    HW111107  10.657  10.042   8.632 -0.0120  3.2978  2.4457
 1757SOL    HW211108  10.512  10.086   8.629 -1.0925  0.0055  2.1353
 1758SOL     OW11109   0.663   3.489   6.987  0.2677 -0.3285  0.3900
 1758SOL    HW111110   0.578   3.506   7.028 -0.0192  0.8544 -0.6370
 1758SOL    HW211111   0.710   3.436   7.051 -1.1657 -0.8368  1.0606
 1759SOL     OW11112   1.614   8.212   8.639  0.3224  0.2008 -0.3610
 1759SOL    HW111113   1.694   8.228   8.688  0.4560 -2.8540  0.6055
 1759SOL    HW211114   1.545   8.209   8.706  0.0540 -1.1865 -0.6791
 1760SOL     OW11115   0.376   1.061   5.011 -0.4119  0.5246  0.0037
 1760SOL    HW111116   0.363   0.967   4.997  0.9507  0.2430  0.5270
 1760SOL    HW211117   0.404   1.068   5.102  0.3038  1.3473 -0.2687
 1761SOL     OW11118   1.225   3.866   9.311  0.6328 -0.8851 -0.1264
 1761SOL    HW111119   1.220   3.944   9.255  0.7518 -2.0242 -1.7818
 1761SOL    HW211120   1.313   3.872   9.351  0.7665 -0.3535 -0.4858
 1762SOL     OW11121   5.501   1.277   5.013 -0.2720  0.4844 -0.0067
 1762SOL    HW111122   5.416   1.264   5.055  0.5962  0.0271  1.7264
 1762SOL    HW211123   5.481   1.284   4.920 -2.2667  1.0939  0.4115
 1763SOL     OW11124   6.655   9.437   1.142 -0.2314  0.1766  0.3798
 1763SOL    HW111125   6.672   9.450   1.235 -2.3665 -0.9336  0.9812
 1763SOL    HW211126   6.667   9.524   1.104  0.0810  0.7819  1.7767
 1764SOL     OW11127   1.231   1.691   4.110  0.4477 -0.1299 -0.0706
 1764SOL    HW111128   1.214   1.778   4.149 -0.6398  0.1678 -1.1374
 1764SOL    HW211129   1.243   1.634   4.186 -0.1077  0.7176  0.6947
 1765SOL     OW11130   4.861   3.903   8.808 -0.0657 -0.7214 -0.0296
 1765SOL    HW111131   4.843   3.810   8.798 -2.3024 -0.7500  2.8913
 1765SOL    HW211132   4.938   3.907   8.864 -0.5314 -0.8648  0.6335
 1766SOL     OW11133   4.258   2.955   8.965  0.4185 -0.4106  0.0298
 1766SOL    HW111134   4.336   2.940   8.912 -0.7622 -1.1610 -1.5805
 1766SOL    HW211135   4.185   2.925   8.910 -0.9473 -0.4786  1.7771
 1767SOL     OW11136  10.454   4.185   3.242 -0.1251 -0.5957  0.8108
 1767SOL    HW111137  10.399   4.115   3.277  2.7286 -3.3166  0.3576
 1767SOL    HW211138  10.427   4.193   3.151  1.4830 -3.5037 -0.0513
 1768SOL     OW11139   6.057   5.854   9.633 -0.3434 -0.3778  0.7705
 1768SOL    HW111140   5.999   5.839   9.558 -0.0240 -2.6377  0.9079
 1768SOL    HW211141   6.145   5.845   9.598  0.1066  3.3301  0.5053
 1769SOL     OW11142   6.161   5.862   1.697 -0.0574 -0.4288 -0.3063
 1769SOL    HW111143   6.185   5.905   1.779  2.1844  1.4126 -1.8080
 1769SOL    HW211144   6.192   5.772   1.707  0.3003 -0.1939  0.8179
 1770SOL     OW11145   7.764   7.304   5.784 -0.1513 -0.0527 -0.5974
 1770SOL    HW111146   7.726   7.240   5.724 -1.0566  0.6192 -0.7646
 1770SOL    HW211147   7.766   7.386   5.733  0.1997  0.2511 -0.1061
 1771SOL     OW11148   3.297   2.929   1.667  0.0699 -0.5436 -0.0067
 1771SOL    HW111149   3.219   2.948   1.615  0.2677 -2.1566 -0.9447
 1771SOL    HW211150   3.309   3.007   1.722 -1.6963  0.0745 -0.4473
 1772SOL     OW11151  10.498   5.533   4.190 -0.1542 -0.4906 -0.0334
 1772SOL    HW111152  10.489   5.611   4.136  0.0229 -0.8767 -0.6363
 1772SOL    HW211153  10.566   5.555   4.254  1.9124 -1.0527 -1.8999
 1773SOL     OW11154   7.179   7.924   0.278 -0.1294 -0.1856 -0.2376
 1773SOL    HW111155   7.145   7.836   0.263 -0.6176  0.0373 -0.4738
 1773SOL    HW211156   7.125   7.980   0.222 -0.8288  0.4453  1.0119
 1774SOL     OW11157   0.220   1.920   7.431 -0.4365  0.4414  0.2701
 1774SOL    HW111158   0.271   1.852   7.388 -1.1698 -0.6804  1.1271
 1774SOL    HW211159   0.281   1.993   7.441  1.6734 -1.4739  2.9616
 1775SOL     OW11160   4.519   6.485  10.182  0.2280 -0.2266  0.1985
 1775SOL    HW111161   4.601   6.466  10.226  0.4522  1.6123  0.6355
 1775SOL    HW211162   4.540   6.554  10.120 -0.4526 -1.5785 -1.6421
 1776SOL     OW11163   5.899   8.618   9.572  0.0133  0.4450 -0.6960
 1776SOL    HW111164   5.947   8.690   9.532  0.3308  0.2743 -0.6272
 1776SOL    HW211165   5.827   8.660   9.619  1.5648  0.9556  1.3830
 1777SOL     OW11166   4.304   3.911   4.548  0.5749  0.4994  0.1006
 1777SOL    HW111167   4.228   3.871   4.506  0.3775  0.5693  0.3881
 1777SOL    HW211168   4.323   3.854   4.622  0.2357  0.9824  0.5645
 1778SOL     OW11169   5.621   0.833   1.789 -0.2576  0.0860  0.2132
 1778SOL    HW111170   5.589   0.794   1.871  0.2474 -0.1366  0.3084
 1778SOL    HW211171   5.707   0.867   1.811  0.0106 -0.2498 -0.3011
 1779SOL     OW11172   6.106   9.292   8.097  0.0391 -0.2649 -0.0809
 1779SOL    HW111173   6.084   9.377   8.136  0.2123  0.2381 -1.0417
 1779SOL    HW211174   6.179   9.260   8.148  1.6705  1.3770 -1.2448
 1780SOL     OW11175   0.865   0.509   1.437  0.1611 -0.2953 -1.0771
 1780SOL    HW111176   0.908   0.588   1.470 -1.1554 -0.2280  0.6187
 1780SOL    HW211177   0.774   0.516   1.468 -0.2769 -1.9114 -1.8731
 1781SOL     OW11178   1.927   2.574   5.768 -0.1302 -0.2399  0.0602
 1781SOL    HW111179   1.835   2.566   5.794 -0.8317 -1.0572 -2.3719
 1781SOL    HW211180   1.946   2.492   5.722  2.2389 -0.6232  1.5306
 1782SOL     OW11181   4.122   1.781   1.223  0.3795  0.1259  0.1818
 1782SOL    HW111182   4.085   1.742   1.303  0.5446  1.5022  0.9557
 1782SOL    HW211183   4.141   1.706   1.167 -0.1217 -0.8512  1.2724
 1783SOL     OW11184   6.134   7.079   7.261  0.0708 -0.4184 -0.3048
 1783SOL    HW111185   6.219   7.062   7.301 -0.1794 -0.4785  0.2109
 1783SOL    HW211186   6.075   7.094   7.335 -0.5514 -1.2240 -0.6274
 1784SOL     OW11187   1.084   3.423   4.682 -0.6141 -0.1918 -0.3446
 1784SOL    HW111188   1.049   3.373   4.755  1.5459  0.0725  0.9643
 1784SOL    HW211189   1.037   3.390   4.605 -1.0825 -2.3654  0.8073
 1785SOL     OW11190   7.817   2.748   6.204 -0.5596  0.0265 -0.0010
 1785SOL    HW111191   7.739   2.698   6.227 -1.6148  0.6828 -1.9112
 1785SOL    HW211192   7.784   2.820   6.151  1.3306  0.5102 -0.5877
 1786SOL     OW11193   5.741  10.586   9.582 -0.2327 -0.9507  0.6710
 1786SOL    HW111194   5.818  10.571   9.528 -0.7373 -1.8669  0.1691
 1786SOL    HW211195   5.772  10.641   9.654  0.4972  0.1188 -0.4291
 1787SOL     OW11196   3.061   1.097   7.064 -0.5332  0.0604 -0.5007
 1787SOL    HW111197   3.121   1.027   7.091 -0.7390  0.4491  1.0543
 1787SOL    HW211198   3.100   1.133   6.985  0.8431 -0.2549  0.0101
 1788SOL     OW11199   4.312   5.475   8.556 -0.5230 -0.2929  0.0659
 1788SOL    HW111200   4.246   5.406   8.554  0.6018 -1.4852  1.7521
 1788SOL    HW211201   4.369   5.456   8.482 -0.3864 -1.0345  0.3502
 1789SOL     OW11202   6.953   2.746   4.823  0.0105  0.5107 -0.7586
 1789SOL    HW111203   7.023   2.806   4.849  0.3782 -1.1849  2.7647
 1789SOL    HW211204   6.997   2.681   4.768  1.2950 -0.4367  1.2728
 1790SOL     OW11205   2.236   7.835   3.607  0.2001 -0.1526 -0.3788
 1790SOL    HW111206   2.221   7.920   3.564  1.7770  0.3630  0.0386
 1790SOL    HW211207   2.182   7.774   3.556 -0.4681  0.9750 -1.0903
 1791SOL     OW11208   0.279   9.397   1.542  0.3575  0.0059  0.4717
 1791SOL    HW111209   0.248   9.316   1.581 -0.1638  0.4863  1.0863
 1791SOL    HW211210   0.339   9.434   1.607 -0.0242  0.4991  0.5520
 1792SOL     OW11211   5.868   7.220   1.715 -0.4284  0.1884 -0.1488
 1792SOL    HW111212   5.772   7.221   1.715 -0.5150  0.6903  2.6004
 1792SOL    HW211213   5.892   7.308   1.686 -0.9393  0.9521  1.5887
 1793SOL     OW11214  10.102  10.153   5.727  0.1099  0.3202  0.2046
 1793SOL    HW111215  10.018  10.189   5.754 -0.3212  0.1117 -0.8269
 1793SOL    HW211216  10.091  10.058   5.738  1.1573  0.3973  2.6830
 1794SOL     OW11217   3.276   6.500   2.492  0.2353  0.3848  0.3718
 1794SOL    HW111218   3.243   6.462   2.411 -1.0995 -1.2358  1.6151
 1794SOL    HW211219   3.237   6.588   2.495 -0.0934  0.2755 -0.4911
 1795SOL     OW11220   4.942   8.793   1.658  0.0369  0.0749 -0.1343
 1795SOL    HW111221   4.848   8.799   1.675  0.0692  2.0361 -0.3831
 1795SOL    HW211222   4.962   8.699   1.662 -1.9526 -0.3878 -0.2659
 1796SOL     OW11223   4.619   7.208   9.214 -0.1381 -0.2192  0.4290
 1796SOL    HW111224   4.646   7.116   9.225 -0.5419 -0.2618  1.1978
 1796SOL    HW211225   4.574   7.229   9.296  1.6973  1.3000  1.1137
 1797SOL     OW11226   8.148   7.883   5.244  0.5647 -0.0035  0.1863
 1797SOL    HW111227   8.231   7.893   5.197  0.5014 -0.1526  0.0410
 1797SOL    HW211228   8.142   7.961   5.299  0.7109  0.0993  0.0573
 1798SOL     OW11229   7.189   8.777   7.072  0.5705 -0.0882 -0.3625
 1798SOL    HW111230   7.116   8.816   7.121 -1.0199 -2.3061 -0.8465
 1798SOL    HW211231   7.251   8.750   7.140 -0.5402 -1.0294  0.3232
 1799SOL     OW11232   9.003   1.643   6.570  0.2508  0.3915  0.0216
 1799SOL    HW111233   8.976   1.644   6.661 -0.2384 -1.1576 -0.0783
 1799SOL    HW211234   8.928   1.678   6.522 -0.3675 -0.8760  0.0330
 1800SOL     OW11235   9.590   9.875   6.074 -0.3509 -0.0766  0.7057
 1800SOL    HW111236   9.549   9.860   5.989  0.8708 -1.5934  0.3363
 1800SOL    HW211237   9.622   9.965   6.070 -1.3249  0.2532  0.0227
 1801SOL     OW11238  10.074   2.947   6.824 -0.1516 -0.2456 -0.1460
 1801SOL    HW111239  10.081   2.857   6.857 -0.2234 -0.3528 -0.4252
 1801SOL    HW211240  10.162   2.983   6.835 -0.1718 -0.2838  0.1541
 1802SOL     OW11241   3.159   8.098   9.288  0.0803 -0.4809 -0.2095
 1802SOL    HW111242   3.132   8.166   9.350  0.3995 -0.3897 -0.1665
 1802SOL    HW211243   3.079   8.074   9.241  0.5049  2.6579 -2.9535
 1803SOL     OW11244   2.265   0.003   3.564  0.2877  0.2275  0.1440
 1803SOL    HW111245   2.289   0.069   3.498 -1.5956 -0.3055 -1.1546
 1803SOL    HW211246   2.215   0.052   3.629  0.3574  0.3843  0.0815
 1804SOL     OW11247   4.560   4.872   0.513  0.0006  0.6242 -0.1890
 1804SOL    HW111248   4.647   4.850   0.545 -0.2519  0.9929  0.7990
 1804SOL    HW211249   4.531   4.793   0.467  0.3486  0.0256  0.5924
 1805SOL     OW11250   7.943   8.548   2.807  0.5953  0.7240  0.1685
 1805SOL    HW111251   7.942   8.478   2.742 -1.7655 -0.1535  1.0320
 1805SOL    HW211252   7.912   8.506   2.887  0.2766  2.4962  1.0171
 1806SOL     OW11253   1.584   7.613   2.633 -0.1400  0.2848 -0.4380
 1806SOL    HW111254   1.591   7.527   2.675  2.2536 -0.2099 -1.6475
 1806SOL    HW211255   1.660   7.617   2.575 -0.0306  3.3312 -0.2476
 1807SOL     OW11256   6.624   7.641   1.481  0.2296 -0.1949 -0.7074
 1807SOL    HW111257   6.691   7.615   1.417  1.6937 -0.5341  0.8715
 1807SOL    HW211258   6.586   7.558   1.510  2.2792 -0.4433  1.5913
 1808SOL     OW11259   7.508   3.951   8.837  0.1943  0.2632  0.3566
 1808SOL    HW111260   7.601   3.950   8.859  0.3115  0.0072 -0.1378
 1808SOL    HW211261   7.480   3.859   8.845  0.1657  0.2163 -0.2429
 1809SOL     OW11262   8.103  10.183   8.618 -0.5276 -0.2031  0.0575
 1809SOL    HW111263   8.197  10.180   8.632 -0.6808 -2.8275  1.1639
 1809SOL    HW211264   8.083  10.101   8.573 -2.1884  0.6951 -0.9310
 1810SOL     OW11265   7.638   8.365   3.172  0.4211  0.0682 -0.0275
 1810SOL    HW111266   7.594   8.442   3.209 -0.0230  0.3527 -1.1125
 1810SOL    HW211267   7.577   8.293   3.187  0.1438  0.2242 -0.3740
 1811SOL     OW11268   7.739   3.974   5.856 -0.1231 -0.7177 -0.3893
 1811SOL    HW111269   7.681   3.914   5.903 -0.1497 -0.7073 -0.4085
 1811SOL    HW211270   7.806   3.999   5.919 -3.0142  3.4968  1.5179
 1812SOL     OW11271   9.300   8.075   6.515 -0.0541 -0.2317  0.7146
 1812SOL    HW111272   9.236   8.145   6.528 -0.2679 -0.0856 -0.9232
 1812SOL    HW211273   9.381   8.109   6.551 -0.6015  0.0841  1.6726
 1813SOL     OW11274   9.557   6.474   0.567  0.3755  0.7131 -0.5040
 1813SOL    HW111275   9.616   6.503   0.636  0.7346  0.2300 -0.6023
 1813SOL    HW211276   9.501   6.550   0.549 -0.1395  0.6460  0.7520
 1814SOL     OW11277   2.454   4.740   9.188 -0.1285 -0.2714  0.3112
 1814SOL    HW111278   2.493   4.667   9.140  1.7491 -0.5641  2.0954
 1814SOL    HW211279   2.391   4.699   9.247  1.6189 -0.6855  2.0084
 1815SOL     OW11280   0.262   8.963   0.199 -0.4025 -0.3314 -0.8524
 1815SOL    HW111281   0.220   9.048   0.190  1.7267  0.8079 -0.7439
 1815SOL    HW211282   0.282   8.936   0.109  0.3519  0.0612 -0.8067
 1816SOL     OW11283   4.413   9.864   0.261  0.4606  0.6609  0.0167
 1816SOL    HW111284   4.421   9.771   0.242 -2.8637 -0.1170  1.7920
 1816SOL    HW211285   4.405   9.869   0.356  2.0917  2.9711  0.1248
 1817SOL     OW11286   0.890   4.013   0.894  0.0185  0.2223  0.2949
 1817SOL    HW111287   0.928   4.012   0.806  2.8098 -0.0957  1.4081
 1817SOL    HW211288   0.799   3.985   0.881  0.8021 -1.5247 -2.2963
 1818SOL     OW11289   8.505   5.081   9.753  0.4380 -0.9523  0.5168
 1818SOL    HW111290   8.564   5.061   9.826  0.5403  0.2552  0.7938
 1818SOL    HW211291   8.474   4.996   9.723 -0.1141 -1.4663  2.3956
 1819SOL     OW11292   4.613   2.613   8.481 -0.4908  0.3404  0.7018
 1819SOL    HW111293   4.708   2.603   8.475 -0.5175  0.3868  0.2284
 1819SOL    HW211294   4.591   2.678   8.415 -0.8262  0.5091  0.9752
 1820SOL     OW11295   7.205   3.206   0.429 -0.2787 -0.2321 -0.7729
 1820SOL    HW111296   7.293   3.220   0.392  0.3281  1.0958  1.0213
 1820SOL    HW211297   7.219   3.209   0.524 -2.3023  0.0935 -0.4601
 1821SOL     OW11298   2.611   8.771   7.016 -0.0848 -0.2288 -0.1080
 1821SOL    HW111299   2.600   8.677   7.004  0.9378 -0.1672 -1.8368
 1821SOL    HW211300   2.540   8.811   6.965  0.7144 -0.0505 -1.1092
 1822SOL     OW11301   2.308   5.927   8.028  0.3451 -0.3820  0.5637
 1822SOL    HW111302   2.263   5.842   8.029  1.0025 -0.7650 -0.8509
 1822SOL    HW211303   2.259   5.979   7.965  1.7002 -0.7428 -0.8584
 1823SOL     OW11304   3.145   4.513   9.815 -0.3427  0.1391 -0.1463
 1823SOL    HW111305   3.195   4.455   9.758 -0.1832 -0.1709  0.3077
 1823SOL    HW211306   3.189   4.598   9.807 -0.6621  0.2438 -0.9183
 1824SOL     OW11307   8.975   9.689   5.402 -0.0278 -0.2186  0.1076
 1824SOL    HW111308   8.932   9.772   5.382  0.6070  0.1318  0.1488
 1824SOL    HW211309   8.923   9.623   5.358 -1.4927  0.0224  1.4030
 1825SOL     OW11310   8.066   4.771   7.370  0.1493  0.1975  0.1697
 1825SOL    HW111311   7.998   4.771   7.437 -0.5083  1.0300 -0.4734
 1825SOL    HW211312   8.148   4.759   7.419 -0.3342  0.5377  1.0985
 1826SOL     OW11313   7.019   6.813  10.319 -0.2291  0.2474 -1.0226
 1826SOL    HW111314   7.058   6.725  10.321 -0.3099  0.1155 -2.9595
 1826SOL    HW211315   7.091   6.872  10.338  0.2994 -0.1479 -1.7569
 1827SOL     OW11316   7.196   2.041   3.335  0.0274 -0.4175  0.0040
 1827SOL    HW111317   7.284   2.077   3.339 -0.2216  0.2579 -0.3355
 1827SOL    HW211318   7.199   1.977   3.263  0.5238 -1.2488  0.7412
 1828SOL     OW11319   1.359   1.861   4.906  0.1584  0.4826  0.5714
 1828SOL    HW111320   1.430   1.884   4.846 -0.0036  1.7748  0.8472
 1828SOL    HW211321   1.346   1.940   4.959 -1.9781  0.5423  0.0301
 1829SOL     OW11322   3.261  10.672   4.087 -0.4512  0.6883  0.0491
 1829SOL    HW111323   3.283  10.765   4.095  0.4802  0.6138 -1.3660
 1829SOL    HW211324   3.275  10.637   4.175  1.3078  1.4649  0.1229
 1830SOL     OW11325   0.217  10.031   9.401  0.1165  0.6119  0.4591
 1830SOL    HW111326   0.249  10.052   9.313  1.2753  0.3599  0.8131
 1830SOL    HW211327   0.167   9.949   9.389 -1.5994  1.7058 -0.3248
 1831SOL     OW11328   7.385   7.939   5.576  0.0440  0.0132 -0.4624
 1831SOL    HW111329   7.388   7.844   5.568 -3.2789 -0.5337  2.4120
 1831SOL    HW211330   7.477   7.966   5.586  0.9482 -3.2678  1.4917
 1832SOL     OW11331   4.216   7.407   8.521 -0.5252 -0.3847 -0.3809
 1832SOL    HW111332   4.156   7.458   8.468 -1.8536 -0.6646  0.8018
 1832SOL    HW211333   4.274   7.472   8.561 -0.0991 -0.1058 -1.4269
 1833SOL     OW11334   0.177   2.203   6.079  0.1461  0.1833  0.0425
 1833SOL    HW111335   0.180   2.224   6.172 -0.5235  0.5361 -0.0124
 1833SOL    HW211336   0.095   2.155   6.067 -0.0998  0.7286 -0.4857
 1834SOL     OW11337   2.469   1.663   1.979  0.1296  0.5827  0.2835
 1834SOL    HW111338   2.377   1.680   2.002  0.3033  0.3843  1.1582
 1834SOL    HW211339   2.467   1.643   1.886 -0.8258 -0.1705  0.4491
 1835SOL     OW11340   3.256   9.136   4.363  0.2691 -0.1601  0.0591
 1835SOL    HW111341   3.188   9.108   4.424  0.4313 -1.4561 -0.3268
 1835SOL    HW211342   3.337   9.135   4.415  0.3200 -0.7083 -0.0302
 1836SOL     OW11343   2.282   7.896   9.743 -0.2400 -0.1259  0.4316
 1836SOL    HW111344   2.353   7.946   9.783 -0.9940  1.3987 -0.0702
 1836SOL    HW211345   2.327   7.831   9.688  0.7687  0.5852  0.3938
 1837SOL     OW11346   2.215   2.290   4.649  0.3007 -0.4366  0.2724
 1837SOL    HW111347   2.279   2.320   4.584  0.7797 -0.7778  0.5754
 1837SOL    HW211348   2.141   2.258   4.597  0.0827  0.5835 -0.0638
 1838SOL     OW11349   5.434   5.465   6.602 -0.3120  0.6772  0.5577
 1838SOL    HW111350   5.407   5.495   6.516  0.5008 -0.7946 -0.2472
 1838SOL    HW211351   5.529   5.454   6.595 -0.2663  0.3058  1.5647
 1839SOL     OW11352   5.116  10.291   5.796 -0.1947 -0.1096 -0.2193
 1839SOL    HW111353   5.117  10.381   5.764  0.3080 -0.0552 -0.0653
 1839SOL    HW211354   5.023  10.272   5.813 -0.3371  0.2608 -0.5736
 1840SOL     OW11355   9.749   5.264   3.886 -0.1752  0.1810 -0.7080
 1840SOL    HW111356   9.676   5.232   3.833 -1.5237  3.6444 -1.1802
 1840SOL    HW211357   9.802   5.186   3.903 -2.7168 -2.0709 -2.3113
 1841SOL     OW11358   1.207   7.235  10.280 -0.5953 -0.8234 -0.1298
 1841SOL    HW111359   1.295   7.213  10.251 -1.0211 -1.6519 -0.8127
 1841SOL    HW211360   1.200   7.197  10.367 -0.2882 -0.7667 -0.0802
 1842SOL     OW11361   2.649   1.012  10.253  0.6748 -0.0376  0.0932
 1842SOL    HW111362   2.703   0.992  10.177 -1.2217  1.0433 -1.6382
 1842SOL    HW211363   2.712   1.037  10.321  2.5083 -2.3819 -0.6156
 1843SOL     OW11364   0.618   5.883  10.121 -0.1808  0.3939  0.2108
 1843SOL    HW111365   0.681   5.813  10.138 -0.0502  0.4496 -0.0360
 1843SOL    HW211366   0.644   5.918  10.036 -1.2675 -0.3485 -0.4297
 1844SOL     OW11367   8.729   8.682   3.069 -0.2631  0.6281  0.4710
 1844SOL    HW111368   8.734   8.691   2.974 -2.8238 -1.1885  0.0717
 1844SOL    HW211369   8.802   8.623   3.091 -0.6110 -0.2149 -0.5919
 1845SOL     OW11370   9.178   7.580   2.718 -0.1552  0.2109  0.3045
 1845SOL    HW111371   9.256   7.625   2.685  0.7152  0.1213  2.1020
 1845SOL    HW211372   9.198   7.487   2.708 -1.0295  0.1588 -1.3425
 1846SOL     OW11373   7.063   6.483   4.920 -0.2095 -0.1977  0.7817
 1846SOL    HW111374   7.148   6.469   4.877 -0.7186 -1.2231  0.0602
 1846SOL    HW211375   7.021   6.397   4.918 -1.5354  0.4295  0.5160
 1847SOL     OW11376   1.716   0.887   3.911 -0.0049  0.4238 -0.0680
 1847SOL    HW111377   1.808   0.905   3.934  0.0316 -3.4802  4.5233
 1847SOL    HW211378   1.669   0.966   3.938  1.6762  1.1656  0.8746
 1848SOL     OW11379   8.036   3.825   7.567 -0.4756 -0.1065 -0.3793
 1848SOL    HW111380   8.043   3.914   7.600  0.0812 -0.1414 -0.3995
 1848SOL    HW211381   8.075   3.770   7.635  0.7876 -0.1665 -1.1219
 1849SOL     OW11382   6.642   0.239   2.407  0.7335  0.5681  0.1558
 1849SOL    HW111383   6.640   0.311   2.343  1.3359  0.4349 -0.0223
 1849SOL    HW211384   6.730   0.244   2.446  1.0629 -0.5285 -0.4020
 1850SOL     OW11385  10.717   6.393   0.647 -0.2025  0.3777 -1.2084
 1850SOL    HW111386  10.650   6.458   0.668 -0.4258 -0.2667  0.2561
 1850SOL    HW211387  10.785   6.441   0.600 -0.7213  1.4963 -0.8434
 1851SOL     OW11388   5.115   9.585   2.542 -0.0302 -0.3560  1.0704
 1851SOL    HW111389   5.176   9.523   2.502 -0.8425 -0.0342 -0.8138
 1851SOL    HW211390   5.150   9.671   2.520 -0.4678 -0.1648  1.1100
 1852SOL     OW11391   7.528   8.931   4.273  0.1264 -0.0581 -1.1750
 1852SOL    HW111392   7.437   8.917   4.299  0.0531 -1.6225 -2.1427
 1852SOL    HW211393   7.576   8.936   4.356 -0.7744  0.3639 -0.6673
 1853SOL     OW11394   2.529   1.550   7.175  0.0906  0.5498  0.9191
 1853SOL    HW111395   2.513   1.528   7.267 -0.5317  0.0030  0.6950
 1853SOL    HW211396   2.467   1.621   7.157 -2.3266 -1.6108  0.0333
 1854SOL     OW11397   0.507   3.410   6.588  0.0379  0.2139  0.0955
 1854SOL    HW111398   0.506   3.467   6.511 -0.1771  1.1392  0.7625
 1854SOL    HW211399   0.500   3.321   6.553  0.4400  0.5914 -0.9714
 1855SOL     OW11400   1.463   8.267   1.519 -0.3217 -0.0561  0.0489
 1855SOL    HW111401   1.440   8.283   1.427 -0.2456 -0.6305 -0.0747
 1855SOL    HW211402   1.380   8.276   1.566 -0.3325  0.3906 -0.0542
 1856SOL     OW11403   0.160   2.862   4.556 -0.1306  0.4941 -0.1826
 1856SOL    HW111404   0.223   2.795   4.583 -1.7120 -0.9279  0.2097
 1856SOL    HW211405   0.205   2.945   4.571  2.4333 -0.4352 -1.9877
 1857SOL     OW11406   8.983   8.925   5.074 -0.1783 -0.0358  0.4891
 1857SOL    HW111407   8.911   8.869   5.101  0.1851 -1.0248 -0.5254
 1857SOL    HW211408   8.964   8.947   4.983  0.0413  0.9359  0.6648
 1858SOL     OW11409   3.570   2.274   1.218 -0.1396 -0.1188  0.6004
 1858SOL    HW111410   3.637   2.232   1.163  0.2792  1.3330 -0.0605
 1858SOL    HW211411   3.605   2.362   1.234 -0.8296 -0.1157  2.2022
 1859SOL     OW11412   2.925   8.871   0.783 -0.5344  0.0582  0.1621
 1859SOL    HW111413   2.986   8.837   0.848 -0.9057 -1.0885 -0.0536
 1859SOL    HW211414   2.949   8.825   0.702 -0.2823  1.2297 -0.4413
 1860SOL     OW11415   9.616   1.603   4.171  0.2594 -0.0740  0.3334
 1860SOL    HW111416   9.596   1.519   4.214 -0.3606 -0.6707 -1.0688
 1860SOL    HW211417   9.670   1.580   4.096 -1.4605  0.5285 -1.1615
 1861SOL     OW11418   3.480   9.129   0.001  0.0558 -0.4543  0.4136
 1861SOL    HW111419   3.484   9.224  -0.004 -0.8764 -0.4371 -0.1542
 1861SOL    HW211420   3.568   9.103   0.029  1.6140  0.3243 -3.2869
 1862SOL     OW11421   7.849   7.366   4.244 -0.0142 -0.7537  0.3340
 1862SOL    HW111422   7.887   7.428   4.306 -0.2517 -0.5890  0.3170
 1862SOL    HW211423   7.896   7.284   4.259  0.3176 -0.5627  0.3418
 1863SOL     OW11424   5.893   6.995   8.429 -0.1627  0.2424 -0.3947
 1863SOL    HW111425   5.913   7.067   8.489  0.7753  1.7450 -2.3834
 1863SOL    HW211426   5.977   6.954   8.410 -0.1937  0.7352 -1.7565
 1864SOL     OW11427   4.766   8.118   8.628  0.1928  0.0501 -0.4754
 1864SOL    HW111428   4.761   8.157   8.715  1.5907 -0.2999 -0.2052
 1864SOL    HW211429   4.845   8.063   8.631 -0.3350 -0.8263 -1.6207
 1865SOL     OW11430   0.789  10.479   5.322 -0.6715 -0.0480 -0.1743
 1865SOL    HW111431   0.768  10.511   5.409 -1.0710 -1.2815  0.2160
 1865SOL    HW211432   0.806  10.557   5.270 -0.6307  0.7092  0.9574
 1866SOL     OW11433   6.865   9.256  10.441  1.0672  0.0781  0.0748
 1866SOL    HW111434   6.935   9.298  10.392  1.4997 -0.3527  0.3203
 1866SOL    HW211435   6.819   9.328  10.485  1.3242  0.3629 -0.1232
 1867SOL     OW11436   6.519   4.930   0.334 -0.1196 -0.7952  0.6687
 1867SOL    HW111437   6.611   4.925   0.310 -0.3153 -1.0820 -0.0512
 1867SOL    HW211438   6.498   5.024   0.332  0.1935 -0.7196  0.9861
 1868SOL     OW11439   7.488   7.022   3.385 -0.0446 -0.1816  0.0248
 1868SOL    HW111440   7.541   7.069   3.450 -1.0587 -0.2133  0.9031
 1868SOL    HW211441   7.494   6.930   3.410 -1.5944 -0.0592  0.9895
 1869SOL     OW11442   4.647   8.738  10.591 -0.1644 -0.3087  0.4489
 1869SOL    HW111443   4.602   8.712  10.511  2.0255 -0.4532 -0.8391
 1869SOL    HW211444   4.649   8.660  10.645  1.2295 -1.2411 -0.8552
 1870SOL     OW11445   5.086   9.664   6.866 -0.1982 -0.0370 -0.0960
 1870SOL    HW111446   5.094   9.687   6.959 -1.8056  0.2816 -0.0106
 1870SOL    HW211447   5.039   9.581   6.865  1.5037 -1.0419 -0.5880
 1871SOL     OW11448   0.984   8.808   6.058 -0.0161 -0.5742  0.5610
 1871SOL    HW111449   1.052   8.859   6.104  0.9624  0.4345 -1.8573
 1871SOL    HW211450   0.905   8.862   6.067  0.0985 -0.4962  1.2027
 1872SOL     OW11451   4.071   9.030   3.976  0.5471  0.0198  0.1718
 1872SOL    HW111452   4.086   8.941   3.942 -0.2885  0.4083 -1.2926
 1872SOL    HW211453   4.100   9.087   3.905 -0.3783  0.8980  0.4852
 1873SOL     OW11454   9.356   1.727   1.965  0.3220 -0.3958  0.1621
 1873SOL    HW111455   9.360   1.811   1.919 -0.0411 -0.7717 -0.5691
 1873SOL    HW211456   9.395   1.745   2.051  0.8234  0.3619 -0.2154
 1874SOL     OW11457   0.526  10.035   3.549  0.0283  0.0685  0.0067
 1874SOL    HW111458   0.573  10.117   3.538  0.0861  0.1648  0.8523
 1874SOL    HW211459   0.435  10.057   3.531  0.2769 -0.1232 -1.6649
 1875SOL     OW11460   6.976   7.719   9.306 -0.3845  0.4010  0.4772
 1875SOL    HW111461   6.945   7.694   9.219 -1.5120  0.8805  0.7304
 1875SOL    HW211462   7.048   7.658   9.324 -1.0821 -0.6612 -0.1914
 1876SOL     OW11463   4.539   8.572   7.022 -0.3394 -0.0251 -0.5305
 1876SOL    HW111464   4.467   8.630   7.045  0.1259  1.0163 -1.5933
 1876SOL    HW211465   4.554   8.520   7.101 -1.5013  0.5161  0.0745
 1877SOL     OW11466   8.650   9.290   5.206 -0.2169  0.0025  0.1984
 1877SOL    HW111467   8.633   9.199   5.227 -2.0779 -0.1013 -1.4043
 1877SOL    HW211468   8.745   9.296   5.196  0.2428 -1.0357  3.1390
 1878SOL     OW11469   6.534   8.076   5.074  0.5074  0.5591 -0.1658
 1878SOL    HW111470   6.465   8.131   5.037 -2.5460 -2.1986  1.0230
 1878SOL    HW211471   6.610   8.134   5.079 -1.4189  3.5706 -2.2756
 1879SOL     OW11472   4.311   9.438   7.903 -0.6242 -0.0426 -0.4765
 1879SOL    HW111473   4.292   9.410   7.992 -1.6168  1.0282 -0.3165
 1879SOL    HW211474   4.227   9.434   7.858 -0.1481 -0.5010 -1.3470
 1880SOL     OW11475   7.932   7.719   6.628  0.1383  0.0394 -0.3433
 1880SOL    HW111476   7.862   7.655   6.616 -0.2508  0.6252 -1.3033
 1880SOL    HW211477   7.977   7.690   6.708 -1.0569 -0.4650  0.1746
 1881SOL     OW11478   1.231   6.556   9.388  0.1721 -0.2872  0.5858
 1881SOL    HW111479   1.188   6.626   9.338 -0.5129 -1.2020 -0.1517
 1881SOL    HW211480   1.309   6.534   9.336 -0.6323 -1.3589 -0.2388
 1882SOL     OW11481   8.532   5.543  10.550  0.6961  0.3965 -0.6752
 1882SOL    HW111482   8.600   5.506  10.495  1.0390 -0.0969  0.0665
 1882SOL    HW211483   8.485   5.467  10.585 -1.3721  0.7301 -2.5345
 1883SOL     OW11484   6.600   1.553   8.502  0.0404 -0.5484 -0.3714
 1883SOL    HW111485   6.506   1.558   8.491  0.0179 -0.8029 -0.3085
 1883SOL    HW211486   6.628   1.643   8.520 -0.2476 -0.5447  0.0665
 1884SOL     OW11487   9.926   5.212   4.608 -0.6344 -0.1409 -0.5572
 1884SOL    HW111488   9.840   5.174   4.625 -0.2737 -0.8348 -0.2682
 1884SOL    HW211489   9.988   5.142   4.625  0.1671  1.0052  1.6792
 1885SOL     OW11490   0.413   2.306   6.785  0.7768  0.3173  0.9870
 1885SOL    HW111491   0.420   2.245   6.859  0.2164  0.4269  1.1383
 1885SOL    HW211492   0.438   2.254   6.709 -0.1385 -0.2488  1.0539
 1886SOL     OW11493   8.256   1.182   2.890  0.2912 -0.0244 -0.2136
 1886SOL    HW111494   8.304   1.261   2.864 -0.2818  1.0008  1.6509
 1886SOL    HW211495   8.165   1.202   2.871  0.1373 -0.2246  0.3106
 1887SOL     OW11496   3.416   8.849   9.076 -0.0206 -0.2366 -0.2241
 1887SOL    HW111497   3.424   8.911   9.149  0.9951  1.3729 -1.6143
 1887SOL    HW211498   3.502   8.850   9.033 -1.4410  1.5651 -3.4266
 1888SOL     OW11499   2.228   5.647   7.529  0.4704  0.5037 -0.2845
 1888SOL    HW111500   2.169   5.654   7.453  0.1528  0.5174 -0.0379
 1888SOL    HW211501   2.310   5.614   7.492  0.7441  1.7509 -0.8465
 1889SOL     OW11502   0.486   3.009   6.221 -0.2085 -0.1703  0.0521
 1889SOL    HW111503   0.535   2.981   6.143 -0.2550  0.8206 -0.3441
 1889SOL    HW211504   0.478   2.929   6.274  1.6246 -0.4143  0.0295
 1890SOL     OW11505   6.528   0.608   8.191 -0.3896  0.8840  0.3826
 1890SOL    HW111506   6.619   0.636   8.177 -0.5985  0.5914 -1.9796
 1890SOL    HW211507   6.479   0.690   8.201  0.0079  1.0782  0.7681
 1891SOL     OW11508   5.691   6.803   2.069  0.0285 -0.1732  0.5371
 1891SOL    HW111509   5.666   6.817   1.977 -2.1477 -2.7886  0.6103
 1891SOL    HW211510   5.778   6.763   2.064  0.3074  0.4983 -0.3150
 1892SOL     OW11511   0.592   1.359   6.969 -0.0222 -0.3040  0.2852
 1892SOL    HW111512   0.647   1.427   6.930  0.6992 -1.2782 -0.4359
 1892SOL    HW211513   0.642   1.327   7.043  0.1998 -0.8886 -0.1105
 1893SOL     OW11514   0.673   6.564   0.325  0.0055 -0.2808 -0.1227
 1893SOL    HW111515   0.662   6.600   0.237 -0.6252 -1.0037 -0.3503
 1893SOL    HW211516   0.734   6.491   0.313 -0.8968 -1.0432 -0.1494
 1894SOL     OW11517   6.299   2.783   6.760  0.2627 -0.0601 -0.0730
 1894SOL    HW111518   6.217   2.809   6.801  0.3078 -0.2902  0.1686
 1894SOL    HW211519   6.276   2.767   6.668  0.3540  1.3913 -0.3645
 1895SOL     OW11520  10.032   9.072   7.037 -0.5093  0.4561 -0.3866
 1895SOL    HW111521  10.057   9.086   6.945  0.2273 -1.2639 -0.4779
 1895SOL    HW211522   9.958   9.012   7.033  0.5138 -0.8829  0.1705
 1896SOL     OW11523   1.073   0.490   1.828 -0.4571  0.3210 -0.3983
 1896SOL    HW111524   1.011   0.484   1.900  1.2030 -2.5322  0.9973
 1896SOL    HW211525   1.032   0.440   1.757 -0.1074 -1.0265  0.3079
 1897SOL     OW11526   3.277   7.348   2.414 -0.3591  0.4308 -0.0204
 1897SOL    HW111527   3.338   7.275   2.416 -1.9921 -0.9784  0.8045
 1897SOL    HW211528   3.242   7.347   2.325  1.9686  2.3589 -1.0967
 1898SOL     OW11529   3.175   2.700  10.093 -0.1409 -0.4007  0.5337
 1898SOL    HW111530   3.223   2.623  10.064 -0.0661 -0.5703  1.0873
 1898SOL    HW211531   3.083   2.679  10.079 -0.1140 -0.5489  0.5837
 1899SOL     OW11532   8.527   3.754  10.230 -0.9003 -0.8788  0.1401
 1899SOL    HW111533   8.489   3.830  10.187 -1.6954 -1.0825  0.4663
 1899SOL    HW211534   8.582   3.714  10.163 -0.3536  0.0537  0.0118
 1900SOL     OW11535   5.705   9.525   6.589 -0.0060 -0.2743  0.1797
 1900SOL    HW111536   5.651   9.554   6.515 -1.7096 -0.7172  1.2015
 1900SOL    HW211537   5.651   9.461   6.634  0.9623  0.0548  1.8845
 1901SOL     OW11538   6.889   9.445   7.334 -0.3623  0.2048 -0.1206
 1901SOL    HW111539   6.867   9.382   7.265  0.2973  0.2513 -0.3819
 1901SOL    HW211540   6.831   9.519   7.318 -0.4133  0.0959 -0.4529
 1902SOL     OW11541   8.779   3.070   7.974  0.5027  0.2527 -0.2261
 1902SOL    HW111542   8.786   3.163   7.953  0.8197  0.6812  1.6026
 1902SOL    HW211543   8.778   3.066   8.070 -1.8039 -1.4659 -0.2070
 1903SOL     OW11544   4.559   0.912  10.607  0.1200 -0.0160 -0.0725
 1903SOL    HW111545   4.540   1.004  10.626  0.7696 -0.1100  1.1505
 1903SOL    HW211546   4.655   0.906  10.612  0.2854 -0.2948 -2.4747
 1904SOL     OW11547   7.046   7.821   1.555  0.2137  0.0330  0.3196
 1904SOL    HW111548   6.974   7.788   1.609  0.7155  1.6441  2.0940
 1904SOL    HW211549   7.027   7.788   1.467 -1.1354 -1.9466  1.2699
 1905SOL     OW11550   7.573   7.388   9.515  0.5320  0.6076  0.7747
 1905SOL    HW111551   7.531   7.429   9.590  1.3744  0.4808  1.3306
 1905SOL    HW211552   7.614   7.461   9.467 -0.8274  0.8151 -0.1275
 1906SOL     OW11553   7.992   5.765   8.203  0.6180  0.4498  0.0283
 1906SOL    HW111554   7.947   5.684   8.226  0.8406  0.0291 -0.9760
 1906SOL    HW211555   7.944   5.797   8.126  0.2247  1.5332  0.6978
 1907SOL     OW11556   5.328   5.635   3.658 -0.3325 -0.5162 -0.1304
 1907SOL    HW111557   5.238   5.607   3.673  0.0830 -2.1500 -0.3904
 1907SOL    HW211558   5.377   5.602   3.733 -0.0258  0.8246  0.2759
 1908SOL     OW11559   9.821   4.988   1.046 -0.6749  0.1215  0.0327
 1908SOL    HW111560   9.859   4.902   1.027 -0.1432  0.4845 -0.5225
 1908SOL    HW211561   9.827   5.036   0.964  1.1397  1.4993  0.9241
 1909SOL     OW11562   0.661   8.242   4.595  0.2792 -0.1443 -0.2106
 1909SOL    HW111563   0.701   8.185   4.530 -0.5216 -0.9660  0.0012
 1909SOL    HW211564   0.696   8.329   4.575  0.4596 -0.4732 -1.3911
 1910SOL     OW11565   5.247   8.802   9.332 -0.1397  0.3928  0.2873
 1910SOL    HW111566   5.267   8.712   9.307 -0.6862  0.3530 -0.0033
 1910SOL    HW211567   5.284   8.855   9.260  2.2632  0.5786  1.5477
 1911SOL     OW11568   0.762   2.767   4.241  0.2691 -0.6808 -0.6960
 1911SOL    HW111569   0.838   2.730   4.194  0.4541 -0.6053 -0.4583
 1911SOL    HW211570   0.760   2.720   4.324  1.8077  1.2674  0.5433
 1912SOL     OW11571   8.790   7.490   7.137  0.3395 -0.5812  0.3443
 1912SOL    HW111572   8.722   7.517   7.076  0.0361  0.9395  1.3176
 1912SOL    HW211573   8.752   7.415   7.182 -0.2047 -0.5042  0.0326
 1913SOL     OW11574   9.630   7.752   9.135 -0.6701  0.5789  0.4634
 1913SOL    HW111575   9.618   7.720   9.224 -0.4996  2.8681  1.3607
 1913SOL    HW211576   9.595   7.682   9.079 -2.2987 -0.2049  2.3633
 1914SOL     OW11577   1.769   2.361   5.546  0.2442  0.4306  0.3907
 1914SOL    HW111578   1.750   2.342   5.454 -0.5988  0.8229  0.4742
 1914SOL    HW211579   1.835   2.296   5.570  0.2823  0.1530 -0.4188
 1915SOL     OW11580   1.895   6.162  10.721 -0.1471 -0.3710  0.0394
 1915SOL    HW111581   1.816   6.110  10.734  0.6165 -2.0114 -1.4816
 1915SOL    HW211582   1.967   6.099  10.724  1.0633  0.9645  0.6164
 1916SOL     OW11583   6.018   4.536   0.622  0.0229  0.7436 -0.4537
 1916SOL    HW111584   5.958   4.517   0.550 -0.6559  2.7028 -0.4615
 1916SOL    HW211585   5.962   4.571   0.691  0.7968 -0.1770  0.6855
 1917SOL     OW11586   0.197   8.644   7.572 -0.1060  0.2511 -0.3791
 1917SOL    HW111587   0.157   8.568   7.614 -0.7059  0.5738 -0.3569
 1917SOL    HW211588   0.130   8.676   7.511 -0.3795  1.5330  0.5390
 1918SOL     OW11589   3.958   3.165   0.263 -0.5152  0.6390 -0.4382
 1918SOL    HW111590   3.996   3.218   0.193 -1.3512  1.1437 -0.5204
 1918SOL    HW211591   3.941   3.080   0.222 -0.1908  0.6513 -0.6041
 1919SOL     OW11592   6.966   4.497   8.884  0.2588  0.1053  0.5084
 1919SOL    HW111593   6.997   4.524   8.971  0.2329 -0.5706  0.7364
 1919SOL    HW211594   7.044   4.463   8.840  0.4608  1.3049 -0.0859
 1920SOL     OW11595   4.583   3.550   0.673  0.4382  0.0777 -0.1316
 1920SOL    HW111596   4.662   3.598   0.695 -0.1353  0.9878 -0.0182
 1920SOL    HW211597   4.515   3.617   0.667 -0.6712 -0.8297  1.4194
 1921SOL     OW11598   5.300   7.861   9.643  0.6087  0.0643 -0.0899
 1921SOL    HW111599   5.281   7.859   9.549  0.2677  0.6480 -0.0405
 1921SOL    HW211600   5.316   7.770   9.667  2.4275  0.0857 -1.0586
 1922SOL     OW11601   8.277   9.360   1.180 -0.0323 -0.1307  0.5980
 1922SOL    HW111602   8.209   9.418   1.146  0.9911  1.2188  0.7681
 1922SOL    HW211603   8.312   9.317   1.102 -0.4457 -0.1377  0.4121
 1923SOL     OW11604  10.602   2.201   4.747 -0.1839 -0.2551  0.0935
 1923SOL    HW111605  10.579   2.130   4.688 -0.4986  0.4583 -0.6573
 1923SOL    HW211606  10.520   2.249   4.761 -0.2015 -0.6313  1.4255
 1924SOL     OW11607   9.072   2.206   1.101 -0.0670 -1.2270  0.0571
 1924SOL    HW111608   9.091   2.140   1.034  1.5510  0.0036 -0.7775
 1924SOL    HW211609   8.991   2.247   1.072  0.6398 -0.6647 -1.2624
 1925SOL     OW11610   4.935   4.009   1.528 -0.7897 -0.4838  0.2139
 1925SOL    HW111611   4.888   3.928   1.514 -1.6288 -0.1075  0.7612
 1925SOL    HW211612   4.869   4.078   1.519 -0.0419  0.1607 -0.5139
 1926SOL     OW11613   5.411  10.624   5.960 -0.4496 -0.2035 -0.1776
 1926SOL    HW111614   5.413  10.714   5.927  1.6509 -1.0792 -2.7709
 1926SOL    HW211615   5.479  10.622   6.027  0.8675 -0.2566 -1.4694
 1927SOL     OW11616   3.544   0.258   0.079 -0.0903  0.0184 -0.1125
 1927SOL    HW111617   3.565   0.210  -0.001 -1.2355  0.2336 -0.5628
 1927SOL    HW211618   3.605   0.223   0.144  1.5871  0.5811 -1.3020
 1928SOL     OW11619   0.635   4.583  10.635 -0.4052  0.4659 -0.3384
 1928SOL    HW111620   0.564   4.584  10.572  0.1161  2.6214 -0.9567
 1928SOL    HW211621   0.592   4.597  10.720 -0.7980  0.9652 -0.6148
 1929SOL     OW11622   6.661   3.332   7.629 -0.1642 -0.2630 -0.2751
 1929SOL    HW111623   6.624   3.401   7.684  2.2999  4.1278 -3.4879
 1929SOL    HW211624   6.586   3.296   7.582 -1.4482  0.8249  0.8578
 1930SOL     OW11625   2.665   8.938  10.266  0.2038 -0.1266 -0.0332
 1930SOL    HW111626   2.701   8.940  10.355 -1.6612 -0.0497  0.7544
 1930SOL    HW211627   2.600   8.868  10.267 -0.8276  0.7717 -0.9243
 1931SOL     OW11628   0.994   1.603   2.660  0.0437 -0.5542 -0.0280
 1931SOL    HW111629   1.009   1.640   2.747 -1.0526 -1.0372  0.3830
 1931SOL    HW211630   1.074   1.552   2.642  0.6209  0.1979  0.3367
 1932SOL     OW11631  10.122   5.319   5.147 -0.2340  0.2998 -0.4309
 1932SOL    HW111632  10.142   5.412   5.159  0.8838  0.1631 -1.0883
 1932SOL    HW211633  10.028   5.317   5.130 -0.4098  1.2295  0.3243
 1933SOL     OW11634   5.690   7.861   7.911 -0.0245 -0.8311 -0.2380
 1933SOL    HW111635   5.616   7.920   7.921  2.0481  1.6832  1.4604
 1933SOL    HW211636   5.699   7.818   7.996  1.8686  0.7810  0.4490
 1934SOL     OW11637  10.048   7.590   2.536  0.3477  0.4406  0.1056
 1934SOL    HW111638   9.979   7.636   2.488  0.3525  0.5426  0.1982
 1934SOL    HW211639  10.094   7.540   2.469  1.6428  2.1449 -0.3329
 1935SOL     OW11640   4.599   0.758   5.645  0.4170  0.3456  0.4117
 1935SOL    HW111641   4.508   0.764   5.673  0.7404  1.9884  1.1944
 1935SOL    HW211642   4.637   0.691   5.703 -0.4802 -1.0972 -0.5809
 1936SOL     OW11643   7.101   5.581   8.792  0.4779 -0.2573  0.7578
 1936SOL    HW111644   7.161   5.578   8.718  0.9799 -0.2816  1.1537
 1936SOL    HW211645   7.047   5.658   8.777  1.7982  0.8156  1.2682
 1937SOL     OW11646   6.324   5.119  10.558  0.4452 -0.0803  0.0831
 1937SOL    HW111647   6.311   5.024  10.552 -1.8641  0.0546  1.7066
 1937SOL    HW211648   6.388   5.129  10.628  0.1781 -0.4398  0.3884
 1938SOL     OW11649   9.920   2.418   9.568  0.4104  0.3296  0.0001
 1938SOL    HW111650   9.904   2.439   9.476  1.4127 -0.0292 -0.2672
 1938SOL    HW211651   9.833   2.397   9.603  0.1217 -0.3343 -1.0714
 1939SOL     OW11652   0.799   9.371   6.442  0.2917 -0.3836 -0.0799
 1939SOL    HW111653   0.756   9.313   6.505  0.6309 -0.7327 -0.1710
 1939SOL    HW211654   0.870   9.412   6.492 -1.2816  1.6788  0.6422
 1940SOL     OW11655   2.578   3.699   7.999 -0.1111  0.2233 -0.2103
 1940SOL    HW111656   2.541   3.612   7.986 -0.7795  0.0617  2.2519
 1940SOL    HW211657   2.502   3.756   8.013  0.2567  1.4502 -2.6366
 1941SOL     OW11658   2.434   4.970   6.376  0.3426  0.4415  1.1883
 1941SOL    HW111659   2.399   5.057   6.355  0.5024  0.8336  2.5003
 1941SOL    HW211660   2.357   4.913   6.374  0.1704  0.6829  0.7300
 1942SOL     OW11661   8.448   0.684   2.823 -0.1524  0.7916  0.4211
 1942SOL    HW111662   8.361   0.646   2.809 -0.1718  0.8316  0.4340
 1942SOL    HW211663   8.432   0.778   2.833 -0.0188  0.9285 -0.5201
 1943SOL     OW11664   2.018   8.970  10.444 -0.1325  0.3291 -0.8189
 1943SOL    HW111665   2.100   8.997  10.485 -0.0240  0.8891 -1.3787
 1943SOL    HW211666   1.976   8.913  10.508  0.6521  0.1121 -0.4899
 1944SOL     OW11667   0.521   4.216   5.527  0.0900 -0.2146  0.5808
 1944SOL    HW111668   0.592   4.273   5.559 -0.6828  0.1891  1.6249
 1944SOL    HW211669   0.504   4.249   5.438  1.9063 -1.0102 -0.1255
 1945SOL     OW11670   6.100   9.499   1.348  0.3778 -0.3885  0.0830
 1945SOL    HW111671   6.128   9.464   1.433  0.6763  0.4895  0.3533
 1945SOL    HW211672   6.005   9.485   1.347 -0.1461  2.2509  1.8672
 1946SOL     OW11673   0.596   5.793   5.838 -0.3175  0.0488  0.0640
 1946SOL    HW111674   0.666   5.810   5.901  1.2528 -1.9612 -1.0359
 1946SOL    HW211675   0.606   5.701   5.815 -1.2154  0.5580 -2.6695
 1947SOL     OW11676   5.196   0.071   8.753  0.0317 -0.0122  0.4473
 1947SOL    HW111677   5.260   0.000   8.747  1.1802  0.9211  1.1627
 1947SOL    HW211678   5.122   0.041   8.701 -0.6117 -2.8840  2.7258
 1948SOL     OW11679   3.506  10.011   3.586 -0.1372 -0.2604 -0.4072
 1948SOL    HW111680   3.570  10.061   3.535  1.6429 -0.3872  1.5551
 1948SOL    HW211681   3.518  10.042   3.676 -1.2567 -1.9270  0.3615
 1949SOL     OW11682   6.722  10.654   0.058 -0.5850  0.5177 -0.2900
 1949SOL    HW111683   6.750  10.745   0.052 -1.2310  0.7951  0.7385
 1949SOL    HW211684   6.719  10.635   0.151  1.1804 -1.0925 -0.5032
 1950SOL     OW11685   6.660   0.533   7.242 -0.4819  0.1899 -0.4292
 1950SOL    HW111686   6.694   0.465   7.299  0.8702  1.6207  0.5490
 1950SOL    HW211687   6.737   0.570   7.199 -1.4966 -1.4341 -4.0155
 1951SOL     OW11688   6.019   7.437   4.222  0.2699  0.4363 -0.7138
 1951SOL    HW111689   5.987   7.503   4.283 -0.9517  0.4233 -1.3270
 1951SOL    HW211690   6.112   7.429   4.243  0.2563  1.7216 -0.0545
 1952SOL     OW11691   9.371  10.112   7.638 -0.3636  0.4597 -0.4039
 1952SOL    HW111692   9.348  10.127   7.546 -1.3628 -2.6276 -0.7703
 1952SOL    HW211693   9.296  10.066   7.675  1.5312 -1.8572  0.8416
 1953SOL     OW11694   0.725   3.886   3.785  0.2361  0.0871  0.4712
 1953SOL    HW111695   0.649   3.913   3.733 -0.5597 -0.5295  1.2778
 1953SOL    HW211696   0.734   3.954   3.851 -0.5760 -0.6001  1.3138
 1954SOL     OW11697   9.143   3.470   0.761  0.0079  0.8752  0.2243
 1954SOL    HW111698   9.161   3.398   0.821 -0.1843  1.5121  1.0561
 1954SOL    HW211699   9.196   3.450   0.684 -1.0343 -0.8244 -0.0985
 1955SOL     OW11700   7.532   7.324   1.422 -0.2959  0.2772  0.0558
 1955SOL    HW111701   7.460   7.306   1.483  0.5047 -1.7142  0.4977
 1955SOL    HW211702   7.608   7.338   1.479  0.7590 -2.8979 -0.3305
 1956SOL     OW11703   0.631   3.589   7.294 -0.0282 -0.3885  0.1490
 1956SOL    HW111704   0.725   3.582   7.281  0.1744  0.9014  0.7831
 1956SOL    HW211705   0.616   3.681   7.313 -1.2243 -0.8145  1.4891
 1957SOL     OW11706   2.755   3.011   8.417  0.6072 -0.3832  0.2106
 1957SOL    HW111707   2.783   3.102   8.411  0.3077 -0.3575 -0.9836
 1957SOL    HW211708   2.661   3.016   8.438  1.0399 -0.4601  2.4366
 1958SOL     OW11709   8.249   3.614   2.786 -0.3084  0.9069  0.2024
 1958SOL    HW111710   8.247   3.592   2.880  1.9551  0.6774  0.2728
 1958SOL    HW211711   8.310   3.688   2.781  1.6757 -0.7065 -1.2995
 1959SOL     OW11712  10.557   1.102   4.667 -0.1619  0.3799 -0.5105
 1959SOL    HW111713  10.611   1.032   4.705  0.0849  0.2555 -1.0743
 1959SOL    HW211714  10.567   1.175   4.728  0.2169  0.1836 -0.3269
 1960SOL     OW11715   6.162   5.320  10.684 -0.0634  0.3947 -0.1173
 1960SOL    HW111716   6.247   5.313  10.642  0.1061  0.6731  0.1836
 1960SOL    HW211717   6.151   5.237  10.730  0.6309  0.8772  0.9474
 1961SOL     OW11718   1.333   1.198   5.458  0.5093 -0.2482 -0.1577
 1961SOL    HW111719   1.348   1.154   5.375  1.8920 -0.0230 -0.0598
 1961SOL    HW211720   1.364   1.288   5.444 -2.8180  0.9833 -0.5438
 1962SOL     OW11721   4.963  10.291  10.430 -0.4332 -0.3951 -0.0069
 1962SOL    HW111722   5.029  10.260  10.368 -0.9509  0.7870 -1.2106
 1962SOL    HW211723   5.011  10.306  10.511  0.7602  0.3060 -0.8141
 1963SOL     OW11724   9.659   4.242   4.426  0.0397 -0.0079 -0.2120
 1963SOL    HW111725   9.598   4.178   4.391 -1.3942  0.8788  0.5629
 1963SOL    HW211726   9.620   4.271   4.508  0.6908  1.7496 -0.4583
 1964SOL     OW11727   4.573   1.791   9.652 -0.3182 -0.6070 -0.2351
 1964SOL    HW111728   4.606   1.758   9.736 -1.2537  0.9832  0.7987
 1964SOL    HW211729   4.597   1.884   9.651 -0.6049 -0.5250 -1.5938
 1965SOL     OW11730   2.186   8.773   9.180 -0.0633  0.1356 -0.6059
 1965SOL    HW111731   2.123   8.780   9.108 -0.3432  0.2804 -0.3501
 1965SOL    HW211732   2.171   8.851   9.232 -0.1672 -0.1869 -0.1455
 1966SOL     OW11733   3.215   8.411   8.212 -0.1845  0.2385 -0.3141
 1966SOL    HW111734   3.311   8.410   8.211 -0.1550  0.4702  0.8254
 1966SOL    HW211735   3.190   8.347   8.145  0.7353  1.4045 -1.8334
 1967SOL     OW11736   8.381   4.889   5.883 -0.1452 -0.1222 -0.1283
 1967SOL    HW111737   8.342   4.922   5.963  2.8092  2.2053  0.5317
 1967SOL    HW211738   8.352   4.798   5.877 -0.9365 -0.1945  3.2285
 1968SOL     OW11739   9.270   9.770   3.907 -0.0764 -0.0666  0.0509
 1968SOL    HW111740   9.216   9.691   3.901 -1.4614  0.8581 -0.0821
 1968SOL    HW211741   9.209   9.842   3.896  1.3611  1.0226 -1.2078
 1969SOL     OW11742   3.914   8.820   1.488  0.0090 -0.1748  0.5020
 1969SOL    HW111743   3.865   8.845   1.566  0.4700  1.8050  0.2270
 1969SOL    HW211744   3.930   8.903   1.442 -0.5959 -1.2986 -1.9150
 1970SOL     OW11745   6.352   1.709   2.532 -0.2078 -0.3714  0.0078
 1970SOL    HW111746   6.359   1.784   2.592 -0.0758  0.3080 -0.8257
 1970SOL    HW211747   6.441   1.674   2.527 -0.3431 -0.8258  0.6895
 1971SOL     OW11748   5.881   1.423   5.062 -0.0711 -0.2176  0.3003
 1971SOL    HW111749   5.833   1.473   4.996  2.0760  0.0893 -1.1556
 1971SOL    HW211750   5.936   1.488   5.106 -1.3592 -0.4503  2.3719
 1972SOL     OW11751   0.782   4.701   8.994  0.3806  0.0105 -0.0830
 1972SOL    HW111752   0.781   4.747   9.078 -1.1239  0.1058 -0.1100
 1972SOL    HW211753   0.836   4.756   8.937  3.0506 -1.0489  1.2855
 1973SOL     OW11754   1.209   0.502   9.686  0.0644 -0.3792  0.0033
 1973SOL    HW111755   1.185   0.506   9.778 -0.1617 -1.1008 -0.0186
 1973SOL    HW211756   1.130   0.531   9.639 -0.7838 -2.5915 -0.0614
 1974SOL     OW11757   2.106  10.450   9.643 -0.0102 -0.3933  0.2417
 1974SOL    HW111758   2.019  10.488   9.631  0.6037  0.9340 -0.1572
 1974SOL    HW211759   2.110  10.428   9.736 -1.0754 -1.2899  0.1008
 1975SOL     OW11760   8.613   9.256  10.135 -0.5424  0.2436 -0.4225
 1975SOL    HW111761   8.561   9.176  10.134  0.2629 -0.2947 -0.7049
 1975SOL    HW211762   8.674   9.245  10.208  0.3196  0.0832 -1.1408
 1976SOL     OW11763   2.704   4.464   0.632 -0.3363 -0.0950 -0.5910
 1976SOL    HW111764   2.693   4.519   0.710  2.3947 -1.1554  0.6769
 1976SOL    HW211765   2.666   4.380   0.657  0.7106 -0.4929 -0.2977
 1977SOL     OW11766   3.222   1.570   1.082  0.3891 -0.2648 -0.5762
 1977SOL    HW111767   3.133   1.535   1.084  0.9105 -1.6874 -1.0147
 1977SOL    HW211768   3.240   1.584   0.989  0.1974  1.2077 -0.4096
 1978SOL     OW11769   2.552  10.377   5.530  0.0400 -0.4278 -0.1904
 1978SOL    HW111770   2.537  10.466   5.500  1.6113 -0.8480 -2.4482
 1978SOL    HW211771   2.543  10.322   5.452 -1.3678 -2.3635  1.2144
 1979SOL     OW11772   2.223   8.704   5.068 -0.2365 -0.5042 -0.0171
 1979SOL    HW111773   2.152   8.703   5.132 -0.6257 -3.4971 -0.3508
 1979SOL    HW211774   2.297   8.740   5.115 -0.5900 -2.3505  2.1152
 1980SOL     OW11775   6.252   6.884   0.418 -0.4065  0.5064 -0.8116
 1980SOL    HW111776   6.318   6.903   0.485 -1.0737  0.6631 -0.1769
 1980SOL    HW211777   6.213   6.969   0.398 -1.0020  0.3032 -0.5410
 1981SOL     OW11778   8.439   1.914   5.588  0.0478 -0.1759  0.3221
 1981SOL    HW111779   8.526   1.893   5.555 -0.2303  0.8726 -1.1873
 1981SOL    HW211780   8.379   1.867   5.531 -0.4082 -0.4535  1.0130
 1982SOL     OW11781   2.323   8.302   1.780  0.5151  0.2078  0.6754
 1982SOL    HW111782   2.403   8.293   1.728  0.2767 -2.4729  0.6487
 1982SOL    HW211783   2.345   8.367   1.847  2.6994 -0.4052  0.6223
 1983SOL     OW11784   2.977   4.357   7.263 -0.9429  0.1840  0.2374
 1983SOL    HW111785   3.003   4.444   7.233  1.1518 -0.4089  0.1800
 1983SOL    HW211786   2.931   4.373   7.345  1.1455  1.2824  1.2837
 1984SOL     OW11787   6.849   4.575   3.694 -0.3065 -0.1564  0.3897
 1984SOL    HW111788   6.843   4.528   3.611  0.3524 -0.7463  0.6710
 1984SOL    HW211789   6.934   4.618   3.691 -0.3576 -0.0347  0.6822
 1985SOL     OW11790   9.618   2.539   2.945  0.7680 -0.6826 -0.7539
 1985SOL    HW111791   9.634   2.526   3.038 -1.3260  0.1601 -0.2172
 1985SOL    HW211792   9.608   2.451   2.909 -0.5440 -0.9889  0.2838
 1986SOL     OW11793   1.260   4.728   3.365 -0.1424 -0.0698  0.0421
 1986SOL    HW111794   1.331   4.672   3.397 -0.4742 -0.8978 -0.6024
 1986SOL    HW211795   1.181   4.677   3.383 -0.5867  0.8697  0.8109
 1987SOL     OW11796   9.079   0.341   9.610 -0.1798  0.1729  0.0254
 1987SOL    HW111797   9.004   0.298   9.569  0.0334 -0.5541  0.3871
 1987SOL    HW211798   9.121   0.388   9.538 -0.6702  0.1457 -0.2852
 1988SOL     OW11799   2.305   5.002   6.005  0.0972  0.0149 -0.0040
 1988SOL    HW111800   2.220   5.036   6.030  0.0979  0.7902 -1.0014
 1988SOL    HW211801   2.286   4.920   5.960 -0.3035  1.1261 -1.9526
 1989SOL     OW11802  10.276   9.161   7.146  0.1070  0.2857  0.2837
 1989SOL    HW111803  10.216   9.096   7.112  0.9360  0.0651 -0.8086
 1989SOL    HW211804  10.317   9.120   7.222 -0.4548  0.1045  0.4883
 1990SOL     OW11805   5.781   7.450   0.326 -0.1095 -0.0871 -0.3080
 1990SOL    HW111806   5.848   7.412   0.383 -0.4993 -0.9801 -0.4187
 1990SOL    HW211807   5.804   7.542   0.319 -0.2285  0.1333  1.5758
 1991SOL     OW11808   5.484   6.927   2.716 -0.1693  0.2114  0.0187
 1991SOL    HW111809   5.397   6.965   2.705  1.0965  2.9697 -2.2457
 1991SOL    HW211810   5.473   6.834   2.699 -2.4258  0.7826 -2.3036
 1992SOL     OW11811  10.520   4.681   8.027 -0.2062 -0.0262  0.2270
 1992SOL    HW111812  10.586   4.700   7.961 -0.0994  2.0611  0.8502
 1992SOL    HW211813  10.563   4.623   8.089 -0.1473 -1.5910 -1.2291
 1993SOL     OW11814   1.229   6.871   8.858 -0.1928 -0.0672  0.2031
 1993SOL    HW111815   1.268   6.895   8.774  1.9949 -1.1988  0.8078
 1993SOL    HW211816   1.297   6.818   8.902 -1.7724 -0.6446  2.1188
 1994SOL     OW11817   8.706   5.635   3.499 -0.0710 -0.1996 -0.1554
 1994SOL    HW111818   8.664   5.670   3.420 -1.9292  2.3747  1.8035
 1994SOL    HW211819   8.741   5.712   3.544 -0.7863 -1.2826  2.4475
 1995SOL     OW11820   5.340   4.664   7.510 -0.1470 -0.1285  0.2084
 1995SOL    HW111821   5.405   4.721   7.550 -0.4185 -0.7833  1.6216
 1995SOL    HW211822   5.259   4.714   7.514 -0.4542 -0.7095  1.7547
 1996SOL     OW11823   9.084   8.112   8.880  0.2198 -0.0663 -0.5027
 1996SOL    HW111824   9.016   8.105   8.813 -0.7106  0.7333  0.3168
 1996SOL    HW211825   9.158   8.152   8.835 -0.8553  1.7538 -0.7734
 1997SOL     OW11826   5.080   1.398   2.327  0.6475  0.4153 -0.1210
 1997SOL    HW111827   5.031   1.403   2.244  1.8645  0.8699 -0.8305
 1997SOL    HW211828   5.082   1.489   2.359  2.6410  0.7486 -1.0801
 1998SOL     OW11829   8.278   6.727   3.598 -0.2343 -0.8595 -0.5252
 1998SOL    HW111830   8.246   6.682   3.677  0.5514  1.3153  1.1446
 1998SOL    HW211831   8.200   6.766   3.559 -0.3181  0.4772  0.8765
 1999SOL     OW11832   2.055   7.445   8.160 -0.3439  0.1818  0.6598
 1999SOL    HW111833   2.021   7.369   8.114  0.1002  0.5449 -0.2995
 1999SOL    HW211834   2.033   7.519   8.104  1.6824  0.4599  0.1504
 2000SOL     OW11835   0.803   9.600  10.135 -0.1021 -0.7244  0.6841
 2000SOL    HW111836   0.752   9.532  10.179 -1.8584 -0.9110 -1.4702
 2000SOL    HW211837   0.746   9.631  10.065  2.2421  0.0800 -0.9852
 2001SOL     OW11838   0.743   0.757   5.087 -0.5196 -0.4929 -0.0492
 2001SOL    HW111839   0.712   0.847   5.096 -1.9800 -0.9769  0.0642
 2001SOL    HW211840   0.751   0.726   5.177 -0.7667 -0.7006 -0.0957
 2002SOL     OW11841   9.783   5.941   5.711  0.3709 -0.9292  0.1406
 2002SOL    HW111842   9.717   6.006   5.736 -0.5477 -0.9708 -1.9650
 2002SOL    HW211843   9.817   5.908   5.794 -4.5303 -3.2372  1.6031
 2003SOL     OW11844   5.300   6.816   3.272  0.0644  0.0297  0.5269
 2003SOL    HW111845   5.214   6.774   3.275 -0.1292  0.4503  0.9245
 2003SOL    HW211846   5.353   6.757   3.218 -0.5675 -0.0451 -0.0252
 2004SOL     OW11847   7.632   4.001   2.229 -0.2350 -0.1104  0.0363
 2004SOL    HW111848   7.594   3.956   2.304 -2.3918  0.3076 -0.7157
 2004SOL    HW211849   7.720   4.025   2.257 -1.3618  1.1239  2.9124
 2005SOL     OW11850   7.969   6.857   1.097 -0.1243 -0.2774 -0.7102
 2005SOL    HW111851   7.913   6.919   1.050 -1.1940  1.4038  2.4483
 2005SOL    HW211852   7.912   6.818   1.163  1.9083  0.0412  1.3648
 2006SOL     OW11853   3.426   5.919   3.390  0.0281 -0.2255  0.4600
 2006SOL    HW111854   3.407   5.871   3.470  1.1106 -0.0681  0.8268
 2006SOL    HW211855   3.356   5.984   3.383 -0.2559 -0.4627  1.0883
 2007SOL     OW11856   9.444   1.592   8.694  0.0236 -0.0775 -0.7084
 2007SOL    HW111857   9.442   1.654   8.621 -1.6429 -1.0263 -1.5174
 2007SOL    HW211858   9.474   1.510   8.656  2.0299  0.0940  0.3217
 2008SOL     OW11859   7.770   3.173   9.619  0.4288  0.2524  0.2677
 2008SOL    HW111860   7.708   3.224   9.670 -0.6383  1.6252 -2.2193
 2008SOL    HW211861   7.732   3.086   9.614 -1.0902  0.9425 -0.7695
 2009SOL     OW11862  10.295   5.833   9.246 -0.0500 -0.4262  0.0574
 2009SOL    HW111863  10.280   5.906   9.185  2.3325 -0.1986 -0.3638
 2009SOL    HW211864  10.262   5.865   9.330  0.0288  0.7359 -0.3337
 2010SOL     OW11865   5.912   8.123   3.340  0.2128 -0.8140  0.0327
 2010SOL    HW111866   5.940   8.214   3.345 -0.0883 -0.6695 -0.7768
 2010SOL    HW211867   5.983   8.078   3.295  0.3864 -0.9934  0.4815
 2011SOL     OW11868   8.187   7.239   1.423 -0.2044 -0.3649  0.1128
 2011SOL    HW111869   8.152   7.219   1.509 -1.2799  0.7245 -0.0398
 2011SOL    HW211870   8.154   7.168   1.367 -1.4025  0.1358  0.1622
 2012SOL     OW11871   0.031   4.994   2.972 -0.2414 -0.2027  0.3791
 2012SOL    HW111872  -0.052   4.950   2.955 -0.2300 -0.3265  0.6325
 2012SOL    HW211873   0.077   4.935   3.033  1.6987 -2.1707 -2.6972
 2013SOL     OW11874   7.362   2.798   0.020  0.1760  0.2394  0.4454
 2013SOL    HW111875   7.429   2.778  -0.046 -0.5670 -1.1572  0.0712
 2013SOL    HW211876   7.308   2.719   0.023 -2.7878  2.0508 -0.8544
 2014SOL     OW11877   0.256   2.285   7.636  0.1633  0.1219  0.6491
 2014SOL    HW111878   0.231   2.231   7.711  2.0424  0.3451  1.4942
 2014SOL    HW211879   0.351   2.288   7.639  0.2149  1.5088 -0.7944
 2015SOL     OW11880   3.127   5.426   0.268 -0.1546  0.4189  0.1612
 2015SOL    HW111881   3.217   5.458   0.265 -0.2110  0.6411  0.7356
 2015SOL    HW211882   3.135   5.332   0.255  0.1287  0.4859 -0.1728
 2016SOL     OW11883   6.776   5.191   2.924 -0.0234 -0.8017 -0.5679
 2016SOL    HW111884   6.702   5.135   2.900 -1.3134  0.3508  0.5448
 2016SOL    HW211885   6.820   5.142   2.994 -0.9500 -0.6153  0.1711
 2017SOL     OW11886   2.337   8.871   4.394 -0.6973  0.0571  0.1208
 2017SOL    HW111887   2.260   8.821   4.366 -1.0537  0.0650  1.0581
 2017SOL    HW211888   2.395   8.870   4.318 -1.6214  0.0487 -0.6026
 2018SOL     OW11889   7.274   8.204   9.388 -0.8696  0.1665 -0.2005
 2018SOL    HW111890   7.192   8.212   9.437  0.7346 -0.2229  2.8060
 2018SOL    HW211891   7.342   8.216   9.454  1.5199 -0.7132 -2.3505
 2019SOL     OW11892   4.181   1.105   3.286 -0.3411 -0.6575  0.2228
 2019SOL    HW111893   4.189   1.176   3.350  0.6081 -0.4215 -0.1350
 2019SOL    HW211894   4.106   1.054   3.316 -2.5990  1.8285 -0.8436
 2020SOL     OW11895   2.814   3.739   7.823  0.1440 -0.2460  0.6131
 2020SOL    HW111896   2.789   3.777   7.739  1.0634  1.1145  0.9241
 2020SOL    HW211897   2.739   3.756   7.881  1.2709  3.0438  1.3098
 2021SOL     OW11898   3.901   2.938   6.836 -0.3192  0.0980  0.1915
 2021SOL    HW111899   3.851   2.975   6.763  0.5133  1.9974  0.5260
 2021SOL    HW211900   3.877   2.846   6.837 -0.3511 -0.0066 -2.4963
 2022SOL     OW11901   0.602   5.972   3.241  0.1259  0.4652  0.3684
 2022SOL    HW111902   0.516   5.950   3.204  0.2442 -1.1549  1.0010
 2022SOL    HW211903   0.658   5.984   3.165  0.2455 -2.3553 -0.0968
 2023SOL     OW11904  10.085   2.131   5.855  0.2224  0.5369 -0.1088
 2023SOL    HW111905  10.111   2.042   5.829 -1.8075 -0.5597  1.3567
 2023SOL    HW211906  10.138   2.188   5.799  0.5745 -1.5903 -2.1288
 2024SOL     OW11907   6.253   9.146   3.789  0.2103 -0.0643  0.1809
 2024SOL    HW111908   6.262   9.228   3.838  2.1487 -1.0738  1.6461
 2024SOL    HW211909   6.344   9.120   3.769 -0.2922 -2.3383  0.6158
 2025SOL     OW11910   9.697   9.809   1.278 -0.0419 -0.1455  0.1019
 2025SOL    HW111911   9.774   9.843   1.323 -0.5619  0.7812  0.3198
 2025SOL    HW211912   9.689   9.862   1.199 -1.4325  0.9561  0.9329
 2026SOL     OW11913   7.418   3.697   8.902 -0.1079 -0.6700  0.0382
 2026SOL    HW111914   7.436   3.604   8.912 -0.8192 -0.9754 -1.3316
 2026SOL    HW211915   7.328   3.701   8.868 -0.4303  0.5550  0.9705
 2027SOL     OW11916   6.022   6.318   9.661 -0.2311 -0.5722 -0.3033
 2027SOL    HW111917   5.989   6.271   9.584 -0.5300 -1.2018  0.2062
 2027SOL    HW211918   6.068   6.251   9.712  2.8999  0.4381 -1.5309
 2028SOL     OW11919   3.797   4.090   9.805  0.2954  0.1782  0.0771
 2028SOL    HW111920   3.853   4.043   9.867  1.0190  0.5059 -0.3251
 2028SOL    HW211921   3.762   4.164   9.856  1.1850  0.6604 -0.0017
 2029SOL     OW11922   7.514   2.628   3.751  1.1925 -0.0919  0.6614
 2029SOL    HW111923   7.466   2.607   3.671 -1.6163  0.6330  2.0233
 2029SOL    HW211924   7.593   2.576   3.746  0.5530 -0.9553 -2.0245
 2030SOL     OW11925   9.761  10.161   6.837  0.3566  0.0273 -0.2038
 2030SOL    HW111926   9.735  10.072   6.811  1.8976 -0.4976 -0.0353
 2030SOL    HW211927   9.713  10.177   6.918 -0.6131 -0.2948 -0.7001
 2031SOL     OW11928  10.029   2.437  10.388 -0.5142 -0.2093  0.0846
 2031SOL    HW111929   9.978   2.505  10.345 -1.7011  1.0669  3.1958
 2031SOL    HW211930  10.117   2.473  10.394 -0.9830  0.8477  1.1123
 2032SOL     OW11931   5.828   3.987   3.155  0.0129 -0.0751  0.0134
 2032SOL    HW111932   5.740   3.954   3.176 -0.2568  0.9667  0.5707
 2032SOL    HW211933   5.872   3.993   3.240  1.3337 -2.4295 -0.4006
 2033SOL     OW11934   5.605   7.514   3.474  0.2348  0.1924 -0.2512
 2033SOL    HW111935   5.608   7.582   3.541 -1.7593 -0.0778  0.1739
 2033SOL    HW211936   5.638   7.436   3.518 -2.1446 -0.2719  0.8768
 2034SOL     OW11937   7.496   5.803   0.159 -0.1943  0.1757 -0.0968
 2034SOL    HW111938   7.426   5.845   0.108 -0.5592 -0.5120 -0.1665
 2034SOL    HW211939   7.479   5.830   0.249 -0.4124  0.1917 -0.1430
 2035SOL     OW11940   4.042   5.110   0.984  0.2793  0.4102 -0.8304
 2035SOL    HW111941   4.112   5.104   1.049 -1.1067 -0.0288  0.6856
 2035SOL    HW211942   4.088   5.124   0.901  2.1579  0.0602  0.0884
 2036SOL     OW11943   9.404   4.074   2.422 -0.2743  0.4218  0.1306
 2036SOL    HW111944   9.474   4.138   2.415  0.8418 -0.7133  0.4918
 2036SOL    HW211945   9.334   4.119   2.469  0.1918  1.5843 -0.2631
 2037SOL     OW11946   7.715   7.878   2.273 -0.0925  0.3801  0.2037
 2037SOL    HW111947   7.666   7.913   2.198  0.4883  1.5093  0.3381
 2037SOL    HW211948   7.647   7.851   2.335 -0.5652  0.6327 -0.1967
 2038SOL     OW11949   4.309   2.618   5.474  0.1070  0.1071  0.0291
 2038SOL    HW111950   4.311   2.604   5.569  0.2458 -0.2399 -0.0209
 2038SOL    HW211951   4.247   2.689   5.461  1.0903  1.0676  0.4864
 2039SOL     OW11952   6.180  10.097   4.339  0.3446 -0.1768  0.5778
 2039SOL    HW111953   6.201  10.142   4.421  0.4346  2.2970 -0.6961
 2039SOL    HW211954   6.243  10.132   4.276 -0.9787 -0.4862 -0.9783
 2040SOL     OW11955   3.064   6.399   0.360 -0.0352 -0.0205  0.0742
 2040SOL    HW111956   2.970   6.408   0.343  0.0498  0.5974 -0.0857
 2040SOL    HW211957   3.103   6.476   0.319  0.6384 -0.6960 -0.5821
 2041SOL     OW11958   5.618   6.320   6.380 -0.1523 -0.1745 -0.0703
 2041SOL    HW111959   5.558   6.248   6.399  2.1321 -2.2298 -0.2811
 2041SOL    HW211960   5.607   6.336   6.287 -0.7598 -0.1302  0.0011
 2042SOL     OW11961   6.442   4.450   8.424  0.6721 -0.1690 -0.0130
 2042SOL    HW111962   6.530   4.437   8.459  1.3032  0.4054 -1.3057
 2042SOL    HW211963   6.455   4.460   8.330 -0.6666  1.0350 -0.1007
 2043SOL     OW11964   0.628  10.274   5.994 -0.2228  0.6913 -0.2229
 2043SOL    HW111965   0.561  10.339   5.974 -0.1437  1.0850  0.7703
 2043SOL    HW211966   0.709  10.324   5.998  0.2856  0.1115 -2.1471
 2044SOL     OW11967  10.271   2.476   0.536  0.4869 -0.0911  0.5675
 2044SOL    HW111968  10.360   2.482   0.501  0.2137 -0.4202 -0.1861
 2044SOL    HW211969  10.237   2.565   0.529  0.8483  0.0970  1.1198
 2045SOL     OW11970   2.348   8.405   9.394  0.6058  0.8107  0.3464
 2045SOL    HW111971   2.343   8.310   9.382  0.6951  0.6275  1.6183
 2045SOL    HW211972   2.292   8.440   9.325  1.5549 -0.0882 -0.9353
 2046SOL     OW11973   3.364   6.769   2.553 -0.1932  0.3570  0.2110
 2046SOL    HW111974   3.369   6.861   2.580  1.6825 -0.2829  2.3576
 2046SOL    HW211975   3.455   6.741   2.548 -0.5658 -0.6488 -3.4477
 2047SOL     OW11976   4.521   4.299   9.990  0.6951  0.0315 -0.4680
 2047SOL    HW111977   4.434   4.261   9.979  0.6340  0.0452 -0.0308
 2047SOL    HW211978   4.505   4.386  10.027  0.9841 -0.8688  1.9192
 2048SOL     OW11979   3.947   1.689   6.746  0.2372  0.2219  0.7604
 2048SOL    HW111980   3.980   1.716   6.832  4.8321  1.8128 -1.2064
 2048SOL    HW211981   3.920   1.770   6.704  0.5026 -0.1627 -0.1838
 2049SOL     OW11982   8.967   3.464   2.570  0.4133  0.2041 -0.0458
 2049SOL    HW111983   8.951   3.467   2.665  0.7075 -0.2234  0.0245
 2049SOL    HW211984   8.879   3.462   2.531  0.2903  0.4873  0.2141
 2050SOL     OW11985   9.805   2.503   4.236  0.6224 -0.1237 -0.0945
 2050SOL    HW111986   9.883   2.557   4.251 -0.1107  0.4279  2.1355
 2050SOL    HW211987   9.825   2.420   4.280 -0.1474  0.1427  0.7927
 2051SOL     OW11988   1.571   5.242   9.026 -0.3769 -0.0363  0.3199
 2051SOL    HW111989   1.556   5.202   9.111  1.3294  0.0959  0.7208
 2051SOL    HW211990   1.545   5.334   9.037 -1.1496 -0.2550  0.3704
 2052SOL     OW11991   6.010   8.795   5.815  0.3147  0.2244 -0.1216
 2052SOL    HW111992   6.033   8.745   5.736  2.5302  0.9291  0.0191
 2052SOL    HW211993   5.925   8.834   5.794 -0.0699 -1.1661 -1.3784
 2053SOL     OW11994   1.974   3.862   4.055  0.2010  0.4860  0.0474
 2053SOL    HW111995   1.957   3.778   4.097 -0.0748  0.9936  0.9874
 2053SOL    HW211996   1.934   3.854   3.968 -0.4238 -0.1120  0.3790
 2054SOL     OW11997   8.391   9.516   2.787 -0.5223 -0.2443 -0.0993
 2054SOL    HW111998   8.345   9.547   2.709  1.0899  1.7523 -0.3290
 2054SOL    HW211999   8.459   9.457   2.754  2.1417  2.8673 -0.6937
 2055SOL     OW12000   7.389   9.660   5.699 -0.9462 -0.5708 -0.1904
 2055SOL    HW112001   7.436   9.582   5.669  0.5036  0.5090 -0.7803
 2055SOL    HW212002   7.402   9.725   5.630  0.7092  1.2946  1.7359
 2056SOL     OW12003   5.136   7.145   6.073 -0.0682  0.5353  0.5574
 2056SOL    HW112004   5.161   7.236   6.088  1.7704  0.0369  0.7146
 2056SOL    HW212005   5.096   7.117   6.155 -1.7506  1.5101  0.1160
 2057SOL     OW12006   5.416   0.174   9.116  0.2094  0.5065 -0.1127
 2057SOL    HW112007   5.325   0.154   9.138 -0.2745  2.3315 -0.3042
 2057SOL    HW212008   5.413   0.210   9.028  0.8859  1.9882  0.4183
 2058SOL     OW12009   2.728   9.327   6.639  0.3036 -0.0288 -0.0643
 2058SOL    HW112010   2.696   9.257   6.696  0.8648 -0.5828 -0.4034
 2058SOL    HW212011   2.725   9.289   6.551 -2.2721  1.4104 -0.6968
 2059SOL     OW12012   7.655   7.471   3.380  0.3552  0.3787 -0.3609
 2059SOL    HW112013   7.741   7.466   3.422 -0.4213  0.7903  1.3511
 2059SOL    HW212014   7.596   7.425   3.440 -0.6413  0.0745 -1.5253
 2060SOL     OW12015  10.614   2.470  10.361  0.1011  0.3902  0.1944
 2060SOL    HW112016  10.591   2.562  10.346  0.7356  0.4568 -0.4123
 2060SOL    HW212017  10.601   2.458  10.455  2.3515  1.7809  0.7471
 2061SOL     OW12018   8.990   0.698   5.219 -0.1784  0.0937 -0.1071
 2061SOL    HW112019   9.008   0.687   5.126  1.4062  3.6885 -0.4085
 2061SOL    HW212020   8.897   0.723   5.223 -0.3450 -0.4305 -0.6645
 2062SOL     OW12021   3.475   0.207   5.954  0.0490  0.1970 -0.2020
 2062SOL    HW112022   3.492   0.300   5.943  0.2648  0.2820  0.7483
 2062SOL    HW212023   3.411   0.186   5.886 -1.1905  1.3981  0.5340
 2063SOL     OW12024   3.075   8.368   0.166 -0.1655  0.0084 -0.4354
 2063SOL    HW112025   3.035   8.389   0.081 -3.3805 -0.2858  0.8761
 2063SOL    HW212026   3.104   8.277   0.156  0.7876  0.4062 -1.6076
 2064SOL     OW12027   8.697   6.970   1.393 -0.5795  0.6447  0.0321
 2064SOL    HW112028   8.637   6.901   1.422  0.7116 -0.0668  1.1718
 2064SOL    HW212029   8.642   7.032   1.346 -2.2291  0.1109  1.1662
 2065SOL     OW12030   4.027   5.619   5.917  0.3695  0.8994  0.5672
 2065SOL    HW112031   3.977   5.554   5.965 -0.3365 -0.5663 -1.9262
 2065SOL    HW212032   4.028   5.696   5.973 -1.8363 -0.1027  2.1213
 2066SOL     OW12033   0.333   4.481   8.940  0.3940  0.0972 -0.0342
 2066SOL    HW112034   0.425   4.483   8.914  0.4896  0.6003  0.3291
 2066SOL    HW212035   0.327   4.409   9.002  0.0213 -1.5947 -1.9252
 2067SOL     OW12036   8.426   1.513   0.463 -0.4259  0.4180 -0.4214
 2067SOL    HW112037   8.405   1.451   0.393 -2.7155 -0.5266  0.9768
 2067SOL    HW212038   8.401   1.468   0.544 -0.2032  2.3735  0.8184
 2068SOL     OW12039   5.065   2.657   3.406 -0.4272  0.3914  0.1521
 2068SOL    HW112040   5.097   2.713   3.477 -0.3868  1.0297 -0.3578
 2068SOL    HW212041   5.099   2.570   3.427  0.5769  0.8029  0.3009
 2069SOL     OW12042   4.299   1.386   2.643 -0.7342 -0.5305 -0.0201
 2069SOL    HW112043   4.247   1.439   2.704 -1.6539 -1.1856 -0.2099
 2069SOL    HW212044   4.388   1.390   2.678 -0.8362  0.8587  0.1517
 2070SOL     OW12045   4.998   0.892   7.144  0.6755  0.2837 -0.1394
 2070SOL    HW112046   4.974   0.817   7.088  0.7307  1.7212 -2.2118
 2070SOL    HW212047   5.072   0.860   7.196  0.2256 -1.3214 -0.4297
 2071SOL     OW12048   5.117   6.481   2.809 -0.1712 -0.2600 -0.1740
 2071SOL    HW112049   5.069   6.483   2.726 -0.3342 -0.4434 -0.0857
 2071SOL    HW212050   5.136   6.388   2.822  0.6102 -0.1436 -0.4387
 2072SOL     OW12051   7.366   4.209   1.147  0.1162  0.0850 -0.2408
 2072SOL    HW112052   7.358   4.260   1.066  0.6459  1.6558  0.6464
 2072SOL    HW212053   7.362   4.275   1.216 -1.5065 -1.3243  1.0880
 2073SOL     OW12054   5.805   9.496   8.140 -0.1131 -0.1947 -0.4487
 2073SOL    HW112055   5.760   9.458   8.065 -1.7565 -2.2040  1.4021
 2073SOL    HW212056   5.897   9.474   8.127 -0.6347 -2.3567 -0.9237
 2074SOL     OW12057   3.111   3.868   2.590 -0.1107  0.1548 -0.0267
 2074SOL    HW112058   3.206   3.863   2.601 -0.2480 -1.1435  0.6876
 2074SOL    HW212059   3.092   3.802   2.522 -0.4212  1.0096 -0.7926
 2075SOL     OW12060   8.228   8.433   2.074 -0.0162 -0.2084 -0.0491
 2075SOL    HW112061   8.305   8.443   2.129 -0.3217  2.1564  0.0396
 2075SOL    HW212062   8.156   8.415   2.135 -0.1098  1.0000  0.2111
 2076SOL     OW12063   5.196   8.748   3.004 -0.2272 -0.5184  0.1054
 2076SOL    HW112064   5.234   8.742   3.092  1.5889  0.0507 -0.5876
 2076SOL    HW212065   5.272   8.748   2.945 -1.3941 -1.0074 -1.4849
 2077SOL     OW12066   6.729   9.589   1.572  0.2808 -0.0643 -0.0390
 2077SOL    HW112067   6.802   9.530   1.588  0.8806  0.7282  0.2063
 2077SOL    HW212068   6.711   9.629   1.657 -0.5431 -0.3658 -0.0633
 2078SOL     OW12069  10.056   4.454   6.820  0.5732 -0.1775 -0.0851
 2078SOL    HW112070  10.092   4.523   6.764 -0.3315 -1.2323 -2.0626
 2078SOL    HW212071  10.126   4.433   6.881  1.3023  1.5921 -0.2397
 2079SOL     OW12072   6.189  10.419   2.133  0.3073  0.4433 -0.8898
 2079SOL    HW112073   6.103  10.457   2.113 -0.3107 -0.5136 -0.1878
 2079SOL    HW212074   6.217  10.464   2.213 -1.1226 -1.4943  0.8289
 2080SOL     OW12075   6.578   5.644   7.706  0.0946 -0.4472 -0.8360
 2080SOL    HW112076   6.553   5.692   7.785  0.7494  3.3456 -2.6927
 2080SOL    HW212077   6.649   5.586   7.734 -0.3718  0.0253  1.5113
 2081SOL     OW12078   4.569   1.614   5.640 -0.1625  0.1447  0.1209
 2081SOL    HW112079   4.604   1.538   5.592  1.2830  0.4365  0.6629
 2081SOL    HW212080   4.583   1.592   5.732 -2.1539 -0.0450  0.4040
 2082SOL     OW12081   2.891   3.649   3.580 -0.0702 -0.1527 -0.3851
 2082SOL    HW112082   2.975   3.645   3.536  0.1975 -1.7620  0.1841
 2082SOL    HW212083   2.901   3.717   3.646  0.5663  0.0961 -0.7383
 2083SOL     OW12084   5.405   5.358   7.428  0.7424 -0.1084 -0.1323
 2083SOL    HW112085   5.378   5.442   7.467 -1.1569 -0.7353 -0.0331
 2083SOL    HW212086   5.370   5.360   7.339 -0.4088 -1.2774  0.2628
 2084SOL     OW12087   6.947   0.985  10.424 -0.3369 -0.0650 -0.2622
 2084SOL    HW112088   6.935   1.012  10.333 -0.6388  1.0075  0.0856
 2084SOL    HW212089   6.862   0.951  10.450 -0.2248 -0.4609 -0.3996
 2085SOL     OW12090   7.353   8.789   7.802  0.1439 -0.2176 -0.7442
 2085SOL    HW112091   7.430   8.746   7.839  1.0295  1.6148 -0.3512
 2085SOL    HW212092   7.360   8.880   7.831 -2.2501 -0.0159 -0.5981
 2086SOL     OW12093   8.083   8.208   9.368 -0.9064  0.2262  0.0076
 2086SOL    HW112094   8.133   8.141   9.320  2.0020  2.4568 -0.3628
 2086SOL    HW212095   7.992   8.183   9.355 -0.0195 -3.2965 -0.5887
 2087SOL     OW12096   1.926   9.964   9.043 -0.3836 -0.0295 -0.2377
 2087SOL    HW112097   2.007   9.986   8.998 -0.2301  0.2878  0.1812
 2087SOL    HW212098   1.893  10.048   9.076 -0.3478 -0.2805  0.4644
 2088SOL     OW12099  10.119   6.120  10.065 -0.2300  0.0026  0.4013
 2088SOL    HW112100  10.212   6.143  10.069 -0.1513  0.0116 -1.0368
 2088SOL    HW212101  10.118   6.026  10.048 -0.4541  0.1647 -0.5493
 2089SOL     OW12102  10.004   2.933   0.763  0.1118 -0.2629 -0.0925
 2089SOL    HW112103  10.025   2.963   0.852  0.6991 -1.1937  0.1020
 2089SOL    HW212104  10.083   2.952   0.713  0.5325 -1.5001  0.0544
 2090SOL     OW12105   0.475   2.865  10.532 -1.1987  0.1391  0.4474
 2090SOL    HW112106   0.502   2.953  10.504 -0.7637 -0.3631 -0.7751
 2090SOL    HW212107   0.410   2.839  10.467 -1.0561 -0.5789  0.5883
 2091SOL     OW12108  10.045   1.767   8.624  0.3421  0.2340  0.3875
 2091SOL    HW112109  10.010   1.779   8.712 -1.4554  0.6016 -0.3264
 2091SOL    HW212110  10.039   1.673   8.608 -0.3421  0.2885  0.2861
 2092SOL     OW12111   9.923   4.233   2.389 -0.0095  0.7495  0.3562
 2092SOL    HW112112   9.915   4.137   2.392 -0.2960  0.7957  1.0222
 2092SOL    HW212113   9.894   4.256   2.300  2.2692  0.0174 -0.6697
 2093SOL     OW12114   5.017   8.196  10.169 -0.1572 -0.2386 -0.1108
 2093SOL    HW112115   5.046   8.284  10.193  2.3733 -0.8667 -0.5314
 2093SOL    HW212116   5.020   8.195  10.073 -1.9236 -0.2824 -0.1922
 2094SOL     OW12117  10.415   3.098   5.949 -0.6162  0.0717 -0.0836
 2094SOL    HW112118  10.423   3.003   5.954  1.5749  0.2423  3.0240
 2094SOL    HW212119  10.322   3.116   5.959 -0.7543 -1.7894  3.7697
 2095SOL     OW12120   0.471   0.155   6.737  0.5518  0.1859  0.3319
 2095SOL    HW112121   0.479   0.136   6.830  1.4881 -1.7130 -0.0880
 2095SOL    HW212122   0.382   0.188   6.727  0.9471  2.0159  2.1152
 2096SOL     OW12123   3.167   2.836   9.673  0.1730  0.9522 -0.0243
 2096SOL    HW112124   3.227   2.880   9.613 -0.2514 -1.1441 -2.1466
 2096SOL    HW212125   3.218   2.824   9.754  1.7248  1.4180 -0.8945
 2097SOL     OW12126   0.740   3.408   3.884  0.3480  0.3016 -0.0902
 2097SOL    HW112127   0.695   3.416   3.800 -0.4339 -0.3904  0.2435
 2097SOL    HW212128   0.762   3.498   3.908 -0.1255  0.5774 -0.6623
 2098SOL     OW12129   8.381   1.698   3.217  0.0750 -0.3836 -0.0568
 2098SOL    HW112130   8.333   1.622   3.248 -1.2945  0.9605  1.3196
 2098SOL    HW212131   8.473   1.675   3.230 -0.2815 -1.9903 -0.1770
 2099SOL     OW12132   9.859   4.879   6.759 -0.2415  0.8253  0.5102
 2099SOL    HW112133   9.772   4.881   6.798 -1.0865  0.9594 -1.2742
 2099SOL    HW212134   9.853   4.937   6.683  1.2154  0.2990 -0.0530
 2100SOL     OW12135   9.990   7.049   0.422 -0.2066  0.3744 -0.4627
 2100SOL    HW112136   9.989   7.101   0.342 -2.0191  1.0283 -0.0566
 2100SOL    HW212137  10.076   7.006   0.422 -0.0974  0.5018 -2.6417
 2101SOL     OW12138   6.799   2.523   2.868  0.5442 -0.3156  0.3046
 2101SOL    HW112139   6.856   2.577   2.922  1.8648  0.1552 -1.4535
 2101SOL    HW212140   6.794   2.569   2.784 -1.4761 -0.9751 -0.0016
 2102SOL     OW12141   6.766   3.070   5.230  0.3938 -0.4533 -0.3789
 2102SOL    HW112142   6.794   3.040   5.317 -0.9405 -1.4263 -0.2578
 2102SOL    HW212143   6.831   3.136   5.205  2.2675 -1.9870  0.2451
 2103SOL     OW12144   9.472   0.306   8.543  0.1543 -0.2197 -0.5177
 2103SOL    HW112145   9.538   0.237   8.540 -0.5029 -0.9334  0.4613
 2103SOL    HW212146   9.506   0.370   8.604 -0.4852 -1.1063  0.8295
 2104SOL     OW12147   7.391   7.218   3.887  0.0353 -0.3581 -0.3762
 2104SOL    HW112148   7.423   7.151   3.826 -0.7947 -1.5757  0.4585
 2104SOL    HW212149   7.437   7.199   3.969  1.7791  1.7882 -0.7865
 2105SOL     OW12150   5.551   7.773  10.118 -0.0797 -0.7909  0.1189
 2105SOL    HW112151   5.542   7.680  10.140 -1.2929 -1.3424 -2.3585
 2105SOL    HW212152   5.461   7.804  10.109  0.3045 -0.0453 -1.5145
 2106SOL     OW12153   3.697   2.855   3.248  0.3775  0.2852 -0.1493
 2106SOL    HW112154   3.671   2.820   3.333  0.9992 -1.9234 -0.7889
 2106SOL    HW212155   3.618   2.893   3.211 -0.2879 -0.2058  0.7516
 2107SOL     OW12156   1.639   3.310   5.117 -0.6491 -0.0082 -0.0543
 2107SOL    HW112157   1.548   3.315   5.085 -0.8027  0.8145  0.4925
 2107SOL    HW212158   1.671   3.400   5.113  0.3011 -0.3617 -0.6556
 2108SOL     OW12159   5.370   9.988   1.997  0.0530 -0.0247 -0.0630
 2108SOL    HW112160   5.375  10.083   2.009 -0.3528  0.2402 -1.6942
 2108SOL    HW212161   5.320   9.957   2.072  1.2607  0.8686  1.1680
 2109SOL     OW12162   1.492   8.428   5.903  0.3967 -0.0505 -0.2493
 2109SOL    HW112163   1.490   8.336   5.876  0.3385  0.0543 -0.6056
 2109SOL    HW212164   1.420   8.468   5.855  2.3493  0.8714 -2.6138
 2110SOL     OW12165   5.812   7.579   5.930 -0.1567  0.0853  0.7804
 2110SOL    HW112166   5.760   7.656   5.952 -3.3377 -1.5328 -0.5086
 2110SOL    HW212167   5.791   7.516   5.998 -0.1419 -0.7047  0.0649
 2111SOL     OW12168   4.257   7.422   7.121  0.0696  0.2798  0.4549
 2111SOL    HW112169   4.345   7.385   7.132 -0.5779 -0.7489  2.5767
 2111SOL    HW212170   4.259   7.460   7.033  1.3739 -3.2044 -1.2159
 2112SOL     OW12171   1.863   7.367   9.464  0.2956  0.1072  0.0902
 2112SOL    HW112172   1.897   7.300   9.524 -1.0414 -0.7948 -0.1209
 2112SOL    HW212173   1.838   7.317   9.386 -1.8336  0.6440  0.3673
 2113SOL     OW12174   2.920   2.592   1.780  0.0669 -0.3326 -0.2601
 2113SOL    HW112175   3.006   2.631   1.766  0.5165 -0.4833  1.7340
 2113SOL    HW212176   2.894   2.622   1.867 -1.7152 -0.6448 -0.6425
 2114SOL     OW12177   4.330   7.151   1.162  0.2350  0.0176 -0.2209
 2114SOL    HW112178   4.256   7.113   1.208  0.4941  0.1316  0.2953
 2114SOL    HW212179   4.347   7.090   1.089 -1.4764  0.9003 -1.4264
 2115SOL     OW12180   4.561   1.081   1.565  0.5264  0.7075 -0.2394
 2115SOL    HW112181   4.603   1.144   1.506  2.3579  0.4653  0.7055
 2115SOL    HW212182   4.616   1.002   1.558 -0.3060  0.0557  0.4090
 2116SOL     OW12183   7.245   1.483   7.340  0.0255  0.3277  0.0036
 2116SOL    HW112184   7.301   1.432   7.398 -0.6441  0.2020  0.5524
 2116SOL    HW212185   7.246   1.434   7.257  1.5093  0.8600 -0.3253
 2117SOL     OW12186   4.159   5.258   1.378 -0.0348  0.1630  0.1288
 2117SOL    HW112187   4.123   5.183   1.426  0.8824 -0.3878 -0.0131
 2117SOL    HW212188   4.161   5.229   1.287 -0.2493  0.5936 -0.0143
 2118SOL     OW12189   2.326   1.099   6.395 -0.1514 -0.4907 -0.1819
 2118SOL    HW112190   2.271   1.074   6.322  1.0794  0.7692 -1.6156
 2118SOL    HW212191   2.406   1.132   6.354  1.3866 -1.5653  1.7812
 2119SOL     OW12192   6.951   5.386   7.605  0.3443 -0.2818  0.2769
 2119SOL    HW112193   7.040   5.422   7.600  0.2750 -0.2795 -1.6711
 2119SOL    HW212194   6.909   5.414   7.524 -1.2228 -0.8771  0.8476
 2120SOL     OW12195   0.027   8.030   2.150  0.1716  0.2852  0.0409
 2120SOL    HW112196   0.045   8.123   2.139 -0.4276  0.1731 -2.6703
 2120SOL    HW212197   0.091   7.986   2.094 -1.8150 -0.6479 -1.6687
 2121SOL     OW12198   1.921   0.017   7.403 -0.0533 -0.1003 -0.5385
 2121SOL    HW112199   1.927   0.067   7.322 -1.8355  0.6604 -0.2366
 2121SOL    HW212200   1.827   0.010   7.421  0.2956  0.4514  1.8697
 2122SOL     OW12201   5.458   0.255   0.323  0.6032  0.6705  0.4711
 2122SOL    HW112202   5.390   0.237   0.389 -1.6017 -0.9171 -2.0263
 2122SOL    HW212203   5.511   0.175   0.321  1.3874  1.1585  1.0546
 2123SOL     OW12204  10.130   4.818   1.955  0.1648  0.0003  0.0827
 2123SOL    HW112205  10.146   4.796   2.047 -0.4402  0.8290  0.3926
 2123SOL    HW212206  10.185   4.756   1.906 -0.7852 -1.5824  0.9386
 2124SOL     OW12207   9.742   5.425  10.077 -0.2837  0.6479  0.3161
 2124SOL    HW112208   9.666   5.467  10.036 -0.4617  0.0485  0.0233
 2124SOL    HW212209   9.807   5.420  10.006 -1.6189 -3.1019 -0.8665
 2125SOL     OW12210   3.118   8.304   4.968 -0.3973  0.3157  0.1587
 2125SOL    HW112211   3.036   8.255   4.958 -0.3485  0.2595  0.0285
 2125SOL    HW212212   3.150   8.280   5.055 -0.4933  0.2991  0.1895
 2126SOL     OW12213   4.057   9.143   8.622 -0.0772  0.4905  0.3772
 2126SOL    HW112214   3.983   9.082   8.628  0.1360  0.3120  1.2723
 2126SOL    HW212215   4.036   9.198   8.547  0.0078 -1.0370 -0.8090
 2127SOL     OW12216   7.956   0.293   7.721  0.6619  0.1271 -0.2038
 2127SOL    HW112217   8.036   0.250   7.752  0.7908  0.2561 -0.3545
 2127SOL    HW212218   7.907   0.224   7.676  1.1529  0.2680 -0.9849
 2128SOL     OW12219   9.456   3.774  10.719 -0.1603  0.2382  0.3269
 2128SOL    HW112220   9.513   3.782  10.642  0.3942  0.8986  0.7943
 2128SOL    HW212221   9.509   3.729  10.784 -1.4328 -2.6148 -0.4354
 2129SOL     OW12222   5.163   1.653   6.772  0.0429 -0.1537 -0.2487
 2129SOL    HW112223   5.104   1.593   6.818  0.1170 -0.2176 -0.2364
 2129SOL    HW212224   5.227   1.595   6.730 -1.2427 -0.2346 -2.1960
 2130SOL     OW12225   8.731   8.622   6.562  0.2491 -0.0500 -0.2211
 2130SOL    HW112226   8.653   8.577   6.596  0.3309 -0.8470 -1.0425
 2130SOL    HW212227   8.698   8.707   6.532 -0.4160 -0.5669 -0.9988
 2131SOL     OW12228   7.178   2.134   8.759 -0.0359  0.4319  0.0022
 2131SOL    HW112229   7.241   2.187   8.807  0.6676 -0.1229 -0.2990
 2131SOL    HW212230   7.158   2.185   8.681  1.6996 -0.3094 -0.9949
 2132SOL     OW12231   5.221   7.185   2.262  0.0413 -0.1332  0.6125
 2132SOL    HW112232   5.139   7.221   2.229  0.5539  0.0437 -0.5236
 2132SOL    HW212233   5.219   7.093   2.236  0.7863  0.1843 -0.6176
 2133SOL     OW12234   2.338   6.378   0.058  0.1154  0.6645 -0.1095
 2133SOL    HW112235   2.283   6.446   0.021 -1.8631 -0.2807  0.9411
 2133SOL    HW212236   2.395   6.424   0.120 -0.2208  1.5332 -0.4315
 2134SOL     OW12237   6.338   9.121   8.090 -0.0605 -0.1399 -0.2129
 2134SOL    HW112238   6.282   9.044   8.104 -1.0132  0.7534  1.0315
 2134SOL    HW212239   6.422   9.096   8.127 -0.2085 -0.7563 -0.2685
 2135SOL     OW12240   4.964   2.532   7.787  0.6435  0.1590  0.5727
 2135SOL    HW112241   4.948   2.471   7.715 -1.0202 -0.0047  1.0429
 2135SOL    HW212242   5.058   2.548   7.784  1.0361 -1.9879  0.0807
 2136SOL     OW12243   3.817   7.110   9.242 -0.2129  0.8410  0.3351
 2136SOL    HW112244   3.873   7.184   9.216  1.9366 -1.1251 -1.0425
 2136SOL    HW212245   3.851   7.082   9.327  0.2173  0.3117 -0.0048
 2137SOL     OW12246   5.383   8.983   0.494  0.1938 -0.0764 -0.0127
 2137SOL    HW112247   5.389   8.980   0.589  1.7984  0.0531 -0.0776
 2137SOL    HW212248   5.322   8.912   0.472  0.1607 -0.4108  1.0841
 2138SOL     OW12249   5.566   6.175   6.082 -0.3796  0.3702 -0.0447
 2138SOL    HW112250   5.589   6.170   5.989  1.0000 -0.4979  0.3075
 2138SOL    HW212251   5.551   6.084   6.107 -0.0683  0.5343  0.7446
 2139SOL     OW12252   7.120   7.030   9.615 -0.5086 -0.2468  0.1794
 2139SOL    HW112253   7.100   7.049   9.523 -0.4458 -1.2631 -0.0535
 2139SOL    HW212254   7.036   7.002   9.652 -0.5137  0.0696  0.4131
 2140SOL     OW12255   9.591   3.199   6.445 -0.1918  0.4218 -0.4757
 2140SOL    HW112256   9.577   3.108   6.419 -0.1766  0.2542  0.0834
 2140SOL    HW212257   9.660   3.194   6.512 -0.8375  0.7480  0.2232
 2141SOL     OW12258   9.960   1.515   9.422 -0.2884 -0.0629  0.7919
 2141SOL    HW112259  10.028   1.520   9.488  0.2788  1.2605  0.1302
 2141SOL    HW212260   9.938   1.606   9.401 -0.6697 -0.4404 -0.6077
 2142SOL     OW12261   5.699   4.450   2.099 -0.1902  0.2768  0.4923
 2142SOL    HW112262   5.718   4.356   2.102 -1.6125 -0.0096  2.1963
 2142SOL    HW212263   5.752   4.487   2.170 -0.5350  0.5774  0.5956
 2143SOL     OW12264   8.525   0.538   9.541  0.1029  0.0391 -0.1839
 2143SOL    HW112265   8.533   0.505   9.630 -1.5476  2.2971  0.8925
 2143SOL    HW212266   8.612   0.528   9.503  1.0107 -0.3234  1.9078
 2144SOL     OW12267   7.757   7.902  10.672 -0.1952 -0.2615  0.3960
 2144SOL    HW112268   7.801   7.824  10.706  0.4785 -0.1071 -0.1119
 2144SOL    HW212269   7.806   7.975  10.710  0.6453 -0.0809 -0.9566
 2145SOL     OW12270   7.426   6.779   8.644  0.0383  0.3068 -0.3741
 2145SOL    HW112271   7.487   6.838   8.600 -0.8134  1.5347  0.0449
 2145SOL    HW212272   7.410   6.820   8.729 -1.0718 -0.1907 -0.3222
 2146SOL     OW12273   0.286   5.770   1.248 -0.1231  0.4970  0.2727
 2146SOL    HW112274   0.228   5.792   1.176 -0.3099  1.0244  0.5781
 2146SOL    HW212275   0.336   5.850   1.264 -0.2979  0.4854  0.9244
 2147SOL     OW12276   0.330   9.562   4.127  0.1217  0.0525 -0.4804
 2147SOL    HW112277   0.349   9.573   4.220  0.2993  1.1482 -0.6311
 2147SOL    HW212278   0.290   9.645   4.101  0.5769 -0.0367 -1.5021
 2148SOL     OW12279   2.011   7.265   2.453 -0.1142  0.0549  0.3251
 2148SOL    HW112280   2.105   7.245   2.453 -0.4037 -1.3865  0.0003
 2148SOL    HW212281   1.972   7.200   2.511 -1.3452 -1.6591 -2.2665
 2149SOL     OW12282   7.789   2.013   7.664 -0.3117 -0.1257  0.2978
 2149SOL    HW112283   7.881   2.001   7.639  0.4932  4.0815  0.4769
 2149SOL    HW212284   7.793   2.046   7.754 -1.9341  0.7259  0.0863
 2150SOL     OW12285   5.233   2.991   7.381  0.0562 -0.3179  0.1856
 2150SOL    HW112286   5.142   2.976   7.355 -0.3474  2.3235 -0.2123
 2150SOL    HW212287   5.283   2.978   7.300 -0.3457  0.8324 -0.2822
 2151SOL     OW12288   1.606   9.633  10.271  0.1387  0.6124 -0.5217
 2151SOL    HW112289   1.514   9.624  10.245  0.3911  2.7963 -2.4914
 2151SOL    HW212290   1.627   9.725  10.253  2.2364  0.6401  1.6078
 2152SOL     OW12291   9.775   6.204  10.390  0.3243  0.1625 -0.0211
 2152SOL    HW112292   9.713   6.230  10.322  0.1633  0.7427  0.3392
 2152SOL    HW212293   9.730   6.135  10.439  0.4364 -0.2500 -0.4908
 2153SOL     OW12294  10.364   6.534   1.247 -0.4301  0.0105 -1.0652
 2153SOL    HW112295  10.380   6.611   1.191 -0.3856 -0.2263 -1.3793
 2153SOL    HW212296  10.429   6.470   1.219  0.6601  0.4552  0.3592
 2154SOL     OW12297   6.519   7.198   7.985 -0.3492  0.0148 -0.0218
 2154SOL    HW112298   6.514   7.288   7.954 -0.5402  0.3470  0.9576
 2154SOL    HW212299   6.579   7.155   7.923 -0.4256  0.7463 -0.6179
 2155SOL     OW12300   3.784  10.164   0.301  0.0773 -0.1129 -0.6746
 2155SOL    HW112301   3.840  10.236   0.274  0.9792  0.1395  1.6216
 2155SOL    HW212302   3.839  10.110   0.358 -1.8286 -0.1303  1.2902
 2156SOL     OW12303   3.016   9.699   0.279 -0.4303 -0.5780  0.7195
 2156SOL    HW112304   2.955   9.655   0.339  0.8007 -0.4879  2.0927
 2156SOL    HW212305   3.081   9.632   0.259  0.6395  0.1506  1.6419
 2157SOL     OW12306   4.249   5.926   8.409 -0.2807 -0.1835 -0.0100
 2157SOL    HW112307   4.321   5.868   8.432 -0.2891  0.1032  0.7570
 2157SOL    HW212308   4.178   5.902   8.469 -0.7847 -0.3765 -0.6658
 2158SOL     OW12309   0.821   5.500   3.163  0.5666  1.0466  0.0146
 2158SOL    HW112310   0.768   5.575   3.138  0.3447  1.0865  0.5963
 2158SOL    HW212311   0.901   5.510   3.112 -0.6586  0.0201 -2.2677
 2159SOL     OW12312   2.128   2.848   7.716  0.0225  0.1732  0.0511
 2159SOL    HW112313   2.156   2.940   7.718 -0.5649  0.3865 -0.8566
 2159SOL    HW212314   2.150   2.814   7.802  2.0960  0.6258 -0.2446
 2160SOL     OW12315   3.734   5.251   1.269 -0.3160  0.0955  0.5041
 2160SOL    HW112316   3.759   5.342   1.251 -0.1568 -0.3081 -1.5659
 2160SOL    HW212317   3.639   5.249   1.253 -0.2770 -0.1510  0.3032
 2161SOL     OW12318   3.127   4.509   0.526  0.1140  1.0976  0.0362
 2161SOL    HW112319   3.209   4.558   0.522  1.7311 -1.3550  0.7569
 2161SOL    HW212320   3.109   4.487   0.434  0.8778  0.7286 -0.0346
 2162SOL     OW12321   9.535   3.902   5.275  0.3292 -0.5133  0.6566
 2162SOL    HW112322   9.526   3.811   5.246  0.6365 -1.4171  3.1305
 2162SOL    HW212323   9.488   3.953   5.209  0.1134 -2.4479 -0.7824
 2163SOL     OW12324   3.140   1.080   0.675  0.2520 -0.3865 -0.2188
 2163SOL    HW112325   3.063   1.035   0.710 -0.0538 -0.4733 -0.9781
 2163SOL    HW212326   3.105   1.134   0.604  0.8464 -0.1491 -0.3315
 2164SOL     OW12327   1.245   9.266   8.141 -0.2964  0.3504  0.0758
 2164SOL    HW112328   1.224   9.173   8.153 -0.7703  0.4299 -0.1381
 2164SOL    HW212329   1.163   9.312   8.158  0.3871  0.9003  2.2214
 2165SOL     OW12330   9.094   2.201   2.180  0.0895  0.1076  0.2271
 2165SOL    HW112331   9.159   2.271   2.171  0.9903 -0.5986  1.0285
 2165SOL    HW212332   9.140   2.121   2.154 -1.1397 -0.1299 -1.3906
 2166SOL     OW12333   1.361   5.701   9.674 -0.4481  0.0188 -0.0873
 2166SOL    HW112334   1.308   5.763   9.725 -0.5384  1.4333 -1.8236
 2166SOL    HW212335   1.427   5.670   9.736 -0.3565  1.9095  0.8342
 2167SOL     OW12336   4.654   9.756   6.193 -0.5428 -0.2613 -0.3178
 2167SOL    HW112337   4.572   9.725   6.155  0.2155 -2.2089 -0.4806
 2167SOL    HW212338   4.662   9.710   6.276 -0.1897  0.8398  0.2808
 2168SOL     OW12339   4.025   6.364   5.803 -0.1342  0.4291  0.2689
 2168SOL    HW112340   4.053   6.437   5.748 -2.0238  0.2406 -1.0283
 2168SOL    HW212341   3.993   6.406   5.883  1.3544  0.7924  0.7168
 2169SOL     OW12342  10.569   8.222   8.563  0.1467 -0.3752 -0.3558
 2169SOL    HW112343  10.519   8.143   8.585 -1.2484  0.5195 -0.1898
 2169SOL    HW212344  10.583   8.265   8.648  1.8978 -0.9660 -0.2971
 2170SOL     OW12345   7.003   7.503   5.123 -0.5256  0.3581 -0.6979
 2170SOL    HW112346   7.077   7.550   5.161  0.5980 -1.9225  0.1564
 2170SOL    HW212347   7.038   7.468   5.041 -0.9667  0.0892 -0.7714
 2171SOL     OW12348   5.626   6.835   6.715  0.0309 -0.2405  0.4840
 2171SOL    HW112349   5.645   6.758   6.768 -0.6081 -1.0118 -0.3891
 2171SOL    HW212350   5.590   6.898   6.777  0.5159 -0.6574  1.1967
 2172SOL     OW12351   7.660   2.742   8.439 -0.2761  0.5540  0.0022
 2172SOL    HW112352   7.610   2.798   8.499 -0.3139 -0.7582  1.2769
 2172SOL    HW212353   7.672   2.795   8.360 -1.3084  1.8998  0.7025
 2173SOL     OW12354   3.748   0.256   9.011  0.5492  0.7001  0.0864
 2173SOL    HW112355   3.745   0.352   9.005 -2.2393  0.8326  1.6131
 2173SOL    HW212356   3.700   0.236   9.091  2.1595 -1.9797  0.4963
 2174SOL     OW12357   8.722   7.473   3.248 -0.4918 -0.5202 -0.0372
 2174SOL    HW112358   8.710   7.510   3.161 -0.8720 -1.1743 -0.2684
 2174SOL    HW212359   8.747   7.548   3.302 -0.1984 -0.1195 -0.7138
 2175SOL     OW12360   0.190   3.139   4.247  0.1597  0.5956  0.5496
 2175SOL    HW112361   0.106   3.139   4.292 -0.0276  2.1221  0.2546
 2175SOL    HW212362   0.207   3.231   4.227  1.3333  0.1958 -0.4570
 2176SOL     OW12363   2.392   7.933   5.389  0.0497 -0.4780 -0.3753
 2176SOL    HW112364   2.481   7.913   5.416  0.0388 -1.1332 -0.8201
 2176SOL    HW212365   2.402   7.995   5.317  0.0762  1.4242  1.1696
 2177SOL     OW12366   7.392   5.383   3.365  0.3452 -0.1793 -0.6549
 2177SOL    HW112367   7.424   5.300   3.329  0.2861 -0.6579  0.3584
 2177SOL    HW212368   7.422   5.383   3.455  1.2981  1.4410 -0.9381
 2178SOL     OW12369   9.550   5.012   5.359  0.4295 -0.1602  0.6765
 2178SOL    HW112370   9.559   4.917   5.359  1.5370 -0.1350 -1.7597
 2178SOL    HW212371   9.469   5.029   5.312  0.6340  0.1149  0.4210
 2179SOL     OW12372   9.433   0.200   3.877  0.3273 -0.2125 -0.1398
 2179SOL    HW112373   9.475   0.114   3.876 -0.2601 -0.4964 -0.8061
 2179SOL    HW212374   9.366   0.193   3.944  1.1947  0.1861  0.8018
 2180SOL     OW12375   3.387   7.729   3.503 -0.0681 -0.5574  0.9564
 2180SOL    HW112376   3.312   7.694   3.454 -0.2482 -0.2399  1.0028
 2180SOL    HW212377   3.403   7.665   3.572  1.4750 -2.0891 -0.7100
 2181SOL     OW12378   8.026   8.156   0.634 -0.0522 -0.2835 -0.4558
 2181SOL    HW112379   7.995   8.085   0.690  1.5248  0.8651  2.0245
 2181SOL    HW212380   8.100   8.194   0.681  0.3170  1.8635 -2.5590
 2182SOL     OW12381   9.048  10.644   5.437  0.4331  0.4350 -0.6659
 2182SOL    HW112382   8.967  10.693   5.448  0.1968  0.2129 -1.3231
 2182SOL    HW212383   9.050  10.622   5.344  0.4340 -0.9469 -0.3664
 2183SOL     OW12384   6.512   8.230   3.260  0.3161 -0.3065 -0.4374
 2183SOL    HW112385   6.593   8.187   3.231 -0.6422 -2.0308 -0.7308
 2183SOL    HW212386   6.529   8.256   3.351  0.3151 -3.2799  0.5261
 2184SOL     OW12387   2.742  10.693   0.828 -0.0926 -0.2197  0.3536
 2184SOL    HW112388   2.790  10.683   0.911  0.8189  2.7485  0.3126
 2184SOL    HW212389   2.660  10.737   0.853  2.4647  6.1717 -0.4589
 2185SOL     OW12390   4.016   2.548  10.377  0.7358 -0.3310 -0.2742
 2185SOL    HW112391   4.059   2.466  10.402 -0.4524 -0.6660  0.7621
 2185SOL    HW212392   4.080   2.616  10.399  0.7990 -0.8258  1.1382
 2186SOL     OW12393   6.420   2.619   1.540 -0.0899 -0.8925 -0.6364
 2186SOL    HW112394   6.346   2.679   1.545 -0.7185 -1.7345  0.7571
 2186SOL    HW212395   6.451   2.611   1.630  2.8350  0.7691 -1.3737
 2187SOL     OW12396   1.083   8.967  10.063  0.1371 -0.1703 -0.7306
 2187SOL    HW112397   1.171   8.979  10.099  0.3775 -1.6664 -0.7499
 2187SOL    HW212398   1.094   8.980   9.969 -0.2464  2.4660 -0.4822
 2188SOL     OW12399   0.136   3.295   0.152  0.6484 -0.0107  0.1700
 2188SOL    HW112400   0.206   3.352   0.184 -0.6308  1.4554  0.5328
 2188SOL    HW212401   0.124   3.230   0.221  1.9384 -0.5571 -0.1041
 2189SOL     OW12402   8.548   2.241   9.395 -0.1654 -0.3722 -0.1294
 2189SOL    HW112403   8.553   2.199   9.309  0.9326  0.3259 -0.4209
 2189SOL    HW212404   8.634   2.279   9.408 -0.7574  0.7624  0.6528
 2190SOL     OW12405   6.619   3.383   1.733  0.1173  0.0005 -0.2211
 2190SOL    HW112406   6.679   3.457   1.738  0.9521 -0.7379  2.2416
 2190SOL    HW212407   6.675   3.308   1.712 -0.4603 -0.2333 -0.9947
 2191SOL     OW12408   4.528   8.162   8.857 -0.1217  0.2048 -0.4583
 2191SOL    HW112409   4.449   8.217   8.848 -0.7102 -0.3464  1.0422
 2191SOL    HW212410   4.542   8.156   8.951  1.1338 -0.5517 -0.6792
 2192SOL     OW12411   7.372   3.559   4.748  0.3245  0.0986 -0.1390
 2192SOL    HW112412   7.320   3.572   4.669  0.8878  0.1052 -0.5176
 2192SOL    HW212413   7.430   3.486   4.728  1.7666  1.2629 -0.4310
 2193SOL     OW12414   3.090   5.962   6.852 -1.0144  0.7688 -0.1986
 2193SOL    HW112415   3.042   6.005   6.923 -0.8499 -0.2416  0.5538
 2193SOL    HW212416   3.040   5.881   6.835 -0.3524  0.3891 -0.3679
 2194SOL     OW12417   8.510   1.776   0.638  0.2023 -0.0179 -0.0393
 2194SOL    HW112418   8.461   1.827   0.703 -0.4785 -0.7080 -0.0083
 2194SOL    HW212419   8.449   1.765   0.565  0.2577 -0.9869  0.0484
 2195SOL     OW12420   1.362   0.438   5.421 -0.5598  0.2321  0.1014
 2195SOL    HW112421   1.348   0.374   5.490 -1.4389 -0.5663 -0.7941
 2195SOL    HW212422   1.442   0.484   5.447 -1.7684  1.1317  2.5286
 2196SOL     OW12423   7.495   1.839   9.195  0.6422  0.3589  0.6068
 2196SOL    HW112424   7.582   1.864   9.163  1.3572 -1.0525  1.3663
 2196SOL    HW212425   7.491   1.745   9.181 -1.1105  0.5162 -0.1758
 2197SOL     OW12426   4.331   5.353   4.120  0.6429  0.1745  0.1716
 2197SOL    HW112427   4.297   5.264   4.134  0.2526  0.2271 -0.4047
 2197SOL    HW212428   4.346   5.358   4.026  0.3226  0.8382  0.1538
 2198SOL     OW12429  10.380  10.137   3.299 -0.1127  0.4379 -0.3478
 2198SOL    HW112430  10.403  10.084   3.223 -1.2379 -1.7360  0.7549
 2198SOL    HW212431  10.352  10.074   3.365 -0.5879  2.3591  1.3812
 2199SOL     OW12432   7.016   5.865   6.218  0.2771 -0.5668  0.1771
 2199SOL    HW112433   6.960   5.897   6.147  1.5192 -1.0798 -1.0774
 2199SOL    HW212434   7.081   5.935   6.231  0.2701 -0.6299  0.5717
 2200SOL     OW12435   2.624   7.016   9.452  0.5986  0.1791  0.1357
 2200SOL    HW112436   2.575   6.954   9.398  0.2036  0.3230  0.3231
 2200SOL    HW212437   2.682   7.060   9.391 -1.1397  1.6724 -0.5436
 2201SOL     OW12438   6.249   3.534   1.839 -0.3190  0.1088  0.2594
 2201SOL    HW112439   6.242   3.439   1.842 -2.0624  0.2083  0.8270
 2201SOL    HW212440   6.327   3.555   1.891  0.0819 -0.9928  0.1229
 2202SOL     OW12441   3.862   9.114   6.153 -0.3303  0.2506  0.4152
 2202SOL    HW112442   3.848   9.019   6.151  0.7490  0.0800 -1.4502
 2202SOL    HW212443   3.783   9.151   6.113 -0.7973  0.1754  1.2368
 2203SOL     OW12444   5.376   4.763   9.992 -0.4077 -0.8120  0.6265
 2203SOL    HW112445   5.303   4.708  10.020  0.9538 -2.5068  1.0913
 2203SOL    HW212446   5.408   4.721   9.912  0.2416 -0.2815  0.6004
 2204SOL     OW12447   4.922   1.843   4.845 -0.6098  0.3092  0.0699
 2204SOL    HW112448   4.990   1.784   4.877  0.8405  0.9253 -1.6770
 2204SOL    HW212449   4.970   1.912   4.800 -2.3769  1.1974 -0.5477
 2205SOL     OW12450   5.720   0.997   2.391  0.5622  0.1377  0.1749
 2205SOL    HW112451   5.777   1.070   2.415 -0.5260  0.9861  0.2766
 2205SOL    HW212452   5.710   0.947   2.471  1.8842 -0.5462 -0.0657
 2206SOL     OW12453   6.366   0.549   3.396 -0.0999 -0.2445  0.5192
 2206SOL    HW112454   6.344   0.574   3.306  0.0733  0.4049  0.6513
 2206SOL    HW212455   6.342   0.457   3.402 -1.8247  0.1459  0.3348
 2207SOL     OW12456  10.610   7.187   0.290  0.9451  0.0063 -0.1765
 2207SOL    HW112457  10.639   7.147   0.372  1.2707 -0.3476 -0.4598
 2207SOL    HW212458  10.551   7.121   0.251 -0.4368  0.7941  0.4942
 2208SOL     OW12459   1.011   6.074   1.921 -0.0450  0.2036  0.6385
 2208SOL    HW112460   1.105   6.089   1.935 -0.1680  1.2455  0.4818
 2208SOL    HW212461   0.980   6.157   1.884 -0.9638 -0.2524  0.3789
 2209SOL     OW12462   4.277   3.531   5.861  0.3429  0.0365  0.1689
 2209SOL    HW112463   4.187   3.502   5.849  0.9157 -1.2739 -1.1330
 2209SOL    HW212464   4.268   3.624   5.883 -1.3517 -0.2605  0.9239
 2210SOL     OW12465  10.489   3.239   1.038 -0.5407  0.1300 -0.2280
 2210SOL    HW112466  10.450   3.163   1.080 -0.2053  0.1222  0.0769
 2210SOL    HW212467  10.422   3.270   0.978 -0.7018 -0.3691 -0.3107
 2211SOL     OW12468   0.322   4.441   4.144 -0.3257  0.0849  0.0511
 2211SOL    HW112469   0.263   4.506   4.183 -0.3817  3.2971 -4.5704
 2211SOL    HW212470   0.406   4.486   4.139  0.7467 -1.8217  0.2609
 2212SOL     OW12471   7.690   8.453   6.938  0.0252  0.1395  0.2831
 2212SOL    HW112472   7.651   8.479   6.854 -2.0742 -3.0177  0.1234
 2212SOL    HW212473   7.776   8.418   6.914  0.0212  0.5369 -0.3504
 2213SOL     OW12474   0.597   2.649   1.687 -0.0503 -0.5238  0.4561
 2213SOL    HW112475   0.546   2.719   1.728 -1.3978  0.5074 -2.7272
 2213SOL    HW212476   0.534   2.578   1.673  0.6098 -1.2225  0.9005
 2214SOL     OW12477   2.568   8.824   2.446  0.3780 -0.3206  0.2264
 2214SOL    HW112478   2.503   8.895   2.446 -0.0663 -0.7241 -0.2231
 2214SOL    HW212479   2.518   8.746   2.469  0.8505 -0.5120  0.6183
 2215SOL     OW12480   8.553  10.673   7.009 -0.3014 -0.0490  0.6803
 2215SOL    HW112481   8.462  10.694   7.030 -0.3783  0.4130 -0.0956
 2215SOL    HW212482   8.547  10.611   6.937 -0.0022 -0.3727  0.9315
 2216SOL     OW12483   0.519   9.356   2.750 -0.0411  0.5792  0.2096
 2216SOL    HW112484   0.500   9.338   2.842  0.1796 -0.1790  0.1183
 2216SOL    HW212485   0.495   9.447   2.737  3.2021  1.8186  1.9145
 2217SOL     OW12486   5.798   4.086   1.425  0.1617 -0.2848 -0.2266
 2217SOL    HW112487   5.713   4.112   1.462  0.8525 -0.9173  1.9782
 2217SOL    HW212488   5.856   4.078   1.501  2.2230  0.0988 -1.6543
 2218SOL     OW12489   3.797   8.948   2.144 -0.4503 -0.6054  0.1350
 2218SOL    HW112490   3.807   9.018   2.079 -1.4583  0.4633  1.0878
 2218SOL    HW212491   3.826   8.869   2.098  0.8244  0.4372 -0.9325
 2219SOL     OW12492   1.396   0.241   3.875 -0.3714  0.0852  0.0436
 2219SOL    HW112493   1.465   0.278   3.821 -1.4977  0.8472 -0.9195
 2219SOL    HW212494   1.442   0.186   3.939  1.1128  0.6915 -0.4685
 2220SOL     OW12495   4.477   3.363   5.764 -0.2481 -0.1592 -0.1199
 2220SOL    HW112496   4.442   3.292   5.817  0.5324 -0.0757  0.5349
 2220SOL    HW212497   4.413   3.434   5.772  0.3534  0.2295  1.5942
 2221SOL     OW12498   1.437   2.661   6.275 -0.6026 -0.1794 -0.2514
 2221SOL    HW112499   1.515   2.696   6.317 -1.5965  1.8047  0.0978
 2221SOL    HW212500   1.461   2.573   6.247  1.0976 -0.3674  1.6062
 2222SOL     OW12501   7.342  10.609  10.651  0.0866 -0.4429  0.2206
 2222SOL    HW112502   7.330  10.684  10.593  1.1150  0.3774  1.0211
 2222SOL    HW212503   7.255  10.569  10.657 -0.2322 -0.0179 -1.1403
 2223SOL     OW12504   6.605  10.113   3.425  0.4090 -0.6776  0.0360
 2223SOL    HW112505   6.559  10.031   3.407 -0.8840 -0.2287  1.1353
 2223SOL    HW212506   6.696  10.087   3.440 -0.0006 -1.9206  0.4826
 2224SOL     OW12507   6.985  10.218  10.350  0.0399 -0.2140  0.0894
 2224SOL    HW112508   6.974  10.164  10.272 -1.3099 -0.3524  0.3548
 2224SOL    HW212509   7.079  10.235  10.354  0.0446  0.7670 -2.2273
 2225SOL     OW12510   4.405   2.119   1.349 -0.0225  0.8064 -0.6653
 2225SOL    HW112511   4.435   2.171   1.423  0.8427  0.9759 -1.1201
 2225SOL    HW212512   4.311   2.137   1.343 -0.6261 -1.0317  1.8254
 2226SOL     OW12513   9.804   0.447  10.722  0.1389  0.0045  0.0103
 2226SOL    HW112514   9.718   0.487  10.712 -1.0044 -1.5563  2.6340
 2226SOL    HW212515   9.792   0.356  10.694  1.0476 -0.1422  0.0412
 2227SOL     OW12516   9.582   8.650   6.088  0.1960  0.1954 -0.5306
 2227SOL    HW112517   9.519   8.578   6.089  0.8371 -0.3806 -0.8704
 2227SOL    HW212518   9.552   8.709   6.157  0.3309 -0.9944  0.6029
 2228SOL     OW12519   7.802  10.603   5.421 -0.1006  0.1850 -1.0188
 2228SOL    HW112520   7.844  10.640   5.499 -0.3526  0.7129 -1.1290
 2228SOL    HW212521   7.830  10.661   5.349 -2.2752  1.5142 -0.8636
 2229SOL     OW12522   9.956   2.523   5.073  0.1979 -0.2870 -0.3422
 2229SOL    HW112523   9.906   2.579   5.132  0.9734  0.0178  0.0514
 2229SOL    HW212524   9.891   2.470   5.028 -0.5414  0.7972 -0.5833
 2230SOL     OW12525   2.851   8.077   1.992 -0.1207 -0.1059 -0.3665
 2230SOL    HW112526   2.818   8.028   1.917 -2.9296  1.3589 -0.2147
 2230SOL    HW212527   2.854   8.014   2.063 -1.0103 -0.6917 -0.8326
 2231SOL     OW12528   2.403  10.236   1.331 -0.1549  0.5227 -0.2249
 2231SOL    HW112529   2.365  10.152   1.306  0.6185 -0.4127  1.5864
 2231SOL    HW212530   2.355  10.263   1.409 -1.2265  2.4305 -1.4436
 2232SOL     OW12531  10.354   2.535   4.979 -0.1621  0.3082  0.1475
 2232SOL    HW112532  10.293   2.607   4.966 -1.4322 -0.7887 -0.2138
 2232SOL    HW212533  10.425   2.552   4.917 -1.3481  0.3100 -1.2648
 2233SOL     OW12534   7.284  10.375   7.975  0.4127  0.7630 -0.3301
 2233SOL    HW112535   7.216  10.376   7.907 -0.3255  0.0365  0.3660
 2233SOL    HW212536   7.291  10.466   8.003  0.9693  1.1381 -1.5895
 2234SOL     OW12537   9.673   4.437   3.844  0.0905  0.7715  0.0532
 2234SOL    HW112538   9.579   4.432   3.831 -0.2362 -2.1445  2.4585
 2234SOL    HW212539   9.711   4.413   3.760 -1.2589  1.8833 -0.9172
 2235SOL     OW12540   6.337   5.557   5.492 -0.2135  0.5959 -0.4030
 2235SOL    HW112541   6.380   5.642   5.496 -1.9171  1.4414  2.5459
 2235SOL    HW212542   6.409   5.495   5.479  1.4240  2.2465  0.3179
 2236SOL     OW12543   5.544   5.850   0.736  0.0664 -0.3005  0.3040
 2236SOL    HW112544   5.595   5.792   0.792 -1.8067 -0.1395  2.2728
 2236SOL    HW212545   5.484   5.792   0.689  1.0059 -0.3320 -0.9218
 2237SOL     OW12546   2.538   1.697   7.501  0.4839 -0.6368  0.6076
 2237SOL    HW112547   2.530   1.603   7.489 -0.6000 -0.7255  1.7803
 2237SOL    HW212548   2.450   1.726   7.524  0.2495  1.0676 -2.0148
 2238SOL     OW12549   2.666   7.522   3.084 -0.0367  0.1974  0.5227
 2238SOL    HW112550   2.648   7.585   3.014  0.5709 -0.3970 -0.1799
 2238SOL    HW212551   2.753   7.488   3.064 -0.6918 -1.5166  0.3855
 2239SOL     OW12552   5.998   7.258   8.133  0.4695  0.2059  0.2871
 2239SOL    HW112553   5.921   7.213   8.097  0.2342 -0.1832  1.2349
 2239SOL    HW212554   5.973   7.280   8.223  0.6317  2.1425 -0.0929
 2240SOL     OW12555   4.135   3.127   1.634  1.3716  0.0637  0.0803
 2240SOL    HW112556   4.125   3.039   1.671  2.0535  0.1209  0.4257
 2240SOL    HW212557   4.046   3.155   1.614  0.9998 -0.0516  1.4907
 2241SOL     OW12558   8.603   4.189   8.000 -0.1677  0.6299  0.5894
 2241SOL    HW112559   8.605   4.236   7.916  0.6088  1.6438  1.1656
 2241SOL    HW212560   8.511   4.192   8.026 -0.6841 -0.8848 -0.8567
 2242SOL     OW12561   1.756   3.225   7.395  0.1677  0.0287  0.3208
 2242SOL    HW112562   1.777   3.132   7.396  1.9687  0.3946 -0.2768
 2242SOL    HW212563   1.759   3.249   7.302  0.8006  0.8932  0.5508
 2243SOL     OW12564   6.104   7.013   5.558  0.5614 -0.4696 -0.0583
 2243SOL    HW112565   6.180   7.063   5.529  0.6130 -0.9842 -0.8158
 2243SOL    HW212566   6.044   7.015   5.484  0.5304 -1.4653 -0.0675
 2244SOL     OW12567   2.597   6.771   9.290  0.0725 -0.2746 -0.0088
 2244SOL    HW112568   2.554   6.727   9.363 -0.6121  1.0211  0.4052
 2244SOL    HW212569   2.558   6.731   9.212 -0.0283 -0.8726  0.3390
 2245SOL     OW12570   8.059   4.926   0.794 -0.1312  0.0312 -0.2266
 2245SOL    HW112571   8.026   4.837   0.805  0.3295 -0.2351 -0.9711
 2245SOL    HW212572   8.023   4.974   0.869 -0.0592 -0.8702  0.4047
 2246SOL     OW12573   1.334   7.536   0.565 -0.8996  0.2955 -0.2935
 2246SOL    HW112574   1.270   7.588   0.518 -1.8634 -1.8594 -1.5041
 2246SOL    HW212575   1.418   7.557   0.525 -1.1434  1.4997 -0.1857
 2247SOL     OW12576   2.326   9.115   4.587 -0.1586  0.2472  0.0725
 2247SOL    HW112577   2.415   9.082   4.591  0.8273  2.5234 -1.2579
 2247SOL    HW212578   2.290   9.076   4.507 -1.1763 -2.3324  1.6692
 2248SOL     OW12579   4.115   8.619   3.225  0.1365 -0.3145 -0.0734
 2248SOL    HW112580   4.140   8.662   3.143 -0.9607  2.3347  0.8661
 2248SOL    HW212581   4.062   8.544   3.197  0.1380  0.2732 -1.8021
 2249SOL     OW12582   0.037  10.101   2.269 -0.1809 -0.4875  0.3392
 2249SOL    HW112583   0.038  10.016   2.226 -0.5002  0.2737 -1.2640
 2249SOL    HW212584   0.021  10.082   2.362 -0.0686 -2.1599  0.0357
 2250SOL     OW12585   1.745   0.237   7.765  0.2196 -0.6327 -0.1657
 2250SOL    HW112586   1.725   0.148   7.795 -0.5194 -0.0144  1.2781
 2250SOL    HW212587   1.839   0.246   7.781 -0.2030 -0.1913  2.5365
 2251SOL     OW12588   3.599   7.529   7.270  0.1533  0.0003 -0.0342
 2251SOL    HW112589   3.594   7.625   7.271 -2.2865 -0.0450 -0.2416
 2251SOL    HW212590   3.548   7.504   7.193 -0.3073 -1.4980  0.7191
 2252SOL     OW12591   5.421   2.361   1.427  0.2764  0.4325 -0.0854
 2252SOL    HW112592   5.479   2.323   1.361 -0.0766 -1.0780  0.4397
 2252SOL    HW212593   5.417   2.296   1.497  0.7947  2.0884  1.5537
 2253SOL     OW12594   9.759   9.391   3.050 -0.0263 -0.0475  0.0420
 2253SOL    HW112595   9.733   9.422   3.137  0.8305  0.1045  0.2557
 2253SOL    HW212596   9.682   9.407   2.995 -0.5322 -0.0272  0.7413
 2254SOL     OW12597   2.381   1.337   9.843 -0.2150 -0.1833 -0.6702
 2254SOL    HW112598   2.384   1.344   9.748 -0.3068 -0.5800 -0.7014
 2254SOL    HW212599   2.288   1.340   9.865 -0.2112 -0.4130 -0.6184
 2255SOL     OW12600   6.126   2.021   0.951  0.0834  0.3965  0.2364
 2255SOL    HW112601   6.168   1.972   1.021  2.0917 -0.0481 -1.1760
 2255SOL    HW212602   6.038   2.041   0.984  0.0522 -2.0250  1.8113
 2256SOL     OW12603   9.995   0.846   5.239 -0.0490 -0.5546  0.3578
 2256SOL    HW112604  10.022   0.914   5.300 -0.2206 -0.3542  0.2106
 2256SOL    HW212605   9.923   0.800   5.283 -0.6797  0.0729 -0.0061
 2257SOL     OW12606  10.723   8.818   4.369 -0.1645  0.1409  0.2663
 2257SOL    HW112607  10.741   8.889   4.308 -1.4866 -0.1089 -0.4571
 2257SOL    HW212608  10.656   8.853   4.429  1.7893  0.7181  2.2612
 2258SOL     OW12609   5.171   5.336   1.757 -0.5913  0.3668 -0.5791
 2258SOL    HW112610   5.148   5.258   1.707 -0.2521  0.6301 -1.1544
 2258SOL    HW212611   5.087   5.374   1.782 -0.8238  1.1407 -2.3870
 2259SOL     OW12612   4.185   6.947   7.597 -0.1581 -0.0251  0.0803
 2259SOL    HW112613   4.238   6.986   7.528  1.7599 -1.0474  0.8992
 2259SOL    HW212614   4.249   6.918   7.662 -1.8733  0.6816  2.1901
 2260SOL     OW12615   8.106   7.235  10.245  0.4725  0.0718  0.4219
 2260SOL    HW112616   8.026   7.211  10.198  0.1001 -0.4184  1.2747
 2260SOL    HW212617   8.135   7.154  10.286  1.1860  0.3342  0.4429
 2261SOL     OW12618  10.073   7.194   1.078 -0.3441 -0.3175 -0.3652
 2261SOL    HW112619  10.116   7.247   1.146 -1.8648 -0.7230  0.9743
 2261SOL    HW212620   9.988   7.172   1.115 -1.8992  0.7245 -3.0339
 2262SOL     OW12621   8.542   5.820  10.648 -0.1783  0.3025 -0.3325
 2262SOL    HW112622   8.516   5.733  10.617 -2.3800  0.5497  0.6447
 2262SOL    HW212623   8.603   5.803  10.719 -0.9260 -0.4990  0.1462
 2263SOL     OW12624   8.761   0.685   3.092  0.2554 -0.1229 -0.7679
 2263SOL    HW112625   8.715   0.768   3.082 -0.9761 -0.8730 -1.7095
 2263SOL    HW212626   8.691   0.620   3.106  1.1830 -1.0050 -0.0757
 2264SOL     OW12627   1.535   9.621   5.759 -0.0834 -0.2922  0.3638
 2264SOL    HW112628   1.618   9.652   5.723  0.9740 -1.2232  1.8592
 2264SOL    HW212629   1.547   9.526   5.766 -1.3302 -0.4522  0.4885
 2265SOL     OW12630   1.621   9.878   2.298  0.0633 -0.6819 -0.0227
 2265SOL    HW112631   1.578   9.893   2.213 -0.2124 -0.8565  0.0847
 2265SOL    HW212632   1.713   9.899   2.282 -0.0095 -0.5851 -0.3313
 2266SOL     OW12633   8.776   0.537   7.492 -0.6356  0.1835 -0.3245
 2266SOL    HW112634   8.790   0.631   7.498 -0.9866  0.2299 -0.2279
 2266SOL    HW212635   8.860   0.498   7.516 -0.3756  0.4771 -0.7357
 2267SOL     OW12636   9.648   2.078   2.216 -0.2926  0.0006 -0.1426
 2267SOL    HW112637   9.652   2.076   2.311 -0.4245  0.1540 -0.1329
 2267SOL    HW212638   9.705   2.151   2.191  1.4899 -1.3772 -0.2950
 2268SOL     OW12639   6.971  10.568   0.495  0.0767 -0.7555  0.1668
 2268SOL    HW112640   7.057  10.590   0.531 -0.2340 -0.4744  0.7458
 2268SOL    HW212641   6.948  10.485   0.536 -0.4715 -0.2200  0.9664
 2269SOL     OW12642  10.210   1.430   9.983 -0.1879 -0.2981  0.1298
 2269SOL    HW112643  10.160   1.510   9.965  0.3096 -0.2155 -0.9372
 2269SOL    HW212644  10.201   1.377   9.904  0.3362 -0.8469  0.4259
 2270SOL     OW12645   4.132  10.440   6.777 -0.2236 -0.6045  0.1449
 2270SOL    HW112646   4.053  10.482   6.743 -0.8308  0.5385  2.6920
 2270SOL    HW212647   4.192  10.513   6.793  0.7896 -1.3121 -0.3434
 2271SOL     OW12648   9.464   1.554   7.730  0.2247 -0.1346 -0.3227
 2271SOL    HW112649   9.380   1.541   7.773  0.7963 -0.0834  0.8635
 2271SOL    HW212650   9.497   1.466   7.714 -1.3898 -0.2630 -3.6532
 2272SOL     OW12651   5.429   4.102   7.596  0.5535 -0.1635 -0.5959
 2272SOL    HW112652   5.393   4.015   7.578  1.2424 -0.1364 -2.3242
 2272SOL    HW212653   5.451   4.100   7.689 -0.8277 -1.3046 -0.2568
 2273SOL     OW12654   2.674   1.541   2.139  0.1310 -0.3767 -0.7590
 2273SOL    HW112655   2.601   1.545   2.077 -0.5484  1.5978  0.1206
 2273SOL    HW212656   2.743   1.593   2.098 -0.3567  1.0228  0.1480
 2274SOL     OW12657  10.666   2.125   0.964  0.5660 -0.2123  0.6088
 2274SOL    HW112658  10.758   2.111   0.986  0.3909 -0.2291  1.3902
 2274SOL    HW212659  10.654   2.083   0.879  1.0472 -1.0692  0.9557
 2275SOL     OW12660   8.310   6.271   9.217 -0.8100  0.4446  0.2118
 2275SOL    HW112661   8.230   6.316   9.246 -0.3325  2.0058 -0.8259
 2275SOL    HW212662   8.381   6.324   9.252 -0.2375  0.5866 -1.1388
 2276SOL     OW12663   9.093   3.155   0.667 -0.2918  0.0337 -0.4576
 2276SOL    HW112664   9.112   3.084   0.728 -1.0829  1.1655  1.1951
 2276SOL    HW212665   9.169   3.158   0.608  0.3177 -1.3487  0.2240
 2277SOL     OW12666   5.405   9.231   8.168  0.2454  0.0669 -0.0172
 2277SOL    HW112667   5.426   9.322   8.188 -1.8200  0.2411  1.8239
 2277SOL    HW212668   5.476   9.180   8.207  1.1740  0.8516 -0.6563
 2278SOL     OW12669   7.779   8.649   5.613 -0.0991  0.3103 -0.2664
 2278SOL    HW112670   7.805   8.709   5.682  0.1686  0.7189 -0.7137
 2278SOL    HW212671   7.784   8.701   5.532 -1.0050  0.0114 -0.5248
 2279SOL     OW12672   2.639   0.247   4.326 -0.7551  0.3158  0.4646
 2279SOL    HW112673   2.567   0.299   4.291 -0.4658 -0.1945 -0.9777
 2279SOL    HW212674   2.597   0.171   4.365 -1.1222  1.1636  1.7839
 2280SOL     OW12675   9.869   4.978  10.720 -0.0112 -0.0385  0.0957
 2280SOL    HW112676   9.810   4.905  10.741 -0.3557  0.7296  2.0702
 2280SOL    HW212677   9.953   4.952  10.758 -0.0776  0.4776  0.6118
 2281SOL     OW12678   7.639   2.265   2.817  0.0737  0.6463 -0.1432
 2281SOL    HW112679   7.690   2.330   2.865  0.9953 -1.0914  1.3245
 2281SOL    HW212680   7.556   2.309   2.799  0.7143  2.2738  0.6656
 2282SOL     OW12681   2.436   1.434   8.369  0.1548 -0.6416 -0.3365
 2282SOL    HW112682   2.384   1.437   8.289  1.2869  1.5830 -1.0628
 2282SOL    HW212683   2.512   1.489   8.351  0.2723  0.2266  2.3993
 2283SOL     OW12684   0.055   1.394   3.501 -0.4697 -0.1446  0.1925
 2283SOL    HW112685  -0.018   1.456   3.510 -1.6784 -1.5906  0.7830
 2283SOL    HW212686   0.013   1.310   3.486  1.0605 -1.1412  1.1681
 2284SOL     OW12687  10.599   1.928   4.315 -0.0640 -0.2045  0.2115
 2284SOL    HW112688  10.594   1.849   4.368 -2.3917 -0.0374  0.3497
 2284SOL    HW212689  10.599   1.896   4.224  0.1646 -0.3733  0.2683
 2285SOL     OW12690   0.150   4.003   6.085  0.1766 -0.0935  0.6491
 2285SOL    HW112691   0.235   4.021   6.044 -0.4846 -0.1947 -0.8663
 2285SOL    HW212692   0.151   3.908   6.098  0.4311 -0.0504  0.9490
 2286SOL     OW12693   2.044   4.463   4.022 -1.6607 -0.5225  0.2115
 2286SOL    HW112694   2.041   4.371   4.048 -1.3723 -0.6224 -0.0940
 2286SOL    HW212695   2.089   4.507   4.094  0.1252 -0.9733 -0.5675
 2287SOL     OW12696   0.150   3.025   0.033  0.3665 -0.5326  0.0247
 2287SOL    HW112697   0.120   3.061   0.117  0.4436 -0.2634 -0.0646
 2287SOL    HW212698   0.088   2.955   0.014 -0.2189  0.0395 -0.1775
 2288SOL     OW12699   1.573   0.317   6.973 -0.1940 -0.8477  0.1625
 2288SOL    HW112700   1.524   0.300   7.053  1.0280  0.6682  1.2804
 2288SOL    HW212701   1.628   0.392   6.994  2.0920 -2.0300 -1.2703
 2289SOL     OW12702  10.310   4.839  10.580 -0.0038 -0.3634  0.3191
 2289SOL    HW112703  10.363   4.825  10.502 -0.3238  1.3642 -0.2548
 2289SOL    HW212704  10.220   4.846  10.547 -0.2198 -0.2511  0.9119
 2290SOL     OW12705   3.256   4.791   2.074  0.1690  0.0890 -0.1178
 2290SOL    HW112706   3.285   4.713   2.027 -1.5336 -0.6913  0.0247
 2290SOL    HW212707   3.272   4.863   2.014  2.0606 -0.2875 -0.1321
 2291SOL     OW12708   9.794   5.747   9.703  0.0217  0.4598 -0.0706
 2291SOL    HW112709   9.837   5.717   9.783 -1.4397  1.3523  1.0934
 2291SOL    HW212710   9.858   5.805   9.662  1.0178 -0.4635  0.1052
 2292SOL     OW12711   4.092   7.902   3.654 -0.1811  0.0602 -0.3508
 2292SOL    HW112712   4.173   7.876   3.610  0.3392 -0.3110  0.7852
 2292SOL    HW212713   4.119   7.970   3.715 -1.2343  2.0380 -1.9876
 2293SOL     OW12714   5.257   1.189  10.313  0.3986  0.0953  0.1493
 2293SOL    HW112715   5.191   1.256  10.297  1.3067  0.6758 -1.3841
 2293SOL    HW212716   5.324   1.234  10.365 -0.2105 -0.4046  1.4250
 2294SOL     OW12717   0.797   9.048   6.033  0.2161 -0.2117  0.0176
 2294SOL    HW112718   0.734   9.112   6.001 -0.4414 -0.0591  1.5578
 2294SOL    HW212719   0.834   9.087   6.112 -0.3007 -1.7608  1.0695
 2295SOL     OW12720   1.276   0.102  10.023 -0.0291  0.1762  0.1521
 2295SOL    HW112721   1.289   0.121  10.116  0.5902  1.3332 -0.1535
 2295SOL    HW212722   1.259   0.008  10.020 -1.3003  0.3289  1.5560
 2296SOL     OW12723   6.834   0.303   6.210 -0.2281  0.6071 -0.1534
 2296SOL    HW112724   6.874   0.356   6.279  0.8169 -2.6031  1.9512
 2296SOL    HW212725   6.753   0.271   6.250  0.4415 -1.3850 -0.2750
 2297SOL     OW12726   5.737   0.676   9.064 -0.3705 -0.0028  0.4280
 2297SOL    HW112727   5.695   0.660   9.148 -1.4941 -0.4825 -0.2006
 2297SOL    HW212728   5.706   0.605   9.008 -0.0784  0.6082 -0.5362
 2298SOL     OW12729   5.166   1.679   0.355  0.2487  0.0378 -0.3144
 2298SOL    HW112730   5.176   1.774   0.353 -1.3881  0.2373 -0.4202
 2298SOL    HW212731   5.118   1.662   0.436  0.2962 -0.6875 -0.4290
 2299SOL     OW12732   3.446   9.202   2.072  0.1287  0.4202  0.5830
 2299SOL    HW112733   3.410   9.198   2.160  1.6725  3.0544  1.4550
 2299SOL    HW212734   3.443   9.295   2.048  2.3208  0.1878 -0.9707
 2300SOL     OW12735   5.041   8.482   9.937 -0.8806  0.2674 -0.1174
 2300SOL    HW112736   5.082   8.400   9.965  0.8221  0.5416 -1.6153
 2300SOL    HW212737   5.065   8.491   9.845  0.0948  3.1005  0.3087
 2301SOL     OW12738   2.437   5.485   1.107 -0.0929  0.0082 -0.4982
 2301SOL    HW112739   2.400   5.473   1.194  2.6608 -3.4943  0.4366
 2301SOL    HW212740   2.367   5.457   1.048 -1.3590  0.6240  0.6471
 2302SOL     OW12741   9.133   8.877   2.206  0.2483  0.0669  0.3331
 2302SOL    HW112742   9.090   8.896   2.290 -1.9363 -0.4539 -0.5795
 2302SOL    HW212743   9.068   8.825   2.158  0.6575  1.9299 -2.4115
 2303SOL     OW12744   6.258   0.464   1.830  0.1638  0.0783 -0.4161
 2303SOL    HW112745   6.229   0.393   1.888  1.7876  0.2719  0.6968
 2303SOL    HW212746   6.217   0.542   1.867 -1.2896 -0.1857 -1.3968
 2304SOL     OW12747   6.252   5.781   1.089  0.1870 -0.7685 -0.2650
 2304SOL    HW112748   6.217   5.712   1.144  1.5144 -1.1314  0.1690
 2304SOL    HW212749   6.289   5.735   1.013  2.4402 -0.7474  0.7363
 2305SOL     OW12750   7.961   8.478   6.082 -0.3863 -0.3162  0.3251
 2305SOL    HW112751   7.882   8.509   6.037 -0.4101  1.3076  1.4021
 2305SOL    HW212752   7.929   8.429   6.157 -0.3408 -2.7178 -1.1083
 2306SOL     OW12753   8.689   0.649   9.879 -0.2016  0.0152  0.6735
 2306SOL    HW112754   8.621   0.638   9.945  0.2464  0.1612  1.1615
 2306SOL    HW212755   8.758   0.699   9.923 -0.1572  0.6354 -0.0795
 2307SOL     OW12756  10.243   9.980   6.543 -0.7361  0.0313 -0.0274
 2307SOL    HW112757  10.315  10.027   6.502 -0.0100 -0.7113  0.3821
 2307SOL    HW212758  10.175   9.976   6.475  0.8745 -2.2091 -1.6351
 2308SOL     OW12759   0.786   1.264   9.079 -0.6115 -0.8068 -0.8258
 2308SOL    HW112760   0.814   1.211   9.153  1.3003  0.5974 -0.4807
 2308SOL    HW212761   0.824   1.222   9.003  0.2088 -0.4093 -0.6410
 2309SOL     OW12762   1.101   9.071   7.208  0.3812 -0.9410 -0.3110
 2309SOL    HW112763   1.022   9.110   7.246 -0.0217 -1.9941 -0.0407
 2309SOL    HW212764   1.173   9.122   7.246 -0.0922 -1.0033  0.7097
 2310SOL     OW12765   7.241   3.255   9.804 -0.6124  0.0303 -0.0400
 2310SOL    HW112766   7.149   3.234   9.791 -0.7410 -0.6175  1.6886
 2310SOL    HW212767   7.248   3.275   9.897  0.5507  2.4613 -0.5550
 2311SOL     OW12768   5.898   3.628   4.781 -0.6685  0.4496  0.1355
 2311SOL    HW112769   5.933   3.567   4.716 -2.0158  0.4654 -0.6296
 2311SOL    HW212770   5.940   3.711   4.762  0.7644 -0.0776  0.8344
 2312SOL     OW12771   4.831   7.192   9.687  0.1690 -0.0698 -0.4588
 2312SOL    HW112772   4.926   7.196   9.678  0.1251 -0.5802 -1.2592
 2312SOL    HW212773   4.802   7.282   9.678  0.5511  0.0371 -0.6360
 2313SOL     OW12774   3.381   9.790   4.491 -0.1229 -0.2142  0.1995
 2313SOL    HW112775   3.328   9.725   4.444  0.0719 -0.6341  0.5530
 2313SOL    HW212776   3.342   9.874   4.467 -0.3965 -0.4620 -0.2433
 2314SOL     OW12777   3.860   1.251   9.413  0.3887 -0.0799 -0.2378
 2314SOL    HW112778   3.770   1.264   9.385  0.0732 -1.0196  0.2980
 2314SOL    HW212779   3.900   1.338   9.406 -0.4083  0.2392 -0.9678
 2315SOL     OW12780   8.823   5.275   5.369  0.6679 -0.1714  0.1503
 2315SOL    HW112781   8.896   5.334   5.348 -0.1599  1.5016  1.6564
 2315SOL    HW212782   8.762   5.330   5.418 -0.3842 -2.1957  1.2331
 2316SOL     OW12783   7.066   0.974   1.420  0.0181  0.5275  0.2973
 2316SOL    HW112784   7.031   0.887   1.436  1.4747 -0.0312  0.6033
 2316SOL    HW212785   6.999   1.017   1.367 -1.0828 -0.4895  0.8105
 2317SOL     OW12786   8.315   2.135   5.956 -0.6102  0.6235 -0.4739
 2317SOL    HW112787   8.241   2.078   5.935 -0.8054  0.4958  0.5197
 2317SOL    HW212788   8.372   2.129   5.880 -1.8662  1.1287 -1.4901
 2318SOL     OW12789   1.583   7.903   5.241  0.1571  0.6813  0.4933
 2318SOL    HW112790   1.527   7.859   5.305  0.0307 -1.1656 -0.7982
 2318SOL    HW212791   1.629   7.971   5.291 -0.3142 -0.3483  2.4128
 2319SOL     OW12792   5.089   4.527   3.506  0.5412 -0.3284 -0.3913
 2319SOL    HW112793   5.102   4.620   3.484 -0.5669 -0.2318 -0.6637
 2319SOL    HW212794   5.061   4.487   3.424 -2.0033 -0.2837  0.3790
 2320SOL     OW12795   7.228   9.307  10.012  0.3346 -0.2046 -0.2303
 2320SOL    HW112796   7.287   9.247  10.059 -1.4244  0.2272  2.8066
 2320SOL    HW212797   7.193   9.255   9.940  2.6174 -1.1799 -0.7120
 2321SOL     OW12798   4.930   0.668  10.105  0.3752  0.7263  0.0840
 2321SOL    HW112799   4.902   0.591  10.056  5.3132 -0.9757 -0.6383
 2321SOL    HW212800   4.861   0.682  10.169 -2.7016 -1.7052 -2.3746
 2322SOL     OW12801   8.719   5.767   0.117 -0.2464  0.1216  0.1919
 2322SOL    HW112802   8.657   5.742   0.186 -1.7102 -0.4914 -1.2597
 2322SOL    HW212803   8.793   5.707   0.128 -1.1587 -1.0294  0.3032
 2323SOL     OW12804   0.317   8.408   0.826  0.3663  0.6137 -0.2275
 2323SOL    HW112805   0.273   8.331   0.862 -1.6419  2.2281  0.9665
 2323SOL    HW212806   0.264   8.482   0.855  1.2454  2.3644 -2.7361
 2324SOL     OW12807   9.478   0.647   4.340  0.1571  0.0161  0.2400
 2324SOL    HW112808   9.408   0.592   4.304  0.0709  0.6204 -0.5599
 2324SOL    HW212809   9.559   0.611   4.303  0.0933  0.4657 -0.3505
 2325SOL     OW12810   3.578   3.116  10.559  0.1492  0.0740 -0.3070
 2325SOL    HW112811   3.649   3.175  10.533  0.3472  0.1018  0.2960
 2325SOL    HW212812   3.594   3.097  10.651 -1.1710  0.8417  0.1006
 2326SOL     OW12813   7.342   1.224   8.650  0.0563 -0.2127  0.0302
 2326SOL    HW112814   7.338   1.150   8.710  0.7564  0.4494  0.9228
 2326SOL    HW212815   7.374   1.297   8.704 -1.8462  1.0851 -0.4945
 2327SOL     OW12816   8.803   1.460   4.368 -0.0726 -0.5739 -0.2966
 2327SOL    HW112817   8.717   1.433   4.401  0.3382 -1.0936  0.3769
 2327SOL    HW212818   8.785   1.536   4.313 -1.1446 -1.6278 -1.4569
 2328SOL     OW12819   3.398   8.231   3.416  0.2547 -0.5404 -0.3407
 2328SOL    HW112820   3.390   8.151   3.467  1.5778 -0.3771  0.1382
 2328SOL    HW212821   3.456   8.209   3.343  1.4747  0.2438  0.3719
 2329SOL     OW12822   2.236   6.163  10.552 -0.2189  0.6635  0.5196
 2329SOL    HW112823   2.176   6.098  10.588 -0.6909  0.9427  0.2503
 2329SOL    HW212824   2.296   6.183  10.624  0.9395 -1.2298  0.1355
 2330SOL     OW12825   5.726   4.587   6.640  0.0911  0.0333  0.1237
 2330SOL    HW112826   5.677   4.666   6.617 -1.2485 -0.5922  0.7025
 2330SOL    HW212827   5.804   4.619   6.686 -0.3221  1.0201  0.1566
 2331SOL     OW12828   9.553   4.335   9.855  0.1919 -0.8241 -0.1496
 2331SOL    HW112829   9.485   4.268   9.868  1.8384 -2.3803  0.9826
 2331SOL    HW212830   9.535   4.400   9.923 -0.3399 -1.0595 -0.0522
 2332SOL     OW12831   4.042   9.981   6.908 -0.2691 -0.0939 -0.1536
 2332SOL    HW112832   4.034   9.996   6.814 -1.8693  1.7016  0.1893
 2332SOL    HW212833   4.117   9.922   6.917 -0.0071 -0.2287 -2.5213
 2333SOL     OW12834   3.484   7.555   8.990  0.0966 -0.3385 -0.4639
 2333SOL    HW112835   3.535   7.605   8.927  0.2869 -1.7030 -1.4522
 2333SOL    HW212836   3.525   7.469   8.992  0.2044 -0.3066  1.6952
 2334SOL     OW12837   3.013   8.514  10.632  0.3615  0.0636 -0.2541
 2334SOL    HW112838   2.983   8.471  10.552 -0.1533  0.9333 -0.5348
 2334SOL    HW212839   3.052   8.596  10.602  0.7227  0.1123  0.3369
 2335SOL     OW12840   8.836   3.177   3.129  0.0580 -0.3181  0.5425
 2335SOL    HW112841   8.895   3.206   3.060  1.2481 -0.4677  1.4601
 2335SOL    HW212842   8.867   3.221   3.208 -0.4857 -1.1197  1.2276
 2336SOL     OW12843   7.869   3.654   0.380 -0.5502 -0.0736  0.0017
 2336SOL    HW112844   7.798   3.594   0.405 -0.8349  0.6367  0.9369
 2336SOL    HW212845   7.859   3.729   0.439  0.5236  0.3723 -0.3656
 2337SOL     OW12846   2.855   0.302   8.741 -0.3408  0.0777 -0.1079
 2337SOL    HW112847   2.807   0.295   8.659  1.5651  0.1548 -1.3006
 2337SOL    HW212848   2.936   0.348   8.718 -0.0517  0.7241  1.9609
 2338SOL     OW12849   2.626   8.374   8.883  0.1854  0.1431  0.3944
 2338SOL    HW112850   2.660   8.305   8.826 -0.7673 -0.4677  0.5377
 2338SOL    HW212851   2.575   8.327   8.949  1.1402  0.8510  1.6733
 2339SOL     OW12852   4.687   4.308   8.900  0.1791  0.4575  0.0241
 2339SOL    HW112853   4.680   4.324   8.805  1.2309 -1.2614 -0.3903
 2339SOL    HW212854   4.654   4.219   8.912  2.7357 -0.4697  0.7943
 2340SOL     OW12855   9.858   5.303   4.316 -0.3587  0.1113 -0.1406
 2340SOL    HW112856   9.765   5.318   4.300 -0.6417 -2.5100 -1.4569
 2340SOL    HW212857   9.869   5.319   4.410 -2.0476  0.8271 -0.0340
 2341SOL     OW12858   1.248   1.861  10.001 -1.1648  0.7079  0.0776
 2341SOL    HW112859   1.301   1.882  10.078  0.5846  2.2977 -1.4509
 2341SOL    HW212860   1.288   1.782   9.965  0.0039  1.6965 -0.8657
 2342SOL     OW12861   4.396   8.801   0.583  0.0667 -0.6465  0.0776
 2342SOL    HW112862   4.312   8.801   0.630 -0.8545  1.7189 -1.3514
 2342SOL    HW212863   4.462   8.801   0.651 -1.0694 -2.1591  1.2518
 2343SOL     OW12864   3.359   0.267   1.657  0.0365  0.1516  0.5333
 2343SOL    HW112865   3.413   0.198   1.619  0.0240 -0.0487  0.8821
 2343SOL    HW212866   3.367   0.340   1.595  0.5438  0.0563  0.4850
 2344SOL     OW12867  10.352   2.966   9.209  0.8888 -0.0853  0.5367
 2344SOL    HW112868  10.310   2.931   9.130  1.2982  1.5352 -0.4502
 2344SOL    HW212869  10.428   3.015   9.176  2.0569 -0.7848  2.0859
 2345SOL     OW12870   7.267   6.795   6.870  0.1513  0.2420  0.3183
 2345SOL    HW112871   7.356   6.771   6.895 -0.0605  0.7801  1.6999
 2345SOL    HW212872   7.229   6.832   6.950 -0.6923  1.7735 -0.7315
 2346SOL     OW12873   4.787   5.627   2.110  0.4734 -0.3026  0.3859
 2346SOL    HW112874   4.719   5.567   2.142  0.1269 -0.7230 -1.0381
 2346SOL    HW212875   4.857   5.622   2.175 -0.1595 -1.1480  1.0245
 2347SOL     OW12876   2.672   2.560   8.345 -0.1349  0.5063  0.8380
 2347SOL    HW112877   2.653   2.479   8.392 -0.1940 -0.5991 -1.0011
 2347SOL    HW212878   2.612   2.624   8.382 -2.3545 -1.0797  0.2087
 2348SOL     OW12879   6.111   4.541   5.678 -0.3471  0.0639  0.2565
 2348SOL    HW112880   6.151   4.526   5.764  1.8324  0.4044 -0.6329
 2348SOL    HW212881   6.085   4.633   5.679 -1.6646 -0.2957  1.0367
 2349SOL     OW12882  10.157   9.563   6.628  0.0813 -0.0286  0.1177
 2349SOL    HW112883  10.233   9.622   6.632  0.5334 -0.6012  0.2603
 2349SOL    HW212884  10.168   9.516   6.545  0.6825 -1.1305  0.7891
 2350SOL     OW12885   3.075   0.190   5.973  0.0606 -0.5002 -0.0527
 2350SOL    HW112886   3.116   0.210   6.057 -0.2325  1.8687 -0.3972
 2350SOL    HW212887   2.995   0.243   5.973 -0.0898 -0.6830 -1.7222
 2351SOL     OW12888  10.711   4.300   2.799  0.4047  0.2879 -0.0453
 2351SOL    HW112889  10.741   4.209   2.807 -0.3420 -0.0073 -0.4532
 2351SOL    HW212890  10.741   4.342   2.880  1.2116 -0.1849 -0.0931
 2352SOL     OW12891   7.876   7.309   2.258 -0.0135 -0.9483 -0.5046
 2352SOL    HW112892   7.904   7.394   2.226 -0.6933 -1.1033 -1.5817
 2352SOL    HW212893   7.781   7.308   2.245 -0.2040 -1.3395  0.8014
 2353SOL     OW12894   2.801   1.848   7.418 -0.4241 -0.3774  0.5695
 2353SOL    HW112895   2.727   1.833   7.476 -1.4612 -0.0947 -0.6477
 2353SOL    HW212896   2.822   1.941   7.429 -1.7713  0.1247 -0.7790
 2354SOL     OW12897   4.776   1.806   0.271 -0.5226  0.3600  0.1609
 2354SOL    HW112898   4.801   1.729   0.219 -0.2946 -0.5713  1.6038
 2354SOL    HW212899   4.800   1.783   0.361 -2.3521  1.2939  0.9368
 2355SOL     OW12900   1.613   1.551   0.937  0.0443  0.5451  0.1271
 2355SOL    HW112901   1.624   1.471   0.886 -0.2660 -0.2488  1.2779
 2355SOL    HW212902   1.674   1.613   0.898  0.2188 -0.2172 -0.8394
 2356SOL     OW12903   4.627   1.440   5.178  0.0110  0.8698  0.2363
 2356SOL    HW112904   4.618   1.407   5.089 -0.1928  1.7313 -0.0749
 2356SOL    HW212905   4.560   1.508   5.185 -0.3263  0.4505  1.2224
 2357SOL     OW12906   2.340   0.405   7.424 -0.4120  0.0811 -0.5136
 2357SOL    HW112907   2.334   0.439   7.335 -0.9220  0.8473 -0.1967
 2357SOL    HW212908   2.285   0.327   7.423  0.1164 -0.2941 -1.0374
 2358SOL     OW12909   9.204   4.567   5.921 -0.3717  0.4385  0.3775
 2358SOL    HW112910   9.121   4.570   5.970 -2.5035  1.2439 -2.9307
 2358SOL    HW212911   9.224   4.474   5.914 -0.9208  0.2318  1.3649
 2359SOL     OW12912   6.158   6.512   1.538 -0.3932 -0.0812 -0.3595
 2359SOL    HW112913   6.148   6.597   1.581  0.9350 -0.9457  1.8368
 2359SOL    HW212914   6.252   6.493   1.543 -0.5926 -1.4973 -1.1978
 2360SOL     OW12915   2.092   9.064   5.314  0.3982  0.0443  0.0636
 2360SOL    HW112916   2.178   9.022   5.322 -0.0037 -0.8062  0.0704
 2360SOL    HW212917   2.030   8.998   5.346 -0.2451  0.7139  0.2263
 2361SOL     OW12918   6.994  10.480   6.151 -0.0693 -0.2259  0.5143
 2361SOL    HW112919   6.940  10.498   6.228 -1.6683 -2.3578  0.0069
 2361SOL    HW212920   6.932  10.446   6.087  1.6082 -0.8897 -0.8317
 2362SOL     OW12921  10.314   6.836   0.718 -0.5792 -0.2692 -0.1457
 2362SOL    HW112922  10.315   6.751   0.673 -1.1935 -0.7832  0.7812
 2362SOL    HW212923  10.387   6.830   0.780  0.3933  0.5145 -1.1833
 2363SOL     OW12924   5.954   7.882   4.948  1.0190 -0.2346  0.0094
 2363SOL    HW112925   6.030   7.924   4.908  0.6704  0.4224  0.0228
 2363SOL    HW212926   5.915   7.950   5.002  0.9039 -0.8211  0.6743
 2364SOL     OW12927   7.617   6.347   0.438  0.0895  0.1080  0.1132
 2364SOL    HW112928   7.609   6.377   0.348  0.6153 -1.4811 -0.4835
 2364SOL    HW212929   7.539   6.293   0.452 -0.4210  1.0038  0.9096
 2365SOL     OW12930  10.102   6.461   6.807  1.0390 -0.4820 -0.2437
 2365SOL    HW112931  10.193   6.432   6.812  1.4743  0.9469  1.4037
 2365SOL    HW212932  10.105   6.552   6.835 -0.9966 -0.6228  0.6051
 2366SOL     OW12933   0.125   2.610   2.121  0.0605  0.4957 -0.2922
 2366SOL    HW112934   0.141   2.544   2.188 -0.6124  1.1779  0.5612
 2366SOL    HW212935   0.083   2.562   2.049  0.0797 -0.1049  0.0973
 2367SOL     OW12936   3.195   1.079   3.453  0.3815 -0.2221  1.0647
 2367SOL    HW112937   3.106   1.107   3.432  1.1194  0.7369 -1.0216
 2367SOL    HW212938   3.201   0.990   3.417 -0.3145 -1.1267  3.0327
 2368SOL     OW12939   4.808   7.347   3.489 -1.0169  0.0962 -0.5935
 2368SOL    HW112940   4.894   7.320   3.523 -0.5927  1.1489 -0.8104
 2368SOL    HW212941   4.783   7.422   3.543 -1.7137 -0.0718 -0.6728
 2369SOL     OW12942   0.674   9.005   3.758 -0.2255  0.4929  0.2314
 2369SOL    HW112943   0.678   9.016   3.853  1.2334  0.3421  0.2154
 2369SOL    HW212944   0.676   8.910   3.745  0.6682  0.5267  0.0421
 2370SOL     OW12945   5.835   0.332   1.960 -0.1644 -0.0379 -0.0819
 2370SOL    HW112946   5.799   0.265   2.017 -0.6975 -1.0400 -1.5309
 2370SOL    HW212947   5.930   0.320   1.964 -0.2258 -0.4237  0.2070
 2371SOL     OW12948   1.972   0.935   0.520 -0.2073 -0.5029  0.6202
 2371SOL    HW112949   1.946   1.006   0.579  1.0075 -0.5818  1.2921
 2371SOL    HW212950   2.047   0.970   0.472 -1.0627 -0.5138 -0.7687
 2372SOL     OW12951   2.283   5.018  10.187  0.0438 -0.1498  0.1605
 2372SOL    HW112952   2.252   5.105  10.162 -0.3017 -0.0758  0.8026
 2372SOL    HW212953   2.350   4.996  10.122 -0.8934 -0.0290 -0.8806
 2373SOL     OW12954   1.497   9.061   5.809 -0.1241 -0.4761 -0.3383
 2373SOL    HW112955   1.522   9.058   5.902  1.5679 -0.0751 -0.7330
 2373SOL    HW212956   1.465   8.973   5.790 -1.3230 -0.3190  0.8222
 2374SOL     OW12957   2.548  10.102   3.120  0.2798 -0.0710 -0.1106
 2374SOL    HW112958   2.566  10.039   3.050 -2.5520 -1.2400  0.0817
 2374SOL    HW212959   2.480  10.158   3.084  1.4939  1.8020  0.3916
 2375SOL     OW12960   1.939   6.851   2.393 -0.1154 -0.1024 -0.2134
 2375SOL    HW112961   1.961   6.787   2.461 -0.7092 -1.0045 -0.8470
 2375SOL    HW212962   1.847   6.834   2.372  0.6371 -1.4129 -2.8448
 2376SOL     OW12963   9.931   4.781   7.978  0.4474 -0.0442  0.5914
 2376SOL    HW112964   9.908   4.802   7.888  1.1463  3.1860  1.0386
 2376SOL    HW212965  10.019   4.743   7.972  0.4543  0.0754 -0.1070
 2377SOL     OW12966   1.134  10.716   6.981  0.0245  0.1361 -0.1600
 2377SOL    HW112967   1.077  10.658   7.031 -2.2133  1.7384 -0.7309
 2377SOL    HW212968   1.158  10.785   7.042 -0.9621  0.9483 -0.6670
 2378SOL     OW12969   8.235   0.719   7.567 -0.5728 -0.5457 -0.0342
 2378SOL    HW112970   8.185   0.648   7.608 -0.8278 -1.3934 -1.7622
 2378SOL    HW212971   8.310   0.676   7.527 -0.6646  0.1559 -0.9947
 2379SOL     OW12972   3.321   0.411   0.075  0.6110  0.3305  0.1751
 2379SOL    HW112973   3.245   0.373   0.119 -0.8289  0.9017 -1.7264
 2379SOL    HW212974   3.387   0.341   0.078 -0.6509 -0.9019  0.1494
 2380SOL     OW12975   0.670   6.372   5.823  0.6026  0.2595  0.2173
 2380SOL    HW112976   0.624   6.289   5.811  0.0813  0.6594 -0.6984
 2380SOL    HW212977   0.692   6.374   5.916  1.2594 -1.2169  0.1248
 2381SOL     OW12978   8.749   3.155   6.603  0.2097  0.0648 -0.0440
 2381SOL    HW112979   8.780   3.244   6.616  0.7897  0.0787 -1.3516
 2381SOL    HW212980   8.654   3.163   6.596  0.1213  0.3750  1.2210
 2382SOL     OW12981   4.980   7.217   9.054 -0.0619 -0.3165 -0.3238
 2382SOL    HW112982   4.993   7.309   9.032  1.0563 -0.1949  0.7360
 2382SOL    HW212983   5.025   7.206   9.138  0.2330 -1.9426 -0.6623
 2383SOL     OW12984   0.076   9.905   7.237  0.0301 -0.2693 -0.0920
 2383SOL    HW112985   0.016   9.847   7.284 -0.2609  0.1348  0.0412
 2383SOL    HW212986   0.157   9.854   7.229 -0.5689 -1.1274 -0.9758
 2384SOL     OW12987   1.389   1.015   2.009  0.0197 -0.8858 -0.1796
 2384SOL    HW112988   1.423   1.101   1.984 -0.7300 -1.0590 -1.9079
 2384SOL    HW212989   1.421   0.956   1.941 -2.8450 -1.2220 -1.3711
 2385SOL     OW12990   1.510   4.360   4.970  0.2379  0.6960 -0.5129
 2385SOL    HW112991   1.435   4.309   4.938  1.1861  0.5920 -2.6972
 2385SOL    HW212992   1.534   4.316   5.052 -1.1323 -0.2147 -0.5577
 2386SOL     OW12993   9.007   7.887   8.314  0.1490 -0.0750  0.0784
 2386SOL    HW112994   9.062   7.814   8.286 -1.2268 -1.0599 -0.1504
 2386SOL    HW212995   8.964   7.856   8.394  0.7015  1.0831  0.8684
 2387SOL     OW12996   7.351   1.884   7.717  0.0485 -0.3557  0.0182
 2387SOL    HW112997   7.344   1.957   7.655  3.2590 -0.1285 -0.2248
 2387SOL    HW212998   7.444   1.878   7.737 -0.5664 -1.9837  3.0165
 2388SOL     OW12999   1.983   5.437   9.030 -0.1568 -0.0345  0.1649
 2388SOL    HW113000   1.957   5.352   8.995 -0.2326  0.6300 -1.4993
 2388SOL    HW213001   2.045   5.472   8.966  0.1704  0.9991  1.0109
 2389SOL     OW13002   8.802   1.074   2.827 -0.8343  0.4851  0.1008
 2389SOL    HW113003   8.735   1.005   2.828 -0.4276  0.0701 -0.4681
 2389SOL    HW213004   8.866   1.047   2.893  0.1173 -0.5140 -1.1721
 2390SOL     OW13005   6.920   1.110   1.244  0.5159  0.0630  0.2850
 2390SOL    HW113006   6.893   1.196   1.211 -0.9916  0.0837  1.4724
 2390SOL    HW213007   6.864   1.048   1.197 -0.9813  0.0288  2.0134
 2391SOL     OW13008   4.017   9.686   8.528  0.7075  0.3523 -0.2580
 2391SOL    HW113009   3.978   9.614   8.578 -0.0043  1.4426  0.8085
 2391SOL    HW213010   4.099   9.706   8.573 -0.0273  1.4644  0.6269
 2392SOL     OW13011   8.324   4.395   3.450 -0.3728  0.1213 -0.1150
 2392SOL    HW113012   8.256   4.410   3.516 -0.3822 -1.3766  0.2531
 2392SOL    HW213013   8.327   4.477   3.400  0.9370  2.0368  2.8626
 2393SOL     OW13014   0.628   9.626   1.378  0.4356 -0.7253 -0.2169
 2393SOL    HW113015   0.653   9.573   1.454  1.3643 -1.1981 -0.8234
 2393SOL    HW213016   0.695   9.605   1.312 -0.6367 -0.7208 -1.3383
 2394SOL     OW13017   5.362  10.372   1.450 -0.4782  0.2906 -0.4794
 2394SOL    HW113018   5.442  10.346   1.497 -1.8090 -1.2704  1.0456
 2394SOL    HW213019   5.369  10.329   1.365  1.0247  1.4961 -1.0201
 2395SOL     OW13020   0.791   5.078   9.118  0.7013  0.2201 -0.1742
 2395SOL    HW113021   0.822   5.152   9.065  0.5322 -0.0164 -0.6165
 2395SOL    HW213022   0.771   5.010   9.053  0.6119 -0.1218  0.2095
 2396SOL     OW13023   3.419   8.820   7.951 -0.3728  0.1851  0.1204
 2396SOL    HW113024   3.391   8.804   8.041  0.0241  0.1050  0.2293
 2396SOL    HW213025   3.341   8.855   7.908 -0.5819  0.1615  0.4778
 2397SOL     OW13026   2.781   7.898   5.986 -0.2622  0.0786  0.0633
 2397SOL    HW113027   2.825   7.887   5.902 -1.4429  1.6759 -0.8050
 2397SOL    HW213028   2.823   7.974   6.026  1.7946 -1.9262  1.9895
 2398SOL     OW13029   6.647   7.427   1.931  0.3306 -0.1746 -0.1347
 2398SOL    HW113030   6.627   7.343   1.889  1.3555  0.2123 -1.4573
 2398SOL    HW213031   6.590   7.429   2.008  0.5875 -2.2726  0.1714
 2399SOL     OW13032   9.846   2.059   8.998 -0.2505 -0.4560 -0.2997
 2399SOL    HW113033   9.858   2.097   8.911 -1.3539 -1.4160 -0.9132
 2399SOL    HW213034   9.884   2.123   9.058 -0.7519  0.9157 -1.3830
 2400SOL     OW13035   4.682   9.643   9.449 -0.5567 -0.0923  0.0985
 2400SOL    HW113036   4.677   9.623   9.542 -0.0589  1.3284  0.4603
 2400SOL    HW213037   4.717   9.732   9.446 -1.9931  0.4615 -1.4039
 2401SOL     OW13038   3.013   8.128   5.556  0.3470  0.4261 -1.0448
 2401SOL    HW113039   3.050   8.214   5.540  0.5182  1.3352  3.1937
 2401SOL    HW213040   2.920   8.138   5.536  0.0552  2.1708  0.8520
 2402SOL     OW13041   2.288   0.296   2.797  0.2463  0.7806 -0.1572
 2402SOL    HW113042   2.209   0.308   2.745 -0.8898  2.5920  1.8112
 2402SOL    HW213043   2.328   0.383   2.801  0.9807  0.4171  0.8950
 2403SOL     OW13044   1.046   8.044   3.383 -0.7123  0.0598  0.0992
 2403SOL    HW113045   1.095   8.123   3.359 -0.5604 -0.2583 -0.6626
 2403SOL    HW213046   0.968   8.048   3.328  0.4497 -1.5540 -1.8054
 2404SOL     OW13047   5.805   2.091   7.944  0.0792  0.2675 -0.0555
 2404SOL    HW113048   5.773   2.119   8.030  0.1090 -0.7065  0.2873
 2404SOL    HW213049   5.760   2.008   7.927 -0.2153  0.6338 -1.1632
 2405SOL     OW13050   0.457   9.521   5.176 -0.2620  0.3045  0.1108
 2405SOL    HW113051   0.391   9.589   5.163 -0.2288  0.3206  0.0171
 2405SOL    HW213052   0.447   9.494   5.267 -2.0142 -1.3797 -0.5218
 2406SOL     OW13053   9.062  10.554   5.942 -0.2231  0.1493  0.1705
 2406SOL    HW113054   8.983  10.501   5.937 -1.2079  1.6033 -0.2667
 2406SOL    HW213055   9.063  10.605   5.861 -0.4968  2.3440  1.4341
 2407SOL     OW13056   2.611   6.990   3.476  0.2571 -0.2315  0.4717
 2407SOL    HW113057   2.702   6.960   3.470  0.7821  1.2954  0.3088
 2407SOL    HW213058   2.617   7.085   3.470 -1.2948 -0.0493  1.3389
 2408SOL     OW13059   6.558   8.881   2.219 -0.0737 -0.4937 -0.2735
 2408SOL    HW113060   6.463   8.871   2.214 -0.5904  2.6054  1.1166
 2408SOL    HW213061   6.580   8.939   2.146  0.5894 -0.3769  0.0152
 2409SOL     OW13062   5.413   3.783   5.847 -0.1465 -0.0151  0.0925
 2409SOL    HW113063   5.360   3.703   5.848 -1.0635  0.5764 -0.2946
 2409SOL    HW213064   5.478   3.768   5.778  0.5378 -0.9514  0.9125
 2410SOL     OW13065   8.668   8.538   9.802  0.0972  0.3693 -0.0456
 2410SOL    HW113066   8.581   8.505   9.824 -0.4247  0.8561 -1.3225
 2410SOL    HW213067   8.681   8.612   9.861 -0.0275 -0.1632  0.6668
 2411SOL     OW13068   9.310   9.065   3.673  0.1826 -0.6600  0.0537
 2411SOL    HW113069   9.287   9.090   3.584  0.0147 -1.0985 -0.0290
 2411SOL    HW213070   9.395   9.021   3.665 -0.0253 -1.0649  0.0521
 2412SOL     OW13071   7.569   5.926   5.839  0.4596  0.1959  0.0144
 2412SOL    HW113072   7.480   5.913   5.871  0.1234  4.0441  1.0359
 2412SOL    HW213073   7.625   5.891   5.908 -0.2246 -1.1021 -0.0621
 2413SOL     OW13074   2.586   1.591   4.918  0.1556  0.3735  0.3355
 2413SOL    HW113075   2.521   1.525   4.894 -1.3697  1.8885  0.0830
 2413SOL    HW213076   2.652   1.586   4.850  0.3830 -1.2361  0.6188
 2414SOL     OW13077  10.568   3.540   1.421 -0.2866  0.3235 -0.1147
 2414SOL    HW113078  10.550   3.519   1.329 -0.3422  0.0636 -0.0456
 2414SOL    HW213079  10.501   3.604   1.444 -0.7783 -0.2046 -0.0276
 2415SOL     OW13080   1.527   9.356   4.256  0.1209  0.0938 -0.4299
 2415SOL    HW113081   1.518   9.364   4.161 -2.5091 -0.7169 -0.3212
 2415SOL    HW213082   1.472   9.426   4.292 -1.8426 -1.7894  0.4412
 2416SOL     OW13083   7.339   0.967   0.883  0.4912  0.1170 -0.1771
 2416SOL    HW113084   7.354   0.876   0.909 -2.2237 -0.5660 -0.7374
 2416SOL    HW213085   7.401   0.982   0.811  0.7124 -1.3987 -0.3353
 2417SOL     OW13086   1.251   0.101   5.404 -0.6784  0.2298 -0.2196
 2417SOL    HW113087   1.231   0.093   5.497  1.0346  0.3361  0.1852
 2417SOL    HW213088   1.224   0.190   5.381 -0.9319  0.2668  0.2103
 2418SOL     OW13089   2.783   7.620   5.383 -0.2483  0.8345 -0.7360
 2418SOL    HW113090   2.866   7.603   5.339  0.4959  3.1889 -0.3706
 2418SOL    HW213091   2.805   7.620   5.476 -0.5791  1.7292 -0.6479
 2419SOL     OW13092  10.583   6.267   5.796  0.1652 -0.2482  0.6257
 2419SOL    HW113093  10.624   6.266   5.883  1.1714  0.3879  0.1811
 2419SOL    HW213094  10.598   6.179   5.762 -0.0664 -0.4427  1.0209
 2420SOL     OW13095   4.881   3.200   4.411 -0.3986 -0.1424 -0.3553
 2420SOL    HW113096   4.866   3.295   4.415  2.5966  0.4773 -1.1453
 2420SOL    HW213097   4.917   3.179   4.497 -0.8810 -0.5376 -0.2489
 2421SOL     OW13098   1.920   0.092  10.198 -0.2653 -0.3890  0.2394
 2421SOL    HW113099   1.950   0.183  10.194  0.1375 -0.5730 -2.2916
 2421SOL    HW213100   1.901   0.077  10.291 -0.2256  2.2203  0.7270
 2422SOL     OW13101   8.376   7.563   2.435 -0.6639 -0.3546 -0.7613
 2422SOL    HW113102   8.414   7.498   2.493 -1.3833  0.2558  0.4210
 2422SOL    HW213103   8.305   7.602   2.485 -0.4045  1.1893 -1.5320
 2423SOL     OW13104   2.388  10.048   9.336  0.6451 -0.8497 -0.3799
 2423SOL    HW113105   2.404  10.104   9.412 -0.6125 -0.4745 -0.3715
 2423SOL    HW213106   2.381   9.960   9.372  1.9293 -0.9495 -0.3101
 2424SOL     OW13107   8.947   0.940   9.750 -0.5181  0.1986  0.7081
 2424SOL    HW113108   8.944   1.034   9.762  1.4020  0.3554  0.2108
 2424SOL    HW213109   8.916   0.926   9.660 -0.9933  0.3261  0.8505
 2425SOL     OW13110   2.664   0.851   0.174 -0.2172  0.1459  0.3400
 2425SOL    HW113111   2.625   0.808   0.250 -2.1687  0.1239 -0.6021
 2425SOL    HW213112   2.612   0.820   0.100 -1.0338  3.1974 -0.5308
 2426SOL     OW13113   6.505   6.128   3.887 -0.3384 -0.0534  0.4829
 2426SOL    HW113114   6.529   6.129   3.794 -0.5865 -0.4645  0.4115
 2426SOL    HW213115   6.433   6.065   3.893 -1.7692  1.5412  0.6192
 2427SOL     OW13116   0.307   0.493  10.142 -0.2910 -0.3313 -0.0574
 2427SOL    HW113117   0.228   0.506  10.194  1.0144  0.8796  1.7726
 2427SOL    HW213118   0.334   0.582  10.116  0.3408 -0.7378 -0.8417
 2428SOL     OW13119   4.867   4.739   4.828  0.5722  0.2002  0.0130
 2428SOL    HW113120   4.898   4.655   4.794  0.4262  0.2532 -0.2461
 2428SOL    HW213121   4.834   4.718   4.916 -0.9565 -0.3091 -0.6503
 2429SOL     OW13122  10.045   7.842   2.405  0.0308 -0.0683 -0.3489
 2429SOL    HW113123  10.019   7.778   2.338 -0.4024  0.1230 -0.3632
 2429SOL    HW213124   9.963   7.878   2.438  0.2653  0.3916 -0.2519
 2430SOL     OW13125   9.030   3.711   8.523  0.4182 -0.3002  0.8174
 2430SOL    HW113126   9.032   3.739   8.614  0.5136  4.2986 -0.3405
 2430SOL    HW213127   8.943   3.737   8.491  1.3412  0.7280 -1.0078
 2431SOL     OW13128   9.956   5.383   0.985 -0.4574  0.2658  0.3543
 2431SOL    HW113129   9.879   5.416   1.032  0.6741  0.5787  2.0779
 2431SOL    HW213130  10.012   5.347   1.053  0.4554 -0.9663 -0.9863
 2432SOL     OW13131   7.072   3.114   0.664  0.4447  1.1748  0.0559
 2432SOL    HW113132   7.130   3.147   0.733 -1.5536  0.8982  1.9739
 2432SOL    HW213133   7.008   3.185   0.651 -0.9361  0.0765  0.6355
 2433SOL     OW13134   9.935   4.605   4.007  0.1519 -0.0859 -0.5348
 2433SOL    HW113135   9.924   4.697   3.983  1.4786  0.2268 -0.0704
 2433SOL    HW213136  10.023   4.583   3.977 -0.0762 -1.1455 -0.4601
 2434SOL     OW13137   2.617  10.632   4.414  0.0628  0.2997 -0.0069
 2434SOL    HW113138   2.631  10.539   4.430 -1.8122 -0.1074 -0.5377
 2434SOL    HW213139   2.562  10.635   4.335 -0.0573  1.8349  0.1129
 2435SOL     OW13140   9.626   6.817   3.601 -0.4802  0.1384  0.2189
 2435SOL    HW113141   9.666   6.774   3.525  1.1322 -0.8570  1.5461
 2435SOL    HW213142   9.532   6.813   3.584 -0.2127 -0.9615 -1.2622
 2436SOL     OW13143   0.525   8.751   2.888 -0.2836 -0.5286 -0.6110
 2436SOL    HW113144   0.434   8.738   2.861 -0.4663  0.3451 -0.4504
 2436SOL    HW213145   0.520   8.817   2.957  0.4932 -0.3434 -0.7249
 2437SOL     OW13146   6.025   5.738   1.991 -0.5468 -0.0713 -0.7422
 2437SOL    HW113147   6.039   5.833   1.988 -0.7881  0.0145  0.2145
 2437SOL    HW213148   6.052   5.706   1.906  2.4988  0.4599 -0.0772
 2438SOL     OW13149   3.260   0.464   2.955  0.0263  0.2573 -0.4267
 2438SOL    HW113150   3.269   0.457   2.860 -1.3399 -0.5893 -0.5211
 2438SOL    HW213151   3.286   0.554   2.975  0.0492  0.5354 -1.6382
 2439SOL     OW13152  10.484   1.228   8.409  0.6254 -0.2271 -0.2861
 2439SOL    HW113153  10.507   1.220   8.501  0.2543 -0.7859 -0.2353
 2439SOL    HW213154  10.454   1.140   8.384  0.9730 -0.1463 -1.0054
 2440SOL     OW13155   9.368  10.427   9.740  0.4017 -0.1064  0.0565
 2440SOL    HW113156   9.274  10.422   9.758  0.0233  2.1170 -0.9684
 2440SOL    HW213157   9.402  10.342   9.769 -1.8667 -0.8986  0.6528
 2441SOL     OW13158   4.192   4.734   3.465 -0.0370  0.1474 -0.0245
 2441SOL    HW113159   4.153   4.807   3.512 -0.8503  1.2676 -2.2680
 2441SOL    HW213160   4.206   4.667   3.531 -1.8319  1.3099  1.6344
 2442SOL     OW13161   9.322   4.445   3.642 -0.1787 -0.1040  0.1248
 2442SOL    HW113162   9.398   4.395   3.612  0.3072  0.3832  0.5156
 2442SOL    HW213163   9.354   4.535   3.646 -1.5915  0.5972 -2.5063
 2443SOL     OW13164   5.538   9.695   1.044 -0.4317 -0.0988  0.2611
 2443SOL    HW113165   5.477   9.652   1.104  0.8846 -1.6680  0.5390
 2443SOL    HW213166   5.580   9.763   1.096 -1.4375  0.5510  0.2499
 2444SOL     OW13167  10.009   5.084   4.203 -0.1043 -0.3114  0.8144
 2444SOL    HW113168   9.970   5.016   4.258 -2.1085  0.8154  0.8858
 2444SOL    HW213169   9.992   5.166   4.250  0.2524  0.4520 -0.3374
 2445SOL     OW13170   3.168   5.951   3.167  0.4883 -0.1222 -0.3018
 2445SOL    HW113171   3.077   5.924   3.150  0.2238  0.1619  0.5846
 2445SOL    HW213172   3.165   5.988   3.256  1.4064  0.2041 -0.4020
 2446SOL     OW13173   5.162   6.229   4.925 -0.3795 -0.2504 -0.3793
 2446SOL    HW113174   5.089   6.190   4.877 -1.8083  1.8711 -0.1023
 2446SOL    HW213175   5.147   6.203   5.016  0.9698 -2.2958 -0.6998
 2447SOL     OW13176   8.954   5.998   4.252  0.1739 -0.3404 -0.0664
 2447SOL    HW113177   8.952   5.908   4.220 -0.1279 -0.7869  1.1856
 2447SOL    HW213178   8.898   5.998   4.329  0.2461  0.9057  0.0124
 2448SOL     OW13179   5.226   1.797   8.867  0.0181  0.4482  0.4251
 2448SOL    HW113180   5.267   1.747   8.797 -0.1685  0.3969  0.3492
 2448SOL    HW213181   5.181   1.869   8.822 -0.7289 -0.0069  0.4142
 2449SOL     OW13182   9.991   1.313   1.766  0.3085 -0.3563  0.9680
 2449SOL    HW113183   9.921   1.253   1.740 -1.0352  1.7457 -0.6488
 2449SOL    HW213184   9.967   1.397   1.725  4.1710  0.3099 -0.3805
 2450SOL     OW13185   2.739   7.548   8.617  0.9791 -0.2979 -0.1984
 2450SOL    HW113186   2.692   7.549   8.534 -0.9091 -0.1398  0.8149
 2450SOL    HW213187   2.830   7.528   8.593  1.0166  2.0792 -2.5124
 2451SOL     OW13188   7.856   8.851   5.766  0.3562  0.2518 -0.0335
 2451SOL    HW113189   7.869   8.946   5.756 -0.8477  0.3018 -1.3975
 2451SOL    HW213190   7.943   8.814   5.756  0.7023  1.1535 -0.4522
 2452SOL     OW13191   2.503   6.454   9.267  1.0254 -0.4607 -0.0244
 2452SOL    HW113192   2.537   6.478   9.181 -0.7469 -3.6299 -1.8023
 2452SOL    HW213193   2.574   6.405   9.308  1.8122  0.9081  0.3172
 2453SOL     OW13194   3.528   0.988   8.434 -0.1797 -0.7966  0.5317
 2453SOL    HW113195   3.517   0.908   8.383  0.6562  0.2375 -1.3837
 2453SOL    HW213196   3.621   0.989   8.459 -0.2046 -0.4668  0.6200
 2454SOL     OW13197   9.009   5.967   3.510  0.1126  0.1181  0.2102
 2454SOL    HW113198   8.954   6.036   3.549  1.0786  1.1991 -0.2797
 2454SOL    HW213199   9.090   6.012   3.487  0.8168 -1.2341 -0.0109
 2455SOL     OW13200   8.148   9.945   5.305 -0.1871  0.3522 -0.2486
 2455SOL    HW113201   8.075   9.898   5.345  1.6903 -1.3861  1.3787
 2455SOL    HW213202   8.201   9.975   5.380  1.8509 -0.2917 -1.3475
 2456SOL     OW13203   1.086   9.473   3.997  0.3562  0.1757  0.4912
 2456SOL    HW113204   1.073   9.488   3.904  1.2486  2.0256  0.6305
 2456SOL    HW213205   1.126   9.386   4.002  1.8676  0.7511 -0.9770
 2457SOL     OW13206   5.490   3.075   4.623 -0.0336  0.1520 -0.4939
 2457SOL    HW113207   5.550   3.106   4.555  0.5515 -1.9257 -0.9941
 2457SOL    HW213208   5.543   3.067   4.702 -0.0098 -0.1892 -0.5413
 2458SOL     OW13209   8.834   4.307   7.368 -0.1615 -0.0240  0.1040
 2458SOL    HW113210   8.802   4.286   7.281  1.3567 -2.1794 -0.0197
 2458SOL    HW213211   8.915   4.355   7.353 -0.5356  0.7019  0.3588
 2459SOL     OW13212   4.652  10.712   5.287 -0.0845  0.1648  0.0013
 2459SOL    HW113213   4.699  10.638   5.326  0.1810  0.8392  0.9838
 2459SOL    HW213214   4.582  10.732   5.350  0.1905  1.1041  0.0217
 2460SOL     OW13215   8.906   9.854   3.613  0.0752 -0.2355 -0.3779
 2460SOL    HW113216   8.826   9.894   3.578  0.1921 -0.9727 -1.5438
 2460SOL    HW213217   8.944   9.806   3.539  1.5650  0.0326  0.1724
 2461SOL     OW13218   1.459   0.038   6.574 -0.0841 -0.1837  0.1771
 2461SOL    HW113219   1.510   0.065   6.498  0.8496 -1.3948  0.3388
 2461SOL    HW213220   1.368   0.047   6.546  0.2433 -0.1218 -0.9011
 2462SOL     OW13221   8.469   4.219   9.076  0.7920  0.0827 -0.1256
 2462SOL    HW113222   8.513   4.184   9.154 -0.2903  0.0171  0.4654
 2462SOL    HW213223   8.424   4.298   9.107 -0.3246 -0.3928 -0.4875
 2463SOL     OW13224   9.060   3.899  10.633  0.1396  0.0782 -0.3977
 2463SOL    HW113225   8.990   3.834  10.624  1.2209 -1.0278 -1.0504
 2463SOL    HW213226   9.115   3.865  10.703  0.4966  0.5108 -0.4669
 2464SOL     OW13227   4.448   6.922   9.293  0.0566 -0.1142 -0.0518
 2464SOL    HW113228   4.527   6.904   9.243  0.4168  1.4164 -0.1016
 2464SOL    HW213229   4.455   6.866   9.370  0.6081 -0.8488 -0.6279
 2465SOL     OW13230   9.619   2.181   5.597  0.3219  0.5478  0.3529
 2465SOL    HW113231   9.578   2.104   5.637 -2.1075  3.0543  3.1190
 2465SOL    HW213232   9.698   2.195   5.649  0.4581  0.2925  0.2197
 2466SOL     OW13233  10.521   0.429   5.419 -0.3434 -0.4972  0.1713
 2466SOL    HW113234  10.549   0.393   5.503  0.3333  1.6783  0.9285
 2466SOL    HW213235  10.505   0.521   5.436 -0.8758 -0.1421 -1.9497
 2467SOL     OW13236   5.843  10.565   4.071  0.1642 -0.2376  0.3359
 2467SOL    HW113237   5.910  10.503   4.044 -0.9447 -1.5056  0.3632
 2467SOL    HW213238   5.869  10.593   4.158  1.5979  0.6917 -0.3706
 2468SOL     OW13239   0.054   4.496   8.507  0.9074  0.0229 -0.1127
 2468SOL    HW113240   0.093   4.528   8.588  0.3077  0.3829  0.0376
 2468SOL    HW213241   0.109   4.422   8.482  1.3470  0.1695  0.3949
 2469SOL     OW13242   2.875   9.064   6.139  0.5991  0.0193 -0.2079
 2469SOL    HW113243   2.825   9.090   6.062  0.8435  0.5800 -0.1868
 2469SOL    HW213244   2.819   9.091   6.213  0.7375  0.2598 -0.1881
 2470SOL     OW13245   5.793   6.637   8.243 -0.2491 -0.5585  0.4810
 2470SOL    HW113246   5.853   6.637   8.318 -1.3955 -0.6328  1.4389
 2470SOL    HW213247   5.774   6.545   8.227  0.2520 -0.5609 -0.1307
 2471SOL     OW13248   6.775   0.284   7.937 -0.7267  0.1494 -0.3374
 2471SOL    HW113249   6.708   0.305   8.002  0.6202 -0.1457  1.1923
 2471SOL    HW213250   6.785   0.189   7.944  1.0594  0.3727  0.7315
 2472SOL     OW13251   8.313  10.245   4.902 -0.2512  0.1589  0.1033
 2472SOL    HW113252   8.370  10.209   4.835 -0.3339 -0.1917  0.2172
 2472SOL    HW213253   8.334  10.338   4.905 -0.9324  0.3660 -1.0838
 2473SOL     OW13254   5.436  10.163   8.730  0.2217 -0.5399 -0.2717
 2473SOL    HW113255   5.499  10.160   8.802 -0.5077  2.4327  0.6212
 2473SOL    HW213256   5.350  10.159   8.772 -0.2151  0.8015 -0.9947
 2474SOL     OW13257   9.894   2.984   3.191  0.5338  0.4316 -0.2028
 2474SOL    HW113258   9.959   2.976   3.261  0.4689 -0.0084 -0.1925
 2474SOL    HW213259   9.908   2.907   3.136  0.7572  0.9041 -0.8255
 2475SOL     OW13260   7.425   8.411   2.870 -0.2327  0.1623 -0.3829
 2475SOL    HW113261   7.461   8.322   2.875 -2.5855 -0.9947 -2.2233
 2475SOL    HW213262   7.500   8.466   2.846  1.2518 -1.2927  0.6993
 2476SOL     OW13263   7.395   2.246   4.049  0.6202  0.7654  0.2501
 2476SOL    HW113264   7.400   2.178   3.982 -0.0969  0.4665  0.4863
 2476SOL    HW213265   7.475   2.297   4.038  1.8534 -0.9125  0.9106
 2477SOL     OW13266   6.359  10.483   3.850  0.0730  0.1139  0.7271
 2477SOL    HW113267   6.400  10.459   3.933  2.5587 -0.4764 -0.5579
 2477SOL    HW213268   6.433  10.508   3.794 -1.4931  0.2874 -1.3740
 2478SOL     OW13269   6.687   2.584   7.615 -0.5539  0.0595 -0.1438
 2478SOL    HW113270   6.742   2.543   7.683 -1.4006 -0.1773  0.4102
 2478SOL    HW213271   6.635   2.649   7.662  0.4714  1.5299 -0.9462
 2479SOL     OW13272   7.309   1.367   2.033 -0.4434  0.7381  0.0023
 2479SOL    HW113273   7.232   1.309   2.041 -0.7054  0.9014 -1.2255
 2479SOL    HW213274   7.296   1.432   2.102 -1.2177  0.5313  0.0681
 2480SOL     OW13275   6.175   7.119   1.863 -0.0286  0.2854 -0.1464
 2480SOL    HW113276   6.139   7.195   1.909 -3.1454 -1.4731  0.5499
 2480SOL    HW213277   6.177   7.049   1.929  1.6140 -0.6298 -1.0781
 2481SOL     OW13278   9.356   1.594   6.702  0.3221  0.0129 -0.7056
 2481SOL    HW113279   9.279   1.543   6.679  1.4573 -2.5509  0.6933
 2481SOL    HW213280   9.407   1.599   6.622  0.6661 -2.1071 -0.6912
 2482SOL     OW13281   7.497  10.122   8.629 -0.1150  0.0620  0.7319
 2482SOL    HW113282   7.444  10.085   8.699  0.5356 -0.0146  1.1911
 2482SOL    HW213283   7.586  10.124   8.664  0.7877 -2.6785 -1.0810
 2483SOL     OW13284  10.387   2.860   1.047  0.6715 -0.1975 -0.2389
 2483SOL    HW113285  10.350   2.942   1.081  1.8100 -0.2894  1.3378
 2483SOL    HW213286  10.311   2.810   1.018 -0.3426  0.2119  1.5375
 2484SOL     OW13287   5.994   4.085   7.542 -0.2995  0.0727  0.4298
 2484SOL    HW113288   6.014   4.085   7.636 -3.0763  3.2591  1.1893
 2484SOL    HW213289   5.936   4.009   7.530 -0.6359  0.1444  1.4939
 2485SOL     OW13290   2.392   3.586  10.439 -0.4290  0.2840  0.6166
 2485SOL    HW113291   2.365   3.671  10.406  0.1865 -0.8873 -3.4265
 2485SOL    HW213292   2.317   3.529  10.424  0.0011 -0.3870  0.9617
 2486SOL     OW13293   9.010   0.158   8.915 -0.0623  0.3780  0.3096
 2486SOL    HW113294   8.951   0.089   8.885  1.2879 -0.4961 -0.4643
 2486SOL    HW213295   8.963   0.239   8.900 -0.4380 -0.1877 -1.8233
 2487SOL     OW13296   1.900   1.185   7.343 -0.1475 -0.8090  0.2217
 2487SOL    HW113297   1.947   1.266   7.324 -2.3842  0.6567  0.5550
 2487SOL    HW213298   1.953   1.141   7.409  0.2133  1.3488  1.4591
 2488SOL     OW13299   1.736  10.093   4.866 -0.0914 -0.0771  0.3095
 2488SOL    HW113300   1.730   9.998   4.870 -4.5366 -0.0518 -0.5531
 2488SOL    HW213301   1.714  10.122   4.954 -0.9524  0.1509  0.0214
 2489SOL     OW13302   3.564   1.977   6.559 -0.5505 -0.1283 -0.3902
 2489SOL    HW113303   3.658   1.966   6.573 -0.6174  1.0174  1.2760
 2489SOL    HW213304   3.557   2.042   6.489 -0.1385 -1.2175 -1.4796
 2490SOL     OW13305   6.401   7.389   3.454 -0.5677  0.5652 -0.6273
 2490SOL    HW113306   6.442   7.352   3.532  0.0370 -0.7757 -1.5541
 2490SOL    HW213307   6.344   7.458   3.488  1.0212  1.2411  0.8578
 2491SOL     OW13308   0.969   6.715   9.988  0.2736 -0.0624 -0.1386
 2491SOL    HW113309   1.018   6.771  10.048  3.0946 -0.7029 -1.6514
 2491SOL    HW213310   0.905   6.670  10.044  3.5471 -1.5987  2.7702
 2492SOL     OW13311   1.606   1.314   4.671 -0.2536 -0.1994  0.4669
 2492SOL    HW113312   1.676   1.274   4.723  0.0569  1.1983  1.1529
 2492SOL    HW213313   1.582   1.393   4.719  0.5762  1.5832 -1.8867
 2493SOL     OW13314   3.041   0.524   5.754  0.5549  0.2769 -0.6474
 2493SOL    HW113315   3.119   0.501   5.805 -1.3758 -2.3543  1.3473
 2493SOL    HW213316   3.019   0.613   5.782  0.9843 -0.1861  1.2831
 2494SOL     OW13317   5.881   6.147  10.272  0.1376 -0.1483  0.6725
 2494SOL    HW113318   5.936   6.209  10.321 -0.4665  0.1144  1.0227
 2494SOL    HW213319   5.930   6.132  10.191  0.3983  0.6184  0.6773
 2495SOL     OW13320   4.301   7.591   1.116  0.1439 -0.3333  0.6559
 2495SOL    HW113321   4.313   7.665   1.055 -2.5390 -0.2032  0.1816
 2495SOL    HW213322   4.241   7.532   1.071 -0.4951 -1.1195  2.4605
 2496SOL     OW13323   5.369   9.535   7.839 -0.2921 -0.3658 -0.2600
 2496SOL    HW113324   5.441   9.492   7.886 -1.3307 -1.3350  0.5168
 2496SOL    HW213325   5.398   9.625   7.828  0.7711 -0.5718  0.6164
 2497SOL     OW13326   2.370   1.339   0.847  0.0307  0.3002 -0.4177
 2497SOL    HW113327   2.278   1.365   0.849 -0.2531 -0.5643 -1.3044
 2497SOL    HW213328   2.417   1.419   0.823 -0.5258  0.6408 -0.3989
 2498SOL     OW13329   4.535  10.597  10.014 -0.2029 -0.1222 -0.1794
 2498SOL    HW113330   4.585  10.517   9.994  0.7342  0.1387  0.9774
 2498SOL    HW213331   4.457  10.566  10.060 -0.6099 -0.4596 -1.0715
 2499SOL     OW13332   3.190   7.557   9.627 -0.2738  0.0848 -0.5228
 2499SOL    HW113333   3.151   7.561   9.540 -0.8848 -0.7205 -0.2998
 2499SOL    HW213334   3.176   7.644   9.664  0.2763  0.5257 -1.3442
 2500SOL     OW13335   5.945   3.805  10.193  0.0382  0.0531  0.1845
 2500SOL    HW113336   5.881   3.771  10.130 -0.5101 -0.1831  0.8519
 2500SOL    HW213337   5.894   3.866  10.246  0.4599  0.1276  0.5021
 2501SOL     OW13338   5.829   4.407   1.664 -0.0883 -0.2245 -0.3901
 2501SOL    HW113339   5.765   4.431   1.596 -1.1195 -0.3352  0.5123
 2501SOL    HW213340   5.873   4.489   1.685 -0.2934 -0.0407 -0.6597
 2502SOL     OW13341   6.635   4.779   7.161  0.7447  0.4306 -0.0857
 2502SOL    HW113342   6.640   4.811   7.251  1.5425 -0.8530  0.3538
 2502SOL    HW213343   6.674   4.849   7.108 -0.1251  1.3817  0.4968
 2503SOL     OW13344   4.005   6.913   1.945  0.0524  0.0880 -0.2843
 2503SOL    HW113345   3.959   6.939   2.025 -0.0239 -1.2074  0.1177
 2503SOL    HW213346   4.096   6.939   1.960 -0.2941  1.5526 -0.5758
 2504SOL     OW13347   8.689   5.017   2.107 -0.0134 -0.7564  0.2336
 2504SOL    HW113348   8.774   4.984   2.077  0.0968 -0.3525  0.0949
 2504SOL    HW213349   8.637   5.025   2.027 -0.2391 -1.1523  0.3361
 2505SOL     OW13350   5.895   8.712   7.701 -0.8752 -0.7426 -0.3490
 2505SOL    HW113351   5.971   8.770   7.710 -0.7383 -0.6511 -1.8621
 2505SOL    HW213352   5.915   8.638   7.759  0.3825 -0.7279 -0.7271
 2506SOL     OW13353   6.011   2.517  10.188  0.2562 -0.2485 -0.1324
 2506SOL    HW113354   6.027   2.532  10.281 -1.5028  0.4636  0.0941
 2506SOL    HW213355   6.089   2.553  10.144  0.0960  1.5079  0.9479
 2507SOL     OW13356   3.241   2.554   3.099  0.2613  0.2481 -0.3168
 2507SOL    HW113357   3.223   2.625   3.161 -1.4392 -0.2319 -0.2143
 2507SOL    HW213358   3.169   2.559   3.035 -0.7415 -2.2133  0.4924
 2508SOL     OW13359   3.551   7.966   4.736 -0.2915 -0.3742 -0.0570
 2508SOL    HW113360   3.459   7.948   4.751  0.0763 -1.0764  1.5234
 2508SOL    HW213361   3.597   7.892   4.774  1.0201  1.1286  1.4539
 2509SOL     OW13362   3.917   5.412   5.690  0.5877 -0.3473 -0.2346
 2509SOL    HW113363   3.926   5.321   5.716 -0.9286 -0.1869  0.9356
 2509SOL    HW213364   3.938   5.462   5.769 -0.5747  0.2423 -0.2760
 2510SOL     OW13365   3.371   4.398   7.486  0.4255  0.2386  0.0316
 2510SOL    HW113366   3.407   4.481   7.517 -0.5114  0.1117  1.5370
 2510SOL    HW213367   3.300   4.425   7.427 -0.5000  0.5636  1.2402
 2511SOL     OW13368   5.775   0.960   0.800  0.3665  0.2098 -0.4171
 2511SOL    HW113369   5.693   1.002   0.825  1.0211  1.1243  0.2886
 2511SOL    HW213370   5.817   1.023   0.741  1.5454  0.7916  0.9716
 2512SOL     OW13371   0.760  10.639   4.904  0.3607  0.2465  0.9038
 2512SOL    HW113372   0.733  10.647   4.813  2.1152 -1.3426  0.1706
 2512SOL    HW213373   0.682  10.661   4.954 -1.0497 -0.1366 -1.0031
 2513SOL     OW13374   3.201  10.166   3.649  0.1319 -0.1033 -0.1529
 2513SOL    HW113375   3.155  10.222   3.586  1.1281 -0.3063 -1.0954
 2513SOL    HW213376   3.279  10.215   3.672 -1.5059  1.2384  3.1530
 2514SOL     OW13377   8.574   3.320   3.273  0.5973 -0.2274  0.0609
 2514SOL    HW113378   8.587   3.229   3.298 -0.5021 -1.1387 -2.4401
 2514SOL    HW213379   8.479   3.330   3.266  0.4293  2.0754  3.3400
 2515SOL     OW13380   7.376  10.277   8.236  0.2340 -0.2732  0.0060
 2515SOL    HW113381   7.282  10.262   8.247  0.1645  0.8138  1.0692
 2515SOL    HW213382   7.382  10.331   8.157  0.0639 -1.2669 -0.6965
 2516SOL     OW13383   2.188   7.208   5.823 -0.4927  0.4911  0.0980
 2516SOL    HW113384   2.276   7.227   5.789 -0.7654 -1.0313 -1.6274
 2516SOL    HW213385   2.204   7.173   5.911  0.8599 -1.5761 -0.8821
 2517SOL     OW13386   5.387   0.551   0.769  0.6284 -0.1912 -0.1390
 2517SOL    HW113387   5.433   0.627   0.804 -1.0654  1.1090 -0.6149
 2517SOL    HW213388   5.456   0.497   0.730  2.0057  0.4959  1.2249
 2518SOL     OW13389   3.341   3.041   5.583  0.2241 -0.9677  0.1687
 2518SOL    HW113390   3.310   3.087   5.505 -1.1497 -0.7364  0.8321
 2518SOL    HW213391   3.379   3.109   5.638  0.6475 -1.0441 -0.0220
 2519SOL     OW13392   4.928   2.736   9.046 -0.0347 -0.4225  0.4059
 2519SOL    HW113393   4.899   2.668   8.985 -0.1898 -0.2792  0.3187
 2519SOL    HW213394   4.959   2.807   8.989 -0.7182 -0.0529  0.4841
 2520SOL     OW13395   2.331   6.427   4.747  0.2178  0.0355 -0.3188
 2520SOL    HW113396   2.368   6.340   4.763 -1.4926 -0.5131  0.8857
 2520SOL    HW213397   2.236   6.414   4.749 -0.0936  2.1267  1.1641
 2521SOL     OW13398   2.797   6.363   5.742  0.0569 -0.3076 -0.6633
 2521SOL    HW113399   2.787   6.313   5.823 -0.4785  1.2370  0.2762
 2521SOL    HW213400   2.725   6.333   5.686 -0.8113  0.0298  0.2400
 2522SOL     OW13401   3.626   9.980   9.504  0.4198  0.1338 -0.4664
 2522SOL    HW113402   3.684   9.946   9.435  1.7408 -1.9175  1.5167
 2522SOL    HW213403   3.539   9.949   9.479  0.9937 -1.2309 -0.8694
 2523SOL     OW13404  10.597   3.561   4.781  1.1599  0.3539  0.4054
 2523SOL    HW113405  10.507   3.569   4.813  1.3304  1.9118  0.5507
 2523SOL    HW213406  10.613   3.466   4.777 -0.3442  0.0691  0.7478
 2524SOL     OW13407   2.393   6.554   7.889  0.1302 -0.1382 -0.0084
 2524SOL    HW113408   2.325   6.611   7.853 -0.0222 -0.4566 -0.2266
 2524SOL    HW213409   2.443   6.525   7.813  0.4080 -0.0421  0.1340
 2525SOL     OW13410   2.429   7.316   2.547 -0.1590 -0.2771 -0.5808
 2525SOL    HW113411   2.367   7.244   2.541 -0.7935  0.2020  0.1320
 2525SOL    HW213412   2.502   7.289   2.491 -1.1883 -0.6472 -1.7825
 2526SOL     OW13413   3.614   8.634   6.212 -0.1059  0.7870  0.1364
 2526SOL    HW113414   3.680   8.567   6.194 -0.9686 -0.6328  1.9838
 2526SOL    HW213415   3.540   8.610   6.156 -0.9060 -0.6658  1.7192
 2527SOL     OW13416   7.144   5.735   4.577 -0.2177  0.1592 -0.3352
 2527SOL    HW113417   7.079   5.800   4.549 -0.1423 -0.8790 -3.3238
 2527SOL    HW213418   7.122   5.657   4.527  1.7853 -1.0340  0.5472
 2528SOL     OW13419   7.104   3.381   4.452  0.7050 -0.1269 -0.5502
 2528SOL    HW113420   7.030   3.326   4.426  0.5594 -0.2763  0.1755
 2528SOL    HW213421   7.172   3.320   4.479  0.1581  0.0309  1.3220
 2529SOL     OW13422   0.153   8.156   0.612  0.6696 -0.2976  0.1500
 2529SOL    HW113423   0.210   8.154   0.535  0.4909 -1.6003  0.0347
 2529SOL    HW213424   0.183   8.083   0.666 -1.0641 -1.1878 -0.0509
 2530SOL     OW13425   0.660   0.386   5.748 -0.3013 -0.2437 -0.0030
 2530SOL    HW113426   0.645   0.299   5.785 -0.1072 -0.1224  0.3669
 2530SOL    HW213427   0.726   0.425   5.805 -0.1801  0.0401 -0.3363
 2531SOL     OW13428   1.054   8.001   9.958  0.2549 -0.0488  0.2083
 2531SOL    HW113429   1.047   7.923   9.903  0.8044 -0.8255  1.2153
 2531SOL    HW213430   1.143   7.998   9.993  0.6290  1.5516 -0.4766
 2532SOL     OW13431  10.647   0.286   6.969 -0.0796  0.2270 -0.0754
 2532SOL    HW113432  10.641   0.191   6.962 -0.7904  0.2782 -0.2143
 2532SOL    HW213433  10.697   0.301   7.049 -1.6707 -0.2640  1.0632
 2533SOL     OW13434   0.027   8.426   4.682  0.2222 -0.0973 -0.6739
 2533SOL    HW113435  -0.052   8.407   4.732  1.9601 -1.1458  1.9221
 2533SOL    HW213436   0.044   8.519   4.700  1.3101 -0.6655  1.6176
 2534SOL     OW13437   6.254   1.652   0.793  0.2305 -0.3477  0.2144
 2534SOL    HW113438   6.350   1.653   0.789  0.2028  1.2721 -1.7966
 2534SOL    HW213439   6.228   1.596   0.719 -0.3403  1.4195 -0.9823
 2535SOL     OW13440   4.678   0.456   8.848 -1.1551  0.5676  0.5398
 2535SOL    HW113441   4.714   0.530   8.898 -0.3631 -0.9249  2.3175
 2535SOL    HW213442   4.631   0.405   8.914 -0.8519 -1.0239 -0.4491
 2536SOL     OW13443   1.855   2.852   3.459 -0.8903  0.5931  0.3783
 2536SOL    HW113444   1.841   2.852   3.554 -0.1019 -0.9256  0.5404
 2536SOL    HW213445   1.937   2.900   3.447  0.9328 -2.1069  0.9126
 2537SOL     OW13446   2.625   3.578  10.287 -0.2418  0.0693  0.4177
 2537SOL    HW113447   2.633   3.656  10.232 -0.3220  1.7374  2.6221
 2537SOL    HW213448   2.537   3.583  10.324  0.0339 -0.6105  1.2145
 2538SOL     OW13449   3.537   1.787   1.922  0.3607  0.6690  0.1177
 2538SOL    HW113450   3.547   1.878   1.895 -0.4250  0.9409  0.7227
 2538SOL    HW213451   3.515   1.792   2.015  2.0303 -0.2041  0.6011
 2539SOL     OW13452   1.763   5.992   8.261 -0.7179  0.4548 -0.1900
 2539SOL    HW113453   1.830   5.981   8.194 -0.3451 -0.9630  0.3721
 2539SOL    HW213454   1.810   5.980   8.344 -1.2125  1.9617  0.3318
 2540SOL     OW13455   5.763   0.555   5.046  0.6959  0.0370 -0.2793
 2540SOL    HW113456   5.674   0.530   5.070  1.5055 -1.1413  1.7527
 2540SOL    HW213457   5.782   0.505   4.967  0.3469 -1.5631  0.6158
 2541SOL     OW13458   0.423   8.963   3.314 -0.0899  0.4177  0.4305
 2541SOL    HW113459   0.338   8.945   3.354  0.6272  0.3536  2.0296
 2541SOL    HW213460   0.479   8.892   3.346  0.4376  0.1010 -1.1044
 2542SOL     OW13461   1.034   9.567   5.088  0.5019 -0.5983  0.4293
 2542SOL    HW113462   1.010   9.548   4.997  0.8055 -0.1223  0.2419
 2542SOL    HW213463   1.117   9.520   5.101  0.6356 -0.3850  0.3496
 2543SOL     OW13464   4.094   3.435   3.475  0.2511  0.5003  0.2967
 2543SOL    HW113465   4.124   3.346   3.494 -1.6902 -0.1773  0.4143
 2543SOL    HW213466   4.057   3.430   3.387 -0.5666  0.9967  0.6009
 2544SOL     OW13467   1.106   4.078   0.640  0.2084 -0.2139 -0.0731
 2544SOL    HW113468   1.127   4.139   0.711 -1.7600  2.2044 -1.4371
 2544SOL    HW213469   1.190   4.062   0.597  1.0180  0.2423  1.2664
 2545SOL     OW13470   2.560   5.087   3.884  0.3788 -0.4024 -0.1907
 2545SOL    HW113471   2.515   5.145   3.822 -0.9960  0.2411  1.3385
 2545SOL    HW213472   2.495   5.019   3.903 -0.9495  1.6893  3.6968
 2546SOL     OW13473   5.563   9.758   9.431 -0.1972 -0.4974  0.6386
 2546SOL    HW113474   5.620   9.713   9.369 -1.2634  0.8337 -1.3919
 2546SOL    HW213475   5.481   9.773   9.383 -0.8710  1.0933  2.1699
 2547SOL     OW13476   3.098   7.546   4.723 -0.5504  0.3252  0.2692
 2547SOL    HW113477   3.024   7.553   4.662 -0.4765 -0.0464  0.1378
 2547SOL    HW213478   3.092   7.457   4.757 -1.1713  0.8218  1.5395
 2548SOL     OW13479   6.955  10.641  10.038 -0.2629 -0.1522  0.4460
 2548SOL    HW113480   6.887  10.704  10.014 -0.2728 -1.0463 -2.2180
 2548SOL    HW213481   6.936  10.618  10.129 -1.2053  2.4395  0.9736
 2549SOL     OW13482   8.536   7.115   4.396  0.6774  0.4112  0.0404
 2549SOL    HW113483   8.492   7.197   4.376 -0.1957  0.0639  0.5198
 2549SOL    HW213484   8.469   7.059   4.434  0.9314 -1.0055 -1.4710
 2550SOL     OW13485   9.119   2.807   9.057  0.2222  1.0007 -0.0283
 2550SOL    HW113486   9.126   2.859   8.976  1.7048 -0.2502 -0.7617
 2550SOL    HW213487   9.049   2.745   9.039  0.6370  0.6368 -0.4359
 2551SOL     OW13488   9.099   5.151   4.315  0.0807  0.4596 -0.1707
 2551SOL    HW113489   9.037   5.192   4.255 -0.8857  1.8762  1.6697
 2551SOL    HW213490   9.184   5.185   4.289 -0.1375 -0.0109 -1.5508
 2552SOL     OW13491   6.314   5.704   4.826  0.4026  0.0521  0.1657
 2552SOL    HW113492   6.408   5.709   4.811  0.4183 -0.3122  0.1388
 2552SOL    HW213493   6.298   5.763   4.899  0.7377 -0.3417  0.5576
 2553SOL     OW13494   4.659   5.541   4.770  0.3488 -0.2815 -0.0937
 2553SOL    HW113495   4.606   5.552   4.692 -0.7748  0.6908  0.7728
 2553SOL    HW213496   4.604   5.573   4.842  1.4224 -0.9461  1.0726
 2554SOL     OW13497   3.216   9.676   3.316  0.1372 -0.4617 -0.8329
 2554SOL    HW113498   3.270   9.738   3.365 -0.9921 -0.3719  0.3462
 2554SOL    HW213499   3.194   9.723   3.235  2.3189 -0.7464 -1.6589
 2555SOL     OW13500   1.437   1.198   3.805 -0.0155  0.0899  0.0289
 2555SOL    HW113501   1.370   1.237   3.750  1.5910 -0.3616 -2.4420
 2555SOL    HW213502   1.457   1.264   3.871  0.0652  1.9862 -1.8015
 2556SOL     OW13503   5.045   5.947  10.610 -0.2287  0.1991 -0.7734
 2556SOL    HW113504   5.064   5.877  10.547  1.3443  0.4210 -0.5936
 2556SOL    HW213505   5.116   6.011  10.596  0.3677  0.1075  1.4295
 2557SOL     OW13506   4.474  10.412   4.691  0.4481 -0.4069  0.6667
 2557SOL    HW113507   4.549  10.372   4.736  1.1442  1.6414  1.4817
 2557SOL    HW213508   4.505  10.500   4.667 -1.5610  0.3544  0.6570
 2558SOL     OW13509   4.033   0.963   7.365 -0.3939  0.6363  0.1505
 2558SOL    HW113510   4.033   1.055   7.393 -0.4141  1.1811 -1.5151
 2558SOL    HW213511   3.944   0.948   7.333 -0.6513 -0.2568  1.2149
 2559SOL     OW13512   2.674   6.414   3.900 -0.1165  0.2625 -0.5775
 2559SOL    HW113513   2.584   6.448   3.907  0.0476  0.5661  0.1949
 2559SOL    HW213514   2.695   6.384   3.988  0.1447 -0.8504 -1.0120
 2560SOL     OW13515   9.001   4.463   0.390 -0.9094  0.4425 -0.2816
 2560SOL    HW113516   8.936   4.491   0.326 -0.3920  1.4244 -0.3874
 2560SOL    HW213517   9.019   4.540   0.444  1.7973  0.8929 -1.6502
 2561SOL     OW13518   2.568   9.858   4.058 -0.4305 -0.3452  0.1413
 2561SOL    HW113519   2.581   9.949   4.084  0.6888  0.0368 -1.6119
 2561SOL    HW213520   2.620   9.807   4.120  0.1264  0.3281  0.2302
 2562SOL     OW13521   4.351  10.685   4.803  1.1447  0.5972  0.7459
 2562SOL    HW113522   4.316  10.600   4.829  1.1353 -0.2490 -1.7648
 2562SOL    HW213523   4.424  10.664   4.745  0.4763  2.2621 -0.7826
 2563SOL     OW13524   9.600   2.463   3.994  0.0644 -0.0551 -0.1919
 2563SOL    HW113525   9.554   2.433   4.072  0.0426  0.6701  0.0758
 2563SOL    HW213526   9.639   2.547   4.019 -0.1780  0.3205 -1.0423
 2564SOL     OW13527   1.847   9.388   2.890  0.6112 -0.0530 -0.2516
 2564SOL    HW113528   1.931   9.417   2.926 -0.0391  0.5117  0.8494
 2564SOL    HW213529   1.781   9.430   2.946 -0.4006 -2.0947  0.1598
 2565SOL     OW13530   1.579   8.213   3.303 -0.0282 -0.8677  0.2705
 2565SOL    HW113531   1.595   8.292   3.252 -2.1670  0.1349  1.0321
 2565SOL    HW213532   1.652   8.154   3.280  0.3145  0.3738 -2.1634
 2566SOL     OW13533   1.447   8.485   4.674  0.4255 -0.1069  0.5086
 2566SOL    HW113534   1.503   8.475   4.750  1.4293  1.4494  0.0099
 2566SOL    HW213535   1.497   8.539   4.613 -0.7739 -0.4188 -0.8280
 2567SOL     OW13536   6.052   2.375   3.366  0.0337 -0.2369 -0.1696
 2567SOL    HW113537   6.043   2.469   3.349 -2.2607  0.0443  1.9004
 2567SOL    HW213538   6.025   2.333   3.285 -1.5717  0.9292 -0.2898
 2568SOL     OW13539   3.641   4.392   5.373 -0.0470 -0.0093 -0.5064
 2568SOL    HW113540   3.697   4.319   5.347  0.4119 -0.6665  2.0216
 2568SOL    HW213541   3.560   4.351   5.403 -0.8556  0.7472 -1.5986
 2569SOL     OW13542   3.622   3.529   4.547 -0.2044 -0.3722  0.0607
 2569SOL    HW113543   3.676   3.459   4.584 -0.5505  0.0662  1.4680
 2569SOL    HW213544   3.534   3.492   4.545 -0.1646 -0.4427 -0.4811
 2570SOL     OW13545   8.432   3.467   9.098 -0.4586 -0.3390  0.0179
 2570SOL    HW113546   8.367   3.499   9.035 -0.5468  2.2898  1.3245
 2570SOL    HW213547   8.404   3.504   9.182  0.1629 -2.9813  1.5183
 2571SOL     OW13548   7.144   3.134   4.723 -1.1988  0.5402  0.2923
 2571SOL    HW113549   7.216   3.134   4.660 -0.5992 -0.2558  0.9463
 2571SOL    HW213550   7.152   3.218   4.768 -1.5950  1.0871 -0.6303
 2572SOL     OW13551   8.677  10.308  10.300  0.3371  0.0026  0.0238
 2572SOL    HW113552   8.666  10.305  10.205 -1.4550  0.5316  0.1716
 2572SOL    HW213553   8.594  10.342  10.332  0.9820  0.0092  1.7808
 2573SOL     OW13554   4.602   3.321   3.543  0.0532  0.0976 -0.3969
 2573SOL    HW113555   4.512   3.313   3.512  0.6814  1.8749 -2.9782
 2573SOL    HW213556   4.644   3.239   3.517 -0.3380  0.0978 -1.0550
 2574SOL     OW13557   1.741   0.942   1.565  0.2628 -0.9246  0.1816
 2574SOL    HW113558   1.777   1.008   1.624  0.3826 -0.3218 -0.5532
 2574SOL    HW213559   1.659   0.980   1.534  0.4926 -0.9736 -0.4995
 2575SOL     OW13560   2.510   6.481   1.682  0.0209  0.0519  0.3511
 2575SOL    HW113561   2.594   6.510   1.646  0.0021  0.8499  0.9166
 2575SOL    HW213562   2.482   6.410   1.625 -0.6024  2.0408 -1.9837
 2576SOL     OW13563   8.610   3.711  10.502  0.2049  0.1378 -0.1311
 2576SOL    HW113564   8.528   3.668  10.526 -0.7712  1.9848  0.0458
 2576SOL    HW213565   8.593   3.749  10.416  0.5380  1.3057  0.2949
 2577SOL     OW13566  10.422   2.042   1.787  0.0526 -0.0822 -0.1956
 2577SOL    HW113567  10.457   2.116   1.837 -0.8410 -0.4781  1.0655
 2577SOL    HW213568  10.500   1.992   1.761  0.5304 -0.2610  1.4475
 2578SOL     OW13569  10.602   3.065   4.180  0.6281  0.3476 -0.5941
 2578SOL    HW113570  10.609   3.023   4.094 -0.1330 -0.8501 -0.1009
 2578SOL    HW213571  10.614   2.993   4.242  2.5827  1.4095  0.3560
 2579SOL     OW13572   9.231   4.170   9.348  0.0197  0.0787  0.2878
 2579SOL    HW113573   9.247   4.255   9.306 -0.2172 -1.2047 -2.6196
 2579SOL    HW213574   9.315   4.124   9.340 -0.0579 -0.2396  1.2156
 2580SOL     OW13575   6.069   3.639   1.134 -0.0520  0.7666  0.5594
 2580SOL    HW113576   6.164   3.634   1.141 -0.1513 -0.3667  1.2659
 2580SOL    HW213577   6.039   3.549   1.145 -0.9924  0.4159 -3.3839
 2581SOL     OW13578   1.959   8.987   8.928  0.1033 -0.0755 -0.2859
 2581SOL    HW113579   1.889   9.052   8.921 -1.0097 -1.1987 -0.0466
 2581SOL    HW213580   1.981   8.985   9.021  0.9000  0.7124 -0.4479
 2582SOL     OW13581   5.825   8.835   0.136 -0.1630  0.0219  0.0705
 2582SOL    HW113582   5.862   8.921   0.116 -1.2255  0.3042 -0.7889
 2582SOL    HW213583   5.897   8.774   0.123 -0.0092  0.5377 -1.7114
 2583SOL     OW13584   2.956   9.892  10.178 -0.5477  0.4132 -0.3762
 2583SOL    HW113585   2.870   9.933  10.188 -0.1189  1.5008 -0.9443
 2583SOL    HW213586   2.990   9.927  10.095 -0.5049 -1.7656 -1.3471
 2584SOL     OW13587   4.976  10.183   5.556 -0.4137  0.0275  0.5339
 2584SOL    HW113588   5.027  10.264   5.545 -1.2085  0.4092 -0.6186
 2584SOL    HW213589   4.928  10.196   5.638  2.6137 -1.1091  2.6542
 2585SOL     OW13590   5.744   9.816   8.918  0.2171  0.2799  0.2142
 2585SOL    HW113591   5.672   9.792   8.860  0.3414 -0.7243  0.4582
 2585SOL    HW213592   5.823   9.806   8.864  0.5362 -2.7886  1.1053
 2586SOL     OW13593  10.501   3.744   8.860 -0.0968 -0.4975 -0.2245
 2586SOL    HW113594  10.422   3.793   8.836 -0.0629 -0.3021  0.0615
 2586SOL    HW213595  10.484   3.655   8.828 -0.2219 -0.3359 -0.6060
 2587SOL     OW13596   1.657   2.963   1.852  0.0825  0.0709 -0.8236
 2587SOL    HW113597   1.738   3.008   1.873  0.2932 -0.1052 -1.2441
 2587SOL    HW213598   1.685   2.883   1.807 -0.1695 -1.4125  1.4537
 2588SOL     OW13599   6.156   2.618   2.169 -0.2763  0.1787  0.3901
 2588SOL    HW113600   6.180   2.567   2.092 -0.5603  0.4609  0.1081
 2588SOL    HW213601   6.209   2.582   2.240  0.3718  0.2591 -0.0473
 2589SOL     OW13602   2.875   0.506   6.335  0.0473 -0.5465  0.6615
 2589SOL    HW113603   2.791   0.525   6.376  0.8352  0.4206  1.9075
 2589SOL    HW213604   2.879   0.410   6.331 -0.7767 -0.6181  1.3159
 2590SOL     OW13605   2.096   1.417   0.818 -0.2646 -0.7709 -0.1383
 2590SOL    HW113606   2.038   1.456   0.884 -1.1168  0.3660 -1.4875
 2590SOL    HW213607   2.125   1.492   0.765  3.1017 -1.1793  0.9212
 2591SOL     OW13608   9.005   8.624   9.633 -0.1285 -0.7728 -0.0720
 2591SOL    HW113609   8.940   8.693   9.627  0.0245 -0.7641 -2.8596
 2591SOL    HW213610   8.978   8.572   9.709 -1.3315  1.2008  0.9206
 2592SOL     OW13611   3.001   8.587   7.076 -0.2760 -0.3101 -0.9570
 2592SOL    HW113612   2.988   8.646   7.151 -1.0330 -1.7510  0.0934
 2592SOL    HW213613   2.923   8.600   7.023 -1.0160 -1.2000 -0.1172
 2593SOL     OW13614   4.727   8.539   5.572 -0.3123 -0.1823  0.7861
 2593SOL    HW113615   4.807   8.522   5.621  0.9530  0.8254 -0.8051
 2593SOL    HW213616   4.734   8.631   5.546 -0.8458 -0.6792 -1.3299
 2594SOL     OW13617   9.697   1.718   6.236  0.1711  0.1067  0.6637
 2594SOL    HW113618   9.629   1.651   6.229 -0.4765  0.1244  4.5838
 2594SOL    HW213619   9.772   1.672   6.273  0.9274  0.8704  0.1051
 2595SOL     OW13620   2.496   0.686   3.914  0.3157 -0.4821  0.2797
 2595SOL    HW113621   2.463   0.606   3.957  0.6792 -1.5324 -1.3085
 2595SOL    HW213622   2.540   0.654   3.836 -0.0722  1.3454 -0.7396
 2596SOL     OW13623   3.737   3.977   6.830 -0.2337 -0.3098  0.1968
 2596SOL    HW113624   3.747   4.010   6.741 -0.7576  0.3993  0.3962
 2596SOL    HW213625   3.825   3.981   6.868  0.1632 -1.4315 -0.5587
 2597SOL     OW13626   6.490  10.310   0.543 -0.1139  0.3569 -0.0993
 2597SOL    HW113627   6.540  10.373   0.492  1.3717 -1.6509 -1.2544
 2597SOL    HW213628   6.475  10.237   0.484 -1.5451 -0.5199  1.2621
 2598SOL     OW13629   1.755   9.743   7.779  0.4278  0.1357 -0.3965
 2598SOL    HW113630   1.824   9.690   7.739  1.1672 -0.1077  1.0948
 2598SOL    HW213631   1.675   9.719   7.732  1.2172 -0.1824 -1.6229
 2599SOL     OW13632  10.704   8.863   5.747  0.1071  0.1789 -0.1923
 2599SOL    HW113633  10.650   8.818   5.812 -0.4402 -0.0303 -0.7771
 2599SOL    HW213634  10.664   8.950   5.740  1.0526  0.7177  0.8020
 2600SOL     OW13635   5.700   7.252   5.864  0.2040 -0.0693  0.2388
 2600SOL    HW113636   5.771   7.190   5.851  0.7121  0.6171 -0.3824
 2600SOL    HW213637   5.678   7.282   5.775 -0.1966  0.4452  0.5026
 2601SOL     OW13638   2.410   2.049   0.606 -0.5942 -0.0511 -0.3920
 2601SOL    HW113639   2.500   2.061   0.574 -0.9569  1.3384 -0.9737
 2601SOL    HW213640   2.419   2.034   0.700  0.2959 -0.8539 -0.5941
 2602SOL     OW13641   1.966   4.445   5.828 -0.1123 -0.0232  0.1963
 2602SOL    HW113642   2.054   4.458   5.864  0.6347  0.6907 -1.7421
 2602SOL    HW213643   1.980   4.429   5.735 -2.0902  1.1617 -0.3785
 2603SOL     OW13644   2.604   7.101   0.871 -0.6756 -0.4801 -0.4984
 2603SOL    HW113645   2.559   7.186   0.868 -1.0363 -0.6817 -0.9056
 2603SOL    HW213646   2.692   7.122   0.903 -0.8978 -0.0100 -0.1802
 2604SOL     OW13647   5.981   8.169  10.672 -0.3544 -0.1441 -0.4037
 2604SOL    HW113648   6.018   8.099  10.617  0.6306 -1.8434  2.2121
 2604SOL    HW213649   6.058   8.214  10.708 -0.9757  0.9632 -0.4135
 2605SOL     OW13650   7.151   9.798   8.935 -0.3721 -0.1391 -0.5641
 2605SOL    HW113651   7.110   9.744   8.867 -0.2285 -0.5301 -0.3419
 2605SOL    HW213652   7.107   9.883   8.927 -0.6066 -0.2886 -0.9110
 2606SOL     OW13653   4.321   4.242   9.530 -0.4659 -1.0183 -0.4674
 2606SOL    HW113654   4.233   4.255   9.565 -0.8388 -0.9624 -1.4005
 2606SOL    HW213655   4.379   4.248   9.606 -1.1775 -0.0876  0.0086
 2607SOL     OW13656   1.173   2.296   8.146  0.1126  0.4917  0.3142
 2607SOL    HW113657   1.207   2.256   8.226  1.8107 -1.6427 -1.3413
 2607SOL    HW213658   1.245   2.349   8.113  0.1408 -0.1456 -0.7077
 2608SOL     OW13659   5.901   9.633   6.756 -0.2756 -0.3408  0.4901
 2608SOL    HW113660   5.840   9.583   6.702  1.9707 -0.6803 -1.9822
 2608SOL    HW213661   5.957   9.566   6.797 -0.5282  0.0134  1.4378
 2609SOL     OW13662   1.990   8.340   5.119  0.4310  0.2860 -0.0742
 2609SOL    HW113663   2.031   8.267   5.073  0.8562  1.3476 -1.4569
 2609SOL    HW213664   1.923   8.300   5.174  1.5405 -1.2500  0.2241
 2610SOL     OW13665  10.182   3.605   9.402 -0.1175  0.2563 -0.3148
 2610SOL    HW113666  10.150   3.589   9.313 -1.4288 -1.0169  0.3374
 2610SOL    HW213667  10.102   3.621   9.453  0.6452  1.4388  0.5581
 2611SOL     OW13668   5.195   1.086   7.410  0.2783  0.3044  0.1865
 2611SOL    HW113669   5.239   1.151   7.463 -1.2251  1.7920 -0.2871
 2611SOL    HW213670   5.115   1.065   7.459  0.2245 -0.3878 -0.1810
 2612SOL     OW13671   5.220   2.425   3.417 -0.1985  0.1368  0.5134
 2612SOL    HW113672   5.300   2.473   3.435 -0.7820  1.1501  0.5046
 2612SOL    HW213673   5.244   2.332   3.424  0.9771  0.4278  0.4170
 2613SOL     OW13674   2.514   4.136   0.922 -0.8164  0.1032 -0.1106
 2613SOL    HW113675   2.609   4.134   0.919 -0.8507 -0.9037 -2.4452
 2613SOL    HW213676   2.494   4.213   0.975  1.3292  2.0762 -1.9329
 2614SOL     OW13677   0.701   5.022   3.499  0.3675 -0.1049 -0.0435
 2614SOL    HW113678   0.796   5.017   3.486  0.5281  2.5324 -0.4009
 2614SOL    HW213679   0.689   5.079   3.574 -0.9704 -2.5061  1.7090
 2615SOL     OW13680   1.527   1.021   5.865 -0.2560 -0.6132  0.2095
 2615SOL    HW113681   1.621   1.018   5.883 -0.1731 -0.0997 -0.0950
 2615SOL    HW213682   1.487   0.965   5.932  0.3533 -1.7325 -0.3383
 2616SOL     OW13683   4.662   0.462   9.138  0.2377  0.4950 -0.5496
 2616SOL    HW113684   4.694   0.546   9.106  0.2333  0.5329 -0.4561
 2616SOL    HW213685   4.731   0.431   9.196  0.4332  0.2294 -0.9220
 2617SOL     OW13686   8.825   4.112   8.165  0.4585  0.3571 -0.2965
 2617SOL    HW113687   8.753   4.150   8.115  0.2935 -0.1647 -0.4651
 2617SOL    HW213688   8.784   4.044   8.218  0.8325  0.0172 -0.4366
 2618SOL     OW13689   1.909  10.245   9.631  0.2227 -0.3329  0.0018
 2618SOL    HW113690   1.899  10.177   9.565  0.5748 -1.7317  1.3384
 2618SOL    HW213691   1.978  10.302   9.597 -0.0103 -0.6733 -1.0872
 2619SOL     OW13692  10.033   2.897   7.264  0.3048  0.3786  0.7623
 2619SOL    HW113693  10.002   2.828   7.206  0.8635  1.5115 -0.9728
 2619SOL    HW213694  10.115   2.864   7.301 -0.4732 -0.6848  1.6078
 2620SOL     OW13695   4.196   3.410   1.428  0.8809  0.0465  0.2600
 2620SOL    HW113696   4.179   3.472   1.499 -1.8784  1.1562 -1.2293
 2620SOL    HW213697   4.280   3.436   1.392 -0.3196  3.2026 -0.5099
 2621SOL     OW13698   2.317   4.029   8.320  0.2562  0.9726 -0.1230
 2621SOL    HW113699   2.312   4.048   8.414  0.9539 -2.5573  0.7741
 2621SOL    HW213700   2.411   4.020   8.303  0.0348 -0.8152 -0.5357
 2622SOL     OW13701   7.993   2.239   5.800  0.0573 -0.5316 -0.2872
 2622SOL    HW113702   7.919   2.193   5.761 -0.4446  0.4906 -0.5737
 2622SOL    HW213703   7.956   2.286   5.874  0.4416 -0.1303 -0.3443
 2623SOL     OW13704   7.746   8.569   5.964  0.1454  0.4107  0.3202
 2623SOL    HW113705   7.690   8.585   6.040 -1.2140 -3.6349  0.4200
 2623SOL    HW213706   7.715   8.632   5.898  0.0379  2.6927  2.3939
 2624SOL     OW13707   6.353   7.968   3.667 -0.5693  0.3057  0.4297
 2624SOL    HW113708   6.377   7.884   3.626 -2.1484 -0.5727  1.2078
 2624SOL    HW213709   6.269   7.991   3.628 -2.1139 -0.5311  3.0033
 2625SOL     OW13710   3.399   3.393  10.554  0.0396 -0.1646  0.7650
 2625SOL    HW113711   3.429   3.306  10.580 -1.3451 -0.6092  0.9607
 2625SOL    HW213712   3.359   3.380  10.468 -0.9844  0.0979  1.1933
 2626SOL     OW13713   6.571   0.232   4.552 -0.3430 -0.8425  0.7176
 2626SOL    HW113714   6.648   0.177   4.570 -0.1854 -1.6167 -1.9533
 2626SOL    HW213715   6.559   0.227   4.457 -2.6846  0.6559  0.8508
 2627SOL     OW13716   6.693  10.564   9.150  0.0778 -0.3729 -0.5351
 2627SOL    HW113717   6.750  10.531   9.080  0.4478 -1.1503  0.1237
 2627SOL    HW213718   6.611  10.517   9.139  0.3979 -1.0730  0.0248
 2628SOL     OW13719   1.780   2.360   0.157  0.2574  0.2440  0.3379
 2628SOL    HW113720   1.688   2.384   0.146 -0.0587 -0.8037  0.6548
 2628SOL    HW213721   1.828   2.433   0.117 -0.7405 -0.6063 -2.6771
 2629SOL     OW13722   4.897   8.658   8.387 -0.0876  0.1531 -0.6382
 2629SOL    HW113723   4.871   8.650   8.479  0.2083 -4.7195 -0.7150
 2629SOL    HW213724   4.815   8.675   8.341 -0.8274 -0.7777  0.2819
 2630SOL     OW13725  10.723  10.305   2.495  0.1234  0.4446 -0.3950
 2630SOL    HW113726  10.653  10.256   2.453  0.1917  0.0121 -0.0053
 2630SOL    HW213727  10.759  10.245   2.559  2.5552 -0.2864 -2.2942
 2631SOL     OW13728   6.817   2.335   8.051 -0.2814  0.6605  0.6187
 2631SOL    HW113729   6.906   2.299   8.049  0.6898  2.9531 -0.2841
 2631SOL    HW213730   6.761   2.259   8.035  1.3218 -1.1902  2.9973
 2632SOL     OW13731   4.103   2.385   9.224  0.4355 -0.2522 -0.7297
 2632SOL    HW113732   4.063   2.310   9.181  2.5435 -1.3034 -0.9640
 2632SOL    HW213733   4.187   2.352   9.257  1.6569  2.1127 -1.2634
 2633SOL     OW13734   7.068   9.668   9.252 -0.5775  0.3579  0.3677
 2633SOL    HW113735   7.083   9.711   9.336  0.9668  0.1149  0.2418
 2633SOL    HW213736   7.084   9.737   9.187 -3.6421  1.0883  0.2453
 2634SOL     OW13737   6.948   1.478  10.235 -0.6863  0.3038  0.5677
 2634SOL    HW113738   6.865   1.476  10.283 -0.4930  0.6545  0.9166
 2634SOL    HW213739   6.924   1.452  10.146 -0.6919 -2.6527  1.3271
 2635SOL     OW13740   0.738   7.019   2.090 -0.7326  0.1634  0.0045
 2635SOL    HW113741   0.658   7.025   2.037 -0.5359 -1.5755 -0.5248
 2635SOL    HW213742   0.740   6.929   2.121  1.0311  0.1813  0.0336
 2636SOL     OW13743   2.287   4.523   5.417 -0.1473 -0.1124  0.3122
 2636SOL    HW113744   2.236   4.591   5.375  0.8605  0.1467 -0.5336
 2636SOL    HW213745   2.226   4.480   5.477 -1.7329 -0.7112 -1.6381
 2637SOL     OW13746   6.403   3.443   8.512 -0.5022  0.0668 -0.2830
 2637SOL    HW113747   6.450   3.527   8.520  0.4691 -0.5316  0.5764
 2637SOL    HW213748   6.312   3.465   8.533  0.1158  0.5514  2.3139
 2638SOL     OW13749   3.938   1.632   4.470  0.0190  0.0038  0.0491
 2638SOL    HW113750   3.911   1.722   4.455 -0.2191 -0.0912 -0.1047
 2638SOL    HW213751   3.867   1.579   4.432  0.7634 -0.2585 -1.0266
 2639SOL     OW13752   2.713   5.576   3.334 -0.9581 -0.0379  0.2115
 2639SOL    HW113753   2.692   5.494   3.291 -0.0353  1.1107 -2.6495
 2639SOL    HW213754   2.651   5.639   3.299 -0.0281  1.0105  0.3863
 2640SOL     OW13755   0.223   0.655   7.365 -0.4289 -0.3086 -0.1144
 2640SOL    HW113756   0.254   0.741   7.390 -0.9887 -0.0266 -0.3561
 2640SOL    HW213757   0.284   0.626   7.297 -1.1609  0.6067 -1.2088
 2641SOL     OW13758   2.853   1.793   7.734  0.0832  0.5031 -0.0030
 2641SOL    HW113759   2.896   1.771   7.817  2.9703  1.1008 -1.2068
 2641SOL    HW213760   2.821   1.710   7.700 -1.2638  0.2647  1.6961
 2642SOL     OW13761   2.039   8.438   9.471  0.0153  0.7701 -0.1428
 2642SOL    HW113762   2.107   8.424   9.405 -0.9002 -0.3422 -0.8871
 2642SOL    HW213763   2.035   8.533   9.481  0.5584  0.9357 -1.2908
 2643SOL     OW13764   8.775   4.772  10.621  0.2567 -0.2156 -0.0218
 2643SOL    HW113765   8.719   4.831  10.570  0.2115 -1.9557 -2.1380
 2643SOL    HW213766   8.782   4.693  10.567  2.3024 -1.2172  1.5713
 2644SOL     OW13767   9.181   0.367   9.884 -0.4715 -0.5912 -0.4401
 2644SOL    HW113768   9.160   0.353   9.792  1.0154  0.9302 -1.0891
 2644SOL    HW213769   9.156   0.459   9.900  2.2934  0.2368 -0.3480
 2645SOL     OW13770   1.886   0.780   9.159  0.3227 -0.4342  0.1344
 2645SOL    HW113771   1.905   0.787   9.066 -0.9122  1.6604 -0.0209
 2645SOL    HW213772   1.823   0.708   9.165 -1.3813  0.8646 -1.0197
 2646SOL     OW13773   9.046   4.402   7.619  0.4405 -0.5528 -0.5748
 2646SOL    HW113774   9.057   4.402   7.524 -1.0291 -1.1129 -0.7684
 2646SOL    HW213775   9.051   4.309   7.643 -0.0637 -0.4898 -0.2200
 2647SOL     OW13776   1.580   5.765  10.676 -0.2000 -0.4294 -0.2887
 2647SOL    HW113777   1.527   5.706  10.730 -0.1274 -1.0347 -0.8715
 2647SOL    HW213778   1.617   5.709  10.608 -1.0751  0.4711 -1.5536
 2648SOL     OW13779   5.746  10.700   8.723  0.1616  0.3471  0.4881
 2648SOL    HW113780   5.837  10.683   8.699 -0.0362  1.7607 -1.4917
 2648SOL    HW213781   5.698  10.692   8.641 -0.9351  3.1978  0.7717
 2649SOL     OW13782   7.260   8.163   9.868  0.2292 -0.0128  0.7201
 2649SOL    HW113783   7.226   8.137   9.954  0.3332 -0.8681  0.5037
 2649SOL    HW213784   7.183   8.196   9.821  0.1709  0.4533  1.1334
 2650SOL     OW13785   5.089  10.615   0.613 -0.4794 -0.6615 -0.1190
 2650SOL    HW113786   5.023  10.668   0.656  1.0122  0.6002  0.7217
 2650SOL    HW213787   5.050  10.590   0.529 -2.2710 -0.6084  0.6680
 2651SOL     OW13788   5.151   6.485   5.374  0.1696  0.6000 -0.2284
 2651SOL    HW113789   5.096   6.409   5.395  1.3204 -0.3976 -0.6749
 2651SOL    HW213790   5.224   6.448   5.323  0.2873  2.1455 -1.2391
 2652SOL     OW13791   6.724   4.472   2.178 -0.0832  0.4896  0.2846
 2652SOL    HW113792   6.738   4.478   2.083  1.4820  2.2660  0.5675
 2652SOL    HW213793   6.696   4.559   2.204 -2.0730 -0.3895  1.2917
 2653SOL     OW13794   5.746   8.281   3.178  0.5530 -0.2536 -0.3064
 2653SOL    HW113795   5.802   8.214   3.217  0.2531 -0.0013  0.5821
 2653SOL    HW213796   5.659   8.240   3.175  0.1621  0.4040  1.1315
 2654SOL     OW13797   2.436   8.517   5.340 -0.2854  0.1556 -0.2578
 2654SOL    HW113798   2.430   8.437   5.289  1.7363  0.7923 -1.6104
 2654SOL    HW213799   2.345   8.539   5.360 -1.0358 -1.1762 -1.9354
 2655SOL     OW13800   8.692   9.793   4.866 -0.3699 -0.7057 -0.4821
 2655SOL    HW113801   8.604   9.757   4.858  0.0185 -2.0274  0.7866
 2655SOL    HW213802   8.711   9.790   4.960  0.2632  1.4933 -0.5003
 2656SOL     OW13803   8.489   4.718   6.252  0.5360  0.2955  0.6015
 2656SOL    HW113804   8.492   4.813   6.262  0.6878  0.6342 -1.9834
 2656SOL    HW213805   8.396   4.696   6.264  0.5431  0.7161  1.4855
 2657SOL     OW13806   5.491   7.076   2.451  0.3056  0.1344 -0.3849
 2657SOL    HW113807   5.462   6.985   2.450 -0.2101  0.2439  1.3258
 2657SOL    HW213808   5.586   7.071   2.463  0.0844 -0.2141  1.5882
 2658SOL     OW13809   0.633   7.014   0.340  0.0728  0.8323  0.4102
 2658SOL    HW113810   0.614   7.003   0.434 -0.6998 -0.2206  0.1527
 2658SOL    HW213811   0.646   6.925   0.308 -1.7110  0.9969 -0.8892
 2659SOL     OW13812   0.398   6.441   9.542  0.3144  0.1513  0.3454
 2659SOL    HW113813   0.322   6.498   9.553 -0.0781 -0.5806  1.6881
 2659SOL    HW213814   0.462   6.495   9.495 -0.5261  1.2407  0.4077
 2660SOL     OW13815   7.717   9.571   8.477  1.0773  0.5555  0.3672
 2660SOL    HW113816   7.751   9.614   8.556  0.3267  1.5951  0.1424
 2660SOL    HW213817   7.771   9.606   8.406  1.0562  0.4352  0.2930
 2661SOL     OW13818   0.257   1.623   2.921 -0.0025 -0.3688  0.1762
 2661SOL    HW113819   0.273   1.717   2.917  0.2365 -0.4203 -0.2277
 2661SOL    HW213820   0.343   1.586   2.942  0.7160 -0.7228 -2.9523
 2662SOL     OW13821  10.551   8.710   6.167  0.1080  0.2318  0.2216
 2662SOL    HW113822  10.599   8.630   6.145  0.7496  0.4250  0.8915
 2662SOL    HW213823  10.468   8.701   6.120  0.0786 -0.9340  0.4522
 2663SOL     OW13824   9.365   5.789   3.432 -0.0140  0.4406 -0.4272
 2663SOL    HW113825   9.348   5.856   3.366 -0.7430  0.7272  0.0435
 2663SOL    HW213826   9.279   5.761   3.462  0.2996  0.7215  0.8052
 2664SOL     OW13827   3.178   8.401   1.579 -0.1167 -0.6732 -0.4726
 2664SOL    HW113828   3.168   8.434   1.489  1.1937 -0.7636 -0.6802
 2664SOL    HW213829   3.174   8.306   1.570  2.3021 -0.7991 -0.8140
 2665SOL     OW13830   8.722   7.646   8.721 -0.2427 -0.5331 -0.5159
 2665SOL    HW113831   8.714   7.570   8.663  0.2255 -2.2164  1.4819
 2665SOL    HW213832   8.636   7.652   8.763 -0.6061  0.7281 -1.3830
 2666SOL     OW13833   9.601  10.701   9.381  0.0792  0.2923  0.2079
 2666SOL    HW113834   9.545  10.702   9.304  0.6750  0.0357 -0.2350
 2666SOL    HW213835   9.576  10.623   9.430  2.8087 -2.2658 -2.0914
 2667SOL     OW13836   6.733   9.012   5.790 -0.1105 -0.8691  0.1659
 2667SOL    HW113837   6.669   8.987   5.724 -0.5094 -0.3543  0.3590
 2667SOL    HW213838   6.816   9.016   5.742 -0.0900 -2.2000  0.0558
 2668SOL     OW13839   3.984   1.737   2.496 -0.3306  0.2146 -0.2756
 2668SOL    HW113840   3.953   1.674   2.560 -2.3695  1.9861  0.6118
 2668SOL    HW213841   4.069   1.703   2.467 -0.9533 -2.4338  0.7476
 2669SOL     OW13842   9.406   5.423   0.926  0.1135 -0.3027 -0.3270
 2669SOL    HW113843   9.450   5.463   1.002 -0.7525 -0.3487  0.2115
 2669SOL    HW213844   9.438   5.472   0.851  1.6454 -0.8035 -0.0357
 2670SOL     OW13845   1.406   1.400   5.085  0.1582 -0.3794 -0.0479
 2670SOL    HW113846   1.365   1.318   5.057 -1.1317 -0.4183  1.7859
 2670SOL    HW213847   1.362   1.467   5.032 -0.5799 -0.6621  0.1846
 2671SOL     OW13848   5.543   7.491   4.317  0.5855  0.1435 -0.1214
 2671SOL    HW113849   5.558   7.440   4.237 -0.3558  0.0355 -0.2384
 2671SOL    HW213850   5.450   7.479   4.336  1.1368 -1.3978  2.0694
 2672SOL     OW13851   5.026   3.537   9.017  0.0876  0.3328 -0.1066
 2672SOL    HW113852   4.977   3.589   9.080  1.0564  0.8709  0.2351
 2672SOL    HW213853   5.099   3.593   8.991 -0.5005  0.2871 -2.0376
 2673SOL     OW13854   4.476   3.243   2.152  0.2843 -0.0841  0.2545
 2673SOL    HW113855   4.495   3.209   2.064  0.2702 -0.1671  0.2826
 2673SOL    HW213856   4.547   3.304   2.171  0.1191  0.1689  0.0598
 2674SOL     OW13857   8.142   1.571   0.028 -0.0383  0.1709  0.6853
 2674SOL    HW113858   8.095   1.495   0.064  0.7237 -0.4029  0.4805
 2674SOL    HW213859   8.143   1.555  -0.067 -0.7645  0.9544  0.5302
 2675SOL     OW13860   0.003   4.915   9.510 -0.0300 -0.8734 -0.5149
 2675SOL    HW113861  -0.042   4.947   9.432  1.8911  1.5145 -0.7670
 2675SOL    HW213862   0.018   4.822   9.492  0.7826 -0.3075 -3.2790
 2676SOL     OW13863   8.485   5.990   4.260  0.0037 -0.0108  0.1083
 2676SOL    HW113864   8.566   5.947   4.291  0.7584  1.1758 -0.1620
 2676SOL    HW213865   8.415   5.945   4.308  1.0593  1.1742  2.9789
 2677SOL     OW13866   1.475   3.584   8.334  0.0338 -0.3535 -0.3957
 2677SOL    HW113867   1.396   3.584   8.280  2.3156  1.5867 -4.1574
 2677SOL    HW213868   1.513   3.671   8.322  2.8827 -1.2399  1.0512
 2678SOL     OW13869   6.233   0.547   0.852 -0.2258 -0.4153 -0.6785
 2678SOL    HW113870   6.257   0.528   0.943  0.0008  0.9974 -0.4157
 2678SOL    HW213871   6.317   0.547   0.805 -0.1792  0.2126 -0.6071
 2679SOL     OW13872   5.037   7.019   3.891 -0.0804 -0.2718  0.1612
 2679SOL    HW113873   5.101   7.036   3.960 -1.0338  1.7432  0.6329
 2679SOL    HW213874   4.998   7.105   3.873 -2.6300 -1.3771 -0.0743
 2680SOL     OW13875   1.072   4.944   6.401  0.0755 -0.3099  0.1676
 2680SOL    HW113876   1.153   4.941   6.451  1.0381 -1.1953 -1.3842
 2680SOL    HW213877   1.077   5.026   6.351 -1.1805  0.9069  1.8838
 2681SOL     OW13878   6.630  10.581   7.130 -0.3231  0.4248 -0.1706
 2681SOL    HW113879   6.552  10.603   7.180  0.9463 -1.0305  2.6648
 2681SOL    HW213880   6.621  10.487   7.111  0.9157  0.1386  0.5881
 2682SOL     OW13881   1.434   3.440   5.501 -0.9685 -0.1820 -0.0782
 2682SOL    HW113882   1.423   3.348   5.523  0.3115 -0.6731 -1.3402
 2682SOL    HW213883   1.529   3.454   5.501 -1.1622  1.4682  1.3025
 2683SOL     OW13884   7.607   6.377   2.259  0.4685 -0.8665  0.2126
 2683SOL    HW113885   7.603   6.340   2.171  0.7476 -1.1480  0.3161
 2683SOL    HW213886   7.561   6.314   2.315 -1.5618  0.2961 -0.0362
 2684SOL     OW13887   8.271   6.016   2.245 -0.4891  0.4126  0.2944
 2684SOL    HW113888   8.331   5.983   2.311 -0.2857 -0.5706 -0.3629
 2684SOL    HW213889   8.185   6.013   2.288 -0.9175 -3.3853 -0.4313
 2685SOL     OW13890   5.612  10.175   0.660 -0.5277 -0.1827 -0.6511
 2685SOL    HW113891   5.578  10.095   0.621 -1.2687 -0.3712  0.3732
 2685SOL    HW213892   5.538  10.213   0.707  0.2320  0.2737  0.1994
 2686SOL     OW13893   4.688   2.462   0.937 -0.3374 -0.2209 -0.0445
 2686SOL    HW113894   4.700   2.514   0.858  0.4368  0.5081  0.5382
 2686SOL    HW213895   4.608   2.412   0.921 -1.4651  1.6118 -0.3665
 2687SOL     OW13896   4.871   7.407   1.820 -0.4868  0.0649  0.4190
 2687SOL    HW113897   4.871   7.477   1.886  0.9971 -0.2233  0.7575
 2687SOL    HW213898   4.782   7.373   1.821 -0.9536  1.2575  0.9938
 2688SOL     OW13899  10.545   2.276  10.167 -0.0068 -0.4534  0.0550
 2688SOL    HW113900  10.574   2.327  10.243 -0.3370  0.4506 -0.4038
 2688SOL    HW213901  10.450   2.280  10.169 -0.0193 -0.2463 -0.5012
 2689SOL     OW13902  10.218   5.290   1.755 -0.4067 -0.1744 -0.3423
 2689SOL    HW113903  10.160   5.364   1.736  1.0285  0.6128 -1.8363
 2689SOL    HW213904  10.163   5.212   1.743 -1.2746  0.5625 -1.2906
 2690SOL     OW13905   2.876   1.139   4.282 -0.1816 -0.4934  0.7750
 2690SOL    HW113906   2.797   1.184   4.251  0.3359 -0.6181 -0.8154
 2690SOL    HW213907   2.847   1.050   4.301 -0.4121 -0.5901  0.0196
 2691SOL     OW13908   4.611   7.430   4.865  0.0977 -0.5508  0.0304
 2691SOL    HW113909   4.667   7.480   4.806 -1.9344  0.7685 -0.9245
 2691SOL    HW213910   4.555   7.378   4.807 -1.0417 -0.2412  0.8027
 2692SOL     OW13911   1.777  10.400   7.768  0.2490 -0.2749 -0.0217
 2692SOL    HW113912   1.844  10.337   7.793  0.0763 -0.6222 -0.4106
 2692SOL    HW213913   1.707  10.347   7.730 -0.8953 -0.0642  1.7013
 2693SOL     OW13914   6.103   1.064   6.653  0.2888 -0.6037  0.5406
 2693SOL    HW113915   6.149   1.090   6.573 -0.2298 -0.1831  0.3764
 2693SOL    HW213916   6.020   1.028   6.622 -0.4593  0.7246  0.9479
 2694SOL     OW13917   9.875   8.094   9.460 -0.0874 -0.0799  0.4647
 2694SOL    HW113918   9.851   8.035   9.531  0.7169 -0.4661  0.4193
 2694SOL    HW213919   9.823   8.173   9.477 -0.1238 -0.2751  1.3110
 2695SOL     OW13920   1.623   1.158   1.283 -0.4513 -0.0216 -0.1231
 2695SOL    HW113921   1.671   1.103   1.221 -0.9664 -0.1149 -0.4423
 2695SOL    HW213922   1.690   1.215   1.322 -0.2311  0.5500 -1.2998
 2696SOL     OW13923   5.094  10.368   9.392  0.4454  0.0494 -0.5124
 2696SOL    HW113924   5.150  10.296   9.362  1.9288  0.9459  0.0230
 2696SOL    HW213925   5.119  10.442   9.337 -1.3812  0.0930 -1.3594
 2697SOL     OW13926   1.795   9.004   5.747  0.0252  0.1584 -0.0016
 2697SOL    HW113927   1.718   8.979   5.799  0.8671  0.8536  1.6444
 2697SOL    HW213928   1.868   8.961   5.790  0.5726 -0.8648 -1.8187
 2698SOL     OW13929   6.779   0.797   0.429 -0.4776 -0.5768 -0.3572
 2698SOL    HW113930   6.826   0.833   0.355  2.5259 -0.1195  1.6096
 2698SOL    HW213931   6.809   0.706   0.435 -2.8085 -1.4894 -1.2340
 2699SOL     OW13932   6.596   9.386   0.199 -0.0723  0.0386 -0.7459
 2699SOL    HW113933   6.541   9.420   0.269 -0.5397 -1.3955 -0.3835
 2699SOL    HW213934   6.660   9.331   0.243  0.1525 -0.2133 -1.3720
 2700SOL     OW13935   7.683   0.366   8.794 -0.3967  0.0470  0.6666
 2700SOL    HW113936   7.717   0.421   8.723 -1.0339 -0.6352 -0.1884
 2700SOL    HW213937   7.663   0.428   8.864  0.5766  0.6971  0.3932
 2701SOL     OW13938   7.872   8.026   2.055  0.0753  0.3275 -0.6089
 2701SOL    HW113939   7.959   8.065   2.060 -0.4825  1.4844  2.2201
 2701SOL    HW213940   7.854   7.995   2.144 -1.4448 -2.1685 -1.6889
 2702SOL     OW13941   5.156   0.715   0.659  0.5511 -0.1195 -0.2204
 2702SOL    HW113942   5.113   0.683   0.580 -0.9731 -2.2890  1.3787
 2702SOL    HW213943   5.209   0.641   0.689  0.1348  0.2107  1.4203
 2703SOL     OW13944   4.623   0.232   5.498  0.1362 -0.0469  0.0649
 2703SOL    HW113945   4.541   0.249   5.546  1.9716  2.3018  2.6755
 2703SOL    HW213946   4.668   0.166   5.550  0.4601 -0.4289 -0.6845
 2704SOL     OW13947   1.320   0.769   4.552 -0.0533 -0.1256  0.1796
 2704SOL    HW113948   1.239   0.800   4.593 -0.4419  0.9364 -1.2959
 2704SOL    HW213949   1.390   0.801   4.609 -0.5835  1.1586  0.1449
 2705SOL     OW13950   0.952   0.927   3.672 -0.1130 -0.2877 -0.1220
 2705SOL    HW113951   0.954   0.848   3.726  0.9011  0.4545  0.9813
 2705SOL    HW213952   0.947   0.894   3.582  2.0465 -1.6947  0.1990
 2706SOL     OW13953   7.119   5.639   3.931  0.2412 -0.2023 -0.1057
 2706SOL    HW113954   7.046   5.598   3.977 -1.0672  1.3895 -0.6607
 2706SOL    HW213955   7.193   5.630   3.990 -0.5667 -1.2099  0.7927
 2707SOL     OW13956   7.147   9.437   4.051 -0.2477 -0.5330 -0.0046
 2707SOL    HW113957   7.103   9.515   4.016 -2.0094 -2.0906 -1.4878
 2707SOL    HW213958   7.075   9.381   4.081  0.8736 -2.1791 -0.2791
 2708SOL     OW13959   2.268   9.316   3.575 -0.4241 -0.0892 -0.6313
 2708SOL    HW113960   2.245   9.258   3.647 -0.5686  2.2117  1.3378
 2708SOL    HW213961   2.197   9.307   3.512 -1.3841 -0.6874  0.5007
 2709SOL     OW13962   9.213   5.265   4.065  1.2540  0.1044 -0.6330
 2709SOL    HW113963   9.278   5.203   4.098  1.6836  0.7153 -0.3316
 2709SOL    HW213964   9.262   5.344   4.044  0.4656  1.0472  0.8236
 2710SOL     OW13965   3.947   8.468   8.798 -0.2180  0.1921 -0.0746
 2710SOL    HW113966   3.952   8.449   8.891 -1.8483  0.4715  0.0990
 2710SOL    HW213967   3.855   8.452   8.775 -0.5513  2.9610 -0.9959
 2711SOL     OW13968   8.321   2.241   9.541 -0.3090  0.0844 -0.2383
 2711SOL    HW113969   8.339   2.194   9.623 -0.1812  1.0601  0.3043
 2711SOL    HW213970   8.407   2.262   9.506 -0.3699  0.7294 -0.0021
 2712SOL     OW13971   2.238   2.005   3.806  0.3735 -0.3183  0.4874
 2712SOL    HW113972   2.304   1.948   3.767 -0.2202  0.3002 -1.5778
 2712SOL    HW213973   2.259   2.092   3.772 -0.3839  0.2177  1.3384
 2713SOL     OW13974  10.382   8.782  10.263  0.5385 -0.4877 -0.3859
 2713SOL    HW113975  10.351   8.699  10.299 -0.8554  0.3912  0.5514
 2713SOL    HW213976  10.308   8.842  10.272  1.9354  1.2590  0.2968
 2714SOL     OW13977   4.617   1.295   3.886 -0.2214  0.2163 -0.1349
 2714SOL    HW113978   4.650   1.295   3.796 -0.9658  0.3685 -0.4134
 2714SOL    HW213979   4.549   1.228   3.886 -0.2655  0.2597  0.3041
 2715SOL     OW13980   0.095   1.727   3.359  0.2237 -0.1730  0.1897
 2715SOL    HW113981   0.061   1.659   3.301  0.2487  0.7218 -0.9180
 2715SOL    HW213982   0.188   1.733   3.336  0.5104 -0.6319  1.1801
 2716SOL     OW13983   1.418   4.324   2.547 -0.0225  0.4192 -0.6345
 2716SOL    HW113984   1.344   4.312   2.487 -0.2153  0.9864 -0.5225
 2716SOL    HW213985   1.378   4.329   2.633  0.2866 -0.7243 -0.4125
 2717SOL     OW13986   2.525   7.368   0.814 -0.1371 -0.3705 -0.3706
 2717SOL    HW113987   2.563   7.345   0.729 -1.0382 -0.7540 -0.6839
 2717SOL    HW213988   2.454   7.429   0.792  0.4951  0.6071  0.2277
 2718SOL     OW13989   5.377   5.733   7.775  0.1188  0.3308  0.0105
 2718SOL    HW113990   5.287   5.757   7.796  0.2292  1.1371 -0.4128
 2718SOL    HW213991   5.426   5.754   7.854 -0.0356  0.0528  0.1810
 2719SOL     OW13992   4.263   8.442   4.196 -0.6409 -0.2696 -0.9581
 2719SOL    HW113993   4.311   8.480   4.122  0.7249 -0.4222 -0.1809
 2719SOL    HW213994   4.279   8.348   4.188  1.0218 -0.1608  0.4958
 2720SOL     OW13995   4.321   3.419   4.686  0.2465 -0.0319 -0.0014
 2720SOL    HW113996   4.353   3.497   4.642 -0.1065 -0.9543 -1.9785
 2720SOL    HW213997   4.248   3.450   4.740  0.6739  1.1155 -0.0599
 2721SOL     OW13998   0.903  10.262   6.512  0.4134 -0.8431  0.1127
 2721SOL    HW113999   0.813  10.233   6.520  0.2491 -0.7213 -1.1104
 2721SOL    HW214000   0.917  10.273   6.418  1.7922 -1.1411  0.2574
 2722SOL     OW14001   6.512   0.764   0.080 -0.8870 -0.7710  0.0969
 2722SOL    HW114002   6.564   0.844   0.072  1.2650 -1.9870  1.0519
 2722SOL    HW214003   6.445   0.772   0.011 -0.3846  1.5439 -0.2147
 2723SOL     OW14004   7.116   8.789   8.065  0.2191 -0.6146 -0.6819
 2723SOL    HW114005   7.182   8.814   8.000  0.5378  0.2577 -0.0354
 2723SOL    HW214006   7.054   8.736   8.016  2.1620 -2.7421 -1.0107
 2724SOL     OW14007   5.637  10.395   2.611 -0.3146 -0.1158 -0.5165
 2724SOL    HW114008   5.591  10.312   2.602 -0.6290 -0.0903  0.7132
 2724SOL    HW214009   5.621  10.423   2.701  1.8069  0.0676 -0.1344
 2725SOL     OW14010   5.683   1.225   1.320 -0.3930 -0.1973 -0.5593
 2725SOL    HW114011   5.773   1.235   1.351 -0.3337  0.0415 -0.8053
 2725SOL    HW214012   5.691   1.215   1.225 -0.4795 -2.1175 -0.4004
 2726SOL     OW14013   3.249  10.477   5.805 -0.8305  0.1889  0.9648
 2726SOL    HW114014   3.295  10.400   5.839 -2.4427 -1.1171  0.3086
 2726SOL    HW214015   3.206  10.515   5.882 -0.5940  0.0337  1.1761
 2727SOL     OW14016   3.401  10.027   5.146 -0.0513  0.8078  0.2257
 2727SOL    HW114017   3.348  10.068   5.078  0.3070 -0.6282 -0.9683
 2727SOL    HW214018   3.462   9.971   5.098  0.0301 -0.4533  1.7345
 2728SOL     OW14019   5.086   8.494   2.782  0.4029  0.0111 -0.7065
 2728SOL    HW114020   5.179   8.517   2.779  0.2011  0.7879 -1.4003
 2728SOL    HW214021   5.057   8.498   2.691 -0.2495 -0.4822 -0.5268
 2729SOL     OW14022   7.491   7.618   0.321 -0.8334 -0.1320  0.1631
 2729SOL    HW114023   7.555   7.567   0.370 -0.5437  1.5459  1.6522
 2729SOL    HW214024   7.412   7.618   0.375 -1.2835 -0.1414 -0.4791
 2730SOL     OW14025   5.515   9.607   0.377  0.7043 -0.1660 -0.2535
 2730SOL    HW114026   5.528   9.683   0.320 -0.5757  1.0455  0.9867
 2730SOL    HW214027   5.441   9.631   0.433 -1.3581 -3.2750 -1.3826
 2731SOL     OW14028   9.670   5.838   3.698 -0.4068 -0.2105  0.2054
 2731SOL    HW114029   9.731   5.890   3.750 -3.0163  3.1834  0.2390
 2731SOL    HW214030   9.691   5.859   3.607 -0.2302 -0.6692  0.1386
 2732SOL     OW14031   4.767   7.606   3.665 -0.1650 -0.0243  0.2275
 2732SOL    HW114032   4.860   7.616   3.646 -0.2018  0.7672  0.4165
 2732SOL    HW214033   4.752   7.661   3.742 -1.0422  0.9092 -0.5753
 2733SOL     OW14034   3.498   1.288   0.272 -0.1613 -0.1554 -0.1836
 2733SOL    HW114035   3.589   1.263   0.263 -0.6772 -2.0046 -0.7192
 2733SOL    HW214036   3.483   1.294   0.366  0.8588  1.7097 -0.0957
 2734SOL     OW14037   4.550   9.531   0.735 -0.1542 -1.0195 -0.1591
 2734SOL    HW114038   4.620   9.488   0.785  0.4365  0.1021  0.0059
 2734SOL    HW214039   4.476   9.536   0.796  0.6874  0.6970  0.7782
 2735SOL     OW14040   8.264   1.526   4.549  0.0585 -0.1843 -0.0844
 2735SOL    HW114041   8.292   1.584   4.478 -0.0170 -0.1627 -0.0964
 2735SOL    HW214042   8.345   1.507   4.597  0.5431 -2.0522 -1.5242
 2736SOL     OW14043   8.401   4.346   5.529  0.6369 -0.4131 -0.4966
 2736SOL    HW114044   8.319   4.344   5.579  0.1217 -0.7524 -1.3359
 2736SOL    HW214045   8.452   4.273   5.565  0.2369 -0.7099 -0.5172
 2737SOL     OW14046   0.053   2.423   0.880  0.3202  0.4257  0.3552
 2737SOL    HW114047   0.095   2.364   0.942 -0.3526 -1.1842 -0.6617
 2737SOL    HW214048  -0.003   2.479   0.933 -0.1129 -0.8046  1.2178
 2738SOL     OW14049   5.388   5.915   3.711 -0.0415 -0.4130 -0.1818
 2738SOL    HW114050   5.340   5.837   3.685 -2.5997  1.6784 -2.3892
 2738SOL    HW214051   5.338   5.951   3.784  0.5744 -0.3291  0.2058
 2739SOL     OW14052   5.324   1.055   2.927 -0.0272  0.1960  0.0088
 2739SOL    HW114053   5.257   1.000   2.967  1.0962 -0.6639  0.7629
 2739SOL    HW214054   5.331   1.131   2.984 -0.3360  0.2798 -0.0631
 2740SOL     OW14055   4.675  10.070   2.297 -0.0752  0.6093 -0.4040
 2740SOL    HW114056   4.583  10.051   2.316  0.2251 -0.8069 -0.2882
 2740SOL    HW214057   4.717  10.073   2.383 -0.0785  1.7164 -0.4251
 2741SOL     OW14058   9.929   0.549   5.916 -0.6655 -0.4869 -0.0854
 2741SOL    HW114059   9.842   0.517   5.938 -0.1841  0.0855  3.0058
 2741SOL    HW214060   9.984   0.471   5.916 -0.7348 -0.5374  0.4917
 2742SOL     OW14061   1.885   6.027   1.615 -0.1750 -0.1870  0.6337
 2742SOL    HW114062   1.887   5.975   1.696  0.6712 -0.3878  0.4898
 2742SOL    HW214063   1.977   6.045   1.596 -0.3690 -0.1322 -0.2818
 2743SOL     OW14064   6.977   3.558  10.514 -0.0307 -0.0122 -0.4785
 2743SOL    HW114065   6.936   3.602  10.439 -2.6279 -1.6166 -0.1268
 2743SOL    HW214066   6.968   3.621  10.586  1.6286  1.1552 -1.2143
 2744SOL     OW14067   2.186   7.910   1.880  0.4466 -0.2874 -0.0468
 2744SOL    HW114068   2.188   7.993   1.927 -1.2358 -0.2859  0.0712
 2744SOL    HW214069   2.265   7.864   1.909  0.3917  0.4747  1.3822
 2745SOL     OW14070   0.061   2.632   3.629 -0.3566 -0.3547 -0.2690
 2745SOL    HW114071   0.153   2.649   3.650 -0.7350 -1.7356  3.1102
 2745SOL    HW214072   0.051   2.538   3.640 -1.9413 -0.4392 -1.9354
 2746SOL     OW14073  10.287   5.096   2.187 -1.1153 -0.2539  0.3618
 2746SOL    HW114074  10.270   5.169   2.248 -0.0851 -0.6084  1.1007
 2746SOL    HW214075  10.229   5.026   2.217 -2.1760  0.2626 -0.4058
 2747SOL     OW14076   9.213   3.575   3.296 -0.3548 -0.2144 -0.4908
 2747SOL    HW114077   9.130   3.529   3.315  0.2919 -1.0112  0.5259
 2747SOL    HW214078   9.193   3.629   3.219 -1.7550 -0.5644 -0.4116
 2748SOL     OW14079   4.071   7.194   6.626  0.2298 -0.3553 -0.5402
 2748SOL    HW114080   4.058   7.210   6.533 -1.7225  0.3366 -0.1875
 2748SOL    HW214081   4.052   7.101   6.637 -2.4594  0.1328 -0.4397
 2749SOL     OW14082   8.609   7.906   6.501 -0.1217  0.5417  0.1993
 2749SOL    HW114083   8.661   7.971   6.548 -1.5962  2.8040 -1.1362
 2749SOL    HW214084   8.518   7.927   6.523 -0.6388 -1.3180  0.0012
 2750SOL     OW14085  10.041   2.609   4.276 -0.5295  0.0087  0.5182
 2750SOL    HW114086  10.081   2.692   4.249 -0.1293 -0.7777 -1.4561
 2750SOL    HW214087  10.111   2.562   4.321 -0.7960  0.7558  1.7744
 2751SOL     OW14088   2.450   4.784   2.812  0.2003 -0.3463  0.5890
 2751SOL    HW114089   2.449   4.874   2.782  3.0758 -0.2924  0.3679
 2751SOL    HW214090   2.416   4.733   2.738  0.6981  0.3876 -0.1585
 2752SOL     OW14091   0.845   0.830   5.935  0.5371 -0.1487 -0.1570
 2752SOL    HW114092   0.937   0.853   5.921  0.5251  1.4809  1.9397
 2752SOL    HW214093   0.796   0.905   5.901  0.1109 -0.0384  0.6686
 2753SOL     OW14094   3.549   6.581   1.117 -0.8600  0.4540 -0.0348
 2753SOL    HW114095   3.633   6.541   1.096 -1.4211 -0.7512 -0.0398
 2753SOL    HW214096   3.566   6.632   1.197 -0.5730 -1.4506  1.1777
 2754SOL     OW14097   2.526   9.716   7.565  0.2828 -0.1954 -0.0563
 2754SOL    HW114098   2.454   9.656   7.582 -1.7494  2.1173  0.1211
 2754SOL    HW214099   2.544   9.706   7.472  1.2280 -2.2674  0.2897
 2755SOL     OW14100  10.136   0.594  10.442  0.1019  1.1072  0.0235
 2755SOL    HW114101  10.129   0.502  10.417  1.7224  0.3631  2.0422
 2755SOL    HW214102  10.112   0.642  10.363 -0.8459 -1.0224 -1.0756
 2756SOL     OW14103   8.871   4.909   8.611  0.3239  0.1862  0.3713
 2756SOL    HW114104   8.872   5.004   8.602 -0.9806  0.1730 -0.1589
 2756SOL    HW214105   8.910   4.876   8.530 -0.9726  0.2540 -0.3009
 2757SOL     OW14106   0.920   9.422   3.265  0.4006 -0.0068 -0.5308
 2757SOL    HW114107   0.981   9.449   3.334 -1.0146 -0.4808  0.9701
 2757SOL    HW214108   0.891   9.504   3.226  0.8032  0.3021 -0.1984
 2758SOL     OW14109   9.898   8.965   7.730 -0.1669 -0.2678  1.0607
 2758SOL    HW114110   9.846   8.888   7.752 -0.0026 -0.3953  0.9958
 2758SOL    HW214111   9.837   9.038   7.743 -0.7066 -0.4913 -0.0762
 2759SOL     OW14112   1.971   4.409   8.841  0.6574 -0.0336  0.3275
 2759SOL    HW114113   2.052   4.443   8.804  0.8059 -0.3606  0.3480
 2759SOL    HW214114   1.996   4.373   8.926 -0.0319  2.5265  1.7070
 2760SOL     OW14115   7.627   5.559   3.383 -0.0244  0.2006 -0.1575
 2760SOL    HW114116   7.628   5.632   3.322  0.8056 -0.9872 -1.6407
 2760SOL    HW214117   7.544   5.514   3.367 -1.7322  2.1169  2.4976
 2761SOL     OW14118   0.184   8.430   1.535 -0.4598  0.3795 -0.1228
 2761SOL    HW114119   0.211   8.415   1.444 -2.3374  2.4485 -1.1178
 2761SOL    HW214120   0.093   8.399   1.538 -0.9233  1.7206  0.5750
 2762SOL     OW14121   9.135   4.840   3.093 -0.7676  0.3703 -0.0952
 2762SOL    HW114122   9.195   4.898   3.138 -0.2835 -0.3732  0.2318
 2762SOL    HW214123   9.064   4.897   3.063  1.1433  1.6936 -2.4656
 2763SOL     OW14124   3.991   7.039   7.888  0.0913  0.3092 -0.3448
 2763SOL    HW114125   3.947   6.961   7.922  0.7143  0.0161 -0.2033
 2763SOL    HW214126   4.058   7.060   7.953  2.1340 -0.9798 -1.8869
 2764SOL     OW14127   0.964   3.813   1.337  0.5190  0.6225  0.5219
 2764SOL    HW114128   0.883   3.861   1.320  0.0354 -0.1136  0.6939
 2764SOL    HW214129   0.967   3.745   1.269 -0.6821 -1.4135  2.3593
 2765SOL     OW14130   2.872   7.465   4.901 -0.0408  0.6999 -0.0064
 2765SOL    HW114131   2.878   7.416   4.983  1.6197 -1.3977 -1.2685
 2765SOL    HW214132   2.901   7.553   4.923  0.0636  0.2606  1.7221
 2766SOL     OW14133   3.192   4.592   3.316  0.2061  0.2770 -0.4588
 2766SOL    HW114134   3.177   4.505   3.354 -0.1453  0.4049 -0.3033
 2766SOL    HW214135   3.124   4.647   3.354 -0.0820  0.4356 -1.2017
 2767SOL     OW14136   7.960  10.411   8.632  0.2044  0.1249  0.1724
 2767SOL    HW114137   8.017  10.335   8.619  2.2017  1.6419 -0.4061
 2767SOL    HW214138   7.912  10.390   8.712 -1.8459 -3.1623 -1.6825
 2768SOL     OW14139   3.902   2.725   9.925 -0.4649  0.5446  0.2030
 2768SOL    HW114140   3.916   2.644   9.877 -2.8507 -0.3368  0.8691
 2768SOL    HW214141   3.983   2.739   9.975 -0.3424 -1.9367  0.7974
 2769SOL     OW14142   4.291   6.413   4.041 -0.1256  0.2839 -0.2913
 2769SOL    HW114143   4.363   6.429   4.103 -0.6055  0.5082  0.2155
 2769SOL    HW214144   4.310   6.472   3.968  0.3274  0.1780 -0.2667
 2770SOL     OW14145  10.547   0.586   3.002 -0.0763 -0.3008  0.3228
 2770SOL    HW114146  10.543   0.587   2.907 -2.6175  1.8603  0.3271
 2770SOL    HW214147  10.470   0.536   3.029  1.5058 -2.3602  1.3417
 2771SOL     OW14148   9.936   3.540   7.411 -0.2405 -0.3865 -0.3496
 2771SOL    HW114149   9.905   3.604   7.475 -2.3618 -0.8379 -0.8419
 2771SOL    HW214150   9.924   3.455   7.455  0.2435 -0.5833 -0.5929
 2772SOL     OW14151   4.721   2.937   2.003 -0.8549 -0.0639 -0.3586
 2772SOL    HW114152   4.695   2.899   2.086  0.1523  0.4915  0.2378
 2772SOL    HW214153   4.647   2.993   1.978 -0.8070  0.4724  0.6284
 2773SOL     OW14154  10.649  10.633   9.630 -0.4154 -0.1447  0.3814
 2773SOL    HW114155  10.573  10.620   9.687 -1.2315  1.6771 -0.2007
 2773SOL    HW214156  10.718  10.662   9.690 -0.3220 -1.2857  0.8426
 2774SOL     OW14157   2.705   4.044   5.988 -0.3004 -0.1127 -0.3917
 2774SOL    HW114158   2.775   4.024   6.050  0.4123  0.2221 -1.0652
 2774SOL    HW214159   2.658   3.962   5.977 -0.2969 -0.2283  0.4176
 2775SOL     OW14160   3.592   1.148   2.070 -0.3675 -0.1740  0.0118
 2775SOL    HW114161   3.559   1.192   2.148  0.0685  0.1147  0.0399
 2775SOL    HW214162   3.617   1.220   2.011 -0.1844 -0.3849 -0.1701
 2776SOL     OW14163   6.308   6.766   9.866  0.1219  0.0601  1.0150
 2776SOL    HW114164   6.334   6.838   9.924 -0.1203 -0.8377  2.2990
 2776SOL    HW214165   6.212   6.767   9.867 -0.0161  1.9795 -1.9424
 2777SOL     OW14166   5.820   4.301  10.228  0.4181 -0.0865 -0.0600
 2777SOL    HW114167   5.749   4.314  10.165  0.3432  0.6994  0.1704
 2777SOL    HW214168   5.831   4.206  10.233 -3.3313 -0.6084  2.7973
 2778SOL     OW14169   5.142   6.598   9.264 -0.3050 -0.2417 -0.6746
 2778SOL    HW114170   5.064   6.556   9.300  0.2897 -0.3515  0.5222
 2778SOL    HW214171   5.161   6.549   9.184 -0.7634 -0.9808 -0.3334
 2779SOL     OW14172   6.066   1.834   7.354  0.6002  0.6963 -0.3634
 2779SOL    HW114173   6.057   1.744   7.386  1.8100  0.4621 -0.6353
 2779SOL    HW214174   5.976   1.864   7.342  0.1623 -1.1222 -2.0643
 2780SOL     OW14175   8.550   4.363   0.410  0.7702  0.2137  0.1541
 2780SOL    HW114176   8.461   4.383   0.382  0.3305 -0.6719  0.8450
 2780SOL    HW214177   8.595   4.447   0.409  0.6735  0.3317 -2.6593
 2781SOL     OW14178   0.742   9.908   0.324 -0.1912 -0.2631  0.8373
 2781SOL    HW114179   0.814   9.853   0.294  0.0031  0.8460 -0.8274
 2781SOL    HW214180   0.768   9.997   0.301 -3.0560  0.0125 -2.0901
 2782SOL     OW14181   6.393   1.239   6.761 -0.6271 -0.3138 -0.0184
 2782SOL    HW114182   6.422   1.168   6.705  1.4402  0.8336 -0.5117
 2782SOL    HW214183   6.381   1.199   6.847  2.1435 -1.0258  0.1305
 2783SOL     OW14184   6.491   6.408  10.179 -0.3649 -0.0453  0.4805
 2783SOL    HW114185   6.552   6.412  10.253  1.1054 -1.0227 -0.6271
 2783SOL    HW214186   6.455   6.497  10.173  1.1357  0.6306  1.0265
 2784SOL     OW14187   8.996   2.531  10.276  0.4791  0.2378 -0.2099
 2784SOL    HW114188   8.938   2.599  10.242  1.2475  0.2537 -1.5713
 2784SOL    HW214189   9.062   2.579  10.326 -0.0729  0.3045  0.4745
 2785SOL     OW14190   1.599   4.572   8.098  0.0676 -0.4329 -0.4824
 2785SOL    HW114191   1.686   4.603   8.074 -0.0781  0.7674  0.4446
 2785SOL    HW214192   1.597   4.581   8.194 -0.7045 -1.4613 -0.3857
 2786SOL     OW14193   8.128   6.806   1.418  0.1551  0.2153  0.3350
 2786SOL    HW114194   8.184   6.746   1.466 -0.0010  1.0427  1.6011
 2786SOL    HW214195   8.066   6.750   1.371  0.4291 -0.6255  0.9653
 2787SOL     OW14196   2.602   3.707   2.884 -0.5464  0.2731  0.2936
 2787SOL    HW114197   2.540   3.780   2.875  0.1031  0.6653 -1.7098
 2787SOL    HW214198   2.587   3.672   2.971 -0.6337  3.0598  1.4886
 2788SOL     OW14199   0.812   3.958   7.176  0.3585  0.0369  1.2974
 2788SOL    HW114200   0.877   4.024   7.198  0.8007  0.6378 -1.4630
 2788SOL    HW214201   0.859   3.896   7.120 -1.2808  0.1855 -0.3079
 2789SOL     OW14202   3.731   1.067   8.150  0.0601  0.1455  0.4406
 2789SOL    HW114203   3.678   1.046   8.227 -0.0584  1.1949  0.6621
 2789SOL    HW214204   3.668   1.082   8.080  0.1881 -1.3878 -0.0338
 2790SOL     OW14205   4.833   7.873   2.934  0.5070 -0.0907  0.6347
 2790SOL    HW114206   4.893   7.932   2.979  0.7439 -0.5815  0.9714
 2790SOL    HW214207   4.871   7.862   2.847 -0.7439  2.0694 -0.2730
 2791SOL     OW14208   6.917  10.484   4.828  0.4098 -0.5502 -0.8148
 2791SOL    HW114209   7.000  10.531   4.837 -0.8392  1.6282 -0.1060
 2791SOL    HW214210   6.908  10.470   4.733  1.6795 -1.0924 -0.8833
 2792SOL     OW14211   1.650   9.524   0.248 -0.4085  0.4725  0.1845
 2792SOL    HW114212   1.682   9.588   0.184  1.4670 -0.4787  0.1107
 2792SOL    HW214213   1.556   9.518   0.230 -0.1060  0.9618 -1.8418
 2793SOL     OW14214   9.033   9.063   1.869  0.1078 -0.5250  1.3211
 2793SOL    HW114215   8.971   9.090   1.938  0.8663 -0.7464  2.1089
 2793SOL    HW214216   9.045   8.969   1.883 -1.4865 -1.0936 -0.5781
 2794SOL     OW14217   9.155   2.544   3.727  0.3630 -0.2857 -0.2103
 2794SOL    HW114218   9.153   2.531   3.632 -0.7326  0.1569 -0.2610
 2794SOL    HW214219   9.068   2.576   3.749  0.6021 -0.3806  0.9539
 2795SOL     OW14220   5.783   2.759   5.580  0.1551  0.1619 -0.0335
 2795SOL    HW114221   5.834   2.814   5.521 -0.8520  0.7684 -0.3509
 2795SOL    HW214222   5.788   2.671   5.541 -0.4757  0.5504 -1.0220
 2796SOL     OW14223   6.525   5.332   6.129  0.4393 -0.1599 -0.0051
 2796SOL    HW114224   6.579   5.395   6.082  2.1944 -1.4371  0.1939
 2796SOL    HW214225   6.455   5.385   6.169  2.8582  1.9771  1.7265
 2797SOL     OW14226  10.519   9.574   7.335 -0.1852 -0.4056  0.1191
 2797SOL    HW114227  10.535   9.516   7.410  2.9902  0.4330  0.2451
 2797SOL    HW214228  10.473   9.520   7.272  2.1801 -3.0119  0.4230
 2798SOL     OW14229   9.054   2.962   7.028 -0.1508 -0.4270 -0.2868
 2798SOL    HW114230   9.134   3.002   6.995  0.2844 -0.5818  0.5671
 2798SOL    HW214231   8.985   3.025   7.006  0.4513  0.5694  0.5921
 2799SOL     OW14232   6.515   4.414   6.867  0.3337 -0.1242 -0.3767
 2799SOL    HW114233   6.475   4.471   6.932  1.8791  0.5306  0.0393
 2799SOL    HW214234   6.578   4.362   6.916  1.2110  0.0645 -1.2587
 2800SOL     OW14235   8.290   2.918   1.817  0.1854 -0.1524  0.3943
 2800SOL    HW114236   8.330   2.955   1.896  0.6457 -0.7675  0.4557
 2800SOL    HW214237   8.206   2.882   1.847  0.5959 -0.8524  0.7100
 2801SOL     OW14238   5.933   7.797   1.863  0.2288  0.1930  0.1986
 2801SOL    HW114239   6.019   7.776   1.900  0.1167  0.8940  0.8851
 2801SOL    HW214240   5.951   7.821   1.772  0.8567  1.0256  0.5349
 2802SOL     OW14241   7.165   5.011   6.262 -0.3028 -0.0576  0.2624
 2802SOL    HW114242   7.220   5.072   6.310  0.5916  1.2183 -2.1888
 2802SOL    HW214243   7.076   5.032   6.290  0.2216 -0.2375  2.2116
 2803SOL     OW14244   5.910  10.046   4.296  0.2182 -0.0033 -0.5831
 2803SOL    HW114245   5.994  10.086   4.314 -0.0354  0.2103  0.1726
 2803SOL    HW214246   5.900  10.051   4.201  1.0568 -0.0435 -0.6727
 2804SOL     OW14247   8.200  10.184   3.057 -0.3064 -0.2481  0.0273
 2804SOL    HW114248   8.188  10.248   3.128 -0.0266  0.3043 -0.4214
 2804SOL    HW214249   8.164  10.103   3.093  0.7971 -0.2542  1.2196
 2805SOL     OW14250   4.891   5.242  10.526  0.0522  0.1839 -0.0995
 2805SOL    HW114251   4.873   5.150  10.506  0.0765 -0.0020  0.6946
 2805SOL    HW214252   4.815   5.270  10.577  1.2611 -0.1718  1.9817
 2806SOL     OW14253   7.801   7.132   0.157  0.3747  0.3620 -0.0327
 2806SOL    HW114254   7.883   7.135   0.107  0.8293  0.0474  0.6688
 2806SOL    HW214255   7.808   7.051   0.209 -0.5495  0.1336 -0.2473
 2807SOL     OW14256   7.529   4.072   4.817  0.0508  0.3415 -0.5825
 2807SOL    HW114257   7.511   4.139   4.751 -1.4626 -0.0221 -0.5759
 2807SOL    HW214258   7.550   3.993   4.767  2.3409  0.8888 -0.5926
 2808SOL     OW14259   5.121  10.663   7.218  0.0917  0.6191  0.5499
 2808SOL    HW114260   5.135  10.727   7.288  3.6825 -0.7727  1.2917
 2808SOL    HW214261   5.108  10.580   7.263 -0.5851  0.1629 -0.4422
 2809SOL     OW14262   7.782   7.304   7.248  0.3237  0.1931  0.0825
 2809SOL    HW114263   7.830   7.288   7.330  0.6416  0.5473 -0.0317
 2809SOL    HW214264   7.809   7.232   7.190  0.4144  0.1697  0.1524
 2810SOL     OW14265   1.016   9.097   3.263  0.1676  0.3099 -0.3663
 2810SOL    HW114266   0.929   9.129   3.238  0.8533  1.3962 -1.4145
 2810SOL    HW214267   1.077   9.148   3.212  1.3971 -1.8747 -1.2278
 2811SOL     OW14268   0.074   0.363   3.328 -0.2686 -0.2123 -0.7037
 2811SOL    HW114269   0.156   0.413   3.335 -1.1858  1.2225  0.2286
 2811SOL    HW214270   0.082   0.296   3.395 -0.2299  0.5271  0.0596
 2812SOL     OW14271   2.289   7.797   7.767  0.2742  0.3233 -0.4367
 2812SOL    HW114272   2.374   7.830   7.794 -0.0863  0.1080  1.0282
 2812SOL    HW214273   2.227   7.832   7.831 -0.3913 -1.4806 -0.0253
 2813SOL     OW14274   2.276   1.411   9.550 -0.0348  0.0844 -0.0341
 2813SOL    HW114275   2.309   1.499   9.533  0.3238 -0.2674 -1.2312
 2813SOL    HW214276   2.258   1.374   9.463 -0.9794 -0.7282  0.4742
 2814SOL     OW14277   7.011   3.810   1.895  0.3233  0.1338 -0.3280
 2814SOL    HW114278   7.080   3.864   1.934  0.5590 -0.0760 -0.4492
 2814SOL    HW214279   7.054   3.766   1.821  0.6475 -1.6143  0.8389
 2815SOL     OW14280   4.211   4.391   8.953 -0.6774 -0.0318  0.6695
 2815SOL    HW114281   4.143   4.358   8.894  0.3279  0.3440 -0.7652
 2815SOL    HW214282   4.179   4.370   9.041 -1.3163 -2.4388 -0.0579
 2816SOL     OW14283   5.050  10.241   0.145 -0.5992 -0.3161 -0.0607
 2816SOL    HW114284   4.958  10.242   0.120 -0.3504 -0.2406 -1.0374
 2816SOL    HW214285   5.093  10.297   0.080 -0.2591  2.1337  2.1008
 2817SOL     OW14286   9.560   7.562   0.873 -0.1565  0.2658  0.3237
 2817SOL    HW114287   9.602   7.532   0.793  0.6825  0.6217  0.6203
 2817SOL    HW214288   9.532   7.652   0.853  0.2700  0.4403  0.5086
 2818SOL     OW14289   7.606   1.334   3.702 -0.4753  0.4072 -0.3538
 2818SOL    HW114290   7.573   1.245   3.711  0.5809  0.2076  2.8039
 2818SOL    HW214291   7.700   1.322   3.684 -0.5920  0.9162 -1.3429
 2819SOL     OW14292   8.282   8.146   4.698  0.3119  0.5632 -0.0925
 2819SOL    HW114293   8.303   8.238   4.678  0.6096  0.3801 -0.6592
 2819SOL    HW214294   8.189   8.147   4.719  1.0328  1.6367  3.9343
 2820SOL     OW14295   3.513   2.310   6.889  0.4398  0.3161 -0.1154
 2820SOL    HW114296   3.515   2.217   6.868  0.2043  0.0626  0.9467
 2820SOL    HW214297   3.558   2.316   6.973 -0.1057  1.0794  0.1294
 2821SOL     OW14298   4.097   3.795   1.817  0.0577 -0.4584 -0.0888
 2821SOL    HW114299   4.148   3.875   1.806 -0.1192 -0.4245 -0.6660
 2821SOL    HW214300   4.017   3.823   1.861 -0.1361 -0.2673 -0.5567
 2822SOL     OW14301   7.697   9.308   8.469  0.2341  0.6764  0.2144
 2822SOL    HW114302   7.703   9.401   8.447 -0.5609  0.9197  0.9532
 2822SOL    HW214303   7.773   9.268   8.426 -0.6732  1.2600 -2.0777
 2823SOL     OW14304   2.980   4.549   5.412  0.5106 -0.2341 -0.2243
 2823SOL    HW114305   3.054   4.608   5.426  0.6104 -0.5390  0.6264
 2823SOL    HW214306   3.017   4.462   5.428  0.0328 -0.4096 -0.0798
 2824SOL     OW14307   3.187   3.999  10.124 -0.2673 -0.5801 -1.0981
 2824SOL    HW114308   3.121   4.017  10.190 -0.7206 -1.9882 -1.1485
 2824SOL    HW214309   3.236   3.924  10.157  0.7213 -0.1366 -1.4931
 2825SOL     OW14310   0.151   1.603   4.174 -0.3423 -0.4142  0.1537
 2825SOL    HW114311   0.067   1.584   4.132  0.9425 -1.5425 -2.1207
 2825SOL    HW214312   0.191   1.670   4.118 -0.2281  1.1211  1.9772
 2826SOL     OW14313   6.579  10.329   2.218  0.3909  1.1417 -0.4052
 2826SOL    HW114314   6.650  10.269   2.196 -1.5760 -0.6285 -2.3705
 2826SOL    HW214315   6.619  10.416   2.213  2.4769  0.2030 -1.1749
 2827SOL     OW14316   6.087   4.736   6.515  0.2889  0.5590 -0.3196
 2827SOL    HW114317   6.102   4.642   6.502 -0.6966  0.2460  0.6552
 2827SOL    HW214318   6.168   4.777   6.485  1.7080 -0.7718  1.4393
 2828SOL     OW14319  10.335   1.973   7.273  0.2182  0.3339  0.2539
 2828SOL    HW114320  10.421   1.966   7.314  0.6350  1.4031 -0.3977
 2828SOL    HW214321  10.352   2.018   7.190 -0.8711 -0.0929 -0.2121
 2829SOL     OW14322  10.720   1.715   1.431  0.3303  0.0634 -0.6128
 2829SOL    HW114323  10.657   1.680   1.367  1.0351 -0.8539 -0.8123
 2829SOL    HW214324  10.765   1.639   1.466  0.8248  0.6563  0.0848
 2830SOL     OW14325  10.028   8.722   2.998 -0.0074 -0.1593 -0.8473
 2830SOL    HW114326  10.046   8.809   2.960  2.3116 -0.3107 -0.2501
 2830SOL    HW214327  10.093   8.713   3.067 -2.7331 -0.7874  1.8242
 2831SOL     OW14328   6.108   6.445   3.864 -0.1699  0.3875  0.3670
 2831SOL    HW114329   6.099   6.435   3.959 -1.1224  0.0121  0.2463
 2831SOL    HW214330   6.090   6.537   3.848 -1.9222  0.0743  0.3643
 2832SOL     OW14331   4.308   7.294   5.936 -0.2384 -0.2184 -0.1161
 2832SOL    HW114332   4.298   7.200   5.920  2.4654 -0.5500 -0.2010
 2832SOL    HW214333   4.401   7.307   5.950 -0.1467  2.8290 -2.4846
 2833SOL     OW14334   4.809   9.744   8.858  0.4991 -0.7093  0.1702
 2833SOL    HW114335   4.833   9.696   8.937  1.4433  0.5364  0.6826
 2833SOL    HW214336   4.802   9.677   8.790 -1.3910 -1.9540  1.4966
 2834SOL     OW14337   2.231   0.796   0.114 -0.0735 -0.2776  0.2475
 2834SOL    HW114338   2.170   0.858   0.075  0.4004  1.0529  1.5320
 2834SOL    HW214339   2.174   0.728   0.152 -0.8268  1.1180  1.7242
 2835SOL     OW14340   2.505   7.582  10.499 -0.1627 -0.7651 -0.0266
 2835SOL    HW114341   2.576   7.595  10.437  0.2708 -1.0032  0.4108
 2835SOL    HW214342   2.535   7.511  10.556 -0.5224 -0.5059  0.4950
 2836SOL     OW14343   5.606  10.239   7.997 -0.2180  0.3284  0.8029
 2836SOL    HW114344   5.557  10.266   8.075 -1.1469 -0.4705  0.5139
 2836SOL    HW214345   5.660  10.166   8.028  0.6640  1.0703  1.0695
 2837SOL     OW14346   8.365   2.346   6.523  0.5207  0.2345  0.3623
 2837SOL    HW114347   8.407   2.397   6.592 -0.5462  2.5447 -0.6084
 2837SOL    HW214348   8.390   2.390   6.442 -1.4877  0.0372 -0.4287
 2838SOL     OW14349   6.822   3.071   6.051  0.4990  0.1644 -0.2696
 2838SOL    HW114350   6.782   3.109   6.129  0.1177 -2.5855  1.0175
 2838SOL    HW214351   6.904   3.033   6.082  0.6066 -0.5080 -1.3119
 2839SOL     OW14352  10.374   1.270   4.992  0.3130 -0.3207 -0.2066
 2839SOL    HW114353  10.460   1.258   4.952 -1.2084 -0.0155 -3.9942
 2839SOL    HW214354  10.338   1.182   4.998  0.2584 -0.2951 -0.1640
 2840SOL     OW14355   1.051   4.889   1.936  0.1090 -0.5718 -0.1059
 2840SOL    HW114356   1.047   4.946   1.859  1.0956  0.6470  0.7022
 2840SOL    HW214357   1.093   4.943   2.003 -1.1095 -1.4653  1.4343
 2841SOL     OW14358   9.295   6.139   8.639  0.5097 -0.3647 -0.7773
 2841SOL    HW114359   9.304   6.234   8.640  2.0487 -0.4859 -0.6319
 2841SOL    HW214360   9.381   6.107   8.613  0.0423 -1.7242 -0.7346
 2842SOL     OW14361   2.130   6.442   2.120  0.3495  0.0961 -0.2076
 2842SOL    HW114362   2.187   6.419   2.047 -1.7041  1.3197 -2.3426
 2842SOL    HW214363   2.043   6.415   2.092 -0.8257  2.4407  0.8489
 2843SOL     OW14364   7.379   5.800   2.801  0.1444 -0.3951 -0.1701
 2843SOL    HW114365   7.399   5.746   2.878  0.0318 -0.6019 -0.2841
 2843SOL    HW214366   7.464   5.832   2.772  0.0972  0.4599  0.6007
 2844SOL     OW14367   6.097   1.933   8.749  0.3949  0.5959 -0.3577
 2844SOL    HW114368   6.107   2.028   8.759 -1.2632  0.8125 -0.4014
 2844SOL    HW214369   6.077   1.920   8.656  1.1942  0.1218 -0.4768
 2845SOL     OW14370   9.707   8.797   9.620  0.5030  0.0806 -0.3973
 2845SOL    HW114371   9.643   8.742   9.575  1.4268  0.5690 -2.4779
 2845SOL    HW214372   9.792   8.758   9.598  1.0585  1.0826 -0.1101
 2846SOL     OW14373   5.601   0.445   9.247 -0.4413  0.4888  0.1078
 2846SOL    HW114374   5.639   0.358   9.236  0.5031  0.9438 -0.3708
 2846SOL    HW214375   5.639   0.478   9.329 -1.7979 -0.0323  0.9840
 2847SOL     OW14376   7.245   7.700   8.664  0.3317 -0.2758 -0.2212
 2847SOL    HW114377   7.223   7.677   8.573  1.2859  1.0654 -0.8230
 2847SOL    HW214378   7.340   7.686   8.669  0.1011 -1.7352  1.0307
 2848SOL     OW14379   0.917   6.513   2.299 -0.0504  0.0119 -0.0070
 2848SOL    HW114380   1.010   6.497   2.315  0.1438  1.2283  0.2284
 2848SOL    HW214381   0.873   6.472   2.373 -0.0376 -3.5071 -1.7543
 2849SOL     OW14382   8.793   3.540   1.209 -0.0582 -0.3554  0.3129
 2849SOL    HW114383   8.832   3.613   1.160 -1.0889 -0.6918 -1.0736
 2849SOL    HW214384   8.831   3.462   1.168 -0.2064 -0.6283  0.6972
 2850SOL     OW14385   6.043   7.205   3.553 -0.0018  0.0290 -0.1268
 2850SOL    HW114386   6.096   7.132   3.521 -0.6848 -1.0907  1.1399
 2850SOL    HW214387   6.003   7.242   3.475  2.1874  0.5800 -1.0576
 2851SOL     OW14388   1.757   4.214   8.813 -0.0279 -0.1802 -0.3056
 2851SOL    HW114389   1.701   4.210   8.890  0.1624 -2.5570 -0.2060
 2851SOL    HW214390   1.818   4.286   8.831  0.3216 -0.9686  2.0056
 2852SOL     OW14391   1.091  10.048   2.284  0.0146  0.2898 -0.1340
 2852SOL    HW114392   1.055   9.967   2.248 -1.3098  0.4595  0.7373
 2852SOL    HW214393   1.056  10.052   2.373  1.4780  0.9520  0.4471
 2853SOL     OW14394   0.193   2.056   7.816 -0.8963 -0.2435 -0.0238
 2853SOL    HW114395   0.204   1.973   7.771 -1.5996 -1.0544  1.2449
 2853SOL    HW214396   0.185   2.033   7.909 -0.3769  1.2965  0.4319
 2854SOL     OW14397   3.895   7.941  10.283  0.0444  0.2519  0.0847
 2854SOL    HW114398   3.926   7.918  10.371  1.1548 -0.6686 -0.5108
 2854SOL    HW214399   3.949   7.887  10.224  0.5919  2.1541 -1.2550
 2855SOL     OW14400   3.443   4.453   7.878  0.2684  0.0251 -0.3494
 2855SOL    HW114401   3.457   4.378   7.936  0.8184 -1.2761 -2.1011
 2855SOL    HW214402   3.520   4.454   7.820 -1.1082  0.1319 -2.2635
 2856SOL     OW14403   5.158   9.637   7.735  0.2076  0.3613  0.0684
 2856SOL    HW114404   5.197   9.721   7.708  1.0610  0.1162  0.4892
 2856SOL    HW214405   5.230   9.590   7.776 -0.3461 -0.4600  0.1170
 2857SOL     OW14406   5.572   2.858   0.606  0.2163  0.3302  0.6233
 2857SOL    HW114407   5.550   2.767   0.622  0.6121 -0.0743 -0.9223
 2857SOL    HW214408   5.498   2.908   0.640 -0.9569 -0.6999 -0.3402
 2858SOL     OW14409   5.385   7.560   9.797 -0.0217 -0.4080  0.2510
 2858SOL    HW114410   5.369   7.496   9.727  1.7618 -0.8062  0.1814
 2858SOL    HW214411   5.480   7.566   9.803 -0.0911  2.5833 -0.0537
 2859SOL     OW14412   8.878   4.960   2.793 -0.5784 -0.1722  0.1083
 2859SOL    HW114413   8.956   4.906   2.796 -0.7765 -0.4749 -0.1213
 2859SOL    HW214414   8.811   4.904   2.754 -0.7432  0.2803 -0.2842
 2860SOL     OW14415   2.553   1.288   1.678 -0.5241  0.2979  0.1204
 2860SOL    HW114416   2.492   1.359   1.658  0.2807  0.8740 -0.3479
 2860SOL    HW214417   2.639   1.325   1.662 -0.0935 -0.9160 -0.5455
 2861SOL     OW14418   7.987   2.512   5.934 -0.0838 -0.0522 -0.2337
 2861SOL    HW114419   8.069   2.463   5.933 -1.0871 -1.8673  0.5276
 2861SOL    HW214420   7.968   2.525   6.027 -1.6558 -1.5448 -0.2802
 2862SOL     OW14421   7.136   1.725   1.413  0.1000 -0.4533  0.4894
 2862SOL    HW114422   7.176   1.657   1.467 -0.4233 -0.9139  0.2951
 2862SOL    HW214423   7.106   1.680   1.335 -2.2101 -0.4455  1.2935
 2863SOL     OW14424   6.862   8.594  10.120  0.4903 -0.3405  0.8576
 2863SOL    HW114425   6.768   8.611  10.122  0.2635 -1.5669  1.0014
 2863SOL    HW214426   6.882   8.558  10.206  1.2189  0.4677  1.0448
 2864SOL     OW14427   1.693   1.779   2.103  0.0972 -0.0042 -0.5724
 2864SOL    HW114428   1.714   1.729   2.024 -1.3480  0.8684 -1.5654
 2864SOL    HW214429   1.709   1.870   2.078  1.6075  0.1687  0.8415
 2865SOL     OW14430  10.443   1.074   2.570 -0.6987  0.2920  0.0085
 2865SOL    HW114431  10.381   1.011   2.532  1.2466 -1.6092 -0.1893
 2865SOL    HW214432  10.426   1.071   2.664  0.9295 -2.4613  0.3129
 2866SOL     OW14433   9.891   0.935   1.967  0.2431  0.0598  0.1015
 2866SOL    HW114434   9.879   0.854   1.918  1.0899 -0.5652  0.8898
 2866SOL    HW214435   9.830   0.929   2.040 -0.6283  0.7426 -0.5524
 2867SOL     OW14436   8.941   1.875   2.151  0.2760 -0.3022  0.4264
 2867SOL    HW114437   8.951   1.796   2.204  0.5934 -0.4016  0.2182
 2867SOL    HW214438   9.028   1.916   2.152  0.0310  0.2366  0.8319
 2868SOL     OW14439   7.385  10.146  10.624  0.2918 -0.3132 -0.0901
 2868SOL    HW114440   7.429  10.160  10.708  1.7936  0.5899 -0.9754
 2868SOL    HW214441   7.366  10.234  10.592  2.0867 -0.4940 -1.8461
 2869SOL     OW14442   1.191  10.514   2.534  0.2108  0.7195 -0.3579
 2869SOL    HW114443   1.186  10.563   2.452  1.1027 -0.7901 -1.3766
 2869SOL    HW214444   1.132  10.440   2.521 -1.0189  1.3826  1.0980
 2870SOL     OW14445   9.792   5.808   5.961 -0.3984 -0.1844 -0.2025
 2870SOL    HW114446   9.807   5.714   5.949 -0.5307 -0.1753 -0.4466
 2870SOL    HW214447   9.874   5.841   5.998  0.7688  0.1232 -2.8336
 2871SOL     OW14448   8.011   2.228   9.682  0.1033 -0.1552  0.1916
 2871SOL    HW114449   7.927   2.185   9.696  0.4723 -1.5443 -1.5793
 2871SOL    HW214450   8.076   2.167   9.718  0.4572  0.3791  0.4957
 2872SOL     OW14451   4.473   0.341   7.200  0.0599  0.1871 -0.3920
 2872SOL    HW114452   4.467   0.248   7.177  2.0601 -0.2441  0.6721
 2872SOL    HW214453   4.383   0.365   7.223 -0.3003 -1.8291  0.5359
 2873SOL     OW14454   2.805   4.105   1.969 -0.2957  0.6253 -0.6070
 2873SOL    HW114455   2.795   4.200   1.966  1.1749  0.9541  1.9844
 2873SOL    HW214456   2.897   4.091   1.991 -1.0842 -1.2148  2.0590
 2874SOL     OW14457   3.107   3.127  10.457 -0.2909  0.1897  0.3205
 2874SOL    HW114458   3.199   3.138  10.433 -0.3390 -0.0371  0.0194
 2874SOL    HW214459   3.106   3.134  10.552  0.1436 -0.5220  0.3830
 2875SOL     OW14460   1.804   0.353   7.270  0.2871  0.3388  0.0884
 2875SOL    HW114461   1.850   0.277   7.232 -0.6604 -0.2298  0.0444
 2875SOL    HW214462   1.751   0.315   7.340  0.6369  1.1312  0.7915
 2876SOL     OW14463   6.831   1.925   2.864  0.1551  0.0541 -0.0689
 2876SOL    HW114464   6.853   1.923   2.771 -1.4275 -2.1715 -0.4707
 2876SOL    HW214465   6.845   2.016   2.890 -0.4870  1.0167 -2.7726
 2877SOL     OW14466   8.157   6.166   1.792 -0.3472 -0.2669 -0.1029
 2877SOL    HW114467   8.230   6.221   1.821  0.4166 -0.9912 -0.6341
 2877SOL    HW214468   8.194   6.078   1.784 -0.8459 -0.3456 -1.9617
 2878SOL     OW14469   2.000   2.205   1.622 -0.3345  0.1179  0.1016
 2878SOL    HW114470   1.995   2.110   1.634 -0.4437  0.3365  2.1134
 2878SOL    HW214471   1.944   2.222   1.547 -0.2456 -1.4189 -0.3503
 2879SOL     OW14472   8.984   3.867   2.966  0.7308  0.0931  0.4773
 2879SOL    HW114473   8.949   3.897   2.882  2.0844  0.0148 -0.1456
 2879SOL    HW214474   8.908   3.866   3.025 -0.1995  0.3817 -0.6719
 2880SOL     OW14475   8.417   1.568   7.209  0.2493 -0.7759 -0.0267
 2880SOL    HW114476   8.353   1.578   7.139 -0.3501 -3.4267  0.0284
 2880SOL    HW214477   8.425   1.474   7.221  0.4663 -0.4452  3.3651
 2881SOL     OW14478   3.945   6.016   0.336  0.2479  0.0938 -0.2607
 2881SOL    HW114479   3.935   5.926   0.368  0.8685  0.2441  0.3818
 2881SOL    HW214480   3.881   6.024   0.266  1.1869 -1.3399 -1.3518
 2882SOL     OW14481   9.264   1.169   4.589 -0.2675 -0.3985 -0.5337
 2882SOL    HW114482   9.170   1.183   4.576 -0.1475  0.2861 -0.6560
 2882SOL    HW214483   9.306   1.214   4.516  0.4011  3.3089  1.9179
 2883SOL     OW14484   0.920   3.624   3.176 -0.1072 -0.1526  0.2127
 2883SOL    HW114485   0.927   3.678   3.256 -1.3624  1.0070 -0.4125
 2883SOL    HW214486   1.010   3.614   3.146  0.1565  2.4335 -0.1257
 2884SOL     OW14487  10.377  10.396   9.223  0.6157 -0.0867  0.0773
 2884SOL    HW114488  10.337  10.309   9.214  0.5242 -0.0777  0.3983
 2884SOL    HW214489  10.398  10.403   9.316  1.3216 -0.0668 -0.0780
 2885SOL     OW14490   2.326   2.966   3.279 -0.4034 -0.1089 -0.1148
 2885SOL    HW114491   2.310   3.036   3.342 -0.9288 -1.3771  1.2145
 2885SOL    HW214492   2.346   3.012   3.197  0.8874  1.6040  1.0760
 2886SOL     OW14493   5.203   2.029   7.067  0.6328  0.0782  0.0751
 2886SOL    HW114494   5.125   2.082   7.054  0.9502  0.4029 -0.5757
 2886SOL    HW214495   5.174   1.939   7.051  0.3247  0.1670  0.1276
 2887SOL     OW14496   8.293   7.738   9.629 -0.5950  0.2699 -0.0260
 2887SOL    HW114497   8.381   7.721   9.664 -0.9565  1.3227  1.5035
 2887SOL    HW214498   8.282   7.833   9.637 -1.2476  0.3945 -1.8155
 2888SOL     OW14499   6.303   8.893   6.737  0.3944  0.1481 -0.1473
 2888SOL    HW114500   6.353   8.926   6.662 -1.4582 -0.2520 -1.6386
 2888SOL    HW214501   6.214   8.925   6.723 -0.7142 -2.4917  0.1784
 2889SOL     OW14502  10.018   0.051   4.589  0.7216  0.4401 -0.2328
 2889SOL    HW114503  10.049  -0.036   4.563  3.3995  1.0393  0.5827
 2889SOL    HW214504   9.956   0.076   4.520  0.7385 -1.6428 -1.0868
 2890SOL     OW14505   7.376   3.152   2.236  0.4256 -0.0459  0.2552
 2890SOL    HW114506   7.389   3.247   2.240  1.7526 -0.0769 -1.7546
 2890SOL    HW214507   7.460   3.118   2.205 -0.8068 -1.5986 -1.6518
 2891SOL     OW14508   4.723   8.959   1.150  0.7133 -0.5675 -0.0444
 2891SOL    HW114509   4.701   9.027   1.214 -0.5394 -0.1735 -0.8439
 2891SOL    HW214510   4.665   8.886   1.172  0.3595 -0.4739 -0.6229
 2892SOL     OW14511   8.891   2.044   7.822 -0.3370 -0.1469  0.8534
 2892SOL    HW114512   8.850   2.027   7.907 -2.1962 -0.4232 -0.0474
 2892SOL    HW214513   8.825   2.017   7.758  1.1108 -0.1557 -0.6916
 2893SOL     OW14514   0.103   0.657   3.156 -0.2267 -0.0333 -0.2150
 2893SOL    HW114515   0.025   0.604   3.173 -0.7001 -0.0506 -2.2704
 2893SOL    HW214516   0.077   0.718   3.087  1.0206  1.3114  0.4494
 2894SOL     OW14517   4.422   5.736   1.498  0.2267  0.2409 -0.2191
 2894SOL    HW114518   4.512   5.755   1.470  1.0469 -2.0229  0.6654
 2894SOL    HW214519   4.390   5.672   1.436  0.1906 -0.9207  0.9592
 2895SOL     OW14520   7.510   6.908   1.458  0.3397 -0.0859 -0.5197
 2895SOL    HW114521   7.508   6.902   1.554  0.1133 -0.0744 -0.5228
 2895SOL    HW214522   7.522   6.817   1.429 -1.8611 -0.4302 -0.5361
 2896SOL     OW14523   1.522   3.155   0.201  0.5357  0.2893  0.4025
 2896SOL    HW114524   1.611   3.190   0.203  0.2177  1.1684 -0.1101
 2896SOL    HW214525   1.509   3.128   0.110  0.0995  0.6803  0.3438
 2897SOL     OW14526   4.063   0.435   9.441 -0.1723 -0.6036  0.2256
 2897SOL    HW114527   3.975   0.440   9.480 -0.3094  0.9640 -0.2475
 2897SOL    HW214528   4.062   0.351   9.393 -1.6468 -0.3195 -0.3180
 2898SOL     OW14529  10.633  10.453   8.631 -0.6353  0.2269 -0.3222
 2898SOL    HW114530  10.703  10.427   8.690 -1.9961  0.1897  1.3591
 2898SOL    HW214531  10.605  10.539   8.662 -0.7790  0.6292 -1.4989
 2899SOL     OW14532   1.256   9.441   1.458 -0.0178  0.0081  0.3640
 2899SOL    HW114533   1.204   9.456   1.379  0.5519 -0.9176 -0.2038
 2899SOL    HW214534   1.236   9.350   1.482  0.6632 -0.0736  0.6351
 2900SOL     OW14535   2.238   1.592   4.447 -0.2078 -0.5785 -0.0435
 2900SOL    HW114536   2.180   1.541   4.391 -0.4668 -0.9295  0.5461
 2900SOL    HW214537   2.286   1.527   4.498  0.1373 -0.2646  0.0359
 2901SOL     OW14538   3.384   5.591   6.631 -0.4308  0.2319  0.0966
 2901SOL    HW114539   3.350   5.671   6.672  1.2553 -0.6602  3.6299
 2901SOL    HW214540   3.327   5.521   6.663  1.2801 -0.5646  1.6376
 2902SOL     OW14541   0.580   2.155   3.810  0.8087 -0.4091 -0.4199
 2902SOL    HW114542   0.637   2.218   3.855 -0.8528 -0.6713  2.2595
 2902SOL    HW214543   0.535   2.206   3.743 -0.6821  1.4361  1.8412
 2903SOL     OW14544   8.358   1.276   0.322 -0.0544 -0.2359 -0.4759
 2903SOL    HW114545   8.385   1.297   0.233  1.2256 -1.7085 -0.4811
 2903SOL    HW214546   8.350   1.181   0.323  1.2326 -0.3760  1.3036
 2904SOL     OW14547   5.525   6.895   7.749  0.0624 -0.4099 -0.3563
 2904SOL    HW114548   5.589   6.837   7.790  1.0933  0.0325 -1.3063
 2904SOL    HW214549   5.449   6.890   7.807  0.0092 -2.8984 -0.5418
 2905SOL     OW14550   4.971   6.355   7.113  0.4983  0.1494  0.3872
 2905SOL    HW114551   4.902   6.416   7.086  0.4941 -1.0312 -2.6803
 2905SOL    HW214552   4.993   6.307   7.033  3.3240 -1.0885  1.7693
 2906SOL     OW14553   1.735   7.778   1.913  0.1567  0.6814  0.8754
 2906SOL    HW114554   1.695   7.697   1.944 -1.3573  0.4381 -1.5122
 2906SOL    HW214555   1.826   7.754   1.894 -0.2355 -0.4295  0.3353
 2907SOL     OW14556   2.100   9.931   9.494 -0.4539  0.1284  0.0636
 2907SOL    HW114557   2.024   9.979   9.460 -0.8222 -0.2763  0.3186
 2907SOL    HW214558   2.132   9.984   9.567 -0.9499 -0.0894  0.4387
 2908SOL     OW14559   0.537   3.041   3.980 -0.0117 -0.6598 -0.4864
 2908SOL    HW114560   0.446   3.031   4.008  0.0620 -2.3885 -0.7695
 2908SOL    HW214561   0.585   3.061   4.060 -0.8652  2.5088 -0.6068
 2909SOL     OW14562   7.916   2.733   2.987  0.0154 -0.2313  0.5026
 2909SOL    HW114563   8.005   2.705   3.007 -0.5989 -2.1798  0.7172
 2909SOL    HW214564   7.918   2.754   2.894  1.0556  1.3950  0.8435
 2910SOL     OW14565   9.128   4.030   9.547  0.1949 -0.0921 -0.3022
 2910SOL    HW114566   9.047   4.078   9.559 -0.1376 -0.6892 -0.1066
 2910SOL    HW214567   9.171   4.072   9.473 -0.1443  0.4211 -0.2104
 2911SOL     OW14568   6.931   5.544   3.696 -0.7367 -0.1603 -0.2629
 2911SOL    HW114569   6.888   5.495   3.766  1.0238 -0.6038  0.5815
 2911SOL    HW214570   7.024   5.538   3.717 -0.1827  0.1252 -2.3876
 2912SOL     OW14571   9.098   0.617   9.906  0.3207 -0.4535 -0.4316
 2912SOL    HW114572   9.077   0.647   9.995  0.8738 -3.2216  0.7494
 2912SOL    HW214573   9.171   0.672   9.878  0.5724  0.0437  1.1175
 2913SOL     OW14574   7.018   5.474  10.501 -0.5437  0.5428 -0.1259
 2913SOL    HW114575   7.080   5.507  10.566  0.1012  1.1927 -1.0442
 2913SOL    HW214576   7.056   5.390  10.472 -0.5199  0.5445 -0.1001
 2914SOL     OW14577   1.828   3.007   3.772 -0.3118  0.1362  0.1572
 2914SOL    HW114578   1.762   3.025   3.705 -1.5978  1.1573  1.6523
 2914SOL    HW214579   1.896   3.073   3.757 -0.8485  0.7027  0.1747
 2915SOL     OW14580   6.165   4.923   4.246  0.3026  0.2788  0.0342
 2915SOL    HW114581   6.138   5.010   4.220 -2.3964  0.1249  2.0211
 2915SOL    HW214582   6.111   4.864   4.193 -1.5403 -0.0731  2.2134
 2916SOL     OW14583  10.648   5.193  10.724  0.2938  0.0635  0.3582
 2916SOL    HW114584  10.739   5.170  10.704 -0.2985 -1.2650 -1.0100
 2916SOL    HW214585  10.597   5.146  10.659 -1.3557  1.2748  0.7278
 2917SOL     OW14586   2.198   6.998  10.254  0.5852  0.4317 -0.0797
 2917SOL    HW114587   2.120   6.949  10.226 -1.1070  3.0100 -0.1603
 2917SOL    HW214588   2.163   7.071  10.306  3.0643  0.9643  0.9481
 2918SOL     OW14589   6.199   0.141   3.415  0.4351  0.5488 -0.5259
 2918SOL    HW114590   6.123   0.131   3.358 -0.1026 -0.0656  0.2639
 2918SOL    HW214591   6.264   0.081   3.378  0.3437  0.6663 -0.8848
 2919SOL     OW14592   2.643   2.564   6.345 -0.2519  0.3324  0.3657
 2919SOL    HW114593   2.554   2.581   6.313  0.1494 -0.9724 -1.6120
 2919SOL    HW214594   2.695   2.637   6.311 -0.2146  0.0419 -0.2145
 2920SOL     OW14595   2.420   5.306   9.145 -0.1371  0.5570  0.8446
 2920SOL    HW114596   2.365   5.300   9.067  3.3619 -0.2777 -1.8338
 2920SOL    HW214597   2.410   5.221   9.189  2.5166 -1.6793 -2.4019
 2921SOL     OW14598   3.210   2.891   6.674  0.5719  0.1725 -0.0834
 2921SOL    HW114599   3.216   2.802   6.709 -1.2216  0.1454  0.2278
 2921SOL    HW214600   3.229   2.947   6.749 -1.6163  0.0767  0.6181
 2922SOL     OW14601   3.296   4.531   8.219  0.3077  0.0764 -0.0420
 2922SOL    HW114602   3.344   4.452   8.194 -0.4309 -0.8686  1.3753
 2922SOL    HW214603   3.353   4.603   8.193  0.0569 -0.7634 -3.4563
 2923SOL     OW14604   2.894   4.661   9.826 -0.3190 -0.1252 -0.1566
 2923SOL    HW114605   2.866   4.623   9.909 -0.3792  0.7469  0.2355
 2923SOL    HW214606   2.985   4.634   9.816  0.2968  1.2945  1.1431
 2924SOL     OW14607   7.004   4.752   5.965 -0.5977  0.5259  0.1045
 2924SOL    HW114608   6.980   4.703   5.886 -2.1604 -0.4266  1.1174
 2924SOL    HW214609   6.988   4.843   5.942 -2.1227  0.1801 -0.3696
 2925SOL     OW14610   3.691   8.832   5.536  0.8277  0.1614  0.2569
 2925SOL    HW114611   3.703   8.782   5.617 -0.6381 -0.4194  0.1422
 2925SOL    HW214612   3.700   8.766   5.467  1.8626  0.6189 -0.0611
 2926SOL     OW14613   3.737   9.296   5.968 -0.0343 -0.0011  0.2900
 2926SOL    HW114614   3.766   9.341   6.046 -0.1761  0.3672  0.1327
 2926SOL    HW214615   3.817   9.266   5.925  0.2876  2.4272 -1.0124
 2927SOL     OW14616   3.411   3.929   4.702  0.9367  0.3192  0.1938
 2927SOL    HW114617   3.498   3.916   4.664  0.7645  0.4689 -0.2611
 2927SOL    HW214618   3.370   3.993   4.645  0.8865  1.0082  0.9910
 2928SOL     OW14619   5.250   0.911   1.708 -0.4071  0.0608  0.2547
 2928SOL    HW114620   5.240   0.907   1.613 -0.8719  0.7407  0.2673
 2928SOL    HW214621   5.194   0.984   1.735 -2.3925 -1.7642  1.3432
 2929SOL     OW14622   1.719   3.183   5.675 -0.6705  0.0004 -0.5317
 2929SOL    HW114623   1.627   3.179   5.648 -1.1049 -0.5554  0.9396
 2929SOL    HW214624   1.728   3.267   5.720  0.2028  1.2054 -2.7698
 2930SOL     OW14625   3.496   9.570   5.918  0.0917  0.8787  0.1422
 2930SOL    HW114626   3.469   9.661   5.936 -2.1649  0.4267 -0.5515
 2930SOL    HW214627   3.481   9.524   6.000 -1.0917  0.6913 -0.1583
 2931SOL     OW14628   2.674   7.993   3.979 -0.9884 -0.7351 -0.5248
 2931SOL    HW114629   2.601   7.933   3.997  0.2213 -2.0026  0.3081
 2931SOL    HW214630   2.749   7.936   3.963 -0.1365  0.5454 -1.2696
 2932SOL     OW14631  10.414   0.222   5.722 -0.0323 -0.1914 -0.0361
 2932SOL    HW114632  10.375   0.219   5.635  1.0818  3.0851 -0.7956
 2932SOL    HW214633  10.481   0.291   5.716  1.5097 -1.2487  2.8747
 2933SOL     OW14634   4.271   8.001   1.342  0.2389 -0.2144  0.8233
 2933SOL    HW114635   4.314   7.916   1.330  0.8764  0.1724  0.2960
 2933SOL    HW214636   4.242   8.025   1.254 -0.2988 -0.0743  1.0393
 2934SOL     OW14637   6.493   3.731  10.519  0.0158  0.0117  0.1479
 2934SOL    HW114638   6.418   3.751  10.574  0.5307  0.9330  0.5452
 2934SOL    HW214639   6.496   3.636  10.515 -1.1655 -0.0364  0.1214
 2935SOL     OW14640   4.644   7.650   6.204 -0.3722 -0.3841  0.0904
 2935SOL    HW114641   4.710   7.643   6.135 -0.5960 -2.1838  0.0005
 2935SOL    HW214642   4.561   7.656   6.156 -0.5239 -1.5923  0.1568
 2936SOL     OW14643   4.687   8.727   8.226  0.6704 -0.2180 -0.0440
 2936SOL    HW114644   4.695   8.726   8.131  1.2445  0.0153 -0.0037
 2936SOL    HW214645   4.626   8.656   8.246  2.5998 -2.0696 -0.4240
 2937SOL     OW14646   6.694   2.233   2.376  0.0597  0.3218 -0.1848
 2937SOL    HW114647   6.682   2.190   2.292  0.7962  1.7441 -1.0562
 2937SOL    HW214648   6.789   2.243   2.385 -0.0241  0.4679  0.6755
 2938SOL     OW14649   4.569  10.225   8.344  0.6947  0.4821  0.1231
 2938SOL    HW114650   4.608  10.225   8.256 -1.1040  1.6610 -0.7451
 2938SOL    HW214651   4.569  10.132   8.370 -2.0439 -0.5429 -2.7704
 2939SOL     OW14652   4.414   4.354   6.593  0.5621  0.1294 -0.4247
 2939SOL    HW114653   4.433   4.441   6.628  0.8078  0.1459 -0.5924
 2939SOL    HW214654   4.469   4.295   6.644  0.8998  0.1507 -0.7585
 2940SOL     OW14655   7.017   8.662   4.398  0.2340 -0.8420 -0.7508
 2940SOL    HW114656   6.982   8.574   4.412 -1.6132 -0.3928 -2.1278
 2940SOL    HW214657   6.945   8.710   4.357  0.6788  1.7851  1.3316
 2941SOL     OW14658   8.769   9.443  10.543 -0.1019 -0.4893 -0.4879
 2941SOL    HW114659   8.675   9.454  10.527  0.1195  0.3279 -1.3098
 2941SOL    HW214660   8.779   9.456  10.637 -0.4920  2.1389 -0.7347
 2942SOL     OW14661   2.817   0.792   7.969 -0.3480  0.9389 -0.0036
 2942SOL    HW114662   2.755   0.767   7.901  0.2033  0.2040 -0.2357
 2942SOL    HW214663   2.890   0.832   7.922  0.4410 -0.3802  0.0689
 2943SOL     OW14664   4.239   7.327   3.855  0.2312 -0.0051  0.4269
 2943SOL    HW114665   4.254   7.294   3.944 -0.3478 -1.0739  0.1452
 2943SOL    HW214666   4.247   7.422   3.863  0.0622 -0.0749  1.6539
 2944SOL     OW14667   2.444   2.072   4.350 -0.1551 -0.3826  0.3448
 2944SOL    HW114668   2.387   2.034   4.417  2.1463 -0.9104  2.1359
 2944SOL    HW214669   2.414   2.033   4.268 -2.2796 -0.6587  1.1814
 2945SOL     OW14670   6.690   0.050   1.901  0.2801  0.2481 -0.1225
 2945SOL    HW114671   6.655  -0.002   1.828 -0.3075  1.6883 -0.8992
 2945SOL    HW214672   6.744   0.117   1.859  1.8953 -0.3406  0.9258
 2946SOL     OW14673   2.811   1.775   7.111  0.1276  0.3086 -0.4019
 2946SOL    HW114674   2.826   1.785   7.205  0.7544  0.3658 -0.5008
 2946SOL    HW214675   2.716   1.771   7.102  0.0636  0.2754  0.2361
 2947SOL     OW14676   3.753   7.863   6.191  0.2146 -0.4159 -0.3983
 2947SOL    HW114677   3.819   7.896   6.129  1.9637 -2.1268  0.4488
 2947SOL    HW214678   3.802   7.840   6.269 -1.9008  1.3885  1.6299
 2948SOL     OW14679   2.557   1.028   9.923 -0.0217  0.1328 -0.7232
 2948SOL    HW114680   2.551   1.042   9.828 -0.1909  0.8208 -0.6126
 2948SOL    HW214681   2.614   1.098   9.954  0.6421 -0.5347 -0.4140
 2949SOL     OW14682   6.298   5.007   2.710 -0.6170 -0.0449 -0.7980
 2949SOL    HW114683   6.353   4.929   2.704  1.0036  0.9846  0.0775
 2949SOL    HW214684   6.229   4.992   2.644 -0.7056 -2.4416 -0.2702
 2950SOL     OW14685   8.896   0.644   2.857  0.5503 -0.1920 -0.0459
 2950SOL    HW114686   8.850   0.673   2.936  1.6156  0.1423  0.4840
 2950SOL    HW214687   8.852   0.690   2.785 -0.4812 -0.5582  0.3314
 2951SOL     OW14688   4.941   6.030   4.900  0.3234 -0.3168  0.2848
 2951SOL    HW114689   4.856   6.057   4.865  1.1080  1.2744 -0.4925
 2951SOL    HW214690   4.948   5.937   4.876 -0.7625 -0.2132 -0.5137
 2952SOL     OW14691   3.856   1.673   4.969  0.2547  0.4846  0.1004
 2952SOL    HW114692   3.777   1.725   4.957  1.4919  2.3771 -0.3952
 2952SOL    HW214693   3.878   1.641   4.881  1.6405  2.5400 -0.3773
 2953SOL     OW14694   8.438   4.744   5.511  0.0860 -0.1390  0.0277
 2953SOL    HW114695   8.523   4.721   5.473  1.2434 -0.5207  2.6386
 2953SOL    HW214696   8.401   4.661   5.540  1.2451  0.3683  3.4717
 2954SOL     OW14697   8.391   1.013   0.320 -0.0573  0.3207 -0.0212
 2954SOL    HW114698   8.377   0.918   0.320 -1.8215  0.5408 -0.6983
 2954SOL    HW214699   8.433   1.031   0.404 -0.1804 -0.9944  0.3452
 2955SOL     OW14700   1.569   0.831   8.914 -0.0321 -0.4233 -0.0270
 2955SOL    HW114701   1.485   0.799   8.879 -0.3732  1.6836 -1.2681
 2955SOL    HW214702   1.560   0.822   9.009 -1.1911 -1.3360 -0.1953
 2956SOL     OW14703   4.226   7.999   7.444  0.1416 -0.1607 -0.2151
 2956SOL    HW114704   4.273   8.001   7.528 -1.0062  0.7928  0.4331
 2956SOL    HW214705   4.252   7.916   7.404  1.9590  0.0910  0.3494
 2957SOL     OW14706  10.451   8.550   9.393  0.1688 -0.0898 -0.5514
 2957SOL    HW114707  10.393   8.576   9.464 -0.2437  1.8271 -1.5265
 2957SOL    HW214708  10.393   8.535   9.318  0.8175  0.9489 -1.2921
 2958SOL     OW14709   5.716   2.312   4.034 -0.0590 -0.6246 -0.2556
 2958SOL    HW114710   5.658   2.237   4.042  1.1758 -1.5573  0.3747
 2958SOL    HW214711   5.764   2.314   4.117  1.8117 -0.7744 -1.2744
 2959SOL     OW14712   2.941   3.205   2.201 -0.4137 -0.5633 -0.1329
 2959SOL    HW114713   3.022   3.252   2.181 -0.0817 -0.1051  2.0513
 2959SOL    HW214714   2.945   3.189   2.295 -2.6878 -0.8983 -0.0389
 2960SOL     OW14715   7.238   2.542   0.397 -0.0930  0.3640 -0.0862
 2960SOL    HW114716   7.308   2.481   0.375  0.8608  1.4074 -0.0075
 2960SOL    HW214717   7.158   2.498   0.368  0.5970 -0.7853 -0.2994
 2961SOL     OW14718   7.973   7.127  10.521 -0.6274 -0.4907 -0.0457
 2961SOL    HW114719   7.927   7.046  10.499  1.6069 -1.5920 -1.0088
 2961SOL    HW214720   8.056   7.121  10.473  0.8809  0.9863  2.1888
 2962SOL     OW14721   3.315   9.854   9.848  0.2128 -1.0346 -0.5164
 2962SOL    HW114722   3.395   9.825   9.892  0.8235 -0.1663 -0.9960
 2962SOL    HW214723   3.316   9.949   9.858 -0.6702 -1.0038 -0.6833
 2963SOL     OW14724   4.043   4.995   0.087  0.8787 -0.1139  0.3364
 2963SOL    HW114725   4.087   5.000   0.002  0.4179  2.5607  0.1910
 2963SOL    HW214726   3.960   4.952   0.069  0.8305  0.3345 -0.5551
 2964SOL     OW14727   2.478   0.771  10.075 -0.4074 -0.0917  0.2451
 2964SOL    HW114728   2.568   0.739  10.087 -0.3246 -0.4561 -1.1410
 2964SOL    HW214729   2.486   0.838  10.007 -1.2417 -0.4701 -0.2378
 2965SOL     OW14730   5.645   6.427   6.621 -0.4705 -0.4673 -0.2747
 2965SOL    HW114731   5.647   6.370   6.544 -1.2595 -2.1905  0.9117
 2965SOL    HW214732   5.718   6.487   6.608 -1.9315  0.8621 -3.4703
 2966SOL     OW14733   8.314   5.398   0.863 -0.1834  0.1253 -0.0288
 2966SOL    HW114734   8.239   5.339   0.868 -0.5961  0.6747  0.3668
 2966SOL    HW214735   8.275   5.485   0.852  0.3957  0.4137  0.1877
 2967SOL     OW14736  10.413  10.284   7.159 -0.5090 -0.6041 -0.9492
 2967SOL    HW114737  10.361  10.227   7.102  1.2314 -1.6633 -1.5556
 2967SOL    HW214738  10.502  10.278   7.124 -0.0711  1.6964 -0.3811
 2968SOL     OW14739   6.622   2.591   3.818 -0.3033  0.3645 -0.5294
 2968SOL    HW114740   6.666   2.674   3.837 -2.1579  1.6416 -1.5134
 2968SOL    HW214741   6.617   2.588   3.723 -2.4933  0.4192 -0.4759
 2969SOL     OW14742   3.279   2.003   3.916  0.4594 -0.5957 -0.2169
 2969SOL    HW114743   3.354   2.040   3.870  0.3883  0.6380  0.6016
 2969SOL    HW214744   3.314   1.929   3.964  0.9118 -0.7431 -0.7752
 2970SOL     OW14745   7.417   0.791   4.030 -0.3352 -0.2536 -0.0036
 2970SOL    HW114746   7.350   0.752   3.973 -0.0741 -0.9580  0.1626
 2970SOL    HW214747   7.500   0.771   3.986 -0.1678 -0.2948  0.3281
 2971SOL     OW14748   2.241   0.677   0.952 -0.5063 -0.2007 -0.3378
 2971SOL    HW114749   2.260   0.761   0.996 -1.1899 -0.4078  0.3654
 2971SOL    HW214750   2.231   0.615   1.024 -0.7582 -0.7315 -0.8324
 2972SOL     OW14751   7.935   5.704   5.418  0.0661 -0.3829  0.2049
 2972SOL    HW114752   7.960   5.702   5.510 -0.5221 -0.0577  0.3782
 2972SOL    HW214753   7.924   5.797   5.398 -1.9349 -0.5267  0.4178
 2973SOL     OW14754   6.132   5.137   9.656  0.2030  0.2763 -1.0568
 2973SOL    HW114755   6.141   5.078   9.581  1.0964  0.5306 -1.1541
 2973SOL    HW214756   6.221   5.165   9.676 -0.0607  0.4260 -0.0609
 2974SOL     OW14757   8.392   5.431   6.769  0.6903 -0.1164 -0.1528
 2974SOL    HW114758   8.386   5.508   6.713 -1.5263 -0.8580 -1.0415
 2974SOL    HW214759   8.468   5.383   6.736  2.0039  1.5740  0.3206
 2975SOL     OW14760   7.134   5.086   1.530 -0.3862 -0.1653  0.3448
 2975SOL    HW114761   7.201   5.017   1.532  0.0018 -0.1167 -3.4719
 2975SOL    HW214762   7.176   5.162   1.571  0.3868 -1.2122  1.5739
 2976SOL     OW14763   9.769   5.656   2.820  1.0061  0.1778 -0.2345
 2976SOL    HW114764   9.784   5.678   2.728  0.0499  1.9066 -0.0111
 2976SOL    HW214765   9.821   5.720   2.869 -0.3656  0.8378  0.4255
 2977SOL     OW14766   1.457  10.092   8.032 -0.1032 -0.0165  0.0583
 2977SOL    HW114767   1.474  10.077   7.939 -0.0823 -0.1633  0.0856
 2977SOL    HW214768   1.432  10.006   8.066 -1.1971  0.2501 -0.0450
 2978SOL     OW14769   4.587   5.587   2.492 -0.2857 -0.0434 -0.5228
 2978SOL    HW114770   4.574   5.675   2.457 -2.4121 -0.3458 -0.6223
 2978SOL    HW214771   4.537   5.586   2.573  1.0614 -0.6878  0.3482
 2979SOL     OW14772   6.455   8.004  10.614  0.0932 -0.0355 -0.4703
 2979SOL    HW114773   6.405   8.033  10.691 -0.4454 -0.7774 -0.5271
 2979SOL    HW214774   6.411   8.044  10.540 -0.4918 -0.7487 -0.5263
 2980SOL     OW14775   3.023   7.926   4.895  0.6364 -0.0612  0.2349
 2980SOL    HW114776   2.976   7.843   4.898 -1.8770  1.2655 -0.1947
 2980SOL    HW214777   2.968   7.987   4.944  1.5848  1.7325 -0.8380
 2981SOL     OW14778   8.324   2.792   7.290  0.6773 -0.3438  0.1970
 2981SOL    HW114779   8.405   2.806   7.241 -0.6290 -1.9790 -2.7127
 2981SOL    HW214780   8.263   2.857   7.254 -0.2159 -1.3546 -0.1738
 2982SOL     OW14781   2.536   4.678   7.883  0.2607  0.3876 -0.1424
 2982SOL    HW114782   2.569   4.639   7.964 -1.3501  0.8956  0.7998
 2982SOL    HW214783   2.585   4.759   7.873  1.0397 -0.0765 -0.1308
 2983SOL     OW14784   0.367   4.597   7.764  0.0454  0.2842 -0.1112
 2983SOL    HW114785   0.433   4.643   7.815  1.2003 -1.8770  0.4604
 2983SOL    HW214786   0.329   4.533   7.825 -0.2542 -0.7253 -1.3013
 2984SOL     OW14787   7.990   2.743   3.691  0.3868  0.6385 -0.0870
 2984SOL    HW114788   8.069   2.753   3.744  1.5861 -0.5689 -1.5397
 2984SOL    HW214789   7.935   2.683   3.741  1.6487 -0.7719 -0.3048
 2985SOL     OW14790   8.462   8.246   9.287 -0.0659 -0.1753 -0.3751
 2985SOL    HW114791   8.437   8.278   9.200  0.7498 -2.8154 -1.6719
 2985SOL    HW214792   8.558   8.246   9.285 -0.0177  0.6261  0.9156
 2986SOL     OW14793   6.829   5.918   3.992 -0.0244  0.2881  0.7864
 2986SOL    HW114794   6.756   5.952   4.044 -1.0670 -2.0371  0.9706
 2986SOL    HW214795   6.906   5.933   4.047 -0.3488  2.4047  0.7678
 2987SOL     OW14796   4.287   8.640   9.928  0.1658 -0.7041  0.3707
 2987SOL    HW114797   4.320   8.622  10.015  0.5793  0.7323  0.5371
 2987SOL    HW214798   4.359   8.616   9.869  0.0375 -1.2798  0.4408
 2988SOL     OW14799   6.122   7.995   3.230 -0.2919  0.4940  0.8835
 2988SOL    HW114800   6.157   8.062   3.171  1.9583 -1.1554  0.2062
 2988SOL    HW214801   6.198   7.943   3.255 -1.8805 -1.5734  1.7000
 2989SOL     OW14802   1.378   2.812   8.936  0.1384 -0.5035  0.3379
 2989SOL    HW114803   1.317   2.792   9.006 -0.4154 -0.2146 -0.0527
 2989SOL    HW214804   1.323   2.846   8.865  0.6379 -1.1574 -0.3796
 2990SOL     OW14805   6.822   2.394   1.108 -0.3624  0.5710  0.2211
 2990SOL    HW114806   6.799   2.302   1.097 -0.3788  0.5389  0.5133
 2990SOL    HW214807   6.746   2.441   1.073 -0.4127  0.4730  0.1955
 2991SOL     OW14808   7.286   6.666   4.417  0.2445  0.2251 -0.0062
 2991SOL    HW114809   7.376   6.670   4.384 -0.1482  2.3685 -0.9460
 2991SOL    HW214810   7.260   6.757   4.428 -2.0546 -0.3260 -0.4258
 2992SOL     OW14811   5.239   8.255   2.459  0.0873  0.0834 -0.1856
 2992SOL    HW114812   5.177   8.325   2.439 -0.1558  0.0305  0.3421
 2992SOL    HW214813   5.214   8.227   2.548  1.1484  0.3665  0.2101
 2993SOL     OW14814  10.558   5.335   3.646 -0.7588 -0.3276 -0.1493
 2993SOL    HW114815  10.588   5.272   3.580  0.7887 -1.1224  1.2436
 2993SOL    HW214816  10.615   5.411   3.635 -3.3192  1.4340 -2.5589
 2994SOL     OW14817  10.333   0.043   4.366  0.3136 -0.3850  0.3918
 2994SOL    HW114818  10.255   0.096   4.381  1.9885  2.9145 -1.4332
 2994SOL    HW214819  10.324   0.011   4.276  1.2809  0.5534 -0.0653
 2995SOL     OW14820   9.316   9.689   1.309  0.2022 -0.5693 -0.4773
 2995SOL    HW114821   9.227   9.676   1.341 -0.3537 -0.6159 -1.9515
 2995SOL    HW214822   9.309   9.763   1.248  1.3760  0.0729  0.1308
 2996SOL     OW14823   8.186   9.915   8.971 -0.5972  0.0958 -0.3191
 2996SOL    HW114824   8.202   9.886   9.061  2.3324  0.3397 -0.6499
 2996SOL    HW214825   8.167  10.008   8.979 -1.1729 -0.0526  0.0972
 2997SOL     OW14826   8.659   1.542   9.511 -0.1037  0.4011 -0.3718
 2997SOL    HW114827   8.624   1.453   9.503  0.7275 -0.1510  1.5788
 2997SOL    HW214828   8.584   1.599   9.493 -0.2486 -0.5836 -3.5184
 2998SOL     OW14829   5.440   6.986   6.909  0.4491 -0.2527  0.5425
 2998SOL    HW114830   5.509   7.052   6.910 -1.1854  1.5298  0.1106
 2998SOL    HW214831   5.395   6.996   6.993  0.5706 -1.2844  0.7511
 2999SOL     OW14832   4.684   2.521   6.231 -0.2875  0.0456 -0.1239
 2999SOL    HW114833   4.653   2.607   6.256 -1.3230  0.0564 -1.2848
 2999SOL    HW214834   4.724   2.534   6.145  1.1973 -0.3312  0.4882
 3000SOL     OW14835   1.821   9.165   5.528  0.5620 -0.2900 -0.5213
 3000SOL    HW114836   1.787   9.126   5.608  0.5808 -0.0933 -0.4174
 3000SOL    HW214837   1.897   9.216   5.556  0.2627  0.2021 -0.5860
 3001SOL     OW14838   9.512   3.668   3.752  0.0148 -0.0085 -0.0308
 3001SOL    HW114839   9.564   3.748   3.751  2.2287 -1.3156  1.5489
 3001SOL    HW214840   9.555   3.610   3.690 -1.7135  0.0313 -1.3455
 3002SOL     OW14841   6.363   1.297   4.292  0.2514  0.0513  0.6690
 3002SOL    HW114842   6.330   1.376   4.250  0.0366 -0.2651  0.2350
 3002SOL    HW214843   6.290   1.235   4.287  0.9820 -0.7493 -0.5266
 3003SOL     OW14844   5.984   9.390   0.313 -0.1324 -0.2269  0.1741
 3003SOL    HW114845   5.978   9.350   0.400 -0.2916 -1.5899 -0.4451
 3003SOL    HW214846   6.009   9.319   0.255 -0.4573  0.5703 -0.9847
 3004SOL     OW14847   4.905   1.065   6.086  0.1263  0.6740 -0.0579
 3004SOL    HW114848   4.926   1.140   6.031  0.9350 -0.6625 -1.6557
 3004SOL    HW214849   4.815   1.042   6.063  0.2278  0.5414 -0.3267
 3005SOL     OW14850   0.660   1.731   3.768 -0.0669  0.1028 -0.3419
 3005SOL    HW114851   0.613   1.765   3.844  0.0048 -0.0269 -0.2393
 3005SOL    HW214852   0.648   1.637   3.772  0.9941 -0.0297  0.2280
 3006SOL     OW14853   3.268   3.436   1.981  0.4333 -0.1757  0.3327
 3006SOL    HW114854   3.325   3.384   2.036  1.3434  1.2088  0.7501
 3006SOL    HW214855   3.180   3.424   2.018  0.7445 -0.7848  0.8805
 3007SOL     OW14856   2.061   3.377   5.438  0.2867  0.0214  0.1912
 3007SOL    HW114857   2.035   3.431   5.513  1.8891  1.5552 -0.2968
 3007SOL    HW214858   1.994   3.309   5.433  0.0054  0.0089  2.8589
 3008SOL     OW14859   1.368   0.080   9.555 -0.2334  0.3166  0.5610
 3008SOL    HW114860   1.377   0.174   9.535  1.3067  0.3006  1.0958
 3008SOL    HW214861   1.302   0.077   9.625 -1.6146  0.8194 -0.6605
 3009SOL     OW14862   5.649   0.036   4.864 -0.2473  0.0984  0.7057
 3009SOL    HW114863   5.618   0.126   4.855  0.5089  0.2301 -0.8065
 3009SOL    HW214864   5.744   0.043   4.873 -0.2785 -0.5053  1.7167
 3010SOL     OW14865   0.870   9.088   1.636  0.6100 -0.7096  0.1242
 3010SOL    HW114866   0.924   9.161   1.666 -0.4869 -0.1647  0.8384
 3010SOL    HW214867   0.920   9.009   1.659  2.6320 -0.2370 -2.1806
 3011SOL     OW14868   7.133   4.640   6.423  0.0289  0.2748 -0.1795
 3011SOL    HW114869   7.114   4.626   6.330 -1.0362 -1.9628  0.3128
 3011SOL    HW214870   7.192   4.568   6.447 -0.8510 -0.0264  1.1807
 3012SOL     OW14871   9.570   1.659   4.955  0.0915 -0.5975 -0.5812
 3012SOL    HW114872   9.494   1.679   4.900 -0.0171 -2.6270 -1.2763
 3012SOL    HW214873   9.532   1.639   5.041 -0.0682 -0.6108 -0.6536
 3013SOL     OW14874   3.241   6.984   4.761 -0.4808  0.4067  0.8980
 3013SOL    HW114875   3.286   6.909   4.723  0.4293  1.0211  0.7317
 3013SOL    HW214876   3.167   6.946   4.809  0.6680 -0.7011  1.8384
 3014SOL     OW14877   5.979   8.306   4.173  0.4835  0.2194 -0.2491
 3014SOL    HW114878   5.988   8.233   4.111  0.5463  0.4357 -0.4958
 3014SOL    HW214879   5.992   8.267   4.259  2.2994  0.2575 -0.4789
 3015SOL     OW14880   2.054   8.463   1.966  0.0582  0.8408 -0.7336
 3015SOL    HW114881   2.082   8.378   1.932  2.3846  0.6009  1.4948
 3015SOL    HW214882   2.012   8.443   2.049  1.1846  1.8784  0.1234
 3016SOL     OW14883   5.081   9.992   3.614  0.5103 -0.3236  0.1363
 3016SOL    HW114884   5.063  10.077   3.573  2.5934  0.1399  0.0845
 3016SOL    HW214885   5.050  10.001   3.704  2.1059  1.0678  0.5829
 3017SOL     OW14886   8.790   9.131   2.674 -0.2208  0.2469 -0.4198
 3017SOL    HW114887   8.773   9.219   2.707 -0.9406  0.3002 -0.9061
 3017SOL    HW214888   8.710   9.082   2.695  0.5443 -0.5697  0.7309
 3018SOL     OW14889   1.071   9.377   7.571  0.4885  0.1850  0.5145
 3018SOL    HW114890   1.065   9.463   7.613 -0.5399  0.5647 -0.3728
 3018SOL    HW214891   0.981   9.345   7.570  0.9604 -1.2653  1.5280
 3019SOL     OW14892   3.479   3.283   1.106 -0.3152  0.4248 -0.4946
 3019SOL    HW114893   3.566   3.284   1.148  0.2732  0.5932 -1.6749
 3019SOL    HW214894   3.421   3.244   1.172  0.7224 -0.0096  0.1907
 3020SOL     OW14895   9.167   5.130   4.911  0.4456  0.1623  0.0018
 3020SOL    HW114896   9.168   5.209   4.965 -0.7973 -0.0265  0.3245
 3020SOL    HW214897   9.256   5.125   4.875  0.3012  2.2430 -0.7924
 3021SOL     OW14898   4.750   6.940   1.882 -0.0892 -0.1650 -0.9865
 3021SOL    HW114899   4.719   7.013   1.935 -1.6256 -0.2416 -1.7179
 3021SOL    HW214900   4.844   6.935   1.899 -0.0025  1.8230 -0.7433
 3022SOL     OW14901   5.391   3.262   6.202  0.6115  0.5060 -0.1938
 3022SOL    HW114902   5.432   3.348   6.190  0.2365  0.6365 -0.5760
 3022SOL    HW214903   5.464   3.200   6.197  0.7834  0.7427 -0.7558
 3023SOL     OW14904   0.293   8.244   3.329 -0.4407 -0.5764  0.2379
 3023SOL    HW114905   0.235   8.178   3.291 -1.3040  0.7616 -0.9000
 3023SOL    HW214906   0.260   8.327   3.294  1.6567  0.3172  0.2208
 3024SOL     OW14907   7.175   9.917   5.428  0.4513  0.0457  0.1968
 3024SOL    HW114908   7.168   9.874   5.343  2.4510  0.5633 -0.2863
 3024SOL    HW214909   7.089   9.956   5.443 -0.5978 -1.8626 -0.5569
 3025SOL     OW14910   3.313   6.102   6.570  0.3193 -0.1410 -0.1001
 3025SOL    HW114911   3.346   6.153   6.644  0.1948  0.5716 -0.5201
 3025SOL    HW214912   3.231   6.146   6.545 -0.4424 -1.2876  0.3036
 3026SOL     OW14913   6.177   9.265   0.136 -0.6280  0.3150 -0.2000
 3026SOL    HW114914   6.190   9.171   0.135 -1.0751  0.2296  0.7507
 3026SOL    HW214915   6.248   9.300   0.082  0.1308 -0.5019  0.2359
 3027SOL     OW14916   7.173   8.300   8.052 -0.3718  0.5175  0.2840
 3027SOL    HW114917   7.148   8.230   8.113  1.8452 -2.4973 -1.9864
 3027SOL    HW214918   7.247   8.343   8.095  0.9814 -1.3772 -0.0370
 3028SOL     OW14919   5.105   9.985   0.810  0.1095  0.7595  0.2784
 3028SOL    HW114920   5.115  10.073   0.776  1.7741  0.4451 -0.1716
 3028SOL    HW214921   5.031   9.990   0.870 -0.3467  2.2520 -0.3641
 3029SOL     OW14922   8.060   6.868   8.535 -0.1512  0.0748 -0.3922
 3029SOL    HW114923   8.001   6.798   8.562 -1.4222  1.7127  1.3088
 3029SOL    HW214924   8.103   6.896   8.615  1.9973 -0.1814 -1.3895
 3030SOL     OW14925   9.403   0.421   6.499  0.3299 -0.2269 -0.2104
 3030SOL    HW114926   9.312   0.437   6.475  0.4836  0.1010 -0.5798
 3030SOL    HW214927   9.416   0.471   6.580  0.2668 -0.0417 -0.3159
 3031SOL     OW14928   1.487   7.929   9.653 -0.3477  0.6717 -0.6351
 3031SOL    HW114929   1.494   7.870   9.577  2.0770  0.5969 -0.4352
 3031SOL    HW214930   1.498   8.016   9.617 -0.5446  0.7406 -0.5292
 3032SOL     OW14931   4.315   6.743   2.129 -0.2752  0.3710 -0.1229
 3032SOL    HW114932   4.389   6.754   2.069  1.1832 -0.8916  1.3523
 3032SOL    HW214933   4.343   6.674   2.189 -3.1138 -0.9894 -0.1942
 3033SOL     OW14934   9.235   5.045   2.296  0.5309 -0.2597 -0.1832
 3033SOL    HW114935   9.296   5.116   2.315 -1.5031  1.5529 -0.1425
 3033SOL    HW214936   9.178   5.079   2.228 -0.8649 -1.6559  0.2194
 3034SOL     OW14937   3.551   6.366   5.168  0.7967 -0.3316  0.0771
 3034SOL    HW114938   3.488   6.338   5.235  0.9632 -0.2349  0.2733
 3034SOL    HW214939   3.525   6.456   5.146  0.4270 -0.5382 -0.3592
 3035SOL     OW14940   4.678   5.255  10.341 -0.5518 -0.2219  0.0251
 3035SOL    HW114941   4.614   5.215  10.400 -0.3724  0.8014  0.9338
 3035SOL    HW214942   4.749   5.192  10.336 -1.3870 -1.1548 -0.6049
 3036SOL     OW14943   2.236   5.410   3.344 -0.2487  0.4178 -0.3067
 3036SOL    HW114944   2.197   5.432   3.260 -0.1991 -0.5955 -0.6051
 3036SOL    HW214945   2.211   5.319   3.359 -1.1745  0.8965  1.2953
 3037SOL     OW14946   7.047   6.935   6.531 -0.3629  0.2286  0.3147
 3037SOL    HW114947   6.979   6.913   6.468  0.3380 -2.2696  0.3189
 3037SOL    HW214948   7.042   7.031   6.540 -3.4901  0.1995 -0.0332
 3038SOL     OW14949   5.337   2.958  10.435 -0.3267 -0.1770  0.4402
 3038SOL    HW114950   5.409   2.964  10.498  0.2483 -0.0771 -0.2216
 3038SOL    HW214951   5.352   2.875  10.388 -0.9161 -0.3959  0.6257
 3039SOL     OW14952   2.704   3.913   4.879 -0.1235 -0.2237  0.7427
 3039SOL    HW114953   2.749   3.982   4.830 -1.6385  1.2379  1.3368
 3039SOL    HW214954   2.630   3.889   4.823 -0.0252 -0.8597  0.8780
 3040SOL     OW14955   2.648   8.426   9.989 -0.3927  0.0097 -0.2265
 3040SOL    HW114956   2.658   8.444   9.895 -1.7176  1.2849 -0.1718
 3040SOL    HW214957   2.567   8.471  10.013 -0.7283 -1.3152  1.2910
 3041SOL     OW14958  10.035   9.938  10.659  0.5773 -0.3472  0.1901
 3041SOL    HW114959  10.064  10.025  10.687  0.1614 -0.1934  0.1392
 3041SOL    HW214960   9.940   9.940  10.664 -0.0141  1.0999 -5.0503
 3042SOL     OW14961  10.143   7.798   8.575  0.0400 -0.1725  0.2902
 3042SOL    HW114962  10.184   7.746   8.506 -1.1566 -1.3243  0.4093
 3042SOL    HW214963  10.096   7.867   8.528 -0.6864 -0.8901 -0.0498
 3043SOL     OW14964   0.478  10.400   6.962  0.4235 -0.2484  0.3750
 3043SOL    HW114965   0.552  10.391   7.023  0.8103  0.9855  0.1196
 3043SOL    HW214966   0.504  10.349   6.885  2.1038  1.9790 -0.6546
 3044SOL     OW14967   4.179   1.271   0.019  0.0294  1.1623 -0.0395
 3044SOL    HW114968   4.178   1.362  -0.010  0.3275  0.8217 -1.1644
 3044SOL    HW214969   4.139   1.222  -0.053 -0.3575  0.4271  0.6560
 3045SOL     OW14970   9.335   2.642   0.841 -0.0958  0.1717  0.9108
 3045SOL    HW114971   9.407   2.670   0.784 -0.3047 -1.6215 -0.3314
 3045SOL    HW214972   9.376   2.581   0.902 -0.5459 -1.0204  0.0645
 3046SOL     OW14973   3.050   5.565   1.410 -0.1843 -0.2356  0.7756
 3046SOL    HW114974   3.109   5.628   1.452 -0.3684  0.5885 -0.1760
 3046SOL    HW214975   3.091   5.546   1.326  0.7325 -2.6987  1.6814
 3047SOL     OW14976   8.680  10.360   1.449  0.3719 -0.3361  0.3705
 3047SOL    HW114977   8.594  10.401   1.437  1.5731  2.3864  0.2378
 3047SOL    HW214978   8.691  10.356   1.544 -0.5730 -2.3985  0.4494
 3048SOL     OW14979   4.658   8.850   0.761  0.0789 -0.2342 -0.1509
 3048SOL    HW114980   4.661   8.931   0.811  1.7329 -0.7815  0.7319
 3048SOL    HW214981   4.691   8.873   0.674  0.1569  0.1305 -0.0244
 3049SOL     OW14982   6.331   9.023   8.723  0.1634  0.6293  0.4358
 3049SOL    HW114983   6.344   9.005   8.630 -1.7416 -2.0735  0.5673
 3049SOL    HW214984   6.274   9.100   8.725 -1.3186 -0.3796 -0.7734
 3050SOL     OW14985   4.465   2.478   7.880 -0.1053 -0.0655  0.1266
 3050SOL    HW114986   4.542   2.424   7.864 -0.0698  0.0334 -0.0346
 3050SOL    HW214987   4.402   2.450   7.814 -1.0058 -1.6772  1.5932
 3051SOL     OW14988   3.776   9.804   7.271  0.3512 -0.0947  0.7541
 3051SOL    HW114989   3.738   9.848   7.347  0.2614  1.1748  0.0153
 3051SOL    HW214990   3.722   9.833   7.197  2.0184  0.8706 -0.1595
 3052SOL     OW14991   4.976   7.064   3.577  0.0742 -0.0924  0.2951
 3052SOL    HW114992   5.028   7.143   3.591 -0.7932  0.0584  3.4876
 3052SOL    HW214993   5.016   6.999   3.634 -0.6472 -1.2631 -0.4901
 3053SOL     OW14994   8.781   2.439   7.568 -0.7595 -0.4118 -0.4470
 3053SOL    HW114995   8.807   2.386   7.643 -0.9050  1.4095  0.9616
 3053SOL    HW214996   8.851   2.426   7.504  1.4446  0.9383  1.5331
 3054SOL     OW14997  10.191  10.662   3.725 -0.0389  1.1932  0.3541
 3054SOL    HW114998  10.258  10.729   3.712  1.4469  0.0550  1.7693
 3054SOL    HW214999  10.223  10.610   3.799 -1.1490 -1.0393 -0.6335
 3055SOL     OW15000   8.122   4.999   6.642  0.7517 -0.3659  0.5218
 3055SOL    HW115001   8.077   5.014   6.725 -0.0206 -1.5067  0.3361
 3055SOL    HW215002   8.142   4.906   6.641  4.9340  0.2986  1.4363
 3056SOL     OW15003   2.849   3.040   5.140  0.0310  0.1470 -0.1587
 3056SOL    HW115004   2.852   2.988   5.221  0.4311  1.3570  0.6402
 3056SOL    HW215005   2.936   3.031   5.102 -0.3298 -0.8909 -0.7916
 3057SOL     OW15006  10.121   4.360   7.209 -0.3017 -0.6121  0.2794
 3057SOL    HW115007  10.033   4.387   7.184 -0.4934 -1.2593  0.2598
 3057SOL    HW215008  10.176   4.435   7.185 -1.1042  0.6604  2.1744
 3058SOL     OW15009  10.707   2.028   2.950 -0.0211  0.3045 -0.7595
 3058SOL    HW115010  10.794   1.998   2.924  0.4461  0.3778  0.6758
 3058SOL    HW215011  10.690   2.104   2.894  1.2878  0.9266 -0.3319
 3059SOL     OW15012   8.004   2.002   0.683  0.2382 -0.1403  0.6719
 3059SOL    HW115013   8.054   2.071   0.727  1.0230 -0.3923  0.2091
 3059SOL    HW215014   8.070   1.952   0.634 -0.5884  0.1188 -0.7809
 3060SOL     OW15015   5.056   5.655   9.546 -0.2187  0.1134  0.2048
 3060SOL    HW115016   4.977   5.699   9.513  0.7311  1.8931  0.1754
 3060SOL    HW215017   5.070   5.582   9.485 -0.4461  1.2761 -1.3101
 3061SOL     OW15018   6.487   3.734   6.374 -0.2184 -0.1676  0.3614
 3061SOL    HW115019   6.573   3.751   6.413 -0.2876  0.0106  0.4410
 3061SOL    HW215020   6.489   3.642   6.349 -0.5380 -0.5681  1.7137
 3062SOL     OW15021   8.759   1.978   9.200  0.1437  0.2779  0.5884
 3062SOL    HW115022   8.838   2.030   9.182 -0.1194  0.9896  1.4581
 3062SOL    HW215023   8.780   1.928   9.279 -0.1881  0.2737  0.6762
 3063SOL     OW15024   7.126   3.031   0.070  0.5819  0.0376 -0.5251
 3063SOL    HW115025   7.133   2.953   0.015  2.2343  0.4425 -0.9495
 3063SOL    HW215026   7.190   3.016   0.140 -0.0395  0.4276  0.1362
 3064SOL     OW15027   4.101   8.136   2.513  0.3138  0.2433  0.1707
 3064SOL    HW115028   4.035   8.147   2.445  1.4753  1.1580 -0.8517
 3064SOL    HW215029   4.185   8.146   2.468  1.1524 -0.1235  1.5608
 3065SOL     OW15030   3.793   2.658   8.601  0.2033 -0.6058 -0.2971
 3065SOL    HW115031   3.887   2.639   8.600 -0.2040 -2.9839 -2.0213
 3065SOL    HW215032   3.774   2.694   8.514 -0.8032 -2.2334 -0.7874
 3066SOL     OW15033   4.576   1.004  10.238 -0.0348 -0.0373  0.5494
 3066SOL    HW115034   4.582   0.927  10.182  1.5111 -1.2053  2.2110
 3066SOL    HW215035   4.517   0.979  10.309  3.9780 -1.6083  3.6935
 3067SOL     OW15036   7.091   3.265   6.149 -0.0834 -0.4706 -0.1142
 3067SOL    HW115037   7.043   3.298   6.073 -1.4246 -1.8572  0.0833
 3067SOL    HW215038   7.118   3.177   6.124  2.0476  0.1158 -0.0450
 3068SOL     OW15039   9.693   5.334   3.104 -0.1464 -0.0208 -0.2651
 3068SOL    HW115040   9.675   5.380   3.022 -2.1230 -1.2779 -0.6017
 3068SOL    HW215041   9.703   5.242   3.077  1.0534 -0.1887  0.6960
 3069SOL     OW15042   8.738   9.640  10.109  0.0421  0.0847  0.1661
 3069SOL    HW115043   8.783   9.558  10.126  0.0326  0.0462  0.0120
 3069SOL    HW215044   8.807   9.706  10.108  0.0405  0.0910  0.3655
 3070SOL     OW15045   8.011   1.615   4.647  0.0222 -0.4580 -0.1899
 3070SOL    HW115046   8.093   1.569   4.632 -0.9397 -1.9879 -1.0820
 3070SOL    HW215047   7.945   1.562   4.601 -1.0049  2.5240 -2.4729
 3071SOL     OW15048   0.146   5.227   9.232  0.0271  0.2988  0.5019
 3071SOL    HW115049   0.146   5.133   9.213 -0.6911  0.8300 -2.7826
 3071SOL    HW215050   0.237   5.247   9.254  0.0678 -1.2124  1.9585
 3072SOL     OW15051   1.831   4.284   1.236 -0.3917  0.0822 -0.2079
 3072SOL    HW115052   1.801   4.343   1.167 -0.3468  0.9385  0.4927
 3072SOL    HW215053   1.920   4.260   1.209 -0.9245 -0.8523 -1.2431
 3073SOL     OW15054   6.078   9.522   8.235 -0.3563  0.3112 -0.3185
 3073SOL    HW115055   6.151   9.521   8.298  0.7679  3.8925 -1.3627
 3073SOL    HW215056   6.003   9.553   8.286 -0.7998 -1.6051  0.3077
 3074SOL     OW15057   1.473   5.844   2.663 -0.4551 -0.3374  0.0776
 3074SOL    HW115058   1.488   5.763   2.614  1.8804  1.2048 -1.9853
 3074SOL    HW215059   1.555   5.861   2.708 -0.0654  1.9820 -1.3580
 3075SOL     OW15060   0.804   5.709   9.369 -0.1228 -0.2450  0.0342
 3075SOL    HW115061   0.737   5.776   9.360 -0.6707 -0.8864 -0.9170
 3075SOL    HW215062   0.868   5.730   9.301  0.1232 -0.2247  0.2699
 3076SOL     OW15063   9.108   7.917   2.572  0.3227 -0.6825  0.1645
 3076SOL    HW115064   9.160   7.892   2.496  0.4635  0.3815 -0.1010
 3076SOL    HW215065   9.171   7.952   2.634 -0.0689  0.8813 -0.2712
 3077SOL     OW15066   9.098   3.877   1.477  0.0165 -0.3725 -0.3069
 3077SOL    HW115067   9.100   3.961   1.430 -0.2547  0.0394  0.3940
 3077SOL    HW215068   9.142   3.895   1.560 -2.4154 -0.1507  1.0253
 3078SOL     OW15069   8.496   3.450   2.920  0.6611 -0.0848  0.0340
 3078SOL    HW115070   8.465   3.401   2.843 -0.5255  1.2695 -0.3900
 3078SOL    HW215071   8.444   3.417   2.992 -0.9027  1.2309 -0.4400
 3079SOL     OW15072   7.043   2.982   0.384 -0.2220  0.6186  0.5504
 3079SOL    HW115073   7.088   3.066   0.385 -0.2558  0.6509 -0.2541
 3079SOL    HW215074   7.077   2.936   0.461 -0.8559  1.6884  1.4930
 3080SOL     OW15075   7.700   2.205   0.866 -0.6176  0.1772 -0.1223
 3080SOL    HW115076   7.788   2.217   0.903 -1.6118  1.3308  2.0950
 3080SOL    HW215077   7.702   2.251   0.783  0.3930  1.7782  0.7438
 3081SOL     OW15078   9.017  10.389   0.330  0.0251  0.5588 -0.1510
 3081SOL    HW115079   9.053  10.475   0.308 -0.8296  0.8949 -0.2995
 3081SOL    HW215080   9.046  10.374   0.420  2.7882 -0.4265 -1.1122
 3082SOL     OW15081   1.306  10.237   9.215 -0.0126 -0.0495 -0.3546
 3082SOL    HW115082   1.387  10.288   9.212  0.8544 -1.4154 -1.6139
 3082SOL    HW215083   1.298  10.208   9.307  1.5281 -0.7889 -0.4302
 3083SOL     OW15084   1.411   4.664   5.236 -0.1632  0.2365 -0.0632
 3083SOL    HW115085   1.402   4.674   5.331  0.7620  2.3259 -0.1284
 3083SOL    HW215086   1.329   4.695   5.200 -0.5883 -0.7366  0.0299
 3084SOL     OW15087   3.157   3.065   0.324  0.4410 -0.1264 -0.1710
 3084SOL    HW115088   3.088   3.085   0.388 -1.0577  1.1538 -2.0470
 3084SOL    HW215089   3.118   2.999   0.266  1.2434 -0.2568 -0.5811
 3085SOL     OW15090   3.260   4.986   0.002  0.6854 -0.5825 -0.2414
 3085SOL    HW115091   3.342   5.032   0.021  0.1295 -0.2715  1.5404
 3085SOL    HW215092   3.209   4.994   0.082 -1.1446 -0.6800 -1.3462
 3086SOL     OW15093   2.500   9.424   5.658  0.1663  0.7442  0.2335
 3086SOL    HW115094   2.531   9.401   5.746 -0.8579  0.4450  0.5359
 3086SOL    HW215095   2.523   9.517   5.648  2.5586  0.1819 -0.2127
 3087SOL     OW15096   9.891   5.886  10.157 -0.0713 -0.0571 -0.2740
 3087SOL    HW115097   9.968   5.903  10.211 -0.1320 -1.1135  0.1607
 3087SOL    HW215098   9.824   5.945  10.190  0.1233 -0.1585  0.3032
 3088SOL     OW15099   4.456   6.401   5.051  0.4474 -0.1664 -0.3104
 3088SOL    HW115100   4.440   6.452   4.972  3.2882  1.9759  0.3167
 3088SOL    HW215101   4.427   6.459   5.122  0.5635 -0.8770  0.3264
 3089SOL     OW15102   7.423   1.939   2.338 -0.4075  0.1063 -0.1225
 3089SOL    HW115103   7.333   1.966   2.358 -0.5622 -1.5873  1.7159
 3089SOL    HW215104   7.432   1.853   2.378  1.0316 -1.2675 -3.0776
 3090SOL     OW15105   7.970   1.908  10.442 -0.3029 -0.7887  0.0003
 3090SOL    HW115106   7.910   1.840  10.413  1.1586 -1.4011 -1.8204
 3090SOL    HW215107   8.054   1.863  10.452 -0.0349  0.0645  2.3175
 3091SOL     OW15108   1.853  10.328   5.142 -0.1083 -0.1273  0.6555
 3091SOL    HW115109   1.805  10.392   5.089 -0.4780 -0.2098  0.8882
 3091SOL    HW215110   1.788  10.262   5.164  0.4240 -0.9160 -0.1187
 3092SOL     OW15111   8.549   4.337   4.899 -0.1281  0.1551 -0.5248
 3092SOL    HW115112   8.609   4.412   4.897 -0.1437  0.2071  0.4541
 3092SOL    HW215113   8.463   4.375   4.916  0.1094 -0.1705  1.7898
 3093SOL     OW15114   1.630   2.949   8.752 -0.3355 -0.0265  0.2180
 3093SOL    HW115115   1.615   2.886   8.681 -0.1843  0.3943 -0.1904
 3093SOL    HW215116   1.564   2.927   8.817 -0.1597 -0.7439  0.1730
 3094SOL     OW15117   1.463   3.844   1.115  0.0080 -0.1031  0.7603
 3094SOL    HW115118   1.383   3.792   1.123 -0.8016  0.9943  0.0586
 3094SOL    HW215119   1.516   3.796   1.051 -1.1860  0.4442 -0.7039
 3095SOL     OW15120   8.756   6.432   1.867 -0.2368 -0.2141  0.2583
 3095SOL    HW115121   8.824   6.366   1.867 -0.0524 -0.0523  1.5355
 3095SOL    HW215122   8.782   6.494   1.799  0.3239 -0.7155  0.0110
 3096SOL     OW15123   3.839   1.776   0.826  0.8088 -0.5467 -0.1797
 3096SOL    HW115124   3.831   1.780   0.731  0.7386 -0.1801 -0.1611
 3096SOL    HW215125   3.933   1.771   0.842  0.9989  1.6779 -0.2119
 3097SOL     OW15126   7.500   0.859   4.557  0.0039  0.4672 -0.4311
 3097SOL    HW115127   7.442   0.816   4.495 -0.6623  0.7600 -0.0202
 3097SOL    HW215128   7.444   0.883   4.631  0.9764 -0.8598  0.8126
 3098SOL     OW15129   0.815   8.477   8.836  0.3564 -0.1625 -0.0788
 3098SOL    HW115130   0.900   8.441   8.862  1.7844  0.4128 -3.5209
 3098SOL    HW215131   0.766   8.401   8.805  0.0203 -0.3066  0.7603
 3099SOL     OW15132   1.472   2.037   2.735  0.2449  0.0873  0.1658
 3099SOL    HW115133   1.516   2.113   2.698  0.0842 -0.2839 -0.8059
 3099SOL    HW215134   1.379   2.060   2.734  0.1371 -0.3519 -0.7030
 3100SOL     OW15135   4.347   7.076  10.219  0.0694  0.4074 -0.1249
 3100SOL    HW115136   4.405   7.145  10.251 -0.3065  0.6692 -0.0036
 3100SOL    HW215137   4.319   7.106  10.133  2.1645 -0.9314 -1.3575
 3101SOL     OW15138  10.110   2.689   3.054  0.2243 -0.5369 -0.4140
 3101SOL    HW115139  10.037   2.647   3.009 -0.3825 -0.5028  0.5011
 3101SOL    HW215140  10.100   2.662   3.146  0.3998  0.7886  0.0180
 3102SOL     OW15141   4.835   6.609   8.908 -0.2325  0.3316 -0.0783
 3102SOL    HW115142   4.891   6.544   8.950  1.6975  0.8906 -1.6510
 3102SOL    HW215143   4.884   6.638   8.832 -1.9356  2.1616 -0.5686
 3103SOL     OW15144   2.482   8.455   1.012  0.9625 -0.3108  0.5061
 3103SOL    HW115145   2.515   8.380   0.964 -0.6362 -0.4725 -0.4089
 3103SOL    HW215146   2.398   8.426   1.048  0.6193  0.8337  0.6778
 3104SOL     OW15147   2.941   4.748   6.000  0.1952  0.4123 -0.3569
 3104SOL    HW115148   3.022   4.696   5.995 -0.5933 -1.1809  1.7792
 3104SOL    HW215149   2.971   4.839   5.997  2.0976 -0.1329  0.4897
 3105SOL     OW15150  10.248   9.783  10.604 -0.4547 -0.2593  0.5935
 3105SOL    HW115151  10.314   9.768  10.672 -1.3918 -0.7409  1.4154
 3105SOL    HW215152  10.194   9.855  10.638  0.1065  0.6836 -0.4338
 3106SOL     OW15153   2.035   8.814   5.636  0.0124  0.3037 -0.0679
 3106SOL    HW115154   2.000   8.858   5.714 -0.2688 -0.1145  0.0454
 3106SOL    HW215155   1.968   8.830   5.568  0.1220  0.4269 -0.1479
 3107SOL     OW15156   2.441   4.116   1.834 -0.1264 -0.4005 -0.0137
 3107SOL    HW115157   2.446   4.193   1.777  1.1803  0.9758  1.8206
 3107SOL    HW215158   2.508   4.057   1.799 -1.1384 -0.7727 -1.4369
 3108SOL     OW15159   9.386   9.759   8.150  0.3777  0.7364  0.0545
 3108SOL    HW115160   9.299   9.726   8.172  1.1129 -0.6920  0.9587
 3108SOL    HW215161   9.418   9.799   8.230  1.1931 -0.2545  0.2547
 3109SOL     OW15162   8.291   9.367   9.082 -0.5218 -0.6981  0.0171
 3109SOL    HW115163   8.212   9.417   9.061 -0.7467 -1.2854 -0.5754
 3109SOL    HW215164   8.346   9.377   9.004  0.4609  0.6081  0.8563
 3110SOL     OW15165   1.915   9.591   5.421  0.3732  0.9245 -0.2519
 3110SOL    HW115166   1.852   9.590   5.349  0.9867  2.0420 -0.8460
 3110SOL    HW215167   1.937   9.499   5.436 -1.1974  0.5418 -0.1969
 3111SOL     OW15168   6.475   0.336   6.311 -0.0103 -0.2781 -0.1841
 3111SOL    HW115169   6.431   0.353   6.394  0.4819 -0.8995  0.2124
 3111SOL    HW215170   6.536   0.410   6.301  0.0731 -0.3061  0.1089
 3112SOL     OW15171   7.031   4.208   1.392  0.2626 -0.2947 -0.0416
 3112SOL    HW115172   7.039   4.248   1.306  0.0037 -0.6510 -0.2321
 3112SOL    HW215173   6.976   4.269   1.442  0.1336 -0.2600 -0.2287
 3113SOL     OW15174   9.611   6.496   9.749 -0.2496 -0.3759 -0.1912
 3113SOL    HW115175   9.641   6.413   9.711  1.4738  0.2689 -0.3585
 3113SOL    HW215176   9.675   6.560   9.718  0.1443  0.5146  2.2376
 3114SOL     OW15177   1.746   7.672   5.155  0.3396  0.0767  0.0885
 3114SOL    HW115178   1.688   7.635   5.088  1.0539 -1.2767  0.1770
 3114SOL    HW215179   1.694   7.742   5.195 -0.0856  0.9383 -1.8650
 3115SOL     OW15180   6.392   1.422   0.119 -0.1355 -0.4660  0.1771
 3115SOL    HW115181   6.380   1.489   0.052  0.9676 -0.5734 -0.1451
 3115SOL    HW215182   6.337   1.451   0.192 -0.5156  0.2087 -0.3617
 3116SOL     OW15183   8.958   7.107   9.438  0.1913  0.1395  0.1220
 3116SOL    HW115184   8.936   7.184   9.490 -0.2145 -0.4513  0.8479
 3116SOL    HW215185   8.909   7.117   9.357 -0.6581  0.1505  0.6314
 3117SOL     OW15186   5.143   9.044   9.579 -0.2774 -0.8458  0.1761
 3117SOL    HW115187   5.096   9.127   9.591 -0.8346 -1.3809  1.8469
 3117SOL    HW215188   5.177   9.050   9.489 -0.6219  1.0195  0.1129
 3118SOL     OW15189   2.732   9.034   4.077 -0.3052  0.1173  0.0010
 3118SOL    HW115190   2.677   9.097   4.123  0.9703  0.4356  1.1656
 3118SOL    HW215191   2.764   8.975   4.145 -0.0493 -0.6950 -0.8002
 3119SOL     OW15192   7.253   1.503   0.235 -0.2514 -0.9475  0.3133
 3119SOL    HW115193   7.330   1.477   0.287 -0.3790 -0.3467  0.8171
 3119SOL    HW215194   7.212   1.420   0.210 -0.5427 -1.2533  1.7295
 3120SOL     OW15195  10.063   9.015   4.644 -0.1616 -0.0726  0.2989
 3120SOL    HW115196  10.155   9.010   4.668 -0.4143 -0.9212  1.1380
 3120SOL    HW215197  10.056   8.961   4.565  0.0965  0.2130  0.0745
 3121SOL     OW15198   7.551   8.965   1.080  0.3005  0.3481  0.0467
 3121SOL    HW115199   7.560   8.962   1.175  0.6352 -0.2450 -0.0049
 3121SOL    HW215200   7.457   8.982   1.066  0.1448 -0.1396  0.4734
 3122SOL     OW15201   0.998   0.122   0.477  0.1989  0.7090 -0.4754
 3122SOL    HW115202   1.082   0.080   0.457  0.0097  0.3638 -0.5629
 3122SOL    HW215203   1.013   0.215   0.459  0.4430  0.5969 -0.8901
 3123SOL     OW15204   4.213  10.347   2.163 -0.2153 -0.4569  0.1518
 3123SOL    HW115205   4.265  10.374   2.087 -0.5675 -0.1601  0.0126
 3123SOL    HW215206   4.195  10.254   2.149  0.3142 -0.5745  0.2249
 3124SOL     OW15207  10.175   0.796   5.928  0.0352 -0.1264 -0.1030
 3124SOL    HW115208  10.167   0.765   5.838 -0.8395  2.7277 -1.1224
 3124SOL    HW215209  10.144   0.887   5.925  1.0793  0.4438  2.8632
 3125SOL     OW15210   4.357   8.893  10.086  0.6589 -0.0944  0.4291
 3125SOL    HW115211   4.341   8.812  10.038  1.5702  0.3470 -0.6573
 3125SOL    HW215212   4.279   8.904  10.141 -0.4312 -0.5954 -0.9660
 3126SOL     OW15213   2.840   3.324   7.376 -0.6018  0.4260 -0.0838
 3126SOL    HW115214   2.908   3.257   7.382 -1.1100  0.0510  3.2886
 3126SOL    HW215215   2.878   3.402   7.416 -1.6695  0.6238  0.5893
 3127SOL     OW15216   0.623   9.820   3.112  0.7779 -0.3656  0.2551
 3127SOL    HW115217   0.619   9.734   3.069  0.2364  1.3219 -3.3592
 3127SOL    HW215218   0.532   9.840   3.134  0.9749 -0.9045  1.7028
 3128SOL     OW15219   5.369   8.168   3.757  0.3000 -0.2939  0.4696
 3128SOL    HW115220   5.308   8.126   3.817  0.2053  1.0922  1.3806
 3128SOL    HW215221   5.449   8.117   3.764  0.1261 -0.4451  1.3969
 3129SOL     OW15222   5.857   7.687   6.597 -0.0762  0.3037  0.0748
 3129SOL    HW115223   5.893   7.698   6.685  0.0723  1.9316 -0.1556
 3129SOL    HW215224   5.906   7.614   6.560  2.0521  1.5335  0.2890
 3130SOL     OW15225   7.093   4.692   3.599  0.2350  0.7845 -0.2830
 3130SOL    HW115226   7.179   4.666   3.566 -0.6637  0.0123 -2.1471
 3130SOL    HW215227   7.081   4.781   3.566 -0.9987 -0.2687 -2.9152
 3131SOL     OW15228   9.129   3.105  10.528 -0.4727 -0.3890  0.2470
 3131SOL    HW115229   9.161   3.039  10.466 -0.7016  0.7193 -1.0941
 3131SOL    HW215230   9.043   3.073  10.555 -0.4988 -0.7295 -0.2406
 3132SOL     OW15231   3.184   3.069   9.342 -0.0262  1.0117  0.3110
 3132SOL    HW115232   3.120   3.057   9.271  1.7322 -0.3127 -1.1509
 3132SOL    HW215233   3.241   3.140   9.311  1.1590 -0.0275  0.0397
 3133SOL     OW15234   0.080   9.821   6.562 -0.4238  0.2994  0.1268
 3133SOL    HW115235  -0.005   9.811   6.518 -0.0533 -1.7370 -0.2275
 3133SOL    HW215236   0.060   9.873   6.639 -1.6561  1.3775 -0.8584
 3134SOL     OW15237   7.940   5.435  10.676 -0.2695  0.3022  0.2448
 3134SOL    HW115238   7.918   5.353  10.631  2.4878 -1.1399  1.2797
 3134SOL    HW215239   7.998   5.481  10.616  0.8734 -0.1417  0.9679
 3135SOL     OW15240   1.573   9.321   6.907 -0.4021 -0.4990  0.0050
 3135SOL    HW115241   1.484   9.297   6.932 -0.1692 -2.5446 -0.9330
 3135SOL    HW215242   1.627   9.250   6.940  0.6779 -0.0749 -0.8112
 3136SOL     OW15243  10.267   4.278   5.536 -0.3462  0.3203 -0.5475
 3136SOL    HW115244  10.329   4.204   5.540 -0.9606 -0.2041 -0.5879
 3136SOL    HW215245  10.251   4.300   5.628 -0.4983  0.1161 -0.5240
 3137SOL     OW15246   0.561   1.093   9.247  0.3771 -0.4908  0.4059
 3137SOL    HW115247   0.635   1.033   9.251  1.5072  0.8614  0.2377
 3137SOL    HW215248   0.568   1.145   9.326 -1.9840 -2.0745  1.8087
 3138SOL     OW15249   3.484   0.192   6.740  0.2153 -0.4910  0.4521
 3138SOL    HW115250   3.553   0.152   6.794 -0.1896 -1.5006  0.2357
 3138SOL    HW215251   3.416   0.216   6.802  0.2897 -0.4997  0.5380
 3139SOL     OW15252   4.217   8.432   2.519  0.2164 -0.1645 -0.1103
 3139SOL    HW115253   4.214   8.380   2.439 -0.4219 -2.6122  1.4100
 3139SOL    HW215254   4.140   8.404   2.569  0.5856  1.2883  1.3790
 3140SOL     OW15255   7.749   3.794   1.517 -0.2962  0.4942  0.8836
 3140SOL    HW115256   7.749   3.799   1.613  1.4214  1.2948  0.8780
 3140SOL    HW215257   7.836   3.825   1.492 -0.8403  0.6156 -0.9567
 3141SOL     OW15258   6.307   9.644   3.771 -0.0954  0.2122 -0.0148
 3141SOL    HW115259   6.356   9.587   3.830  0.1571 -0.1753 -0.5917
 3141SOL    HW215260   6.247   9.586   3.725  1.3888  0.0765 -1.9052
 3142SOL     OW15261  10.010   2.882   5.194 -0.0287  0.0477 -0.5105
 3142SOL    HW115262  10.023   2.891   5.099  1.5611  1.1118 -0.2215
 3142SOL    HW215263  10.097   2.864   5.229 -0.5771 -0.2170  0.7834
 3143SOL     OW15264   2.451  10.286   9.574 -0.4881  0.4642  0.2886
 3143SOL    HW115265   2.503  10.210   9.602 -2.5188 -0.8083  0.7875
 3143SOL    HW215266   2.515  10.357   9.567  1.5862 -1.3745 -0.6710
 3144SOL     OW15267   2.889   3.027   1.417  0.4118  0.0736  0.5014
 3144SOL    HW115268   2.883   3.061   1.506  1.3210  0.8655  0.2749
 3144SOL    HW215269   2.920   2.937   1.427 -0.9491 -0.3677  1.0441
 3145SOL     OW15270   3.370   1.591   1.751 -1.1501 -0.1451  0.2404
 3145SOL    HW115271   3.420   1.603   1.831 -0.8232  0.3386 -0.0344
 3145SOL    HW215272   3.302   1.659   1.755 -0.3543  0.7206 -0.4908
 3146SOL     OW15273   6.471   3.211   0.565  0.3924  0.4635  0.3440
 3146SOL    HW115274   6.520   3.147   0.515 -2.7030 -1.0163 -1.0874
 3146SOL    HW215275   6.455   3.282   0.503 -0.3201  0.3361  0.3744
 3147SOL     OW15276   5.916   6.045   5.420 -0.1742 -0.4251  0.0778
 3147SOL    HW115277   5.833   5.999   5.405 -0.1835 -1.1379  2.0753
 3147SOL    HW215278   5.940   6.023   5.509  1.9730  0.1412 -0.3125
 3148SOL     OW15279  10.539   5.726   1.991 -0.1032  0.3405 -0.1221
 3148SOL    HW115280  10.514   5.640   1.956 -0.1500  0.4641 -0.3951
 3148SOL    HW215281  10.597   5.706   2.065 -0.5070  0.0669  0.1238
 3149SOL     OW15282   6.807   8.301   0.649  0.1922  0.4653  0.6047
 3149SOL    HW115283   6.821   8.284   0.556 -2.2171 -0.0921  0.2722
 3149SOL    HW215284   6.887   8.269   0.692 -0.5314 -3.8299 -0.8344
 3150SOL     OW15285  10.118   7.018  10.577  0.1346 -0.2701 -0.0914
 3150SOL    HW115286  10.129   6.970  10.495  1.0287  2.3032 -1.6310
 3150SOL    HW215287  10.192   7.080  10.577 -2.2480  2.8311  0.3617
 3151SOL     OW15288   4.656   8.922   2.517 -0.0018 -0.6041 -0.2230
 3151SOL    HW115289   4.585   8.924   2.581 -0.2540 -1.8641 -0.4223
 3151SOL    HW215290   4.704   9.004   2.530 -2.5859  1.2176 -1.3537
 3152SOL     OW15291   6.823   6.804  10.125  0.5220  0.2208 -0.5528
 3152SOL    HW115292   6.889   6.834  10.188 -3.1511 -0.4675  4.2495
 3152SOL    HW215293   6.855   6.720  10.093  1.6265 -0.6052  2.4270
 3153SOL     OW15294   9.972   2.028   0.432  0.0201  0.1232  0.1394
 3153SOL    HW115295   9.906   2.046   0.366  0.3765  0.5024 -0.1157
 3153SOL    HW215296  10.051   2.007   0.383 -0.2424 -1.6917  0.4188
 3154SOL     OW15297   3.956   2.047   7.934 -0.1389 -0.3453  0.4594
 3154SOL    HW115298   3.950   2.037   7.839 -1.6020 -0.2199  0.5200
 3154SOL    HW215299   4.016   2.121   7.946 -1.9450  1.3775 -0.4917
 3155SOL     OW15300   7.209   0.387   6.164  0.2094  0.2041  0.3093
 3155SOL    HW115301   7.129   0.399   6.215 -0.0833 -0.2564 -0.0342
 3155SOL    HW215302   7.280   0.404   6.226 -0.1482  0.3499  0.6829
 3156SOL     OW15303   2.548   9.154   7.522 -0.3479  0.2361  0.3425
 3156SOL    HW115304   2.643   9.146   7.528 -0.4294 -0.3356  0.9540
 3156SOL    HW215305   2.515   9.070   7.553 -1.0559  0.4227  0.1056
 3157SOL     OW15306   8.437   2.100   0.855  0.0084 -0.0754  0.4888
 3157SOL    HW115307   8.417   2.007   0.846 -1.9764  0.2746  0.9894
 3157SOL    HW215308   8.421   2.120   0.947  1.2119  0.6077  0.5772
 3158SOL     OW15309   1.121   0.339   5.320 -0.0227 -0.0704 -0.0364
 3158SOL    HW115310   1.061   0.381   5.382 -0.4552  0.5860 -0.8754
 3158SOL    HW215311   1.198   0.396   5.318  1.6171 -1.9807  2.6128
 3159SOL     OW15312   3.336   8.354   3.655  0.2067  0.1753 -0.1197
 3159SOL    HW115313   3.318   8.448   3.654  1.3232  0.4075  0.6296
 3159SOL    HW215314   3.370   8.335   3.567  0.3505  0.5498 -0.1468
 3160SOL     OW15315   9.104   7.125   1.487  0.4608 -0.6037 -0.3594
 3160SOL    HW115316   9.078   7.196   1.428 -1.1145  0.1707  1.1821
 3160SOL    HW215317   9.183   7.158   1.531  0.0532 -0.0378 -0.0484
 3161SOL     OW15318   1.565   0.951   1.049  0.4269  0.7681 -0.5660
 3161SOL    HW115319   1.474   0.976   1.067 -0.0841 -0.8202 -0.8159
 3161SOL    HW215320   1.564   0.856   1.047  2.0095  0.7330 -1.1165
 3162SOL     OW15321   4.552   3.814   8.755 -0.6487  0.3261 -0.2924
 3162SOL    HW115322   4.642   3.784   8.767 -0.6012  0.4756 -0.2731
 3162SOL    HW215323   4.498   3.744   8.792 -0.4899  0.9493  1.2217
 3163SOL     OW15324   3.643   1.652  10.713  0.1155 -0.1251  0.3138
 3163SOL    HW115325   3.566   1.632  10.767 -0.3458  2.1496  0.6085
 3163SOL    HW215326   3.664   1.743  10.734  0.6235  0.4995 -2.4864
 3164SOL     OW15327   6.403   3.448   7.501 -0.1658 -0.4479 -0.2037
 3164SOL    HW115328   6.358   3.365   7.513 -1.1289 -0.0260 -0.8128
 3164SOL    HW215329   6.360   3.508   7.561 -0.4997 -0.0162 -0.8641
 3165SOL     OW15330   6.044   6.580  10.560 -0.0120 -0.2431  0.2452
 3165SOL    HW115331   6.051   6.499  10.611  1.6511 -0.9393 -0.9816
 3165SOL    HW215332   6.113   6.571  10.493 -0.7527  1.5509 -0.8005
 3166SOL     OW15333   1.458   6.572   1.723 -0.4236  0.5583 -0.5614
 3166SOL    HW115334   1.506   6.642   1.768 -0.8523  0.2167  0.4525
 3166SOL    HW215335   1.463   6.498   1.783 -3.1081  0.8263  0.0938
 3167SOL     OW15336   2.487   7.655   6.185 -0.0945  0.0421 -0.3185
 3167SOL    HW115337   2.411   7.693   6.229 -0.0689  0.4642 -0.6351
 3167SOL    HW215338   2.481   7.561   6.204 -1.1925 -0.0560 -1.0834
 3168SOL     OW15339   4.418   2.019   3.797  0.4882  0.3271  0.4704
 3168SOL    HW115340   4.436   1.939   3.845 -0.1110 -0.1776 -0.1361
 3168SOL    HW215341   4.429   1.995   3.705  0.5149  0.9957  0.2944
 3169SOL     OW15342   1.778   1.861   5.363 -0.3194 -0.3444 -0.1899
 3169SOL    HW115343   1.687   1.850   5.336 -0.1846 -1.5699 -0.1929
 3169SOL    HW215344   1.824   1.885   5.282 -0.1089 -2.9572 -0.9599
 3170SOL     OW15345   8.600   7.214   3.166 -0.8767  0.2720  0.1460
 3170SOL    HW115346   8.643   7.294   3.197  0.0924 -0.5425  0.9858
 3170SOL    HW215347   8.528   7.245   3.111  1.1058  1.7331 -1.8178
 3171SOL     OW15348   6.262   6.775   0.748  0.1683  0.2521  0.1818
 3171SOL    HW115349   6.298   6.851   0.701 -0.3158  0.1471 -0.3736
 3171SOL    HW215350   6.295   6.784   0.837  0.6160  0.7868 -0.0327
 3172SOL     OW15351   3.959   2.129   4.341 -0.4866 -0.3569 -0.2011
 3172SOL    HW115352   3.966   2.043   4.300  1.4018 -0.4570  0.2750
 3172SOL    HW215353   3.942   2.110   4.433  0.6890 -0.2543  0.0459
 3173SOL     OW15354   4.307   8.326   0.076 -0.1796 -0.1719 -1.0848
 3173SOL    HW115355   4.249   8.268   0.027 -0.8348 -0.3533 -0.1289
 3173SOL    HW215356   4.288   8.306   0.168  0.0785  1.0619 -0.7493
 3174SOL     OW15357   3.012  10.151   5.703 -0.0299 -0.2616 -0.1832
 3174SOL    HW115358   2.938  10.209   5.689 -0.6236 -1.2625 -1.3014
 3174SOL    HW215359   3.078  10.180   5.640  0.1164 -0.0813  0.0490
 3175SOL     OW15360   4.876   1.574   5.033 -0.2823  0.2217 -0.0246
 3175SOL    HW115361   4.866   1.551   4.940 -0.6070  1.3878 -0.2998
 3175SOL    HW215362   4.791   1.553   5.072  0.0488 -0.8343  0.1463
 3176SOL     OW15363   8.682   5.427   0.145  0.2778 -0.3798 -0.0654
 3176SOL    HW115364   8.743   5.412   0.217 -1.5590 -2.6254  1.1867
 3176SOL    HW215365   8.603   5.460   0.188  0.3014  1.7389 -1.5481
 3177SOL     OW15366   5.959   9.090   4.303 -0.3539 -0.5176 -0.2720
 3177SOL    HW115367   6.042   9.134   4.289 -1.4037  1.2045 -1.4825
 3177SOL    HW215368   5.971   9.042   4.385  1.8811 -0.5133 -0.5476
 3178SOL     OW15369   7.926   7.028   2.388  0.1971 -0.1255  0.2810
 3178SOL    HW115370   8.004   6.998   2.341 -0.4394 -1.0252 -0.2426
 3178SOL    HW215371   7.910   7.117   2.354  1.4643  0.4032  1.0222
 3179SOL     OW15372   2.331   2.632   4.916 -0.0525 -0.2628  0.2368
 3179SOL    HW115373   2.290   2.700   4.970 -0.5810  0.8144 -1.4511
 3179SOL    HW215374   2.381   2.681   4.850 -1.1104 -1.4667 -1.5348
 3180SOL     OW15375   7.847  10.712   8.494 -0.3588  0.5890  0.0583
 3180SOL    HW115376   7.894  10.630   8.512 -3.5862 -1.6233 -0.5500
 3180SOL    HW215377   7.800  10.730   8.575  0.1662  1.7418  0.1121
 3181SOL     OW15378   5.329   5.497   0.366 -0.0254  0.1835 -0.0107
 3181SOL    HW115379   5.352   5.503   0.273  2.9573 -2.7203  0.3324
 3181SOL    HW215380   5.385   5.562   0.409  2.2190 -1.6410  0.0546
 3182SOL     OW15381  10.553   1.847   3.073 -0.4214  0.2176  0.4259
 3182SOL    HW115382  10.614   1.910   3.035  0.4450  0.6245  2.3627
 3182SOL    HW215383  10.476   1.898   3.096  0.0619  0.5036  1.4856
 3183SOL     OW15384   8.540   4.259   6.670  0.5217  0.0363 -0.0598
 3183SOL    HW115385   8.592   4.200   6.615 -0.1433  0.4755 -1.2008
 3183SOL    HW215386   8.551   4.345   6.629 -1.1825  0.1180 -0.3998
 3184SOL     OW15387   8.560   5.728   4.027 -0.4836  0.2042  0.5668
 3184SOL    HW115388   8.645   5.685   4.039 -0.4188  0.5435  1.4797
 3184SOL    HW215389   8.496   5.657   4.033 -0.4089  0.2329  2.4946
 3185SOL     OW15390   8.543  10.032   1.656  0.0521  0.0065  0.5312
 3185SOL    HW115391   8.522   9.944   1.688 -0.5292  0.4594  1.4244
 3185SOL    HW215392   8.525  10.028   1.562 -1.0972 -0.4941  0.7580
 3186SOL     OW15393   7.786   3.231   6.937 -0.5889  0.1238  0.2848
 3186SOL    HW115394   7.764   3.321   6.960 -2.0038  0.0054 -0.4749
 3186SOL    HW215395   7.876   3.220   6.967 -0.8198  1.3764  1.5453
 3187SOL     OW15396  10.032   2.893   5.469 -0.2494  0.4849  0.4402
 3187SOL    HW115397  10.000   2.803   5.459 -0.9409  0.4615  2.4356
 3187SOL    HW215398  10.003   2.938   5.389  0.4319 -1.1242 -0.7722
 3188SOL     OW15399   7.274   8.925   0.029 -0.6539  1.0594  0.1232
 3188SOL    HW115400   7.253   8.872  -0.048  0.6685 -1.2405  1.2350
 3188SOL    HW215401   7.359   8.964   0.009  0.3173 -0.5747  0.8215
 3189SOL     OW15402   3.839   7.094   0.334 -0.1528 -0.3905 -0.2380
 3189SOL    HW115403   3.814   7.064   0.421 -0.2222  3.2376  1.1802
 3189SOL    HW215404   3.895   7.024   0.299 -0.3777 -2.1044  2.5492
 3190SOL     OW15405   5.526   8.205   4.153  0.3791  0.5693  0.2125
 3190SOL    HW115406   5.528   8.160   4.237  0.8051  0.4570  0.1423
 3190SOL    HW215407   5.454   8.268   4.161  0.0063  0.1177  0.4342
 3191SOL     OW15408   1.303   1.987   8.324 -0.0737  0.3180  0.1524
 3191SOL    HW115409   1.244   2.029   8.387  0.0126  0.1764  0.3245
 3191SOL    HW215410   1.385   1.975   8.371 -0.4749 -1.2144  0.5291
 3192SOL     OW15411   7.584   6.877   5.417  0.1016  0.1597  0.4005
 3192SOL    HW115412   7.500   6.877   5.372  0.5670  0.9228 -0.4987
 3192SOL    HW215413   7.561   6.885   5.510 -0.8806 -1.7696  0.3631
 3193SOL     OW15414   6.414   3.937   2.712  0.8126 -0.1550 -1.0419
 3193SOL    HW115415   6.383   3.955   2.800  2.3990 -1.4601 -0.1610
 3193SOL    HW215416   6.364   3.996   2.656 -0.2640  0.6625  0.7147
 3194SOL     OW15417   2.825  10.516   1.286  0.4505  0.1093 -0.0792
 3194SOL    HW115418   2.753  10.577   1.302 -0.4261 -0.5589 -1.3333
 3194SOL    HW215419   2.792  10.431   1.315  0.7635 -0.1864 -0.5769
 3195SOL     OW15420   0.951   8.119   0.972  0.1035 -0.4836  0.9241
 3195SOL    HW115421   0.962   8.181   0.899 -0.5919 -2.2504 -0.7931
 3195SOL    HW215422   0.871   8.148   1.016 -0.2655 -0.1860  0.0842
 3196SOL     OW15423  10.499   2.292   6.003  0.0237  0.0798  0.2221
 3196SOL    HW115424  10.562   2.223   5.984  0.7206  0.7411  0.0846
 3196SOL    HW215425  10.455   2.263   6.083  0.3473 -0.4872  0.2015
 3197SOL     OW15426   4.183   9.254   6.474  0.0404 -0.3021  0.7313
 3197SOL    HW115427   4.198   9.211   6.390 -0.7786  0.1850  0.3195
 3197SOL    HW215428   4.091   9.236   6.494  0.8673 -2.7211  2.8818
 3198SOL     OW15429   5.739  10.495   2.080  0.2290  0.2819  0.0157
 3198SOL    HW115430   5.774  10.548   2.152 -2.1553 -1.7049  2.8828
 3198SOL    HW215431   5.815  10.449   2.044  1.3105  0.1100  2.3841
 3199SOL     OW15432   0.935   6.993   0.794  0.3693  0.1555  0.1917
 3199SOL    HW115433   0.956   7.084   0.815  1.7811  0.0831 -0.7654
 3199SOL    HW215434   0.858   6.998   0.739  1.1004  0.8717 -0.7947
 3200SOL     OW15435   1.887   7.827   4.952 -0.1052  0.1065 -0.0527
 3200SOL    HW115436   1.834   7.767   5.004 -1.1065  0.3044 -0.8030
 3200SOL    HW215437   1.823   7.878   4.902  0.7890 -0.9687 -2.4777
 3201SOL     OW15438   5.797   2.174   0.077  0.0196 -0.3405 -0.1546
 3201SOL    HW115439   5.844   2.240   0.128  0.5450 -1.3021  0.6207
 3201SOL    HW215440   5.759   2.115   0.142 -3.2930  1.0092 -0.6530
 3202SOL     OW15441   1.260   7.566   2.721  0.1294  0.7974 -0.2412
 3202SOL    HW115442   1.205   7.605   2.653  0.7077  0.7408 -0.7483
 3202SOL    HW215443   1.349   7.570   2.685  0.5702  1.5734  0.8800
 3203SOL     OW15444   8.708   4.463   4.436 -0.0472 -0.3864  0.5056
 3203SOL    HW115445   8.765   4.388   4.457  0.3406 -0.2890 -0.1768
 3203SOL    HW215446   8.638   4.425   4.384  0.6889 -0.1252 -0.7029
 3204SOL     OW15447   4.668   9.677   2.079 -0.5580  0.2853  0.1258
 3204SOL    HW115448   4.697   9.746   2.019 -0.7749  1.0301  0.8520
 3204SOL    HW215449   4.589   9.712   2.119 -0.7106 -0.4241  0.4588
 3205SOL     OW15450   3.530  10.181   7.643  0.2977  0.5408 -0.5504
 3205SOL    HW115451   3.525  10.189   7.548 -0.0071  0.1953 -0.5651
 3205SOL    HW215452   3.508  10.268   7.676  0.5998  0.7140 -0.8004
 3206SOL     OW15453   2.903   1.644   2.801 -0.2543 -0.1536  0.1610
 3206SOL    HW115454   2.984   1.687   2.825 -0.0292 -0.7740  0.5312
 3206SOL    HW215455   2.861   1.623   2.884  0.8139 -2.8462  0.1144
 3207SOL     OW15456   5.265   0.473   5.063  0.3188  0.4025  0.4316
 3207SOL    HW115457   5.231   0.473   4.973 -0.7181 -1.4947  0.7686
 3207SOL    HW215458   5.198   0.517   5.114 -0.6429 -1.2806  0.7189
 3208SOL     OW15459   1.513  10.663   4.412  0.2086  0.2055 -0.5456
 3208SOL    HW115460   1.451  10.668   4.485 -0.6314  0.3778 -1.2486
 3208SOL    HW215461   1.491  10.581   4.368  1.3216 -0.3494 -0.0814
 3209SOL     OW15462   7.132   1.176   6.887  0.0265  0.0383 -0.6672
 3209SOL    HW115463   7.199   1.212   6.828  3.0900 -0.7562  2.0636
 3209SOL    HW215464   7.139   1.081   6.877 -0.2004 -0.0721  0.1663
 3210SOL     OW15465   0.902   6.911   2.721  0.0155  0.0385 -0.2014
 3210SOL    HW115466   0.917   6.847   2.791 -0.5139  1.3270  1.1323
 3210SOL    HW215467   0.882   6.858   2.644  0.0908 -1.4087  0.7428
 3211SOL     OW15468   6.763   5.021   8.461 -0.2237 -0.2499  0.3804
 3211SOL    HW115469   6.828   5.039   8.528 -0.2388  0.9943  0.0750
 3211SOL    HW215470   6.745   4.927   8.470  2.6762 -0.9856 -0.4607
 3212SOL     OW15471   7.923  10.277   1.194 -0.2030 -0.2224  0.2630
 3212SOL    HW115472   7.947  10.257   1.104  0.7863 -1.2297  0.7171
 3212SOL    HW215473   7.880  10.362   1.190  0.5201  0.1020 -1.0487
 3213SOL     OW15474   4.174   8.145  10.546  0.1743 -0.3603  0.3473
 3213SOL    HW115475   4.136   8.194  10.473 -1.1414 -2.1546 -0.2350
 3213SOL    HW215476   4.260   8.116  10.514  0.8644  1.2813  0.6126
 3214SOL     OW15477   9.740   0.663   9.991  0.2872  0.0004  0.0389
 3214SOL    HW115478   9.816   0.677   9.936  0.7430  0.5170  0.7784
 3214SOL    HW215479   9.667   0.702   9.943  0.6520  0.3054 -0.2700
 3215SOL     OW15480   6.249   2.499   1.938 -0.0325 -0.1067  0.0976
 3215SOL    HW115481   6.331   2.450   1.951  0.6619  0.3882 -2.0310
 3215SOL    HW215482   6.232   2.492   1.845 -1.8985  0.6821  0.3415
 3216SOL     OW15483   8.920   4.878   0.093  0.1229 -0.2596 -0.1689
 3216SOL    HW115484   8.866   4.956   0.112 -0.3558 -0.9096  1.3157
 3216SOL    HW215485   8.868   4.828   0.031 -0.0977  0.0432 -0.2345
 3217SOL     OW15486  10.351   6.791   2.650 -0.2186 -0.0213  0.6801
 3217SOL    HW115487  10.438   6.758   2.624  0.0899 -0.0481  1.6850
 3217SOL    HW215488  10.349   6.779   2.745 -0.9659  0.8430  0.7849
 3218SOL     OW15489   8.420   0.011   3.645  0.4219  0.3177 -0.0264
 3218SOL    HW115490   8.459  -0.071   3.676 -2.1325 -0.9966 -0.0645
 3218SOL    HW215491   8.387   0.054   3.723  1.5833  1.2707 -0.0308
 3219SOL     OW15492   0.403   0.921   6.223  0.5363  0.0972 -0.6728
 3219SOL    HW115493   0.349   0.845   6.242 -0.2329  0.7303 -0.2697
 3219SOL    HW215494   0.491   0.886   6.211  0.1016 -0.9066 -0.9856
 3220SOL     OW15495   7.189  10.232   1.075 -0.3930 -0.8929  0.3291
 3220SOL    HW115496   7.174  10.317   1.032  0.9251 -0.3384  0.8776
 3220SOL    HW215497   7.118  10.224   1.138 -0.7131 -0.3404  0.0509
 3221SOL     OW15498   0.286   7.664   3.445  0.7015 -0.1172 -0.4674
 3221SOL    HW115499   0.261   7.633   3.532  1.4643 -1.2162 -0.6206
 3221SOL    HW215500   0.377   7.692   3.455  1.0543 -1.0040 -1.0758
 3222SOL     OW15501   5.348   9.392   0.057  0.1472 -0.7466  0.2360
 3222SOL    HW115502   5.417   9.337   0.094 -0.9466 -1.7058  0.9138
 3222SOL    HW215503   5.292   9.414   0.132  0.1580  0.7095 -0.1493
 3223SOL     OW15504   6.025   4.749   5.484 -0.2264  0.0788 -0.2717
 3223SOL    HW115505   6.113   4.761   5.449  0.2712 -0.2044  0.8300
 3223SOL    HW215506   5.998   4.663   5.452 -0.4277  0.4992 -1.2561
 3224SOL     OW15507   8.328   1.633   6.926 -0.5036 -0.1727 -0.0070
 3224SOL    HW115508   8.258   1.696   6.907  0.8596  1.2529 -0.5148
 3224SOL    HW215509   8.383   1.634   6.848  1.0217  0.0226  1.0315
 3225SOL     OW15510   4.516   7.316   0.003 -0.0315  0.3047 -0.1511
 3225SOL    HW115511   4.598   7.343  -0.038  1.5159 -1.1625  1.7813
 3225SOL    HW215512   4.538   7.303   0.095 -1.9620 -1.9552  0.1086
 3226SOL     OW15513   5.681   5.763   8.778 -0.2790  0.2622  0.6394
 3226SOL    HW115514   5.714   5.836   8.831 -1.6827  0.6674  1.0030
 3226SOL    HW215515   5.673   5.690   8.838  0.7902 -0.1142  0.3494
 3227SOL     OW15516   5.793   4.714   5.671  0.0471  0.9059 -0.5355
 3227SOL    HW115517   5.809   4.770   5.747  1.1322  0.7696 -0.6457
 3227SOL    HW215518   5.876   4.715   5.624 -0.1020 -0.3438 -0.8413
 3228SOL     OW15519   8.461   2.499   1.833 -0.0703  0.1356  0.5500
 3228SOL    HW115520   8.383   2.479   1.782  0.3207 -1.1205  0.4117
 3228SOL    HW215521   8.437   2.479   1.923 -0.6843  2.1307  0.8790
 3229SOL     OW15522   8.808   6.817   8.664  0.5762  0.5372 -0.6108
 3229SOL    HW115523   8.813   6.798   8.758  1.4930 -1.2038 -0.9774
 3229SOL    HW215524   8.890   6.863   8.645  1.1407 -0.5180 -0.8244
 3230SOL     OW15525   7.788   8.003   1.498 -0.2538  0.1563  0.8831
 3230SOL    HW115526   7.851   7.982   1.567  0.6253 -2.1903 -0.5304
 3230SOL    HW215527   7.710   7.952   1.520 -0.0285 -0.4727  0.2597
 3231SOL     OW15528   8.196   9.305   8.043 -0.1059  0.0655  0.1681
 3231SOL    HW115529   8.255   9.242   8.003 -1.9253 -1.5502 -0.1266
 3231SOL    HW215530   8.160   9.354   7.969  1.2563  1.4590  0.3912
 3232SOL     OW15531   3.451   7.591   0.174 -0.0582  0.1573  0.0992
 3232SOL    HW115532   3.455   7.504   0.215  0.1243  1.1246  2.2686
 3232SOL    HW215533   3.495   7.649   0.237  1.1986  1.5946 -2.0029
 3233SOL     OW15534   9.349   9.078   2.468  0.2573 -0.0596 -0.1842
 3233SOL    HW115535   9.279   9.019   2.440 -0.1309  0.2101  0.2087
 3233SOL    HW215536   9.304   9.151   2.510  0.7881 -0.0813  0.4425
 3234SOL     OW15537   5.974   7.842   9.186 -0.3266 -0.0858 -0.2961
 3234SOL    HW115538   6.008   7.820   9.099 -1.9973  0.4445 -1.1269
 3234SOL    HW215539   6.044   7.892   9.227  0.9290 -1.3055 -0.8906
 3235SOL     OW15540   3.082   8.692   3.839  0.2855 -0.1740  0.0091
 3235SOL    HW115541   3.028   8.726   3.767  1.9750  0.6809 -0.9111
 3235SOL    HW215542   3.064   8.598   3.840 -1.0040  0.0430 -0.4293
 3236SOL     OW15543   7.345   5.767   3.382  0.2041  0.0297 -0.0319
 3236SOL    HW115544   7.377   5.857   3.389  0.3857 -0.0098 -0.3557
 3236SOL    HW215545   7.278   5.761   3.450  0.0135  0.4834 -0.1695
 3237SOL     OW15546   6.777   3.645   9.948  0.2792 -0.3582  0.0345
 3237SOL    HW115547   6.772   3.663  10.042  1.5310 -0.9842  0.2453
 3237SOL    HW215548   6.813   3.557   9.943 -3.4669 -2.0514 -0.9899
 3238SOL     OW15549   6.160   1.155   0.664 -0.3638  0.2403  0.4331
 3238SOL    HW115550   6.238   1.166   0.718 -0.5423  0.2530  0.6903
 3238SOL    HW215551   6.169   1.067   0.627  0.0174  0.4322  0.0649
 3239SOL     OW15552   1.362   6.685  10.653  0.3034 -0.3730  0.0311
 3239SOL    HW115553   1.330   6.602  10.687  0.2791 -1.9342 -3.4182
 3239SOL    HW215554   1.292   6.747  10.672 -0.4214 -1.5044  1.1837
 3240SOL     OW15555   0.209   1.803   4.378  0.7003  0.5354  0.3501
 3240SOL    HW115556   0.150   1.739   4.337  0.7033  1.3902 -1.0633
 3240SOL    HW215557   0.297   1.772   4.357  0.6998  1.1894 -0.6952
 3241SOL     OW15558   6.140   6.468   8.347  0.1093 -0.3639  0.1817
 3241SOL    HW115559   6.215   6.524   8.326 -0.4215  0.4567  0.4448
 3241SOL    HW215560   6.107   6.439   8.262  1.8068 -2.2521  0.0719
 3242SOL     OW15561   9.260   4.730   9.457  0.4982 -0.0922  1.1876
 3242SOL    HW115562   9.185   4.726   9.515 -2.0353  3.9417 -1.3100
 3242SOL    HW215563   9.235   4.678   9.381 -0.1008  1.5249  0.2068
 3243SOL     OW15564   5.559   9.854   7.237  0.2778  0.4112 -0.6681
 3243SOL    HW115565   5.647   9.817   7.232  0.3550  0.6224 -0.9003
 3243SOL    HW215566   5.521   9.814   7.315  0.5512  0.2572 -0.6110
 3244SOL     OW15567   3.379   6.376   9.771  0.0120  0.0443  0.1883
 3244SOL    HW115568   3.393   6.329   9.853  0.3026 -0.2927 -0.0525
 3244SOL    HW215569   3.402   6.313   9.703 -1.3682 -0.0935 -0.1884
 3245SOL     OW15570   4.711   6.811   7.845  0.4971  0.2389  0.0334
 3245SOL    HW115571   4.744   6.760   7.771 -1.1058 -0.2417 -0.3930
 3245SOL    HW215572   4.709   6.901   7.814 -0.4037  0.0052 -0.6236
 3246SOL     OW15573   2.701   9.975   5.813 -0.2945  0.0319  0.1541
 3246SOL    HW115574   2.747   9.928   5.883 -2.0939 -0.1276  1.2999
 3246SOL    HW215575   2.616   9.997   5.851 -0.6704  1.5133 -1.4132
 3247SOL     OW15576   6.530   7.484   7.163  0.0787  0.0684  0.0133
 3247SOL    HW115577   6.621   7.477   7.191 -0.0848  0.2513  0.6071
 3247SOL    HW215578   6.504   7.573   7.187 -0.4187 -0.1664  0.3670
 3248SOL     OW15579   5.652   1.341   5.386 -0.2775 -0.0137  0.2347
 3248SOL    HW115580   5.699   1.274   5.337 -0.5428  0.5052 -0.7497
 3248SOL    HW215581   5.641   1.413   5.325 -1.1941  0.3981  0.8533
 3249SOL     OW15582   7.058   9.187   6.311 -0.1195  0.4501 -0.7144
 3249SOL    HW115583   7.133   9.245   6.326 -0.7409  1.7180 -2.2453
 3249SOL    HW215584   7.065   9.121   6.380  0.3988  2.5540  1.3697
 3250SOL     OW15585   0.737   6.172  10.387  0.1453  0.2344 -0.2382
 3250SOL    HW115586   0.689   6.093  10.408  0.2802 -0.0611 -1.0106
 3250SOL    HW215587   0.818   6.141  10.346 -0.2124  0.7713 -1.3982
 3251SOL     OW15588   2.871   3.246   8.352 -0.2737  0.3340  0.1558
 3251SOL    HW115589   2.906   3.302   8.283  0.6236 -0.3033  0.0785
 3251SOL    HW215590   2.948   3.213   8.398 -0.8559  0.5828  1.3358
 3252SOL     OW15591   0.539   2.056   8.868  0.0960 -0.2480 -0.0580
 3252SOL    HW115592   0.480   2.040   8.795 -1.1085  0.0572  0.8256
 3252SOL    HW215593   0.625   2.026   8.837 -0.2163  0.6399 -1.8766
 3253SOL     OW15594   1.099   3.048   4.638  0.1880  0.0013  0.3181
 3253SOL    HW115595   1.175   3.037   4.581  1.8006 -1.8042  2.6325
 3253SOL    HW215596   1.037   2.981   4.609  1.0402 -0.9814  0.7142
 3254SOL     OW15597   1.050   3.511   5.130  0.3874 -0.4764  0.4723
 3254SOL    HW115598   1.061   3.478   5.219 -0.4468  0.6745  1.0239
 3254SOL    HW215599   0.979   3.459   5.094 -0.5907  0.3369  1.1687
 3255SOL     OW15600   4.193   1.167   8.061  0.2666 -0.8908  0.3966
 3255SOL    HW115601   4.174   1.074   8.047 -0.5452 -0.4454 -1.7605
 3255SOL    HW215602   4.109   1.205   8.085  0.1627 -0.3880 -0.7086
 3256SOL     OW15603   2.806   4.433   7.492  0.0798  0.1512  0.1068
 3256SOL    HW115604   2.803   4.495   7.565 -2.1233  1.9629 -1.3622
 3256SOL    HW215605   2.755   4.357   7.522  0.3267  0.3032  0.9091
 3257SOL     OW15606   2.055   9.867   6.375 -0.2593  0.6171 -0.1364
 3257SOL    HW115607   1.992   9.801   6.406 -0.5229  1.1722  0.5081
 3257SOL    HW215608   2.120   9.874   6.445  0.3485  0.2992 -0.6513
 3258SOL     OW15609   1.219   5.959  10.032 -0.0623  0.0052 -0.0974
 3258SOL    HW115610   1.210   5.941   9.938 -2.1646 -2.3439  0.4570
 3258SOL    HW215611   1.193   6.051  10.041  1.1850  0.6030 -1.8820
 3259SOL     OW15612   1.654   0.536   2.087  0.6173  0.3322 -0.6085
 3259SOL    HW115613   1.713   0.498   2.152  0.6278  0.2305 -0.6778
 3259SOL    HW215614   1.609   0.606   2.134 -0.6205 -0.8261 -0.0024
 3260SOL     OW15615   7.367   5.385   7.048  0.4555 -0.2402 -0.0042
 3260SOL    HW115616   7.381   5.296   7.017  1.1971  0.0269 -0.4763
 3260SOL    HW215617   7.432   5.397   7.118  0.7887  0.1293 -0.3695
 3261SOL     OW15618   7.789   4.257   1.950  0.3339 -0.2016 -0.1915
 3261SOL    HW115619   7.859   4.282   2.010  0.4297  0.3909 -0.5504
 3261SOL    HW215620   7.713   4.243   2.006  0.2536  0.9826  0.0025
 3262SOL     OW15621   8.754   8.477   8.668  0.0640 -0.1064  0.0433
 3262SOL    HW115622   8.708   8.502   8.748  0.1149 -1.0811  0.3905
 3262SOL    HW215623   8.827   8.539   8.663 -1.2437  1.4576 -0.5166
 3263SOL     OW15624   7.200   4.346  10.378 -0.3954  0.0283  0.1617
 3263SOL    HW115625   7.260   4.317  10.446 -1.2442 -0.3374  0.7834
 3263SOL    HW215626   7.120   4.295  10.394  0.5474 -3.1210 -3.4818
 3264SOL     OW15627   3.790   5.609   1.861  0.3128 -0.4499  0.0698
 3264SOL    HW115628   3.882   5.634   1.872  0.8515 -0.7562 -2.9472
 3264SOL    HW215629   3.741   5.685   1.891  1.5093 -0.2345  1.6240
 3265SOL     OW15630   3.948   1.025   1.673 -0.6315 -0.3055  0.7458
 3265SOL    HW115631   3.995   1.073   1.742  0.1143 -0.3533  0.2759
 3265SOL    HW215632   4.003   1.035   1.595 -1.9751  0.6291 -0.1190
 3266SOL     OW15633   6.532   7.141  10.098  0.0187  0.0374  0.0835
 3266SOL    HW115634   6.536   7.143  10.002 -2.0540  1.0933 -0.0320
 3266SOL    HW215635   6.623   7.155  10.126  0.4162  1.4834 -1.7334
 3267SOL     OW15636   2.761  10.197  10.474  0.4760  0.0017  0.5124
 3267SOL    HW115637   2.818  10.124  10.496 -0.7712 -1.1264  0.1453
 3267SOL    HW215638   2.743  10.240  10.557  2.0077  0.5067  0.6013
 3268SOL     OW15639   8.494   1.861  10.466 -0.6150 -0.2119  0.5597
 3268SOL    HW115640   8.522   1.816  10.386 -0.5777  0.2460  0.3102
 3268SOL    HW215641   8.573   1.905  10.498 -0.6220 -0.4183  0.8716
 3269SOL     OW15642   6.786   0.413   4.209 -0.5699  0.4070  0.0707
 3269SOL    HW115643   6.865   0.359   4.218  0.2786  1.4586 -0.7628
 3269SOL    HW215644   6.784   0.436   4.116 -0.9112  1.7885  0.4018
 3270SOL     OW15645   2.793   1.882   2.940  0.8007  0.8207 -0.3080
 3270SOL    HW115646   2.849   1.826   2.994 -0.2362  0.3656  0.3139
 3270SOL    HW215647   2.764   1.952   2.999 -0.7140  0.0634 -0.1117
 3271SOL     OW15648   5.967   7.818   9.519 -0.0296 -0.1419  0.7269
 3271SOL    HW115649   5.914   7.898   9.523 -0.3053 -0.0922 -1.9622
 3271SOL    HW215650   5.904   7.747   9.512  0.1664 -0.1636 -1.4821
 3272SOL     OW15651  10.299   4.610  10.710 -0.0408 -0.0813  0.6239
 3272SOL    HW115652  10.376   4.616  10.768  0.0146  1.5271  0.4231
 3272SOL    HW215653  10.311   4.681  10.647 -1.4944 -0.0637  0.3403
 3273SOL     OW15654   1.124   0.181   6.732 -0.2263  0.7414  0.3213
 3273SOL    HW115655   1.121   0.145   6.821  0.0564 -1.0516 -0.3623
 3273SOL    HW215656   1.038   0.221   6.720 -1.8222 -2.4212  0.0903
 3274SOL     OW15657  10.157   0.186   8.598 -1.0848 -0.5295  0.0452
 3274SOL    HW115658  10.237   0.158   8.644  0.0045 -0.3128 -1.6140
 3274SOL    HW215659  10.087   0.138   8.641 -0.0058 -1.0579  1.2923
 3275SOL     OW15660   9.994   9.899   9.254 -0.4197  0.6077  0.5957
 3275SOL    HW115661   9.980   9.993   9.246  0.3116  0.9449  2.6542
 3275SOL    HW215662  10.077   9.883   9.208  0.1417  1.2154  1.3781
 3276SOL     OW15663   9.359   6.399   8.456 -0.4218  0.0469 -0.1208
 3276SOL    HW115664   9.433   6.409   8.516 -0.9706  0.7930  0.4548
 3276SOL    HW215665   9.384   6.447   8.378  0.4547 -1.2370 -0.6683
 3277SOL     OW15666   3.185   7.029   3.773  0.5706  0.3870 -0.4320
 3277SOL    HW115667   3.222   7.078   3.699  1.9308 -0.2929 -0.2306
 3277SOL    HW215668   3.260   6.987   3.814 -0.3734 -0.6239  0.3237
 3278SOL     OW15669   7.300   7.277   0.817 -0.0764  0.0549 -0.2608
 3278SOL    HW115670   7.337   7.275   0.729 -1.2473  1.0231 -0.8058
 3278SOL    HW215671   7.351   7.344   0.862  0.4183 -0.3294 -0.2286
 3279SOL     OW15672   7.197   1.977   7.952  0.6898 -0.4192  0.2477
 3279SOL    HW115673   7.265   1.985   8.019 -0.1412  1.0848  0.9639
 3279SOL    HW215674   7.238   1.927   7.882  1.4705 -2.4294  2.0237
 3280SOL     OW15675   3.151   7.769   6.590 -0.2232 -0.0586  0.0536
 3280SOL    HW115676   3.196   7.698   6.636  2.1137  0.4665 -1.2203
 3280SOL    HW215677   3.180   7.848   6.635  0.1756  0.2962 -0.8063
 3281SOL     OW15678   8.506   8.937   5.085  0.3794 -0.0824 -0.2668
 3281SOL    HW115679   8.480   9.001   5.018  0.0621  0.0252 -0.0449
 3281SOL    HW215680   8.456   8.963   5.163  3.2254  1.8894  1.0723
 3282SOL     OW15681  10.245   0.840   6.885  0.1795 -0.2590 -0.0723
 3282SOL    HW115682  10.333   0.808   6.906  1.5325  1.5520 -2.4080
 3282SOL    HW215683  10.204   0.767   6.838  0.5654 -0.9875  0.6903
 3283SOL     OW15684   0.007   8.444   7.574 -0.1911 -0.1598  0.3793
 3283SOL    HW115685  -0.063   8.415   7.515  0.6301 -0.5124 -0.4335
 3283SOL    HW215686   0.003   8.384   7.648  2.1705 -3.2296 -1.7360
 3284SOL     OW15687   0.050   8.890   1.600 -0.0047 -0.7362 -0.2453
 3284SOL    HW115688   0.123   8.952   1.596 -0.5543 -0.0287  0.4533
 3284SOL    HW215689  -0.022   8.940   1.638 -1.2147 -1.0874 -1.9490
 3285SOL     OW15690   4.571   8.340   1.743  0.2670  0.0543  0.3847
 3285SOL    HW115691   4.586   8.324   1.650  0.9362  1.1139  0.2893
 3285SOL    HW215692   4.657   8.366   1.777 -0.0110 -0.1200  1.2617
 3286SOL     OW15693   3.438   5.034   3.235 -0.0688 -0.5233 -0.0446
 3286SOL    HW115694   3.504   5.097   3.208  0.4415 -0.9983  0.0963
 3286SOL    HW215695   3.458   4.955   3.185 -0.9560 -0.4554 -0.5312
 3287SOL     OW15696   8.975   8.393   9.323  0.5510  0.0528  0.1766
 3287SOL    HW115697   8.945   8.459   9.386  1.7310  2.4258 -1.5640
 3287SOL    HW215698   9.070   8.400   9.324  0.6609 -1.1003 -0.6200
 3288SOL     OW15699   7.553   8.601   5.743  0.1414 -0.3707  0.6183
 3288SOL    HW115700   7.500   8.521   5.734 -0.3487 -0.0839  0.8849
 3288SOL    HW215701   7.620   8.593   5.676 -0.7535 -0.3550 -0.3056
 3289SOL     OW15702   3.661   8.944   3.161 -0.1168  0.4852 -0.2510
 3289SOL    HW115703   3.675   8.869   3.219  1.7775  1.2840  0.3897
 3289SOL    HW215704   3.570   8.970   3.179 -1.1675 -2.1518 -1.1755
 3290SOL     OW15705   8.495   3.457   6.010  0.1679 -0.2059 -0.2296
 3290SOL    HW115706   8.478   3.511   6.088 -1.6885 -0.8571 -0.1390
 3290SOL    HW215707   8.543   3.382   6.044 -1.9543 -1.2549  0.6202
 3291SOL     OW15708   3.033   0.169   1.656 -0.1414  0.2883  0.0633
 3291SOL    HW115709   3.080   0.121   1.587  3.2963  1.4988  1.3763
 3291SOL    HW215710   2.979   0.232   1.608 -1.5733 -1.9535 -1.5463
 3292SOL     OW15711   2.141   7.588   7.567 -0.1840 -0.4194  0.0225
 3292SOL    HW115712   2.171   7.497   7.574 -0.7510 -0.5495  0.9773
 3292SOL    HW215713   2.144   7.621   7.656 -1.2381  0.0870 -0.1126
 3293SOL     OW15714   8.179   4.375   0.381 -0.2187  0.2523  0.2454
 3293SOL    HW115715   8.236   4.436   0.335  0.0990 -0.3964 -0.2407
 3293SOL    HW215716   8.191   4.395   0.474  1.3012 -0.2946  0.1922
 3294SOL     OW15717  10.480   3.263  10.667 -0.1885  0.4059 -0.6929
 3294SOL    HW115718  10.485   3.207  10.590 -0.2092 -0.7598  0.1259
 3294SOL    HW215719  10.390   3.295  10.668 -0.8305 -1.3025 -0.0005
 3295SOL     OW15720   9.391   6.240   1.906  0.3324  0.7207  0.2721
 3295SOL    HW115721   9.304   6.279   1.908 -0.6639 -1.3502  0.6096
 3295SOL    HW215722   9.389   6.182   1.829  1.8805  1.5702 -0.4584
 3296SOL     OW15723   1.107   6.468   2.570 -0.3696 -0.1834 -0.6911
 3296SOL    HW115724   1.143   6.556   2.556  0.8995 -0.4582  0.6059
 3296SOL    HW215725   1.178   6.419   2.611 -1.5870 -1.3508  0.1260
 3297SOL     OW15726   5.362   1.280   4.703  0.5202  0.0081 -0.0561
 3297SOL    HW115727   5.352   1.339   4.629  2.2895 -0.5984 -0.8382
 3297SOL    HW215728   5.299   1.210   4.686  0.3189  0.3016 -0.5454
 3298SOL     OW15729   9.437   9.514   6.039  0.0567  0.7559  0.1752
 3298SOL    HW115730   9.517   9.559   6.065  1.0102 -1.5339  1.4591
 3298SOL    HW215731   9.445   9.507   5.944  1.6528  0.1175  0.3252
 3299SOL     OW15732   7.204   8.494   4.193 -0.3905  0.1620  1.1877
 3299SOL    HW115733   7.216   8.405   4.160 -0.9562 -0.1203  1.7140
 3299SOL    HW215734   7.190   8.547   4.115 -1.0090 -0.3702  0.9254
 3300SOL     OW15735   5.208   0.120   3.387  0.1550  0.3349  0.2238
 3300SOL    HW115736   5.218   0.065   3.465  0.5417 -0.9573 -0.6997
 3300SOL    HW215737   5.282   0.095   3.330 -1.2406 -0.2849 -1.4187
 3301SOL     OW15738   3.210   1.942   9.591 -0.1632  0.6649 -0.2878
 3301SOL    HW115739   3.242   1.989   9.514 -0.1893  0.3860 -0.4695
 3301SOL    HW215740   3.288   1.922   9.642 -0.2796  2.4783  0.7088
 3302SOL     OW15741   5.633   0.809   2.585 -0.1331  0.2590 -0.4548
 3302SOL    HW115742   5.602   0.834   2.672 -1.8952  1.2084 -1.3074
 3302SOL    HW215743   5.553   0.792   2.536  0.8593 -1.0915 -1.6779
 3303SOL     OW15744   3.771   1.933   6.149  0.4705 -0.0754  0.3393
 3303SOL    HW115745   3.809   1.876   6.082 -0.9019  1.1576 -1.5912
 3303SOL    HW215746   3.750   2.014   6.103 -1.2299  0.5678  2.0795
 3304SOL     OW15747   2.954   9.889   1.652 -0.2932  0.1992 -0.4579
 3304SOL    HW115748   3.039   9.912   1.614  0.4541  1.8084  1.9573
 3304SOL    HW215749   2.968   9.804   1.692  0.7710  1.1359  1.3183
 3305SOL     OW15750   3.899   9.069   8.966  0.1818  0.1866 -0.0572
 3305SOL    HW115751   3.831   9.009   8.996  0.5575  0.6769  1.9409
 3305SOL    HW215752   3.966   9.012   8.927  0.6620 -0.7857  2.0392
 3306SOL     OW15753   6.578   9.389   9.970 -0.0683  0.5628 -0.1694
 3306SOL    HW115754   6.630   9.373  10.048 -1.1450 -0.6796  0.3202
 3306SOL    HW215755   6.550   9.302   9.941 -0.4887  1.0744 -1.3894
 3307SOL     OW15756   1.887   5.247   0.920  0.2838  0.3043 -0.1658
 3307SOL    HW115757   1.974   5.222   0.952  0.9268  2.2474 -0.2895
 3307SOL    HW215758   1.841   5.278   0.998 -0.9162 -2.1180  0.2027
 3308SOL     OW15759   4.708  10.140   7.246 -0.1359 -0.1319 -0.0356
 3308SOL    HW115760   4.671  10.221   7.281 -0.1066 -0.5414  0.9949
 3308SOL    HW215761   4.667  10.071   7.298  0.5367 -0.7176 -0.2680
 3309SOL     OW15762   8.592   8.794   7.419  0.0775  0.7122  0.2491
 3309SOL    HW115763   8.505   8.834   7.410  0.0783  0.7831  0.5641
 3309SOL    HW215764   8.630   8.801   7.331 -0.2633  0.6167  0.0927
 3310SOL     OW15765   7.627   8.600   2.302 -0.6669 -0.2325 -0.0359
 3310SOL    HW115766   7.669   8.672   2.256 -0.5771 -0.4125 -0.2386
 3310SOL    HW215767   7.584   8.549   2.233 -1.3049  0.0038  0.1732
 3311SOL     OW15768   1.478   1.732   7.914 -0.2187 -0.5359  0.1529
 3311SOL    HW115769   1.563   1.736   7.870 -0.9449 -3.3996 -1.7854
 3311SOL    HW215770   1.496   1.687   7.996  0.4327  0.8911  0.8359
 3312SOL     OW15771   7.692   3.576   2.644  0.2944  0.2511  0.6258
 3312SOL    HW115772   7.715   3.591   2.553  1.1028  0.8975  0.9183
 3312SOL    HW215773   7.772   3.540   2.683 -0.0116  0.0793  1.1030
 3313SOL     OW15774   4.091   8.846  10.182 -0.1401  0.2413  0.1142
 3313SOL    HW115775   4.056   8.783  10.245  2.4956 -1.7321 -0.2377
 3313SOL    HW215776   4.017   8.866  10.125 -1.3361 -1.7229  0.8826
 3314SOL     OW15777   2.215   3.003   1.252  0.0589 -0.1788 -0.0126
 3314SOL    HW115778   2.164   2.959   1.320  0.9934 -1.5363 -0.1583
 3314SOL    HW215779   2.198   2.953   1.173  0.1813  0.4692 -0.4597
 3315SOL     OW15780   3.898   8.362   2.142  0.3175  0.2936 -0.1403
 3315SOL    HW115781   3.965   8.421   2.177 -0.7064  0.6342  1.3361
 3315SOL    HW215782   3.818   8.414   2.142 -0.8738 -1.3834  2.2857
 3316SOL     OW15783   3.308   8.267  10.457  0.6002 -0.8288  0.9386
 3316SOL    HW115784   3.394   8.289  10.422 -1.1394  1.8646 -2.1757
 3316SOL    HW215785   3.256   8.243  10.380 -2.2925  0.8212  2.2151
 3317SOL     OW15786   9.512   3.664   5.448 -0.1070 -0.4240 -0.2858
 3317SOL    HW115787   9.514   3.622   5.362 -1.6315  0.5484 -0.8358
 3317SOL    HW215788   9.433   3.630   5.490  0.8521 -1.2435  0.9697
 3318SOL     OW15789   6.469   2.210   4.594  0.5462 -0.3919 -0.7472
 3318SOL    HW115790   6.405   2.268   4.554  0.6543  0.2391 -0.0235
 3318SOL    HW215791   6.431   2.122   4.586 -0.3052 -0.0518 -0.5344
 3319SOL     OW15792   5.345   9.856   0.773  0.0376  0.1267  0.0205
 3319SOL    HW115793   5.373   9.894   0.689 -1.3857  1.8235  0.2455
 3319SOL    HW215794   5.265   9.904   0.795  1.1771  0.8275  3.0950
 3320SOL     OW15795   1.530   9.783   0.600  0.0089 -0.1854 -0.1472
 3320SOL    HW115796   1.528   9.765   0.694  0.7166  1.0869  0.1397
 3320SOL    HW215797   1.622   9.801   0.580 -0.4742  2.3708 -0.4597
 3321SOL     OW15798   0.596   8.531   4.303 -0.7663  0.6626 -0.2699
 3321SOL    HW115799   0.536   8.578   4.360 -0.1727  2.2724 -0.8948
 3321SOL    HW215800   0.652   8.600   4.265 -0.4134 -0.4550 -1.9068
 3322SOL     OW15801   5.737   3.272   6.519 -0.0279 -0.0329  0.0164
 3322SOL    HW115802   5.655   3.321   6.519  0.4861  0.8468  0.7787
 3322SOL    HW215803   5.804   3.337   6.498  0.5922 -0.5368  0.3910
 3323SOL     OW15804   6.124   9.424  10.034  0.3215  0.5061 -0.2383
 3323SOL    HW115805   6.146   9.333  10.013 -1.4505 -0.6372  2.3099
 3323SOL    HW215806   6.207   9.472  10.025  1.6929 -1.6878  0.0125
 3324SOL     OW15807   9.721   1.141   2.454 -0.2614  0.6274 -0.6025
 3324SOL    HW115808   9.771   1.182   2.384 -0.5156  0.8763 -0.6400
 3324SOL    HW215809   9.777   1.149   2.531 -0.1825  0.7790 -0.6749
 3325SOL     OW15810  10.521   7.549   0.616  0.7347  0.3005 -0.2497
 3325SOL    HW115811  10.579   7.531   0.542  0.4348  0.5331 -0.5466
 3325SOL    HW215812  10.482   7.464   0.637  1.5821  0.0375  0.3015
 3326SOL     OW15813   7.790   2.030   4.000  0.2203 -0.2788  0.9857
 3326SOL    HW115814   7.790   1.959   3.937  0.3726 -0.6924  1.4466
 3326SOL    HW215815   7.883   2.053   4.010  0.1972 -0.2221  1.0669
 3327SOL     OW15816   2.234   2.504   1.567 -0.0242 -0.7595  0.0482
 3327SOL    HW115817   2.205   2.435   1.508  0.2437 -0.9030  0.0824
 3327SOL    HW215818   2.177   2.496   1.644  0.8859 -1.8207  0.6340
 3328SOL     OW15819   2.759   3.395   6.822  0.1807 -0.3352  0.5988
 3328SOL    HW115820   2.724   3.316   6.862 -0.6013 -0.8496 -1.0178
 3328SOL    HW215821   2.687   3.458   6.827  0.7735  0.2863  1.8118
 3329SOL     OW15822   3.077   7.923   1.704  0.2161 -0.1600  0.5755
 3329SOL    HW115823   3.100   7.876   1.785 -0.5941  0.0623  0.9451
 3329SOL    HW215824   3.020   7.862   1.657  0.7334 -0.3102  0.1405
 3330SOL     OW15825   0.325   8.860   8.762  0.4943 -0.8290  0.1790
 3330SOL    HW115826   0.264   8.927   8.730  1.9130  0.4996  0.0816
 3330SOL    HW215827   0.374   8.835   8.684  3.3467  1.7471  0.9313
 3331SOL     OW15828   9.615   3.596   3.033 -0.0438 -0.0809 -0.4926
 3331SOL    HW115829   9.580   3.650   2.962 -2.0974 -0.1875  0.3633
 3331SOL    HW215830   9.539   3.548   3.067  0.3957  1.3386  2.9498
 3332SOL     OW15831   7.762   4.108   3.492 -0.2223 -0.1378 -0.6803
 3332SOL    HW115832   7.793   4.159   3.417  2.8560 -1.7436 -0.6602
 3332SOL    HW215833   7.745   4.021   3.456  0.6290 -0.7465  0.3487
 3333SOL     OW15834   7.840   4.181   8.813  0.2954  0.2332  0.0332
 3333SOL    HW115835   7.840   4.087   8.831 -0.7083 -0.1997 -1.9406
 3333SOL    HW215836   7.770   4.216   8.869 -0.6393 -0.5333 -0.6185
 3334SOL     OW15837   9.852   5.058  10.345 -0.0030  0.5656  0.2222
 3334SOL    HW115838   9.914   5.116  10.300  0.9066 -0.5032  0.0629
 3334SOL    HW215839   9.791   5.118  10.387  0.9512  1.6573  0.1276
 3335SOL     OW15840   6.778  10.160   0.172  0.2286  0.1543  0.5126
 3335SOL    HW115841   6.816  10.098   0.234  1.4819  1.0910  0.7205
 3335SOL    HW215842   6.843  10.167   0.102 -1.2761 -1.0942 -1.1014
 3336SOL     OW15843   0.539   9.006   7.920 -0.5806 -0.2681  0.1208
 3336SOL    HW115844   0.548   9.015   7.825  0.0991 -0.3553  0.1726
 3336SOL    HW215845   0.550   8.913   7.937 -1.7194 -0.4020  0.1901
 3337SOL     OW15846   4.827   4.988   8.825  0.0391  0.0577  0.4479
 3337SOL    HW115847   4.741   4.950   8.846 -0.5198  0.1004 -1.5704
 3337SOL    HW215848   4.881   4.913   8.801 -0.4235  0.2743 -1.4135
 3338SOL     OW15849   8.469   8.030   3.818 -0.3569  0.0388 -0.8573
 3338SOL    HW115850   8.408   8.008   3.748 -0.5048  0.6692 -0.9338
 3338SOL    HW215851   8.552   7.990   3.792 -1.0970 -2.2346  0.0353
 3339SOL     OW15852   7.521   0.766   6.991  0.2785  0.8825  0.2266
 3339SOL    HW115853   7.615   0.767   7.012  0.4984  1.4316 -0.7107
 3339SOL    HW215854   7.518   0.752   6.896 -0.6236  0.0201  0.3648
 3340SOL     OW15855   2.023   7.462   0.201 -0.1344 -0.1471  0.5013
 3340SOL    HW115856   2.086   7.498   0.139  0.5656  0.0547  1.3118
 3340SOL    HW215857   1.949   7.522   0.197  0.3506  0.4752  0.6436
 3341SOL     OW15858   7.933   8.843   3.532 -0.5148  0.6781  0.2866
 3341SOL    HW115859   8.017   8.885   3.516  0.3238 -0.6454  1.1000
 3341SOL    HW215860   7.882   8.860   3.453  1.6581 -1.2635 -1.6659
 3342SOL     OW15861   4.205   0.917   7.595 -0.0464  0.3187  0.4452
 3342SOL    HW115862   4.132   0.897   7.653 -0.6340 -0.7450 -0.6239
 3342SOL    HW215863   4.164   0.941   7.512  0.8084  0.3888  0.0284
 3343SOL     OW15864   1.736   9.155   8.949  0.1810  0.2375  0.0406
 3343SOL    HW115865   1.736   9.171   9.044  0.5921  1.3621 -0.1361
 3343SOL    HW215866   1.758   9.240   8.911 -0.1304 -0.1732 -1.0740
 3344SOL     OW15867   7.307   2.916   2.117  0.3342  0.4483 -0.1410
 3344SOL    HW115868   7.327   3.006   2.141 -0.2778  0.7420 -0.7083
 3344SOL    HW215869   7.375   2.864   2.160  0.0250  1.0661  1.1339
 3345SOL     OW15870   3.611   0.557   4.257 -0.1126 -0.8052 -0.2309
 3345SOL    HW115871   3.695   0.594   4.284 -0.4911  0.7416 -1.0561
 3345SOL    HW215872   3.548   0.592   4.320 -0.6340  0.9081 -1.6171
 3346SOL     OW15873   6.988   2.557   5.055  0.0500 -0.1445  0.0073
 3346SOL    HW115874   6.971   2.616   4.982  0.1979 -0.1446 -0.0275
 3346SOL    HW215875   7.082   2.541   5.052 -0.0941 -0.9374 -0.4129
 3347SOL     OW15876  10.099   0.632   6.729  0.1791  0.0548 -0.1317
 3347SOL    HW115877  10.041   0.622   6.804 -0.7693  2.3891 -0.4942
 3347SOL    HW215878  10.158   0.556   6.734 -1.2969 -1.0437  1.6467
 3348SOL     OW15879   8.735   1.372   7.385 -0.1350  0.0177  0.7799
 3348SOL    HW115880   8.758   1.362   7.292 -0.3783 -0.3605  0.7554
 3348SOL    HW215881   8.811   1.414   7.425 -0.1115  0.3727  0.3665
 3349SOL     OW15882   5.561   8.848   8.514  0.0326 -0.1535  0.4393
 3349SOL    HW115883   5.557   8.786   8.588 -0.7914 -0.1859  0.3834
 3349SOL    HW215884   5.471   8.849   8.480  0.2693  0.3311 -0.1778
 3350SOL     OW15885   0.766   9.553   6.728 -0.3320  0.1105 -0.1247
 3350SOL    HW115886   0.845   9.507   6.701 -1.7944 -1.2575 -2.5055
 3350SOL    HW215887   0.699   9.485   6.734 -1.6715  1.3978  0.3025
 3351SOL     OW15888   7.387   8.228   6.999  0.7937  0.1178 -0.0430
 3351SOL    HW115889   7.470   8.239   7.047  0.4463  1.4597  0.2975
 3351SOL    HW215890   7.323   8.207   7.067  0.4454  1.2819  0.0140
 3352SOL     OW15891   7.657   9.552   9.094  0.1452 -0.3098 -0.4309
 3352SOL    HW115892   7.616   9.503   9.023  0.4261 -1.5942  0.2776
 3352SOL    HW215893   7.691   9.486   9.154  0.5296  0.7440  0.5651
 3353SOL     OW15894   5.350   1.290   3.039  0.0124 -0.0234  0.0149
 3353SOL    HW115895   5.394   1.361   2.992 -0.1000 -0.2434 -0.4293
 3353SOL    HW215896   5.258   1.316   3.040  0.4193  1.7330  3.2193
 3354SOL     OW15897   7.643   3.589   5.714  0.8709  0.0417 -0.5008
 3354SOL    HW115898   7.711   3.631   5.767  1.0873  0.4020 -1.0542
 3354SOL    HW215899   7.585   3.547   5.777  1.9958 -0.8661 -0.0414
 3355SOL     OW15900   8.257   0.918   6.509 -0.0050  0.3254  0.0667
 3355SOL    HW115901   8.248   0.991   6.569 -0.6766  0.0456  0.3120
 3355SOL    HW215902   8.343   0.880   6.530 -0.4738 -0.1156  1.2489
 3356SOL     OW15903   0.626   0.087   4.688 -0.0785 -0.5857 -0.8073
 3356SOL    HW115904   0.589   0.170   4.720  1.3304 -0.8308  1.8152
 3356SOL    HW215905   0.552   0.040   4.651 -1.4420  0.8047  0.0248
 3357SOL     OW15906   3.953   9.137   0.284 -0.1102 -0.0696 -0.0624
 3357SOL    HW115907   3.916   9.208   0.231 -1.7910 -1.1922 -0.4759
 3357SOL    HW215908   4.039   9.121   0.245 -0.2627  0.8192 -0.8211
 3358SOL     OW15909   1.539   5.746   3.248  0.1561 -0.3109  0.1017
 3358SOL    HW115910   1.538   5.650   3.248  0.0689 -0.3328  1.4647
 3358SOL    HW215911   1.505   5.770   3.162 -1.0292 -1.5102  0.1850
 3359SOL     OW15912   4.348   0.079   5.343  0.3703 -0.2273  0.5955
 3359SOL    HW115913   4.260   0.041   5.340  0.1291  0.2442  1.3740
 3359SOL    HW215914   4.377   0.064   5.433  0.7701  0.3180  0.5612
 3360SOL     OW15915   9.940   4.887   9.681  0.4829  0.2810  0.7192
 3360SOL    HW115916   9.962   4.837   9.602  0.5107  1.7412 -0.2287
 3360SOL    HW215917   9.846   4.874   9.692  0.3665  0.5731  0.0857
 3361SOL     OW15918   5.709   1.101   3.798  0.1801  0.0178  0.0963
 3361SOL    HW115919   5.766   1.177   3.784 -0.5673  0.5799  0.0307
 3361SOL    HW215920   5.625   1.128   3.762  0.1147 -1.1549 -0.6479
 3362SOL     OW15921   5.000   3.363   6.726  0.0405  1.1974 -0.1977
 3362SOL    HW115922   4.954   3.353   6.642  1.8465 -2.8021 -0.9894
 3362SOL    HW215923   5.067   3.428   6.709  1.1453 -0.3742 -2.4066
 3363SOL     OW15924   6.938   0.314   2.192  0.2425  0.2280 -0.3338
 3363SOL    HW115925   6.917   0.311   2.285 -0.4579 -2.3353 -0.5117
 3363SOL    HW215926   7.030   0.287   2.187 -0.1894 -1.2831 -0.4716
 3364SOL     OW15927   7.625   2.996   6.826  0.1524 -0.3050 -0.1063
 3364SOL    HW115928   7.671   3.068   6.870 -2.6570  2.8990 -1.9542
 3364SOL    HW215929   7.684   2.970   6.755  0.4986  1.4850 -0.5187
 3365SOL     OW15930   1.899   4.375   3.813 -0.1682 -0.1041 -0.3260
 3365SOL    HW115931   1.977   4.341   3.770  0.4813 -0.0812  0.7849
 3365SOL    HW215932   1.933   4.427   3.886 -1.1665  1.5403 -0.9674
 3366SOL     OW15933   3.777  10.446   0.962 -0.4445  0.1264 -0.3122
 3366SOL    HW115934   3.855  10.424   0.910  0.0262  1.5536 -0.2351
 3366SOL    HW215935   3.747  10.529   0.926 -0.1002  1.1623  1.6972
 3367SOL     OW15936   2.171   4.612   4.231  0.4847 -0.6420 -0.3711
 3367SOL    HW115937   2.249   4.649   4.190  0.2629  1.6313  1.1023
 3367SOL    HW215938   2.104   4.679   4.222  0.2857 -0.1905  3.1281
 3368SOL     OW15939   7.186   3.096   8.513  0.4455  0.2085 -0.7887
 3368SOL    HW115940   7.232   3.083   8.596  0.2687  0.6298 -0.6283
 3368SOL    HW215941   7.253   3.077   8.447 -0.1397 -3.1467 -0.6282
 3369SOL     OW15942   9.318   0.963   1.517  0.1573  0.1665 -0.2264
 3369SOL    HW115943   9.291   1.045   1.558  0.8715  0.7570 -0.9072
 3369SOL    HW215944   9.407   0.948   1.549  0.6781  0.5699 -1.4000
 3370SOL     OW15945   2.188   5.660   9.495  0.2255  0.5328  0.5619
 3370SOL    HW115946   2.281   5.640   9.504 -0.1484 -1.3079  0.7299
 3370SOL    HW215947   2.180   5.701   9.408  1.2240  1.0912  0.7173
 3371SOL     OW15948   4.342   7.409   0.624 -0.1275  0.7361  0.3193
 3371SOL    HW115949   4.262   7.356   0.622  0.7189 -0.5566 -0.2087
 3371SOL    HW215950   4.367   7.413   0.716  0.3184 -0.6040  0.2726
 3372SOL     OW15951   0.270   4.523   9.773 -0.1239  0.0134 -0.7816
 3372SOL    HW115952   0.181   4.553   9.790  0.8634  2.5098  0.6382
 3372SOL    HW215953   0.287   4.459   9.842 -1.2482 -1.6073 -1.9536
 3373SOL     OW15954   4.866   3.976   2.289 -0.2338  0.2227  0.5967
 3373SOL    HW115955   4.812   4.013   2.359  1.2446 -0.5246  2.2068
 3373SOL    HW215956   4.930   4.043   2.270 -1.0717  0.7132 -0.6060
 3374SOL     OW15957   2.146   3.879  10.590  0.1209 -0.2225  0.0643
 3374SOL    HW115958   2.114   3.962  10.555  3.1303  1.4912  1.0406
 3374SOL    HW215959   2.187   3.835  10.516 -0.8717 -0.5510 -0.3042
 3375SOL     OW15960  10.169   0.693   7.646  0.2502  0.4789  1.0766
 3375SOL    HW115961  10.176   0.736   7.561  0.7914  0.4072  1.0761
 3375SOL    HW215962  10.105   0.744   7.694  0.5213  0.9922  0.9027
 3376SOL     OW15963   8.895   8.350   0.738  0.0746 -0.0884 -0.1011
 3376SOL    HW115964   8.941   8.319   0.816  1.9735  2.2677 -0.1603
 3376SOL    HW215965   8.896   8.445   0.746 -1.3896  0.1553 -2.0872
 3377SOL     OW15966   5.677   9.703   9.178 -0.3857  0.1228 -0.0061
 3377SOL    HW115967   5.690   9.749   9.095  1.8977  0.9520  0.7229
 3377SOL    HW215968   5.635   9.621   9.154  0.4661  0.2233 -2.0365
 3378SOL     OW15969   8.683   2.007   2.115  0.0337  0.5901 -0.5223
 3378SOL    HW115970   8.753   1.942   2.117 -0.2233  0.3264  0.2755
 3378SOL    HW215971   8.609   1.964   2.158  0.9634  2.6364  3.5287
 3379SOL     OW15972   1.504   2.696   5.868 -0.3037 -0.4472  0.9284
 3379SOL    HW115973   1.548   2.738   5.941  1.1396  0.6857 -0.5020
 3379SOL    HW215974   1.432   2.755   5.846  0.8529  0.6154 -0.1689
 3380SOL     OW15975   7.075   9.842   4.611  0.0483  0.6309 -0.1386
 3380SOL    HW115976   7.026   9.888   4.543 -0.4519  1.3724  0.7021
 3380SOL    HW215977   7.151   9.805   4.565  0.1251  1.7484 -0.9599
 3381SOL     OW15978   3.471  10.420  10.189 -0.1084 -0.2495  0.2402
 3381SOL    HW115979   3.380  10.398  10.207 -0.1277 -1.0138 -0.6991
 3381SOL    HW215980   3.467  10.503  10.141 -0.3070 -0.2159  0.3146
 3382SOL     OW15981   5.159   9.290  10.136 -0.4747  0.1272  0.1629
 3382SOL    HW115982   5.143   9.307  10.228 -1.1612  1.0336 -0.1111
 3382SOL    HW215983   5.109   9.357  10.090  1.4994  0.9830 -0.8291
 3383SOL     OW15984   6.114   5.786   5.735 -0.0887  0.2213  0.9224
 3383SOL    HW115985   6.193   5.798   5.682 -1.2161 -2.0078 -1.5013
 3383SOL    HW215986   6.058   5.860   5.711 -1.2143 -1.4932 -2.5409
 3384SOL     OW15987   0.046   7.576   7.827  0.4587 -0.3819  0.4235
 3384SOL    HW115988   0.103   7.635   7.876  0.6897  0.8430 -1.2114
 3384SOL    HW215989   0.024   7.506   7.888  4.0910 -1.2000  1.0168
 3385SOL     OW15990   2.825   5.420   8.583 -0.3202 -0.1937  0.1045
 3385SOL    HW115991   2.758   5.408   8.515  0.6989 -1.0574 -0.8058
 3385SOL    HW215992   2.866   5.333   8.591 -0.2437 -0.0341  1.6552
 3386SOL     OW15993   7.340   1.045   9.448 -0.2324  0.4162  0.3147
 3386SOL    HW115994   7.432   1.037   9.421  0.4673 -0.3897  2.6740
 3386SOL    HW215995   7.292   0.989   9.388  0.9265  0.2820 -0.5059
 3387SOL     OW15996   5.287   1.361   5.956 -0.2420  0.0502 -0.5099
 3387SOL    HW115997   5.229   1.353   6.031  0.3982 -2.4844 -0.1786
 3387SOL    HW215998   5.374   1.340   5.990  0.4663  1.1945 -1.5093
 3388SOL     OW15999  10.303   1.444   7.886 -0.4821  0.1949  0.1665
 3388SOL    HW116000  10.324   1.537   7.874 -0.9455  0.3389  0.4259
 3388SOL    HW216001  10.319   1.405   7.800 -1.2215  0.7074 -0.2180
 3389SOL     OW16002  10.398   2.520   5.233 -0.3718  0.1126 -0.4967
 3389SOL    HW116003  10.463   2.452   5.251 -0.7438  0.0589  0.6861
 3389SOL    HW216004  10.378   2.510   5.140  1.2874  0.1037 -0.8873
 3390SOL     OW16005   6.766   9.119   6.974 -0.6671 -0.1271  0.0608
 3390SOL    HW116006   6.720   9.188   6.926  1.4762  1.6984  0.4752
 3390SOL    HW216007   6.726   9.119   7.061 -1.0133  0.2196 -0.0941
 3391SOL     OW16008   4.822  10.091   1.807 -0.0750 -0.0809 -0.1567
 3391SOL    HW116009   4.801  10.167   1.861 -0.3898  0.6107 -1.2288
 3391SOL    HW216010   4.905  10.113   1.765 -0.2556 -0.2445 -0.6086
 3392SOL     OW16011   8.037   2.827   1.873  0.1067 -0.0638  0.7286
 3392SOL    HW116012   7.994   2.862   1.795 -0.2122 -0.8315  0.5529
 3392SOL    HW216013   7.989   2.865   1.946  0.7304  1.0702  0.5721
 3393SOL     OW16014   5.308   9.746   6.490  0.2425 -0.4679  0.1532
 3393SOL    HW116015   5.313   9.699   6.574  2.2905 -1.8110 -0.6454
 3393SOL    HW216016   5.215   9.747   6.469 -0.0141 -3.2646  0.7757
 3394SOL     OW16017   5.748   9.273  10.326 -0.5087  0.2423  0.2404
 3394SOL    HW116018   5.802   9.203  10.363 -1.0158  0.1377  0.7862
 3394SOL    HW216019   5.748   9.342  10.392  1.2453  1.4352 -0.9179
 3395SOL     OW16020   4.918   6.541   4.338 -0.0291  0.8441  0.0616
 3395SOL    HW116021   4.873   6.574   4.261 -1.0868  1.5423  0.9440
 3395SOL    HW216022   4.937   6.450   4.318 -0.0087  1.1002 -1.1319
 3396SOL     OW16023   5.195   8.219   2.811  0.5544 -0.4605 -0.3861
 3396SOL    HW116024   5.147   8.302   2.815 -0.1044 -0.7371 -1.8065
 3396SOL    HW216025   5.284   8.242   2.834  0.3993  0.6800 -0.8369
 3397SOL     OW16026   8.416   5.493   2.074  0.8066 -0.3980 -0.7470
 3397SOL    HW116027   8.323   5.515   2.064  0.9874 -0.2428 -2.4952
 3397SOL    HW216028   8.424   5.461   2.164 -0.6076  1.1642 -0.0051
 3398SOL     OW16029   5.968   9.999   2.077 -0.1280 -0.7659  0.4983
 3398SOL    HW116030   5.997   9.967   2.162  1.3755 -2.5701 -0.6166
 3398SOL    HW216031   5.919   9.927   2.039 -0.6358 -0.0529 -0.2386
 3399SOL     OW16032   3.407   1.128   7.218  0.4607  0.3256  0.0296
 3399SOL    HW116033   3.489   1.146   7.171  0.1968  0.9717 -0.2022
 3399SOL    HW216034   3.386   1.038   7.197 -0.0460  0.8130 -1.7216
 3400SOL     OW16035  10.035   0.378   3.108 -0.0361 -0.0117  0.7290
 3400SOL    HW116036   9.958   0.322   3.105 -0.5792  0.6988  1.0979
 3400SOL    HW216037  10.086   0.353   3.031 -0.6013 -0.5240  0.5148
 3401SOL     OW16038   3.604  10.423   8.145 -0.0630 -0.4376  0.0904
 3401SOL    HW116039   3.674  10.476   8.183 -0.0545 -0.6920  0.4362
 3401SOL    HW216040   3.539  10.415   8.215 -0.9781  0.7511 -0.5923
 3402SOL     OW16041   3.361   9.650   7.234 -0.0024  0.7823 -0.0864
 3402SOL    HW116042   3.270   9.647   7.264 -0.1559  1.0912 -0.5065
 3402SOL    HW216043   3.358   9.701   7.153  0.5854  1.0285  0.0374
 3403SOL     OW16044   3.571   1.596   3.178 -0.3791 -0.4886  0.7726
 3403SOL    HW116045   3.558   1.538   3.102  1.3266 -0.6393  0.5520
 3403SOL    HW216046   3.595   1.680   3.140  0.0952 -0.4569  1.1346
 3404SOL     OW16047   0.082   9.521   2.481  0.9323  0.3889  0.2070
 3404SOL    HW116048   0.080   9.563   2.567 -0.0611 -0.0364  0.4071
 3404SOL    HW216049   0.063   9.429   2.499 -0.9125  0.5737 -0.6204
 3405SOL     OW16050   1.409   3.201   6.270 -0.2653  0.2861  0.2340
 3405SOL    HW116051   1.324   3.167   6.297  0.3044 -1.1821  0.2815
 3405SOL    HW216052   1.446   3.133   6.214  1.1328  0.6148  0.7038
 3406SOL     OW16053   4.104   0.176   4.360 -0.0456 -0.2467  0.3635
 3406SOL    HW116054   4.090   0.094   4.406  1.9761  0.5801  2.6334
 3406SOL    HW216055   4.184   0.162   4.309 -0.7186 -0.2292 -0.7460
 3407SOL     OW16056   2.055   5.793   3.627 -0.1503 -0.2300 -0.1367
 3407SOL    HW116057   1.970   5.826   3.654  0.4704  0.3954  1.1545
 3407SOL    HW216058   2.113   5.870   3.634  0.8693 -1.0518  0.7609
 3408SOL     OW16059   4.678   8.196   0.825  0.4886 -0.0693  0.2015
 3408SOL    HW116060   4.587   8.214   0.850  1.0055  1.3245  1.1847
 3408SOL    HW216061   4.709   8.134   0.892  0.6538  0.4807  0.6358
 3409SOL     OW16062   5.498   5.313   9.480 -0.2578  0.6486 -0.4270
 3409SOL    HW116063   5.443   5.289   9.555  0.4881 -0.9329 -0.3478
 3409SOL    HW216064   5.436   5.339   9.412 -1.0374  0.2703  0.1209
 3410SOL     OW16065   2.104   5.246   1.303 -0.0020 -0.3040 -0.4332
 3410SOL    HW116066   2.020   5.271   1.340  0.1614  0.8995 -0.8424
 3410SOL    HW216067   2.118   5.157   1.334 -1.7347 -0.7740 -0.9132
 3411SOL     OW16068   1.270   7.745   4.000 -0.0510 -0.0148  0.4490
 3411SOL    HW116069   1.360   7.713   4.011 -0.0435 -0.1036  0.1274
 3411SOL    HW216070   1.220   7.699   4.067 -0.1857 -1.2622 -0.4765
 3412SOL     OW16071  10.055  10.587   8.446  0.0865 -0.4022 -0.3164
 3412SOL    HW116072  10.107  10.667   8.451 -0.5673  0.0646 -0.9402
 3412SOL    HW216073  10.031  10.580   8.354 -0.0910 -1.1747 -0.2147
 3413SOL     OW16074   0.650   5.722   3.065  0.2529 -0.5353  0.0696
 3413SOL    HW116075   0.581   5.720   2.998  0.1921 -3.0048  0.1365
 3413SOL    HW216076   0.616   5.781   3.132  0.2884  1.9879 -1.9554
 3414SOL     OW16077   8.285   3.793   2.082  0.1746 -0.1774  0.4863
 3414SOL    HW116078   8.349   3.732   2.119 -0.7471 -3.3698 -2.5334
 3414SOL    HW216079   8.333   3.839   2.013 -0.1214 -0.6610 -0.0518
 3415SOL     OW16080   7.556   6.923   8.386 -0.1686 -0.0885  0.4026
 3415SOL    HW116081   7.474   6.920   8.337  0.5380 -0.6135 -0.7870
 3415SOL    HW216082   7.554   7.007   8.431 -0.3321  0.9715 -1.4883
 3416SOL     OW16083   0.380   4.278   1.801 -0.4742  0.4104  0.3045
 3416SOL    HW116084   0.450   4.318   1.854  0.4298  0.9913 -1.2537
 3416SOL    HW216085   0.412   4.284   1.711 -2.3117  0.1800 -0.4042
 3417SOL     OW16086   5.469   0.980   5.288 -0.1399  0.3447 -0.2634
 3417SOL    HW116087   5.546   1.018   5.246  0.5083 -0.6881 -0.0357
 3417SOL    HW216088   5.481   0.997   5.381 -0.6414  0.9615 -0.3011
 3418SOL     OW16089  10.685   5.184   6.749 -0.1173 -0.4071 -0.3969
 3418SOL    HW116090  10.756   5.130   6.784  1.6114  2.2560  0.4816
 3418SOL    HW216091  10.714   5.208   6.661 -0.9278 -0.9157 -0.8222
 3419SOL     OW16092   4.188   9.051   7.294 -0.7143  0.6457  0.1569
 3419SOL    HW116093   4.093   9.038   7.290 -0.4858 -1.4881  0.6160
 3419SOL    HW216094   4.214   9.017   7.379  0.6842 -0.4827 -0.6733
 3420SOL     OW16095   7.158   6.147   7.779 -0.0304  0.3243  0.0624
 3420SOL    HW116096   7.161   6.206   7.854 -1.1452 -0.0292  0.4087
 3420SOL    HW216097   7.192   6.064   7.812  0.9320  0.5753 -0.2544
 3421SOL     OW16098   4.229   5.661   9.434  0.5213  0.3590  0.1222
 3421SOL    HW116099   4.146   5.630   9.470  1.2807 -0.6869  1.0612
 3421SOL    HW216100   4.222   5.756   9.437 -0.1009  0.2997  1.5364
 3422SOL     OW16101   3.499   3.730   1.788 -0.6532  0.1338  0.6172
 3422SOL    HW116102   3.530   3.783   1.862  0.5689 -0.6597  0.6944
 3422SOL    HW216103   3.566   3.742   1.720 -1.2124 -0.0145  0.0292
 3423SOL     OW16104   2.821   8.093  10.218 -0.4596 -0.0510 -0.3523
 3423SOL    HW116105   2.763   8.029  10.260 -0.5182 -1.9440 -3.0578
 3423SOL    HW216106   2.772   8.175  10.221 -1.4173 -0.6249  1.1513
 3424SOL     OW16107   5.757   4.992   4.012 -0.5446  0.4881  0.2816
 3424SOL    HW116108   5.664   4.989   3.991 -0.4967 -0.1739  0.1457
 3424SOL    HW216109   5.768   4.929   4.083 -0.2808  0.9201  0.6325
 3425SOL     OW16110   3.437   3.401   4.824 -0.0383 -0.4073 -0.3048
 3425SOL    HW116111   3.489   3.322   4.809  0.0443 -0.0426 -2.2627
 3425SOL    HW216112   3.416   3.433   4.736 -0.3576  1.5657  0.4258
 3426SOL     OW16113   9.732   3.318   3.988  0.0171 -0.3244  0.0804
 3426SOL    HW116114   9.800   3.350   4.048  0.1446 -0.4394 -0.0016
 3426SOL    HW216115   9.665   3.386   3.990 -0.3444 -0.6909  0.9573
 3427SOL     OW16116   6.779   3.777   8.922 -1.0294 -0.2046 -0.1410
 3427SOL    HW116117   6.840   3.705   8.941 -1.8370 -0.5365  1.4577
 3427SOL    HW216118   6.758   3.813   9.008 -1.0750  1.6147 -0.8739
 3428SOL     OW16119   8.732  10.255   3.807  0.2237  0.5587  0.6002
 3428SOL    HW116120   8.782  10.263   3.888  0.7956 -0.7147  0.4049
 3428SOL    HW216121   8.643  10.234   3.836  0.2134  1.0463  0.9168
 3429SOL     OW16122  10.366   0.953   1.329  0.0628  0.7633 -0.2064
 3429SOL    HW116123  10.300   0.884   1.320 -0.0500  0.6884  1.0351
 3429SOL    HW216124  10.352   0.988   1.417  0.7875  1.6843 -0.4446
 3430SOL     OW16125   3.132   9.092  10.237  0.5726  0.5627  0.5058
 3430SOL    HW116126   3.171   9.017  10.282  0.0922 -0.2872 -0.4622
 3430SOL    HW216127   3.064   9.123  10.298  1.5454  0.9500  1.4166
 3431SOL     OW16128   8.237   3.634   6.193 -0.4611 -0.5100  0.3302
 3431SOL    HW116129   8.330   3.650   6.180 -0.9560  3.1878 -0.0097
 3431SOL    HW216130   8.215   3.685   6.271 -2.7591  2.0524 -1.7811
 3432SOL     OW16131   9.094  10.457   9.831  0.0001  0.2190 -0.2495
 3432SOL    HW116132   9.059  10.425   9.914 -0.2648 -0.7107 -0.7076
 3432SOL    HW216133   9.017  10.477   9.779  0.1616 -0.4948 -0.7613
 3433SOL     OW16134   3.385   7.891  10.720 -0.2333 -0.2065 -0.3695
 3433SOL    HW116135   3.336   7.809  10.718 -1.8083  0.6425  0.9122
 3433SOL    HW216136   3.345   7.944  10.651  0.2945 -0.2500 -0.7112
 3434SOL     OW16137   2.379  10.065   4.528  0.6893 -0.2392 -0.0836
 3434SOL    HW116138   2.418   9.997   4.584 -0.5491 -0.8684  0.0448
 3434SOL    HW216139   2.306  10.022   4.484 -1.1539  1.3778  1.2107
 3435SOL     OW16140   8.678   7.867   3.759 -0.6757  0.4591  0.5510
 3435SOL    HW116141   8.665   7.784   3.714 -1.7627 -0.1361  1.9025
 3435SOL    HW216142   8.708   7.927   3.691 -2.5543 -0.3071 -1.0259
 3436SOL     OW16143  10.022   2.290   6.696 -0.6294  0.8034 -0.4977
 3436SOL    HW116144  10.039   2.255   6.609  0.8319 -0.5501  0.2721
 3436SOL    HW216145   9.965   2.225   6.737  2.5975 -1.2763  1.1561
 3437SOL     OW16146   6.921  10.012   3.206 -0.3138 -0.1090 -0.2162
 3437SOL    HW116147   6.841  10.029   3.156 -0.3050 -0.7011 -0.4497
 3437SOL    HW216148   6.936   9.918   3.194 -0.4147 -0.2975  1.0527
 3438SOL     OW16149   8.728   8.640   1.941 -0.0270 -1.3317  0.5359
 3438SOL    HW116150   8.781   8.659   1.863 -1.8248  0.5170 -0.3393
 3438SOL    HW216151   8.677   8.563   1.917  1.3221 -2.3714  0.9205
 3439SOL     OW16152   3.775   1.821   7.529 -0.0183 -0.2513  0.2960
 3439SOL    HW116153   3.707   1.885   7.508  1.6076  0.7700 -2.3656
 3439SOL    HW216154   3.731   1.736   7.520 -0.6425  0.2993 -3.3135
 3440SOL     OW16155   7.514   2.001   1.490 -0.1459  0.5437  0.4751
 3440SOL    HW116156   7.425   2.027   1.468 -0.0644  1.3341  1.0005
 3440SOL    HW216157   7.505   1.932   1.555 -0.3750 -0.8728 -1.0077
 3441SOL     OW16158   2.487   2.828   4.255 -0.1484  0.3083  0.0005
 3441SOL    HW116159   2.477   2.744   4.300 -0.5345  0.1275 -0.4111
 3441SOL    HW216160   2.447   2.891   4.315  0.3229  0.2306  0.4025
 3442SOL     OW16161   5.625   3.771   5.188  0.0960 -0.3396  0.1987
 3442SOL    HW116162   5.592   3.860   5.181 -0.1956 -0.4432  0.1992
 3442SOL    HW216163   5.664   3.752   5.103  0.5364 -0.0676  0.3373
 3443SOL     OW16164   1.556  10.548   3.373  0.2802 -0.1930 -0.2748
 3443SOL    HW116165   1.514  10.490   3.436 -0.3944  0.7744  0.1791
 3443SOL    HW216166   1.646  10.515   3.367  0.6959  0.3409  2.0331
 3444SOL     OW16167   8.292   7.152   0.654 -0.0534  0.3178  0.0753
 3444SOL    HW116168   8.211   7.195   0.629 -0.0139  0.1677 -0.3180
 3444SOL    HW216169   8.268   7.059   0.663 -0.4645  0.5848  2.3151
 3445SOL     OW16170   6.077   9.853   9.081  0.3402 -0.4399 -0.3927
 3445SOL    HW116171   6.059   9.760   9.097 -0.8904  0.0459  1.4030
 3445SOL    HW216172   6.019   9.899   9.142  1.8024  1.4850 -0.3624
 3446SOL     OW16173   7.162   7.632   0.049  0.1230 -0.4727 -0.0201
 3446SOL    HW116174   7.249   7.595   0.062  0.7630  1.0284  0.0386
 3446SOL    HW216175   7.129   7.648   0.137  0.5002  0.5895 -0.0689
 3447SOL     OW16176   1.181   0.497   6.980 -0.1290  0.2288  0.1237
 3447SOL    HW116177   1.244   0.511   6.910  1.1524 -1.6357  0.8200
 3447SOL    HW216178   1.176   0.581   7.026 -0.4663  1.2645 -1.7213
 3448SOL     OW16179   3.219   6.228   4.961 -0.2461  0.0617 -0.1851
 3448SOL    HW116180   3.139   6.177   4.946 -0.5408  0.6091 -0.4877
 3448SOL    HW216181   3.193   6.295   5.024 -0.1039  0.4239 -0.5095
 3449SOL     OW16182   7.705   9.641  10.088  0.3743  0.3481 -0.0958
 3449SOL    HW116183   7.682   9.660   9.997  0.4001  0.3433 -0.1033
 3449SOL    HW216184   7.689   9.724  10.134  1.3064  0.6417 -0.2818
 3450SOL     OW16185   8.270   7.888   7.923  0.1794 -0.2322 -0.4450
 3450SOL    HW116186   8.277   7.837   7.842 -0.0910  0.2348 -0.7649
 3450SOL    HW216187   8.300   7.975   7.899 -0.0811 -0.0418 -0.0858
 3451SOL     OW16188   8.479   0.592   0.159  0.2008 -0.1657 -0.4233
 3451SOL    HW116189   8.405   0.653   0.149  1.7839  1.8302 -0.6246
 3451SOL    HW216190   8.545   0.642   0.207  2.5927 -0.7644 -2.7991
 3452SOL     OW16191   8.862   2.592   3.760 -0.1355 -1.0898 -0.2396
 3452SOL    HW116192   8.831   2.569   3.673 -0.2173 -0.0300 -0.5052
 3452SOL    HW216193   8.849   2.687   3.766  0.6387 -1.0221  0.6088
 3453SOL     OW16194   4.859   8.010   3.598  0.1549  0.3475  0.3744
 3453SOL    HW116195   4.793   7.995   3.530 -0.7580  1.9614  0.8763
 3453SOL    HW216196   4.941   7.982   3.557 -0.6302 -0.4140 -0.7390
 3454SOL     OW16197   1.637   0.254   3.305 -0.4729  0.1906 -0.2731
 3454SOL    HW116198   1.672   0.327   3.356 -0.1355 -0.5564  0.5851
 3454SOL    HW216199   1.680   0.262   3.220 -1.4183  1.7450 -0.6514
 3455SOL     OW16200   0.556   7.285   3.476 -0.0942  0.3810 -0.4112
 3455SOL    HW116201   0.603   7.355   3.430  0.9518 -0.1107 -0.1383
 3455SOL    HW216202   0.526   7.326   3.557  1.2715  0.3207  0.1522
 3456SOL     OW16203   6.625   0.890   1.376 -0.1370  0.4415 -0.5064
 3456SOL    HW116204   6.581   0.932   1.302  0.4094  0.9164 -0.5721
 3456SOL    HW216205   6.554   0.865   1.435 -0.4314  3.0324  0.3564
 3457SOL     OW16206   5.073   5.883   3.829 -0.2150 -0.3955 -0.5049
 3457SOL    HW116207   5.058   5.913   3.739 -0.7705 -2.1402 -1.0353
 3457SOL    HW216208   5.132   5.949   3.866  0.0069  0.3899 -2.1322
 3458SOL     OW16209   2.731   7.218   0.084  0.2758  0.0276  0.0403
 3458SOL    HW116210   2.811   7.169   0.066  2.1179  1.8513  2.5092
 3458SOL    HW216211   2.670   7.153   0.119  1.0403 -1.2246 -0.8728
 3459SOL     OW16212  10.109   2.902   1.838 -0.4072 -0.0473 -0.0707
 3459SOL    HW116213  10.092   2.818   1.882 -1.2979  1.0056  1.6797
 3459SOL    HW216214  10.055   2.897   1.759 -0.5081 -1.1039  0.0395
 3460SOL     OW16215   7.888   7.795   7.144 -0.1185 -0.8466  0.1645
 3460SOL    HW116216   7.973   7.807   7.186 -0.5256  1.4059  0.4607
 3460SOL    HW216217   7.824   7.820   7.210 -0.9297 -0.8396 -0.5983
 3461SOL     OW16218   8.802   3.481   5.601 -0.9337  0.6077 -0.4943
 3461SOL    HW116219   8.784   3.564   5.556 -1.4298  0.6808 -0.1719
 3461SOL    HW216220   8.805   3.504   5.694  0.7765  0.5737 -0.5183
 3462SOL     OW16221   9.471   0.144   7.650 -0.6934 -0.0504 -0.1200
 3462SOL    HW116222   9.458   0.126   7.557 -0.2108 -0.4761 -0.1101
 3462SOL    HW216223   9.414   0.218   7.669 -1.4586 -0.5249 -0.5529
 3463SOL     OW16224   6.036   0.584   3.250  0.3181 -0.8536 -0.6132
 3463SOL    HW116225   5.990   0.570   3.333  2.3815  0.4012  0.8387
 3463SOL    HW216226   5.984   0.536   3.186 -1.4446 -1.7698  1.3613
 3464SOL     OW16227   0.653   1.011   5.859  0.1645 -0.0216 -0.0824
 3464SOL    HW116228   0.569   0.969   5.875  0.4661 -0.4438  0.4272
 3464SOL    HW216229   0.634   1.080   5.795 -0.5334 -0.2191 -0.0925
 3465SOL     OW16230   3.715   1.622   7.833  0.4467 -0.3822  0.0576
 3465SOL    HW116231   3.770   1.694   7.863 -1.7324  1.6220 -0.5030
 3465SOL    HW216232   3.710   1.632   7.738 -0.5990 -0.7273  0.0606
 3466SOL     OW16233   6.541   5.250   9.974 -0.6841 -0.6457  0.1724
 3466SOL    HW116234   6.466   5.258  10.033 -1.1692  0.1468 -0.5424
 3466SOL    HW216235   6.531   5.163   9.935  0.3240 -1.7248  2.1406
 3467SOL     OW16236   7.851   4.350   9.903 -0.2293 -0.4291 -0.2067
 3467SOL    HW116237   7.885   4.435   9.875 -1.2450  0.2723  0.5969
 3467SOL    HW216238   7.769   4.340   9.854 -0.3160 -0.7582  0.0018
 3468SOL     OW16239   6.660   1.449   1.295  0.1033 -0.0067 -0.2635
 3468SOL    HW116240   6.607   1.528   1.289  1.5927  1.0211 -0.4232
 3468SOL    HW216241   6.596   1.378   1.303 -1.2778  1.1607 -0.4795
 3469SOL     OW16242   9.476   1.139   0.702 -0.6472 -0.1886 -0.0044
 3469SOL    HW116243   9.424   1.080   0.755 -1.1061  1.5259  1.5640
 3469SOL    HW216244   9.544   1.172   0.761  1.4069 -1.2815 -1.6217
 3470SOL     OW16245   2.880   1.034   8.715 -0.0651  0.2089  0.1108
 3470SOL    HW116246   2.933   1.108   8.746  1.4241 -1.6402  2.3145
 3470SOL    HW216247   2.914   1.015   8.628  0.9013  0.8836  0.3197
 3471SOL     OW16248   6.885   7.148   3.836  0.5167  0.6831 -0.5641
 3471SOL    HW116249   6.798   7.155   3.876  0.8846 -2.8658  1.2773
 3471SOL    HW216250   6.945   7.172   3.907  1.0763 -1.2820 -0.3230
 3472SOL     OW16251   0.795   3.072   0.259 -0.0431 -0.1384  0.1022
 3472SOL    HW116252   0.876   3.022   0.252  0.3840  0.5386  0.1445
 3472SOL    HW216253   0.810   3.150   0.207 -1.2170 -0.6838 -1.1182
 3473SOL     OW16254   8.270   4.619   9.515  0.0874 -0.0096 -0.0304
 3473SOL    HW116255   8.230   4.705   9.501  1.5186  0.7816  0.5214
 3473SOL    HW216256   8.197   4.561   9.535 -0.8886  1.1160 -0.2512
 3474SOL     OW16257   2.993  10.616   3.242 -0.4316  0.3488 -0.1011
 3474SOL    HW116258   3.077  10.595   3.201 -0.8669 -1.6307 -0.0789
 3474SOL    HW216259   3.004  10.589   3.333 -1.1579 -0.1541 -0.1551
 3475SOL     OW16260   0.707   2.848   9.020  0.1927 -0.0681 -0.0831
 3475SOL    HW116261   0.641   2.872   8.956  1.5546  2.3946 -0.6864
 3475SOL    HW216262   0.736   2.931   9.058  0.9455 -1.2810  2.2108
 3476SOL     OW16263   6.873   5.208   8.294 -0.6945  0.2802  0.0809
 3476SOL    HW116264   6.821   5.157   8.357  0.1023 -4.0355 -2.3789
 3476SOL    HW216265   6.959   5.216   8.335 -0.4797 -1.5742  0.0783
 3477SOL     OW16266   1.730   3.365   2.834 -0.0368 -0.4167 -0.4102
 3477SOL    HW116267   1.764   3.453   2.855 -0.8958  0.2800 -1.8005
 3477SOL    HW216268   1.800   3.324   2.783  0.1615 -0.3485 -0.1945
 3478SOL     OW16269   3.997   4.899   1.181 -0.3891  0.1526 -0.6707
 3478SOL    HW116270   3.963   4.938   1.262  0.4463  0.6005 -0.5199
 3478SOL    HW216271   4.009   4.973   1.122 -1.0404 -0.1816 -1.2306
 3479SOL     OW16272  10.511   3.356   1.975 -0.1841  0.9207 -0.4944
 3479SOL    HW116273  10.459   3.381   1.899  0.6330  0.5339 -1.1875
 3479SOL    HW216274  10.599   3.387   1.957  0.8054 -1.9777 -1.2421
 3480SOL     OW16275   0.984   4.072   5.236 -0.6064 -0.2406 -0.1443
 3480SOL    HW116276   0.995   3.995   5.291 -1.2613 -1.2472 -1.3832
 3480SOL    HW216277   1.065   4.121   5.246 -0.6928 -0.4071  1.6686
 3481SOL     OW16278   4.992   1.470   3.679 -0.0337 -0.0223  0.0711
 3481SOL    HW116279   4.905   1.429   3.682 -0.0137 -0.1616 -0.8776
 3481SOL    HW216280   5.039   1.421   3.611  1.0124 -0.3550  1.0016
 3482SOL     OW16281   0.933   0.534   6.877  0.0345 -0.0271  0.5288
 3482SOL    HW116282   0.947   0.507   6.787  0.4016  0.2661  0.4979
 3482SOL    HW216283   1.019   0.527   6.918  0.1922  1.2978  0.4652
 3483SOL     OW16284   1.067   4.625   6.827  0.3229  0.2220  0.6351
 3483SOL    HW116285   1.097   4.540   6.794 -1.3844 -1.1673  2.4465
 3483SOL    HW216286   1.096   4.627   6.918  0.1768  1.5254  0.6727
 3484SOL     OW16287   1.422   4.560   8.821  0.0167 -0.3480 -0.1596
 3484SOL    HW116288   1.481   4.490   8.793 -0.1996 -0.4387 -0.3892
 3484SOL    HW216289   1.348   4.515   8.860 -1.0283 -0.3449 -2.0150
 3485SOL     OW16290   9.427   2.197   9.863 -0.5555 -0.3002  0.1384
 3485SOL    HW116291   9.460   2.201   9.953  0.5272 -1.0530 -0.2016
 3485SOL    HW216292   9.372   2.275   9.854  0.4870  0.5586  0.9951
 3486SOL     OW16293  10.238   6.731   9.211 -0.4024  0.0842  0.3464
 3486SOL    HW116294  10.248   6.796   9.280 -0.8396  0.9569 -0.3939
 3486SOL    HW216295  10.325   6.724   9.172 -0.5512  0.9038 -0.1540
 3487SOL     OW16296   5.285   7.623   6.887 -0.1076  0.4875 -0.4403
 3487SOL    HW116297   5.275   7.602   6.980  3.4659 -1.7113 -0.3610
 3487SOL    HW216298   5.313   7.714   6.887  1.5661  0.0294  0.8607
 3488SOL     OW16299   3.770   1.384   4.691 -0.5141 -0.0289 -0.0323
 3488SOL    HW116300   3.748   1.350   4.778  0.6707 -0.2754  0.1787
 3488SOL    HW216301   3.698   1.445   4.671 -0.1651  1.0292  1.6833
 3489SOL     OW16302   3.050   9.954   4.898 -0.8155  0.0877  0.0012
 3489SOL    HW116303   3.038  10.041   4.861  1.1751  0.0052 -0.9812
 3489SOL    HW216304   2.962   9.926   4.923 -1.7082  1.7283 -1.1227
 3490SOL     OW16305   6.660   8.099   7.989  0.2756 -0.2086 -0.3939
 3490SOL    HW116306   6.729   8.094   8.055 -0.5729  0.7528  0.5948
 3490SOL    HW216307   6.649   8.009   7.958  0.0623 -0.8461  1.4405
 3491SOL     OW16308   5.240   8.820   7.056 -0.2749  0.1202 -0.1305
 3491SOL    HW116309   5.291   8.778   6.987 -0.1707 -1.2398  0.7328
 3491SOL    HW216310   5.149   8.812   7.027 -0.2422 -0.5656 -0.0654
 3492SOL     OW16311   6.097   9.167   4.033  0.6548 -0.6198 -0.2274
 3492SOL    HW116312   6.016   9.122   4.056 -0.8135  1.3468 -1.2120
 3492SOL    HW216313   6.069   9.253   4.002  3.1848  0.4196  0.0715
 3493SOL     OW16314   3.079   5.045   5.262  0.2561  0.2061 -0.0211
 3493SOL    HW116315   3.083   5.129   5.306 -0.5646 -0.1423  0.7367
 3493SOL    HW216316   3.076   4.980   5.332 -0.1878 -0.4033 -0.5801
 3494SOL     OW16317   1.135   1.877   2.087 -0.5150  0.1075  0.2241
 3494SOL    HW116318   1.115   1.836   2.171 -2.2022  2.5955  1.1536
 3494SOL    HW216319   1.227   1.903   2.095 -0.1313 -1.2670  0.5470
 3495SOL     OW16320   7.002   6.187   6.141  0.5860 -0.4637 -0.5305
 3495SOL    HW116321   7.094   6.166   6.155  0.9250  1.6593  0.7928
 3495SOL    HW216322   7.000   6.226   6.053  1.3872  1.5423  0.2929
 3496SOL     OW16323   7.837   7.846   9.671 -0.1023  0.3189  0.3351
 3496SOL    HW116324   7.884   7.823   9.752  0.3759  0.6591  0.1638
 3496SOL    HW216325   7.838   7.942   9.670 -1.0789  0.3381  0.4796
 3497SOL     OW16326   1.148   4.723  10.067  0.7900 -0.2210  0.1194
 3497SOL    HW116327   1.242   4.721  10.051  0.8797 -1.5877  0.6594
 3497SOL    HW216328   1.137   4.678  10.151 -0.4208 -0.9449 -0.3925
 3498SOL     OW16329   0.012   9.250   8.296  0.4591 -0.2275  0.6796
 3498SOL    HW116330  -0.063   9.309   8.305 -0.1454 -0.3101 -2.4575
 3498SOL    HW216331   0.022   9.239   8.201  3.1474 -1.9097  1.0495
 3499SOL     OW16332   9.992   6.089   7.792  0.1111  0.2480  0.6344
 3499SOL    HW116333   9.975   6.020   7.856 -0.5830  0.6107  0.8461
 3499SOL    HW216334   9.964   6.170   7.834 -0.1659  0.5162 -0.0430
 3500SOL     OW16335   3.407   7.231   0.963 -0.0774  0.6385 -0.2255
 3500SOL    HW116336   3.410   7.200   1.053 -0.3464 -1.5590 -0.9149
 3500SOL    HW216337   3.458   7.311   0.963 -0.4920  0.9537  1.9707
 3501SOL     OW16338   2.816   2.421   8.175  0.1623  0.4506  0.4604
 3501SOL    HW116339   2.869   2.376   8.241  1.5688 -1.5513 -1.8650
 3501SOL    HW216340   2.769   2.489   8.224  0.2155 -1.6290  3.6860
 3502SOL     OW16341   3.795   5.207  10.642 -0.1440  0.2791 -0.1159
 3502SOL    HW116342   3.883   5.216  10.606 -0.0281  0.7619  0.2897
 3502SOL    HW216343   3.741   5.185  10.566  0.6160 -1.9400 -0.0939
 3503SOL     OW16344  10.506   9.410   8.915  0.0416  0.0468  0.0304
 3503SOL    HW116345  10.584   9.364   8.947 -0.3189  0.0034  0.8774
 3503SOL    HW216346  10.436   9.383   8.974 -0.9121 -0.8604 -1.4403
 3504SOL     OW16347   0.030   7.637   7.553 -0.1656 -0.2731 -0.2916
 3504SOL    HW116348   0.046   7.641   7.648 -2.3347  1.1609  0.0789
 3504SOL    HW216349  -0.035   7.567   7.543 -0.7223  0.2849 -0.5886
 3505SOL     OW16350   6.261   3.002   0.233 -0.4652  0.3793 -0.0181
 3505SOL    HW116351   6.189   2.987   0.171  0.5754 -2.4037 -0.7393
 3505SOL    HW216352   6.231   2.961   0.314 -0.1737  0.2109  0.0078
 3506SOL     OW16353  10.708   0.830   6.298  0.4494 -0.1355 -0.4415
 3506SOL    HW116354  10.687   0.738   6.313  1.9719 -0.4101  0.2950
 3506SOL    HW216355  10.699   0.842   6.204  2.4504 -1.6993 -0.9011
 3507SOL     OW16356   1.635   4.513  10.460  0.2387  0.0825  0.0544
 3507SOL    HW116357   1.721   4.482  10.490  0.8682  1.3036 -0.4300
 3507SOL    HW216358   1.572   4.465  10.514  1.1485 -1.9912 -0.5975
 3508SOL     OW16359   7.495   6.863   0.123 -0.1232 -0.3648 -0.4068
 3508SOL    HW116360   7.564   6.817   0.171 -0.6779 -2.0202 -1.1347
 3508SOL    HW216361   7.415   6.839   0.169 -0.3840  0.2615 -0.5297
 3509SOL     OW16362  10.500  10.389   0.240 -0.1600 -0.1199 -0.2113
 3509SOL    HW116363  10.492  10.348   0.326 -0.6566  0.6231  0.1072
 3509SOL    HW216364  10.495  10.316   0.178 -2.4069 -0.4552  0.2733
 3510SOL     OW16365   4.971   9.691   3.490 -0.0184  0.0322 -0.2010
 3510SOL    HW116366   4.966   9.609   3.441  1.2731 -0.0246 -0.2775
 3510SOL    HW216367   4.992   9.665   3.579  0.6488  0.2688 -0.2765
 3511SOL     OW16368   2.918  10.643   1.022  0.1502 -0.4429  0.2020
 3511SOL    HW116369   2.902  10.619   1.113 -0.7549  0.9295  0.4448
 3511SOL    HW216370   2.983  10.713   1.026 -0.0291 -0.2484 -0.1890
 3512SOL     OW16371   7.241   4.981   2.471 -0.0882  0.3260  0.6300
 3512SOL    HW116372   7.206   5.039   2.539 -0.4582  0.2451  0.5127
 3512SOL    HW216373   7.300   4.922   2.517 -0.5450  0.0962  0.9312
 3513SOL     OW16374   1.561   1.835   0.435  0.3769 -0.1643  0.2157
 3513SOL    HW116375   1.627   1.862   0.499  0.0389 -1.4071  1.1209
 3513SOL    HW216376   1.612   1.791   0.367  0.3913 -3.4143  2.1196
 3514SOL     OW16377   7.024   4.937   4.499  0.7046 -0.3761  0.1058
 3514SOL    HW116378   7.027   4.879   4.575 -0.8795 -0.9409 -0.2296
 3514SOL    HW216379   7.058   4.883   4.427  0.9797 -0.2681  0.1536
 3515SOL     OW16380   1.759   3.985  10.000  0.5417  0.0933  0.3568
 3515SOL    HW116381   1.788   4.071  10.030 -0.8854  0.2433  1.4199
 3515SOL    HW216382   1.763   3.990   9.905  1.7136  0.8826  0.4361
 3516SOL     OW16383   4.868   5.871  10.208  0.0886  0.0183  0.2744
 3516SOL    HW116384   4.867   5.960  10.241  0.3735  0.4256 -0.7597
 3516SOL    HW216385   4.778   5.854  10.180 -0.1307 -0.2934  1.1546
 3517SOL     OW16386   4.906   8.651   1.349 -0.4307  0.3613  0.8086
 3517SOL    HW116387   4.917   8.680   1.258 -0.0334 -2.8402 -0.2980
 3517SOL    HW216388   4.931   8.727   1.401 -0.4778  2.2697 -1.7312
 3518SOL     OW16389   4.332   7.752   8.784 -0.1342 -0.7063  0.1442
 3518SOL    HW116390   4.305   7.841   8.761  0.2294 -0.0945  1.8961
 3518SOL    HW216391   4.284   7.733   8.865  0.1804 -1.9040  0.0632
 3519SOL     OW16392   2.877  10.292   4.250  0.0364  0.4993  0.1645
 3519SOL    HW116393   2.821  10.334   4.315 -1.0570  0.6559 -0.8609
 3519SOL    HW216394   2.943  10.359   4.230 -0.3147  0.8780  0.2521
 3520SOL     OW16395   4.289   8.863   8.068  0.0157 -0.4791  0.9121
 3520SOL    HW116396   4.337   8.787   8.037  0.0098 -0.6957  1.4185
 3520SOL    HW216397   4.313   8.933   8.008  1.9852 -0.2395  1.8906
 3521SOL     OW16398   0.059   1.228   7.431  0.1317  0.4943  0.4059
 3521SOL    HW116399  -0.007   1.290   7.462 -0.6977 -0.2583  0.1912
 3521SOL    HW216400   0.009   1.160   7.385  1.1971  0.8980 -1.4828
 3522SOL     OW16401   0.701   3.896   2.989  0.6121  0.1282 -0.3753
 3522SOL    HW116402   0.715   3.919   2.898  0.3955 -1.4745 -0.8593
 3522SOL    HW216403   0.662   3.808   2.986  1.7161 -0.4875  1.2778
 3523SOL     OW16404   7.119   1.628   8.042  0.0532 -0.8927  0.3907
 3523SOL    HW116405   7.178   1.611   7.969 -0.3289  1.1391 -0.4673
 3523SOL    HW216406   7.075   1.545   8.058 -0.5634 -1.1836 -2.3554
 3524SOL     OW16407   4.174   6.753   7.135  0.2300 -0.2132 -0.7740
 3524SOL    HW116408   4.220   6.740   7.218 -0.8217 -1.0954 -0.3144
 3524SOL    HW216409   4.168   6.849   7.126 -1.5633 -0.0686  1.2786
 3525SOL     OW16410   5.684   8.359   5.542 -0.1683 -0.2376 -0.7498
 3525SOL    HW116411   5.687   8.330   5.451 -0.9073  0.0279 -0.8662
 3525SOL    HW216412   5.642   8.288   5.589  3.0374 -1.8274  0.0064
 3526SOL     OW16413   0.319   3.401   5.245 -0.0882  0.4033 -0.0814
 3526SOL    HW116414   0.296   3.470   5.308  0.5593  1.5962 -1.1220
 3526SOL    HW216415   0.363   3.446   5.174  0.9317 -1.1784 -0.5100
 3527SOL     OW16416   3.431   0.603   5.735 -0.4310  0.8915 -0.5807
 3527SOL    HW116417   3.427   0.535   5.802 -1.5822  1.5274  0.0374
 3527SOL    HW216418   3.485   0.672   5.774 -0.8640  1.1400 -0.4110
 3528SOL     OW16419   3.683   5.412   0.541 -0.1147 -0.5221  0.6836
 3528SOL    HW116420   3.760   5.374   0.582  0.1847 -0.5377  0.1195
 3528SOL    HW216421   3.629   5.337   0.518  0.2838 -0.5932 -0.0511
 3529SOL     OW16422   1.119   3.054   8.539 -0.3393 -0.1444 -0.2667
 3529SOL    HW116423   1.106   3.060   8.634 -0.6871  0.6944 -0.3629
 3529SOL    HW216424   1.184   2.984   8.529 -1.0278 -0.9305  0.5248
 3530SOL     OW16425  10.069   8.674   4.587 -0.7555  0.4026  0.2122
 3530SOL    HW116426  10.036   8.738   4.524 -1.1342 -0.3601 -0.3784
 3530SOL    HW216427  10.045   8.589   4.551  1.6467 -0.2077 -0.1768
 3531SOL     OW16428   7.342   9.660   2.460 -0.1932  0.5911 -0.6577
 3531SOL    HW116429   7.410   9.595   2.480 -2.2027 -1.7248 -0.9572
 3531SOL    HW216430   7.356   9.729   2.524  0.8970 -0.9991  0.9155
 3532SOL     OW16431   2.238   3.151   6.356  0.5553  0.1866  0.0082
 3532SOL    HW116432   2.265   3.234   6.317  0.3386 -0.2862 -1.1940
 3532SOL    HW216433   2.206   3.174   6.443  2.3651  1.0946  0.4723
 3533SOL     OW16434   7.155   0.911   9.293 -0.1995  0.3484  0.1116
 3533SOL    HW116435   7.136   0.890   9.202  0.1024  1.5427 -0.2474
 3533SOL    HW216436   7.203   0.836   9.326  0.9367  0.4910 -1.1364
 3534SOL     OW16437   2.632   2.484   5.368 -0.2553  0.2068  0.5090
 3534SOL    HW116438   2.624   2.487   5.464 -0.4205 -0.7954  0.5334
 3534SOL    HW216439   2.714   2.439   5.352 -0.8907 -0.8502  0.1763
 3535SOL     OW16440   1.569   3.084   3.374 -0.2288 -0.6748 -0.3625
 3535SOL    HW116441   1.479   3.099   3.345 -0.3322 -0.1323  0.2126
 3535SOL    HW216442   1.613   3.045   3.298 -0.5817  0.4010 -1.1531
 3536SOL     OW16443  10.707   5.177   5.581 -0.2579  0.2668 -0.2241
 3536SOL    HW116444  10.750   5.247   5.532  1.8669 -0.6763  0.1668
 3536SOL    HW216445  10.646   5.138   5.518  0.1793  1.0239 -1.1474
 3537SOL     OW16446   7.806   8.064   8.613 -0.1237 -0.5708  0.1725
 3537SOL    HW116447   7.880   8.109   8.573  0.8225 -1.9214  0.3344
 3537SOL    HW216448   7.786   8.115   8.691  0.9574 -0.4402  0.3801
 3538SOL     OW16449   8.255   2.655   8.251 -0.3456 -0.3841 -0.2516
 3538SOL    HW116450   8.196   2.729   8.235 -1.9174 -1.4157  0.5183
 3538SOL    HW216451   8.310   2.684   8.324 -1.7481 -0.3843  0.8415
 3539SOL     OW16452   2.277   2.926   2.922 -0.1482  0.5022 -0.0633
 3539SOL    HW116453   2.230   2.850   2.887 -0.0140 -0.3041  1.4501
 3539SOL    HW216454   2.355   2.889   2.963 -0.1202  1.4463  0.7578
 3540SOL     OW16455   3.606   7.106   5.636  0.0298  0.1270 -0.0294
 3540SOL    HW116456   3.634   7.194   5.613  1.9787 -0.7880 -1.4935
 3540SOL    HW216457   3.587   7.064   5.552 -0.9269 -0.8455  0.6364
 3541SOL     OW16458   1.316   1.962   6.465  0.2592 -0.1004  0.5682
 3541SOL    HW116459   1.330   2.028   6.397 -1.0933  1.4433  1.7025
 3541SOL    HW216460   1.403   1.946   6.502  0.9440 -0.6595 -1.1996
 3542SOL     OW16461   4.943   8.605   3.846  0.4619  0.5177 -0.7192
 3542SOL    HW116462   4.959   8.642   3.933 -3.6948 -0.0681  0.4872
 3542SOL    HW216463   4.990   8.521   3.847  0.8664  0.7313  0.7762
 3543SOL     OW16464   4.348   6.488   3.235 -0.3063  0.3313  0.2346
 3543SOL    HW116465   4.423   6.444   3.195 -1.0078 -0.8062  0.1468
 3543SOL    HW216466   4.338   6.569   3.184  2.1506  1.6179  1.5446
 3544SOL     OW16467   8.848   7.842   8.538 -0.3054  0.4908 -0.4452
 3544SOL    HW116468   8.854   7.906   8.609  3.3337  0.0859 -0.2209
 3544SOL    HW216469   8.796   7.771   8.575 -0.3896  1.2687  0.9984
 3545SOL     OW16470   7.817   2.735   4.989 -0.4460 -0.0773  0.1483
 3545SOL    HW116471   7.759   2.699   5.057 -0.2782 -2.3706 -0.8135
 3545SOL    HW216472   7.865   2.805   5.033 -0.6343 -1.2036  2.3169
 3546SOL     OW16473   5.203   7.426   7.367  0.2035  0.3071  0.1642
 3546SOL    HW116474   5.282   7.375   7.350  0.7585  1.4587 -0.8441
 3546SOL    HW216475   5.204   7.495   7.301  0.0324  2.2537  2.0744
 3547SOL     OW16476   2.557   9.679   9.060 -0.4787 -0.5310 -0.2298
 3547SOL    HW116477   2.556   9.620   8.984 -2.2052 -0.8153 -0.0232
 3547SOL    HW216478   2.552   9.620   9.136  0.7556 -0.2257  0.1035
 3548SOL     OW16479   8.333   8.543   4.053  0.4360 -0.3257 -0.4598
 3548SOL    HW116480   8.320   8.637   4.040 -0.8667 -0.5577 -1.0446
 3548SOL    HW216481   8.402   8.537   4.118  0.4858  1.0368 -0.3504
 3549SOL     OW16482   2.921   7.326   0.472 -0.0941 -0.2203 -0.1899
 3549SOL    HW116483   2.909   7.414   0.436 -0.1055 -0.0708  0.1780
 3549SOL    HW216484   3.011   7.303   0.451 -0.6842 -0.9601 -2.1252
 3550SOL     OW16485   2.315   6.189   9.996 -0.4546 -0.4953  0.3840
 3550SOL    HW116486   2.288   6.281  10.000 -0.8560 -0.6274  0.8433
 3550SOL    HW216487   2.342   6.168  10.086 -0.0653 -0.7347  0.2109
 3551SOL     OW16488   6.685   9.769   6.045 -0.3282  0.1413  0.7007
 3551SOL    HW116489   6.636   9.828   5.987  0.4585  0.1512  0.0264
 3551SOL    HW216490   6.706   9.693   5.991 -0.2438 -0.1962  1.2011
 3552SOL     OW16491   5.578   4.873   5.932 -0.2915 -0.3444  0.4494
 3552SOL    HW116492   5.501   4.898   5.984 -0.9327 -0.6791 -0.3062
 3552SOL    HW216493   5.559   4.908   5.845  1.2932  1.2409  0.6809
 3553SOL     OW16494   7.866  10.185   9.643  0.5586  0.0110 -0.1561
 3553SOL    HW116495   7.892  10.133   9.567 -0.7923  0.8536 -1.2561
 3553SOL    HW216496   7.852  10.121   9.713  0.7765 -0.8952 -0.9216
 3554SOL     OW16497   9.945  10.124   6.135 -0.2740 -0.0939  0.4084
 3554SOL    HW116498   9.854  10.143   6.113 -0.8668 -2.5984  0.4088
 3554SOL    HW216499   9.970  10.053   6.075  2.4351  1.9349 -1.1287
 3555SOL     OW16500   1.742   1.728   7.824  0.0175 -0.1818 -0.3148
 3555SOL    HW116501   1.810   1.692   7.767 -0.6682 -0.5244 -0.9324
 3555SOL    HW216502   1.785   1.798   7.872  0.5377  0.3152 -1.4798
 3556SOL     OW16503   0.729   2.495   2.855  0.3142 -0.0315 -0.0885
 3556SOL    HW116504   0.645   2.530   2.825 -0.2546  2.0136  3.2582
 3556SOL    HW216505   0.787   2.571   2.859  0.9072 -0.5131  1.7762
 3557SOL     OW16506  10.017   9.238   9.014 -0.2583  0.4397 -0.2460
 3557SOL    HW116507   9.974   9.321   8.995  0.7631  1.3143  1.0529
 3557SOL    HW216508  10.007   9.227   9.109  1.0217 -0.1043 -0.1584
 3558SOL     OW16509   0.318   2.691   9.359 -0.1573  0.0141  0.2317
 3558SOL    HW116510   0.409   2.714   9.339 -0.7660  1.6188 -0.8576
 3558SOL    HW216511   0.311   2.704   9.454  0.9042 -0.7688  0.4363
 3559SOL     OW16512   3.638   4.880   2.076  0.0146 -0.1192 -0.3018
 3559SOL    HW116513   3.664   4.860   1.986 -0.8284  0.6725 -0.7304
 3559SOL    HW216514   3.715   4.924   2.114 -0.2728  1.2428 -1.2282
 3560SOL     OW16515   6.299   8.510   4.106 -0.1363  0.2151  0.5123
 3560SOL    HW116516   6.274   8.435   4.052  0.3370  0.7736 -0.5195
 3560SOL    HW216517   6.339   8.472   4.184 -0.3466 -0.6067  0.2277
 3561SOL     OW16518   2.067   6.982   3.875 -0.6570 -0.0457  0.5336
 3561SOL    HW116519   1.990   7.026   3.910 -0.3050  2.1571 -1.2214
 3561SOL    HW216520   2.106   7.046   3.815  1.5252 -1.7575 -0.0082
 3562SOL     OW16521   1.913   6.602  10.723 -0.3101 -0.4814  0.3149
 3562SOL    HW116522   1.839   6.547  10.696  0.3127 -0.2744 -2.0540
 3562SOL    HW216523   1.900   6.684  10.676 -0.2628  0.8149  2.4302
 3563SOL     OW16524   4.751   7.470   0.980 -0.1206  0.2077 -0.2051
 3563SOL    HW116525   4.765   7.560   0.950 -0.5996  0.4845  0.3970
 3563SOL    HW216526   4.699   7.479   1.059 -1.3480 -0.6606 -0.8805
 3564SOL     OW16527   5.415   0.937   1.214  0.2090 -1.0696 -0.6589
 3564SOL    HW116528   5.423   0.842   1.225  1.6091 -1.0102 -0.9748
 3564SOL    HW216529   5.472   0.974   1.282  1.8395 -0.5410 -2.2433
 3565SOL     OW16530   8.800   0.909   6.475 -1.3204 -0.4982  0.3649
 3565SOL    HW116531   8.895   0.897   6.479 -1.1638  0.2961 -0.7165
 3565SOL    HW216532   8.770   0.888   6.564 -0.1833 -1.0964  0.6274
 3566SOL     OW16533   7.157   8.774   5.799 -0.0533 -0.3815  0.2423
 3566SOL    HW116534   7.237   8.741   5.840 -0.4023 -0.4621  0.8778
 3566SOL    HW216535   7.090   8.766   5.867 -0.1627  1.6129  0.4221
 3567SOL     OW16536   6.558   2.669   4.734 -0.4548 -0.1608  0.4537
 3567SOL    HW116537   6.464   2.666   4.718 -0.4027  1.4577 -0.2866
 3567SOL    HW216538   6.591   2.589   4.693 -1.5779 -1.2130  1.5052
 3568SOL     OW16539   3.424   5.525   7.861 -0.1267 -0.1658  0.5516
 3568SOL    HW116540   3.472   5.492   7.936  1.6030  1.8370  0.4064
 3568SOL    HW216541   3.426   5.620   7.871 -1.0716  0.0956 -1.3111
 3569SOL     OW16542   3.067   4.051   2.014  0.0182  0.1177 -0.2713
 3569SOL    HW116543   3.145   4.010   2.052  0.5008  0.4067 -0.9387
 3569SOL    HW216544   3.076   4.037   1.920 -0.2404  1.0126 -0.4399
 3570SOL     OW16545   9.384   1.699   6.244  0.1293  0.5892  0.3803
 3570SOL    HW116546   9.428   1.749   6.175  0.6871  1.5094  1.3826
 3570SOL    HW216547   9.325   1.641   6.196  0.8105  0.8980 -0.8955
 3571SOL     OW16548   9.543   1.526   8.422 -0.1901  0.2632 -0.4292
 3571SOL    HW116549   9.612   1.560   8.478 -1.5911  1.7859  0.4767
 3571SOL    HW216550   9.544   1.582   8.345 -0.4648  0.3656 -0.3610
 3572SOL     OW16551   4.333   1.684  10.257 -0.6443  0.0117  0.3525
 3572SOL    HW116552   4.314   1.758  10.315 -1.0266 -0.3417  0.6866
 3572SOL    HW216553   4.387   1.626  10.309  0.4416  0.4815 -0.2233
 3573SOL     OW16554   6.511   7.107   6.289  0.0835 -0.6911 -0.1595
 3573SOL    HW116555   6.432   7.053   6.294 -0.3267 -0.2917 -1.7684
 3573SOL    HW216556   6.538   7.101   6.197  0.7848  0.7675 -0.0651
 3574SOL     OW16557   1.995   1.791   2.679 -0.2618  0.1474 -0.0957
 3574SOL    HW116558   1.991   1.816   2.586 -0.9939 -0.6758 -0.3038
 3574SOL    HW216559   2.067   1.843   2.715  0.0141  0.5028 -1.1201
 3575SOL     OW16560   7.998   3.833   6.172  0.6319  0.0052 -0.0689
 3575SOL    HW116561   8.038   3.746   6.161 -1.3683 -0.8717 -0.9305
 3575SOL    HW216562   8.015   3.855   6.263  3.4215 -0.0656 -0.4772
 3576SOL     OW16563   5.187   4.496   7.126 -0.5585  0.0607  0.7258
 3576SOL    HW116564   5.220   4.585   7.111  1.1987 -0.8497 -1.4588
 3576SOL    HW216565   5.093   4.507   7.140 -0.3927  2.2493  0.5017
 3577SOL     OW16566   7.880   0.449   2.730  0.0675 -0.3899  0.5436
 3577SOL    HW116567   7.958   0.502   2.745  1.8794 -2.9433  0.7714
 3577SOL    HW216568   7.905   0.387   2.661 -2.5172  0.0738 -0.9619
 3578SOL     OW16569   4.544   6.028   1.467 -0.2551 -0.6024 -0.2977
 3578SOL    HW116570   4.628   6.062   1.436  0.0586 -0.9515  0.1685
 3578SOL    HW216571   4.507   5.984   1.391  1.3584 -3.0929  0.2596
 3579SOL     OW16572   1.130   1.432   9.821  0.0665  0.0800 -0.2554
 3579SOL    HW116573   1.037   1.455   9.825  0.4884  1.8109  0.4976
 3579SOL    HW216574   1.131   1.336   9.822 -1.7895 -0.0876 -2.8667
 3580SOL     OW16575  10.389   0.728   3.965 -0.2266 -0.2036  0.5387
 3580SOL    HW116576  10.327   0.703   3.897  1.1359  0.5254 -1.0354
 3580SOL    HW216577  10.401   0.823   3.954  1.0991 -0.3104  0.8361
 3581SOL     OW16578   1.479   8.163   9.520 -0.0015  0.1332  0.3604
 3581SOL    HW116579   1.529   8.168   9.438 -0.4875 -0.6238 -0.0002
 3581SOL    HW216580   1.469   8.254   9.548 -0.3100  0.4562 -0.7378
 3582SOL     OW16581   3.710   3.305   7.760 -0.1901  0.2507 -0.6998
 3582SOL    HW116582   3.656   3.253   7.820 -0.8271  2.0778  0.4025
 3582SOL    HW216583   3.705   3.394   7.795 -0.4527  1.3820 -3.4054
 3583SOL     OW16584   2.403   0.191   7.907 -0.3812  0.7019 -0.0218
 3583SOL    HW116585   2.401   0.184   8.002 -1.0043 -1.8753 -0.1536
 3583SOL    HW216586   2.315   0.221   7.883 -0.4192  0.7562  0.1871
 3584SOL     OW16587   0.592   0.770   9.083 -0.0943 -0.3588  0.3350
 3584SOL    HW116588   0.529   0.698   9.074  2.2685 -2.4446 -1.3893
 3584SOL    HW216589   0.598   0.786   9.177 -1.6081 -1.5817  0.6793
 3585SOL     OW16590   7.800   4.973   8.409  0.0916 -0.3370  0.0334
 3585SOL    HW116591   7.730   5.029   8.443  0.4247 -0.4150  0.8591
 3585SOL    HW216592   7.863   4.968   8.480  1.2003  0.1542 -0.8901
 3586SOL     OW16593   2.752   1.738   5.541 -0.6948 -0.1871  0.4475
 3586SOL    HW116594   2.825   1.717   5.484  1.0842  1.0082  2.1322
 3586SOL    HW216595   2.680   1.683   5.511  0.5883 -0.6913 -1.9052
 3587SOL     OW16596   2.010   8.157   2.852 -0.3846 -0.7384  0.0081
 3587SOL    HW116597   2.064   8.095   2.803 -0.2078  0.5325 -1.4537
 3587SOL    HW216598   2.071   8.202   2.910  0.3502  1.1241 -2.0659
 3588SOL     OW16599   9.503   7.733   0.334  0.0139 -0.2155  0.0305
 3588SOL    HW116600   9.578   7.789   0.313  0.9832 -0.8753  1.6064
 3588SOL    HW216601   9.533   7.678   0.406 -2.4011  0.3885  1.6161
 3589SOL     OW16602   4.328   1.407   1.848 -0.2491  0.1323  0.2322
 3589SOL    HW116603   4.244   1.449   1.865  0.4232  1.4864  0.4342
 3589SOL    HW216604   4.383   1.434   1.922  0.0400 -1.7173  0.7291
 3590SOL     OW16605   9.663   8.207  10.241  0.7189 -0.2160  0.1332
 3590SOL    HW116606   9.570   8.187  10.247  0.8327 -0.5567  0.7719
 3590SOL    HW216607   9.666   8.292  10.197  0.1232 -0.3489 -0.1759
 3591SOL     OW16608   2.381   2.735   5.623 -0.4801  0.3518 -0.0826
 3591SOL    HW116609   2.361   2.805   5.686 -1.1848  1.0769 -1.0555
 3591SOL    HW216610   2.346   2.656   5.663 -0.8353  0.7825  0.4777
 3592SOL     OW16611  10.260   6.957   3.159 -0.2206  0.2986 -0.4276
 3592SOL    HW116612  10.308   7.027   3.204 -0.6286  3.0108 -3.7788
 3592SOL    HW216613  10.305   6.877   3.185  1.9959  2.0437  1.6123
 3593SOL     OW16614   2.139   5.781   1.579 -0.8698 -0.4163  0.1255
 3593SOL    HW116615   2.212   5.789   1.518 -0.7935 -2.1004 -0.0538
 3593SOL    HW216616   2.167   5.830   1.657  0.8550 -1.7200  0.3917
 3594SOL     OW16617   3.212   0.851   9.045  0.4451  0.1874 -0.4740
 3594SOL    HW116618   3.136   0.855   9.103  0.8019 -2.0875  0.2540
 3594SOL    HW216619   3.185   0.794   8.973  1.6088 -1.1437  0.1036
 3595SOL     OW16620   5.134   9.313   3.528  0.1046 -0.6840  0.0731
 3595SOL    HW116621   5.048   9.309   3.487  0.7209 -0.6671 -1.3106
 3595SOL    HW216622   5.117   9.336   3.619 -1.4331 -2.0969  0.1807
 3596SOL     OW16623   4.860   7.858   8.924 -0.2280 -0.1628  0.2995
 3596SOL    HW116624   4.767   7.871   8.907 -0.0879 -0.7299 -0.9896
 3596SOL    HW216625   4.901   7.940   8.899 -0.3504  0.0417  0.7461
 3597SOL     OW16626   3.299   5.663   8.439  0.3182 -0.1153  0.6850
 3597SOL    HW116627   3.292   5.658   8.534 -0.8980 -0.9391  0.5810
 3597SOL    HW216628   3.237   5.597   8.407  1.2245 -0.3578 -0.6708
 3598SOL     OW16629   4.321   0.595   6.087 -0.1055  0.0040 -0.6745
 3598SOL    HW116630   4.272   0.602   6.169  0.5479  3.0870 -0.4564
 3598SOL    HW216631   4.266   0.638   6.021  0.6355  0.1456 -1.2269
 3599SOL     OW16632   7.097   1.458   8.430 -0.0601 -0.3259 -0.1079
 3599SOL    HW116633   7.004   1.436   8.428 -0.3589  0.6981  1.0750
 3599SOL    HW216634   7.107   1.510   8.510  1.0242  1.8515 -1.5780
 3600SOL     OW16635   3.972   1.244   2.732  0.1928 -0.2939  0.0445
 3600SOL    HW116636   4.065   1.243   2.753 -0.1527 -1.0146  1.7422
 3600SOL    HW216637   3.967   1.218   2.640  1.5327 -2.9177  0.6458
 3601SOL     OW16638   2.143   8.875   1.026 -0.6073 -0.2636 -0.1894
 3601SOL    HW116639   2.231   8.840   1.011 -0.6057 -0.0289 -0.7624
 3601SOL    HW216640   2.127   8.861   1.119  0.3402  0.3658  0.0898
 3602SOL     OW16641   7.744   3.460   0.112 -0.0316  0.3225 -0.2927
 3602SOL    HW116642   7.713   3.550   0.118  0.0477  0.3448 -0.2187
 3602SOL    HW216643   7.668   3.406   0.131  0.0959  0.3817  0.4057
 3603SOL     OW16644   2.437   0.562   2.815  0.0653 -0.4530  0.5132
 3603SOL    HW116645   2.501   0.500   2.852 -1.7734 -3.3211 -0.7823
 3603SOL    HW216646   2.453   0.559   2.721 -0.0165  1.2208  0.4184
 3604SOL     OW16647   1.657   6.550   0.717 -0.1016 -0.2797  0.4180
 3604SOL    HW116648   1.687   6.638   0.740  0.5525 -0.7179  1.2758
 3604SOL    HW216649   1.673   6.543   0.623 -1.0501  0.8538  0.1466
 3605SOL     OW16650   8.962   7.416   9.835  0.1053 -0.3032 -0.0878
 3605SOL    HW116651   8.975   7.385   9.746 -0.5708  0.7051 -0.5642
 3605SOL    HW216652   8.867   7.422   9.844  0.1998  1.0974  0.1444
 3606SOL     OW16653   7.188   7.540   9.354 -0.1634 -0.1309 -0.4135
 3606SOL    HW116654   7.282   7.558   9.354 -0.0630 -0.5368  1.2773
 3606SOL    HW216655   7.164   7.536   9.446 -1.7221 -0.7260 -0.8116
 3607SOL     OW16656   3.313   8.515   0.177  0.0029 -0.1999  0.2038
 3607SOL    HW116657   3.238   8.455   0.179 -0.4445  0.3279 -0.2110
 3607SOL    HW216658   3.350   8.509   0.265 -0.7484 -0.2071  0.5356
 3608SOL     OW16659   4.166   9.877   5.943 -0.5291 -0.2270  0.0398
 3608SOL    HW116660   4.170   9.967   5.975  2.1776 -0.3354  0.2248
 3608SOL    HW216661   4.136   9.826   6.018 -0.3653  0.3059  0.4751
 3609SOL     OW16662   3.735   5.243   8.796  0.0762  0.2665 -0.4321
 3609SOL    HW116663   3.696   5.316   8.843 -1.6939 -0.3344 -0.8898
 3609SOL    HW216664   3.665   5.177   8.792  0.0678  0.3406 -3.9949
 3610SOL     OW16665   7.504   6.669   2.975 -0.2726 -0.1088  0.1426
 3610SOL    HW116666   7.416   6.690   3.007 -0.6660  0.1149 -1.0347
 3610SOL    HW216667   7.547   6.755   2.967 -0.7715  0.0093 -1.5550
 3611SOL     OW16668   8.669   6.694   0.606 -0.2345 -0.4785  0.3236
 3611SOL    HW116669   8.729   6.659   0.671 -0.9303 -1.3331  0.5189
 3611SOL    HW216670   8.582   6.684   0.645 -0.5425  0.4241 -0.0940
 3612SOL     OW16671   3.999   5.894   8.561 -0.2447 -0.0071  0.7534
 3612SOL    HW116672   4.022   5.802   8.573 -0.4485 -0.1070  0.4079
 3612SOL    HW216673   3.903   5.893   8.552 -0.1403  0.0823 -0.5751
 3613SOL     OW16674   7.486   5.303   9.200  0.1824 -0.1468 -0.4317
 3613SOL    HW116675   7.493   5.345   9.114 -0.5358  1.9039  0.4558
 3613SOL    HW216676   7.575   5.279   9.222  0.7888  1.7467 -0.6206
 3614SOL     OW16677   2.737  10.338   7.014 -0.0967 -0.1532 -0.0655
 3614SOL    HW116678   2.793  10.267   7.043  2.0723  1.1327 -0.8589
 3614SOL    HW216679   2.708  10.312   6.926  1.3236  0.2338 -0.6764
 3615SOL     OW16680   8.781   4.325   6.360 -0.5074  1.1132  0.0830
 3615SOL    HW116681   8.810   4.255   6.301  0.4454  0.7245  0.9880
 3615SOL    HW216682   8.785   4.404   6.307  1.6777  0.9965 -0.0339
 3616SOL     OW16683   5.801   4.924   7.181 -0.3084 -0.0181  0.3030
 3616SOL    HW116684   5.870   4.865   7.152 -0.7951 -0.5367  0.1873
 3616SOL    HW216685   5.847   4.996   7.224  0.3912  0.4824 -1.2185
 3617SOL     OW16686   6.206   3.879   5.551  0.0287 -0.2604  0.2643
 3617SOL    HW116687   6.214   3.950   5.488 -0.0408 -1.5976 -1.3179
 3617SOL    HW216688   6.127   3.900   5.602 -0.6328  0.2277 -0.9291
 3618SOL     OW16689   8.395   4.005   8.277  1.3320  0.4893 -0.2377
 3618SOL    HW116690   8.360   4.081   8.231  0.9198  1.0652  0.9989
 3618SOL    HW216691   8.334   3.934   8.256  1.0139  0.8028 -0.3850
 3619SOL     OW16692   8.349   9.216   6.444 -0.7460  0.0572  0.1051
 3619SOL    HW116693   8.333   9.127   6.412  0.7806 -0.0806 -0.3661
 3619SOL    HW216694   8.433   9.241   6.405 -1.1422  1.7090  0.2452
 3620SOL     OW16695   6.450   6.672   6.718 -0.2412 -0.0367 -0.3223
 3620SOL    HW116696   6.526   6.723   6.745 -1.7046  1.7598  0.6366
 3620SOL    HW216697   6.404   6.728   6.656 -1.7790 -0.2235  0.5813
 3621SOL     OW16698   9.406   9.265   4.470  0.7370 -0.7657 -0.2096
 3621SOL    HW116699   9.431   9.299   4.385  1.7259 -1.7725 -0.3393
 3621SOL    HW216700   9.310   9.266   4.470  0.7148  1.5074 -0.3831
 3622SOL     OW16701   9.028   1.541   8.075 -0.5694  0.5567  0.2150
 3622SOL    HW116702   9.110   1.563   8.030 -0.3991  0.3140  0.3996
 3622SOL    HW216703   8.983   1.481   8.016 -1.1149  1.5332 -0.3663
 3623SOL     OW16704   2.262   7.312   9.467 -0.5566 -0.0336 -0.3116
 3623SOL    HW116705   2.179   7.339   9.505 -1.1005 -1.0733 -0.7228
 3623SOL    HW216706   2.271   7.220   9.493  0.6989  0.1897  0.1208
 3624SOL     OW16707  10.519   5.049   1.411  0.3912  0.1866 -0.4695
 3624SOL    HW116708  10.476   5.034   1.495 -0.6173  1.0667 -0.8162
 3624SOL    HW216709  10.599   5.096   1.434  0.7924 -0.7455  0.1030
 3625SOL     OW16710   5.494   9.927   9.938  0.0850 -0.5634  0.0799
 3625SOL    HW116711   5.456  10.008   9.970 -1.9858 -1.1710 -0.6581
 3625SOL    HW216712   5.553   9.898  10.008 -0.3114  0.7827  0.9917
 3626SOL     OW16713   2.684   8.453   1.256  0.5072 -0.6027 -0.6135
 3626SOL    HW116714   2.708   8.508   1.181  0.3869 -0.6436 -0.6806
 3626SOL    HW216715   2.709   8.365   1.231  3.3198 -0.2671  0.5426
 3627SOL     OW16716   4.878   6.768   6.779  0.1363 -0.2359 -0.1505
 3627SOL    HW116717   4.850   6.855   6.809  1.4697  1.2991 -2.9850
 3627SOL    HW216718   4.954   6.748   6.833 -1.4661 -0.7882  2.0721
 3628SOL     OW16719   1.831   3.704   6.163  0.3706  0.0842 -0.2906
 3628SOL    HW116720   1.913   3.746   6.137  1.1852 -1.5910 -0.5526
 3628SOL    HW216721   1.816   3.638   6.096 -0.2415 -0.8338  0.7174
 3629SOL     OW16722   7.140   4.654   5.146 -0.1615  0.2928  0.0693
 3629SOL    HW116723   7.188   4.660   5.063 -1.9112  0.1258 -1.0262
 3629SOL    HW216724   7.161   4.566   5.179  2.2144  1.1217  0.9484
 3630SOL     OW16725   1.782   3.758   6.435 -0.2226 -0.3788 -0.4423
 3630SOL    HW116726   1.719   3.693   6.467 -1.4906  0.5650 -0.9268
 3630SOL    HW216727   1.795   3.735   6.343  1.6984 -1.7468  0.1162
 3631SOL     OW16728  10.001   1.868   1.562 -0.4118  0.1171  0.0863
 3631SOL    HW116729  10.084   1.914   1.565 -0.4578  0.1779  0.4877
 3631SOL    HW216730   9.943   1.919   1.618 -0.4860 -0.3774  0.4628
 3632SOL     OW16731   8.595   1.925   6.158  0.1708  0.5070  0.0053
 3632SOL    HW116732   8.613   1.900   6.068 -2.5272 -2.8794  0.1793
 3632SOL    HW216733   8.531   1.996   6.151  1.0336  1.2391 -0.6738
 3633SOL     OW16734   7.661   2.975   3.866 -0.2546  0.1146  0.6695
 3633SOL    HW116735   7.749   2.985   3.829 -0.4492  0.0387  0.1797
 3633SOL    HW216736   7.675   2.944   3.955  0.2231  0.3125  0.6628
 3634SOL     OW16737   3.217   9.932   1.485  0.1277  1.0095  0.0667
 3634SOL    HW116738   3.236   9.937   1.391 -0.3991  2.5011  0.0201
 3634SOL    HW216739   3.245  10.017   1.520  0.2122  0.5157  1.2457
 3635SOL     OW16740   6.871   5.857   0.796  0.2186  0.1286  0.4402
 3635SOL    HW116741   6.834   5.786   0.849  0.6804 -0.8839 -0.5626
 3635SOL    HW216742   6.955   5.822   0.766 -1.1643 -0.4592 -3.1958
 3636SOL     OW16743   9.612   1.791   3.497 -0.4186 -0.0110 -0.2860
 3636SOL    HW116744   9.549   1.847   3.543  0.2372  0.1487  0.4480
 3636SOL    HW216745   9.660   1.851   3.440  0.4214  0.2268  0.6505
 3637SOL     OW16746   3.100   5.590   3.595  0.4780 -0.4091  0.7351
 3637SOL    HW116747   3.052   5.624   3.519  0.6994 -0.7871  0.4288
 3637SOL    HW216748   3.039   5.602   3.668 -0.2476 -1.2348  0.2858
 3638SOL     OW16749   8.028   1.430   7.956  0.0782 -0.2335  0.3407
 3638SOL    HW116750   8.039   1.339   7.983  0.0886  0.3471  2.4364
 3638SOL    HW216751   8.096   1.478   8.003  1.2788  0.6802 -2.1154
 3639SOL     OW16752   1.056   8.535   5.234  0.9464  0.0780  0.3103
 3639SOL    HW116753   1.081   8.561   5.145  0.3164 -1.7028 -0.4299
 3639SOL    HW216754   0.961   8.526   5.230  0.9879 -0.7044  0.9802
 3640SOL     OW16755   5.920   1.214   7.524  0.4295 -0.0424 -0.5436
 3640SOL    HW116756   5.948   1.208   7.615  1.9980  1.0530 -0.9140
 3640SOL    HW216757   5.991   1.174   7.474  1.7471  3.2198 -1.5594
 3641SOL     OW16758   6.786   6.949   1.772 -0.5235  0.4285  0.3240
 3641SOL    HW116759   6.848   6.915   1.837 -1.1387  1.2020  1.3473
 3641SOL    HW216760   6.702   6.910   1.797 -1.0880  2.0232  1.0430
 3642SOL     OW16761   2.364   4.776   7.416 -0.5392 -0.3869  0.5854
 3642SOL    HW116762   2.320   4.703   7.371  1.6565 -0.3671 -1.8120
 3642SOL    HW216763   2.428   4.734   7.473  0.8854 -0.4024 -0.9683
 3643SOL     OW16764   7.410  10.154   6.599  0.0138  0.2605 -0.7560
 3643SOL    HW116765   7.452  10.211   6.535 -0.1596 -0.8040 -1.8599
 3643SOL    HW216766   7.482  10.120   6.652  0.3592 -0.0324 -1.3905
 3644SOL     OW16767   2.602   1.862   7.714 -0.0801  0.5699 -0.3914
 3644SOL    HW116768   2.697   1.862   7.728  0.0445  0.4140 -1.1824
 3644SOL    HW216769   2.584   1.777   7.673 -0.4036  1.0157 -1.2046
 3645SOL     OW16770   0.097   7.891   8.171 -0.0624 -0.2220  0.3910
 3645SOL    HW116771   0.095   7.918   8.263  0.4654 -2.1024  1.0042
 3645SOL    HW216772   0.013   7.848   8.157 -0.4114  0.6383 -0.2158
 3646SOL     OW16773  10.534   0.704   8.587  0.1408 -0.4384 -0.1273
 3646SOL    HW116774  10.517   0.634   8.525 -2.4044 -1.5869  1.6644
 3646SOL    HW216775  10.564   0.660   8.666  1.6881  0.8248  0.0340
 3647SOL     OW16776   6.985   5.670   3.250 -0.1032 -0.4686  0.5398
 3647SOL    HW116777   7.072   5.631   3.246  0.9807  0.5128  6.2836
 3647SOL    HW216778   6.995   5.757   3.211  1.4669 -0.4793  0.8697
 3648SOL     OW16779   0.309   3.792   1.223  0.0027 -0.2384  0.2146
 3648SOL    HW116780   0.256   3.845   1.164 -0.1168 -1.5138 -0.8848
 3648SOL    HW216781   0.277   3.814   1.311 -1.3375  0.1137 -0.3307
 3649SOL     OW16782   5.440   1.148   1.405  0.1582  0.5914  0.6279
 3649SOL    HW116783   5.385   1.205   1.350 -0.3371 -1.0050 -0.6081
 3649SOL    HW216784   5.529   1.179   1.389  0.1116 -0.3048 -1.7707
 3650SOL     OW16785   1.214   2.570   0.384  0.1490  0.2568  0.4173
 3650SOL    HW116786   1.190   2.630   0.313 -1.3835  0.9179  1.4438
 3650SOL    HW216787   1.308   2.586   0.397 -0.0070  1.6959 -0.0123
 3651SOL     OW16788   7.110   6.191   7.168  0.6689  0.2056 -0.2462
 3651SOL    HW116789   7.019   6.179   7.140  0.4976 -1.8278  0.9237
 3651SOL    HW216790   7.104   6.210   7.262  1.4455 -1.1475  0.1098
 3652SOL     OW16791   8.105   3.406   0.839 -0.7325 -0.5008  0.1757
 3652SOL    HW116792   8.196   3.402   0.870 -0.8528 -0.0853  0.5863
 3652SOL    HW216793   8.056   3.443   0.912 -0.9876  0.7110 -0.5817
 3653SOL     OW16794   2.605   2.350   4.255  0.1238  0.0973  0.2016
 3653SOL    HW116795   2.574   2.265   4.225 -0.9091  1.1574 -1.9551
 3653SOL    HW216796   2.699   2.337   4.270  0.3506 -0.9954 -1.8793
 3654SOL     OW16797   2.852   0.437   3.689  0.2232  0.0798 -0.3769
 3654SOL    HW116798   2.880   0.346   3.682  1.7512  0.4234  0.8692
 3654SOL    HW216799   2.918   0.486   3.640 -0.5425  0.5461 -0.9691
 3655SOL     OW16800   8.429   6.352   8.832  0.0083 -0.4128  0.2416
 3655SOL    HW116801   8.511   6.313   8.863  2.2397  0.9458 -3.2948
 3655SOL    HW216802   8.410   6.304   8.751 -0.4205  1.8447 -1.0777
 3656SOL     OW16803   9.963   1.039   0.386  0.0324 -0.1608  0.0753
 3656SOL    HW116804   9.942   0.961   0.436  0.7161 -0.5174 -0.1808
 3656SOL    HW216805   9.993   1.006   0.301  1.7386  0.2907  0.4656
 3657SOL     OW16806   8.192   2.131   4.433  0.4884 -0.0413 -0.3175
 3657SOL    HW116807   8.134   2.057   4.449 -0.3472  0.1878 -2.0199
 3657SOL    HW216808   8.171   2.195   4.501 -0.7092 -0.2893 -0.4479
 3658SOL     OW16809   3.762   4.440   9.579 -0.1159  0.0990  0.2562
 3658SOL    HW116810   3.756   4.477   9.667  1.9576  0.3543  0.3540
 3658SOL    HW216811   3.824   4.498   9.533  0.0841 -0.9496 -0.8512
 3659SOL     OW16812   1.233   5.089   4.699  0.0316  0.7102 -0.8976
 3659SOL    HW116813   1.161   5.029   4.680 -0.0836  1.1794 -1.9879
 3659SOL    HW216814   1.309   5.049   4.656 -0.0209  1.2848 -1.5278
 3660SOL     OW16815   9.942   0.916   9.185  0.1901 -0.3126 -0.9919
 3660SOL    HW116816   9.891   0.912   9.267  0.1354  0.4721 -0.9862
 3660SOL    HW216817   9.996   0.994   9.194 -0.5251  0.3400 -2.1083
 3661SOL     OW16818   8.121   9.830   2.922 -0.2861 -0.2242 -0.0662
 3661SOL    HW116819   8.098   9.887   2.996 -0.0099 -1.7989  1.3032
 3661SOL    HW216820   8.217   9.829   2.922 -0.2863 -0.2797 -0.4240
 3662SOL     OW16821   1.210   0.462   6.690 -0.7466 -0.4725  0.0361
 3662SOL    HW116822   1.185   0.372   6.711 -0.5613 -0.4041  0.5603
 3662SOL    HW216823   1.134   0.497   6.644 -1.0956 -0.6877  0.4341
 3663SOL     OW16824   3.165   3.167   7.233  0.1314  0.4548  0.7412
 3663SOL    HW116825   3.213   3.085   7.226  3.6846  2.3657  0.3565
 3663SOL    HW216826   3.196   3.206   7.315 -0.3691  2.0524  0.2150
 3664SOL     OW16827   1.034   6.527  10.288  0.3920  0.7941  0.3622
 3664SOL    HW116828   1.025   6.582  10.366 -1.3642 -1.3981  1.8345
 3664SOL    HW216829   1.087   6.453  10.318 -0.5083 -0.2024 -0.4390
 3665SOL     OW16830   8.082   0.212   4.107 -0.2552  0.1933 -0.1464
 3665SOL    HW116831   8.172   0.214   4.075 -0.3658 -1.2740 -0.6431
 3665SOL    HW216832   8.028   0.214   4.028 -0.6121 -0.3982  0.0762
 3666SOL     OW16833   1.331   9.725   7.880 -0.6695  0.1294  0.4794
 3666SOL    HW116834   1.273   9.776   7.936 -2.1929 -1.8277  0.7824
 3666SOL    HW216835   1.332   9.638   7.920 -0.2148 -0.7798 -1.4217
 3667SOL     OW16836   9.063   2.149   0.451 -0.1708 -0.2809 -0.8113
 3667SOL    HW116837   9.042   2.205   0.377 -0.6842  0.9516  0.2260
 3667SOL    HW216838   8.984   2.151   0.506  0.4023 -0.6794  0.0513
 3668SOL     OW16839   3.296   8.555   8.575  0.3690  0.3791  0.2313
 3668SOL    HW116840   3.326   8.636   8.616 -0.2615  0.6906  0.0844
 3668SOL    HW216841   3.288   8.493   8.648 -0.1339  0.7451  0.4910
 3669SOL     OW16842   3.022   0.718   8.650  0.0953  0.0563  0.3382
 3669SOL    HW116843   3.110   0.720   8.612  0.0578  0.1728  0.2566
 3669SOL    HW216844   2.995   0.626   8.643  0.6462 -0.2058  1.3780
 3670SOL     OW16845   3.807   6.121   2.091  0.0592  0.0583 -0.0299
 3670SOL    HW116846   3.782   6.213   2.088 -0.6872 -0.1699 -2.2374
 3670SOL    HW216847   3.725   6.074   2.102  0.3107 -0.4098 -0.1282
 3671SOL     OW16848   6.339   5.900   0.488  0.1871  0.2416  0.3014
 3671SOL    HW116849   6.335   5.836   0.418 -0.6542  0.2391  0.3455
 3671SOL    HW216850   6.251   5.900   0.527  0.9454 -0.6165  2.1237
 3672SOL     OW16851   0.197  10.125   6.996 -0.2251  0.8716 -0.2349
 3672SOL    HW116852   0.188  10.200   6.938 -0.3430  2.1873  1.4111
 3672SOL    HW216853   0.127  10.136   7.061 -0.2952 -0.7072  0.0016
 3673SOL     OW16854   6.438   7.097   1.209  0.2757 -0.2230 -0.3643
 3673SOL    HW116855   6.364   7.091   1.270  0.2759 -0.3651 -0.3786
 3673SOL    HW216856   6.513   7.121   1.263 -0.2596  2.4545 -0.6663
 3674SOL     OW16857   3.381   2.229   0.368 -0.0227  0.3898  0.6605
 3674SOL    HW116858   3.418   2.297   0.425 -1.0775  0.9016  0.7530
 3674SOL    HW216859   3.300   2.267   0.335 -0.1916 -0.5003  0.0209
 3675SOL     OW16860   5.220  10.611   8.179  0.6276  0.1615  0.1153
 3675SOL    HW116861   5.171  10.652   8.250  0.4188 -0.7131  0.4975
 3675SOL    HW216862   5.229  10.679   8.112 -1.3546  0.2603 -0.0971
 3676SOL     OW16863   5.943   7.402  10.356 -0.0143  0.0351 -0.5858
 3676SOL    HW116864   5.909   7.385  10.443 -0.2285 -1.2735 -0.9120
 3676SOL    HW216865   5.990   7.486  10.365 -0.8731  0.4178  0.5269
 3677SOL     OW16866   2.290   7.961   0.707 -0.3332 -0.2789  0.1777
 3677SOL    HW116867   2.280   8.056   0.695  0.5219 -0.1380  0.5307
 3677SOL    HW216868   2.356   7.952   0.775 -0.4627 -1.1351  0.1987
 3678SOL     OW16869   5.972   0.661   4.183  0.4516  0.5656  0.5822
 3678SOL    HW116870   5.879   0.669   4.206  0.6233 -0.0743  1.5269
 3678SOL    HW216871   6.018   0.676   4.265  1.2480  2.0287 -0.1079
 3679SOL     OW16872   9.445   1.788   8.871 -0.0664  0.3139 -0.8058
 3679SOL    HW116873   9.469   1.732   8.797  3.3349 -0.6091  0.8116
 3679SOL    HW216874   9.495   1.868   8.859 -1.0890  1.0063 -0.5486
 3680SOL     OW16875   3.885   2.586   2.003 -0.3149  0.3303  0.1886
 3680SOL    HW116876   3.791   2.605   2.005 -0.3632  0.0034  1.6182
 3680SOL    HW216877   3.891   2.496   1.972 -0.6124 -0.3599  2.0508
 3681SOL     OW16878   6.958   8.877   8.788  0.0756 -0.1365  0.4047
 3681SOL    HW116879   6.866   8.872   8.814  0.0642  0.3367  0.4626
 3681SOL    HW216880   6.961   8.951   8.727  0.9164  1.6825  2.5173
 3682SOL     OW16881   6.473  10.057   6.903  0.2573 -0.2043 -0.6091
 3682SOL    HW116882   6.392  10.006   6.905 -0.1621  0.1673 -3.6121
 3682SOL    HW216883   6.540   9.997   6.936 -0.8624 -1.2808 -0.2104
 3683SOL     OW16884   7.537   6.759   6.975 -0.3517  0.8669  0.0976
 3683SOL    HW116885   7.614   6.727   6.928  0.4682 -0.2005  2.0771
 3683SOL    HW216886   7.549   6.854   6.976  0.7644  0.7479  0.0605
 3684SOL     OW16887   8.987   7.405   6.743 -0.3359  0.0892  0.3487
 3684SOL    HW116888   9.022   7.446   6.663  2.1360 -0.1729  1.2351
 3684SOL    HW216889   8.892   7.401   6.727 -0.5213  4.0221 -0.7720
 3685SOL     OW16890   4.794   2.331  10.143 -0.3799  0.2252 -0.0180
 3685SOL    HW116891   4.744   2.329  10.224  0.3030  1.1674  0.4321
 3685SOL    HW216892   4.777   2.245  10.103  1.1918 -1.2666  2.2788
 3686SOL     OW16893   5.518   5.877   6.453  0.1319  0.4490 -0.1561
 3686SOL    HW116894   5.459   5.951   6.437 -0.8377 -0.0683  0.9218
 3686SOL    HW216895   5.593   5.916   6.499  0.4552  1.0329 -1.1331
 3687SOL     OW16896   4.604   6.323   6.824 -0.8960  0.1644 -0.3298
 3687SOL    HW116897   4.696   6.331   6.801 -0.4485  1.5543  1.6732
 3687SOL    HW216898   4.560   6.393   6.776 -0.3179  1.6542  1.1975
 3688SOL     OW16899   6.429   8.635   0.511  0.0224  0.0239 -0.7045
 3688SOL    HW116900   6.383   8.583   0.446  0.2195 -0.1027 -0.7444
 3688SOL    HW216901   6.361   8.668   0.569  0.0640 -2.1993  0.7270
 3689SOL     OW16902   2.270   1.319  10.316  0.3572  0.0985  0.4097
 3689SOL    HW116903   2.301   1.228  10.318  2.5256  0.7825  1.9304
 3689SOL    HW216904   2.314   1.357  10.240 -1.1989 -0.2748 -0.7244
 3690SOL     OW16905   6.352   4.171   9.186 -0.1877 -0.5695  0.1322
 3690SOL    HW116906   6.401   4.252   9.175  1.0892 -1.3776 -0.3450
 3690SOL    HW216907   6.352   4.130   9.099 -1.7440 -0.5952  0.1076
 3691SOL     OW16908   1.625   2.256   2.575  0.1777  0.0678  0.2416
 3691SOL    HW116909   1.620   2.303   2.492 -0.6056 -1.9352 -0.9008
 3691SOL    HW216910   1.666   2.172   2.554 -1.9377 -1.3510  1.4042
 3692SOL     OW16911   4.572   0.853   6.454  0.6870 -0.0918 -0.2504
 3692SOL    HW116912   4.507   0.799   6.498 -0.0701 -0.7284 -2.0388
 3692SOL    HW216913   4.573   0.820   6.364  2.6879  0.6396 -0.5486
 3693SOL     OW16914   2.891   1.169   7.468  0.2130  0.1855  0.4288
 3693SOL    HW116915   2.979   1.140   7.489  0.9932  3.1180  1.7485
 3693SOL    HW216916   2.896   1.195   7.376  0.3684 -0.7207  0.1684
 3694SOL     OW16917   9.974   8.970  10.691 -0.5611 -0.5834 -0.1438
 3694SOL    HW116918   9.891   8.935  10.723 -0.8603 -1.2266 -1.5377
 3694SOL    HW216919   9.967   9.064  10.702 -1.5223 -0.6249 -0.3411
 3695SOL     OW16920   4.560   4.790   9.545 -0.2501  0.1095  0.0309
 3695SOL    HW116921   4.573   4.802   9.451  0.4730  1.6671  0.2950
 3695SOL    HW216922   4.609   4.862   9.586  0.9035 -1.5365  1.7049
 3696SOL     OW16923   3.103   6.707   3.443  0.0400 -0.3401  0.2911
 3696SOL    HW116924   3.075   6.700   3.351 -0.8945 -2.1459  0.6677
 3696SOL    HW216925   3.060   6.634   3.487 -0.8523  1.4283  2.5321
 3697SOL     OW16926   6.919   2.036   3.738 -0.0153  0.3802 -0.0758
 3697SOL    HW116927   6.826   2.051   3.749  0.1181  0.7319  0.6559
 3697SOL    HW216928   6.926   1.947   3.703 -0.6784  0.8634 -1.5372
 3698SOL     OW16929   9.953   0.183   0.863 -0.4214 -0.1822 -0.6296
 3698SOL    HW116930   9.863   0.209   0.880 -0.8245 -1.8838 -0.0240
 3698SOL    HW216931   9.946   0.112   0.799  0.5390  0.1351 -1.1121
 3699SOL     OW16932   7.095   1.715   0.159 -0.5737  0.3204  0.1539
 3699SOL    HW116933   7.143   1.646   0.205 -0.4410  0.2566 -0.0784
 3699SOL    HW216934   7.081   1.783   0.226  0.7836  0.8195 -0.0392
 3700SOL     OW16935   9.643   6.909  10.556 -0.0066 -0.2156  0.5111
 3700SOL    HW116936   9.582   6.926  10.628  1.1901 -1.1044  1.7976
 3700SOL    HW216937   9.725   6.949  10.584  1.0464 -2.2895  0.6182
 3701SOL     OW16938   6.476   4.742   2.662  0.3434  0.0055  0.3186
 3701SOL    HW116939   6.452   4.682   2.592  0.4131  1.1007 -0.6697
 3701SOL    HW216940   6.489   4.686   2.738 -2.9917 -0.9170  0.3588
 3702SOL     OW16941   0.148   2.571   0.186 -0.3327  0.2581  0.2647
 3702SOL    HW116942   0.106   2.619   0.258  0.8445  1.3100  0.3030
 3702SOL    HW216943   0.209   2.511   0.230  0.0669  0.5878  0.1726
 3703SOL     OW16944   4.214   5.451   3.796 -0.2403 -0.0632 -0.4304
 3703SOL    HW116945   4.176   5.391   3.861 -0.8116  1.3972  0.6252
 3703SOL    HW216946   4.141   5.472   3.737 -0.6997  1.4970  0.6590
 3704SOL     OW16947   3.839   0.464   7.804  0.3500 -0.1522 -0.1282
 3704SOL    HW116948   3.877   0.540   7.760 -1.1122  0.4127 -0.4707
 3704SOL    HW216949   3.913   0.422   7.847  1.3565  0.8828 -0.7859
 3705SOL     OW16950   4.009   3.306   6.722  0.6977  0.1002 -0.2705
 3705SOL    HW116951   4.069   3.355   6.667  0.6851 -0.1882 -0.5394
 3705SOL    HW216952   4.055   3.295   6.805  0.1624  1.7999  0.2987
 3706SOL     OW16953   5.921   8.689   6.709  0.2137  0.1794  0.3112
 3706SOL    HW116954   5.942   8.683   6.615  1.1903  0.6392  0.4798
 3706SOL    HW216955   5.962   8.612   6.748  0.7523  0.5516  0.5013
 3707SOL     OW16956   5.069  10.371   2.068  0.1669  0.5059  0.1619
 3707SOL    HW116957   5.128  10.316   2.119  1.4762 -1.2259 -2.9824
 3707SOL    HW216958   5.120  10.450   2.049 -0.1218  0.8960  0.9219
 3708SOL     OW16959   4.976   5.635   2.316 -0.5351 -0.2927  0.0446
 3708SOL    HW116960   5.050   5.575   2.324  0.6307  1.1446  0.6468
 3708SOL    HW216961   5.003   5.712   2.367 -0.7478  1.8807 -2.8512
 3709SOL     OW16962   2.860   2.724   8.863  0.0378 -0.0020  0.5382
 3709SOL    HW116963   2.815   2.692   8.784 -0.4505  0.6769  0.5370
 3709SOL    HW216964   2.952   2.703   8.848  0.1906  1.4780 -0.9168
 3710SOL     OW16965   7.273   4.378   0.084  0.2423  0.2632 -0.1620
 3710SOL    HW116966   7.214   4.320   0.132  0.2991 -0.6191 -1.1304
 3710SOL    HW216967   7.334   4.410   0.150  0.0112 -0.5179  0.4450
 3711SOL     OW16968   2.133  10.644   6.901  0.4797  0.1762  0.0363
 3711SOL    HW116969   2.163  10.577   6.963 -0.4298  1.9780  2.5968
 3711SOL    HW216970   2.162  10.727   6.940 -0.6887  1.4519 -1.6558
 3712SOL     OW16971   1.330   5.319   1.624 -0.3260 -0.4456 -0.1716
 3712SOL    HW116972   1.282   5.299   1.704 -0.9576  0.6169 -0.2673
 3712SOL    HW216973   1.384   5.394   1.646  1.4822 -1.7385 -0.0134
 3713SOL     OW16974  10.582   8.042   3.393 -0.1608 -0.1384  0.2856
 3713SOL    HW116975  10.528   8.110   3.433  0.1836  0.0109  0.5028
 3713SOL    HW216976  10.649   8.023   3.459 -0.8620 -1.4365  0.6549
 3714SOL     OW16977   7.932  10.211   5.868  0.8281 -0.6574 -0.1986
 3714SOL    HW116978   7.921  10.121   5.900  0.1123 -0.1254  1.1171
 3714SOL    HW216979   7.920  10.266   5.945  1.5994  0.5713 -0.9105
 3715SOL     OW16980   0.795   6.586   3.480 -0.2803  0.4792  0.7057
 3715SOL    HW116981   0.881   6.574   3.441  0.4921 -0.7669  2.6891
 3715SOL    HW216982   0.774   6.678   3.463  1.4865  0.8455  0.2908
 3716SOL     OW16983   7.462   6.177   2.970  0.2602 -0.6488 -0.2742
 3716SOL    HW116984   7.553   6.163   2.996  0.1993  0.1323  0.4022
 3716SOL    HW216985   7.450   6.272   2.972 -0.2659 -0.6746 -1.4373
 3717SOL     OW16986   3.419   3.026   3.138 -0.1655  0.5125 -0.1603
 3717SOL    HW116987   3.454   3.068   3.217 -1.8131 -2.1676  2.1869
 3717SOL    HW216988   3.325   3.040   3.144 -0.4858 -1.2426 -0.6802
 3718SOL     OW16989   2.909   3.173   3.707 -0.0442  0.3078 -0.0407
 3718SOL    HW116990   2.962   3.121   3.646 -0.7414  0.8177 -1.1170
 3718SOL    HW216991   2.832   3.118   3.724 -0.6425  0.8318 -0.9518
 3719SOL     OW16992  10.099   4.594   5.850 -0.1459  0.3564 -0.7170
 3719SOL    HW116993  10.109   4.586   5.945  0.0262  1.6912 -0.6055
 3719SOL    HW216994  10.166   4.657   5.824 -1.1829  1.1717 -1.4901
 3720SOL     OW16995   7.157   7.899   5.758 -0.0507  0.3075 -0.0945
 3720SOL    HW116996   7.250   7.887   5.739  0.3685  1.1705  1.2700
 3720SOL    HW216997   7.154   7.968   5.824 -1.5836 -0.5994  0.8654
 3721SOL     OW16998   6.391   5.957   9.775 -0.0390 -0.0834 -0.4362
 3721SOL    HW116999   6.338   5.926   9.848  0.6560  0.7849  0.4551
 3721SOL    HW217000   6.451   5.885   9.756  0.6639  0.1759  0.7355
 3722SOL     OW17001   6.195   9.729   7.135 -0.1171  0.5786  0.5485
 3722SOL    HW117002   6.193   9.758   7.227 -0.0783 -1.3182  1.1792
 3722SOL    HW217003   6.274   9.676   7.128 -1.0020 -0.7104 -0.1017
 3723SOL     OW17004   2.368   1.970   4.095  0.2819  0.3227  0.2828
 3723SOL    HW117005   2.337   2.019   4.019  1.0043  0.8909  0.3384
 3723SOL    HW217006   2.456   1.941   4.070  0.5258  0.5169  0.8999
 3724SOL     OW17007   0.004   4.482   7.923 -0.3200 -0.0877 -0.1792
 3724SOL    HW117008  -0.086   4.500   7.898 -1.0784  0.5210  2.6461
 3724SOL    HW217009   0.001   4.394   7.962 -0.1248  0.6991  1.6849
 3725SOL     OW17010   3.648   3.877   1.175 -0.1687 -0.1893 -0.1068
 3725SOL    HW117011   3.598   3.925   1.241  0.6146 -0.0846  0.4171
 3725SOL    HW217012   3.602   3.793   1.167 -0.3073 -0.1793  0.5266
 3726SOL     OW17013   8.710   0.171   4.277 -0.0592  0.5978 -0.2950
 3726SOL    HW117014   8.774   0.239   4.256  0.0315  0.4253 -0.5828
 3726SOL    HW217015   8.758   0.110   4.333 -0.2166  0.9056  0.1871
 3727SOL     OW17016   0.795   1.228   0.144 -0.2012 -0.0993 -0.0839
 3727SOL    HW117017   0.857   1.191   0.080 -0.0321  0.4671 -0.2593
 3727SOL    HW217018   0.851   1.260   0.215 -0.1660  1.4416 -0.7557
 3728SOL     OW17019  10.556   9.085   2.678 -0.7895 -0.0219 -0.5229
 3728SOL    HW117020  10.471   9.108   2.641 -1.5176 -0.2668  0.9519
 3728SOL    HW217021  10.537   9.047   2.763  0.7485 -0.9613 -0.5493
 3729SOL     OW17022   4.467   1.029   7.519  0.1547  0.0455 -0.6880
 3729SOL    HW117023   4.504   0.942   7.503  1.6447  0.0886  1.9311
 3729SOL    HW217024   4.400   1.015   7.586  0.4161  0.8873 -0.2287
 3730SOL     OW17025   3.628   9.653   8.239  0.0866  0.2666  0.2128
 3730SOL    HW117026   3.602   9.652   8.331 -0.8926  0.4457 -0.0492
 3730SOL    HW217027   3.650   9.562   8.220  4.3170  0.7601  1.6666
 3731SOL     OW17028   7.460   0.498   7.903 -0.4135 -0.2684  0.1738
 3731SOL    HW117029   7.543   0.493   7.950 -0.4886 -1.3690  0.2182
 3731SOL    HW217030   7.480   0.469   7.814 -0.7779 -0.7722  0.2466
 3732SOL     OW17031   3.028   4.047   3.897 -0.8375  0.2524  0.0106
 3732SOL    HW117032   2.971   4.115   3.860  1.5612  1.3892 -1.8621
 3732SOL    HW217033   3.044   4.076   3.987 -1.9638  0.7175  0.0779
 3733SOL     OW17034   5.656   2.172   3.434  0.4022 -0.0466  0.0111
 3733SOL    HW117035   5.722   2.224   3.480 -0.8490  2.5785 -0.9358
 3733SOL    HW217036   5.691   2.161   3.345 -0.2049  1.0222 -0.3826
 3734SOL     OW17037   9.075   8.912   6.233  0.1402  0.1110  0.3041
 3734SOL    HW117038   9.143   8.870   6.286 -0.3917 -1.0802  0.0701
 3734SOL    HW217039   9.082   9.005   6.255  1.4488 -0.0637  0.7269
 3735SOL     OW17040   2.132   5.223   0.557 -0.4752 -0.7797 -0.3589
 3735SOL    HW117041   2.200   5.276   0.516  0.1837  0.5144  2.2059
 3735SOL    HW217042   2.170   5.135   0.561 -0.1956 -0.7294 -1.6314
 3736SOL     OW17043  10.165   4.260   1.780 -0.0229  0.6066  0.0132
 3736SOL    HW117044  10.133   4.227   1.696  0.7458 -1.5227  0.4890
 3736SOL    HW217045  10.212   4.186   1.818 -1.1989  1.1592  2.7755
 3737SOL     OW17046   1.758   6.664   1.906 -0.4422 -0.6799  0.5279
 3737SOL    HW117047   1.709   6.718   1.844 -0.8874 -1.7814 -0.1155
 3737SOL    HW217048   1.804   6.726   1.962 -0.8117  0.3489 -0.2899
 3738SOL     OW17049   2.070   8.794   7.321  0.3536 -0.2014  0.6639
 3738SOL    HW117050   2.002   8.812   7.386  1.2242  2.2431  1.0004
 3738SOL    HW217051   2.043   8.846   7.244  1.1789 -0.2200  0.3525
 3739SOL     OW17052   7.731  10.642   4.161 -0.1191 -0.4975 -0.5429
 3739SOL    HW117053   7.643  10.609   4.144 -0.1391 -0.8460  0.2149
 3739SOL    HW217054   7.749  10.702   4.088 -1.3046  0.2305 -0.2453
 3740SOL     OW17055   3.890   8.967  10.037 -0.7441 -0.1929  0.0516
 3740SOL    HW117056   3.813   8.970   9.981  0.0412 -0.3076 -1.0600
 3740SOL    HW217057   3.964   8.961   9.977  0.1073 -0.7284  1.1049
 3741SOL     OW17058  10.574   2.991   0.033 -0.5755  1.0113  0.0166
 3741SOL    HW117059  10.603   3.076   0.065  0.8962  0.5825 -0.0975
 3741SOL    HW217060  10.599   2.929   0.101 -1.6557  0.6655  0.1111
 3742SOL     OW17061   4.128   9.770   9.849 -0.1812  0.0713 -0.0980
 3742SOL    HW117062   4.184   9.748   9.924 -0.6414  0.9636  0.5342
 3742SOL    HW217063   4.103   9.686   9.811 -0.4598 -0.4305  1.1503
 3743SOL     OW17064   7.254   5.156   4.252 -0.3094  0.1294 -0.2354
 3743SOL    HW117065   7.253   5.183   4.344  1.6296 -0.1057 -0.1068
 3743SOL    HW217066   7.171   5.188   4.217 -0.5388  1.3260  1.2817
 3744SOL     OW17067   6.071   2.639   0.200 -0.5506  0.0426 -0.8064
 3744SOL    HW117068   6.149   2.695   0.196 -0.6541  0.1715 -1.0134
 3744SOL    HW217069   6.094   2.562   0.148  0.3585 -1.0716  1.0981
 3745SOL     OW17070   8.081   8.958   6.611 -0.6541  0.8762 -0.2196
 3745SOL    HW117071   8.088   9.046   6.648  1.5178  0.4392  0.5638
 3745SOL    HW217072   8.105   8.900   6.684  0.9239 -0.1694 -1.5025
 3746SOL     OW17073   0.681   9.195   6.632 -0.1227  0.0080 -0.1610
 3746SOL    HW117074   0.612   9.258   6.653 -1.1131 -1.0711 -0.0889
 3746SOL    HW217075   0.683   9.136   6.707  1.1037  0.1943 -0.0305
 3747SOL     OW17076   4.309   5.237   4.562 -0.3234 -0.3781 -0.6506
 3747SOL    HW117077   4.359   5.273   4.489 -1.2928  0.7312 -0.8157
 3747SOL    HW217078   4.317   5.303   4.631  1.5174 -1.9264  0.7161
 3748SOL     OW17079   8.857   0.714   9.154 -0.1947  0.3148  1.0485
 3748SOL    HW117080   8.810   0.672   9.082  0.5658 -0.0449  0.7598
 3748SOL    HW217081   8.941   0.670   9.158  0.2227  1.1158  1.4184
 3749SOL     OW17082   6.006   8.627  10.350 -0.0856  0.9682 -0.3398
 3749SOL    HW117083   5.998   8.702  10.291  0.2364  1.9215  0.7807
 3749SOL    HW217084   5.953   8.559  10.309  0.5162  1.4163 -1.9787
 3750SOL     OW17085   4.126   9.080   8.300 -0.0333 -0.1211  0.4403
 3750SOL    HW117086   4.170   9.018   8.243 -0.4975  0.4586 -0.5741
 3750SOL    HW217087   4.046   9.104   8.253  0.0544  1.1076  0.8750
 3751SOL     OW17088   7.551   7.108   5.267  0.0097 -0.2337  0.3522
 3751SOL    HW117089   7.622   7.086   5.206 -0.9134 -0.6078 -0.6326
 3751SOL    HW217090   7.551   7.037   5.330  1.0697  0.2251  0.9013
 3752SOL     OW17091   9.868   2.169   8.535  0.2033 -0.4379 -0.6249
 3752SOL    HW117092   9.950   2.122   8.519  1.2162  1.2388 -0.5689
 3752SOL    HW217093   9.800   2.103   8.522  1.4682 -1.5140 -2.1915
 3753SOL     OW17094   9.764   9.812  10.451 -0.6836 -0.3877  0.2320
 3753SOL    HW117095   9.784   9.722  10.474 -2.5266 -0.6115  1.0531
 3753SOL    HW217096   9.765   9.860  10.534 -1.8328 -0.0910  0.0949
 3754SOL     OW17097   0.768   8.856  10.157  0.2688 -0.2826 -0.0197
 3754SOL    HW117098   0.752   8.946  10.185  1.6975 -0.2235  0.6825
 3754SOL    HW217099   0.821   8.864  10.077  2.2309 -0.4524  1.1877
 3755SOL     OW17100   8.276   3.710   3.782  0.3908  0.1269  0.0545
 3755SOL    HW117101   8.236   3.645   3.841  1.2269 -1.5414 -1.1145
 3755SOL    HW217102   8.344   3.660   3.736 -0.2363  1.3494 -2.3336
 3756SOL     OW17103   0.195   5.963  10.660  0.0317  0.2661  0.7677
 3756SOL    HW117104   0.177   6.019  10.735 -0.9727  0.8976  0.0835
 3756SOL    HW217105   0.231   6.022  10.594 -0.5816  0.0290  0.2081
 3757SOL     OW17106   0.014   4.229   3.220 -0.3773  0.0642  0.3025
 3757SOL    HW117107   0.080   4.200   3.282  0.1450  0.4277 -0.0665
 3757SOL    HW217108  -0.068   4.193   3.252 -0.0827  0.0855  1.0880
 3758SOL     OW17109   4.586   8.868   0.163 -0.3564  0.1125  0.5054
 3758SOL    HW117110   4.636   8.817   0.100  2.1374  1.9285  0.8327
 3758SOL    HW217111   4.595   8.821   0.246  3.3575  1.7142  1.1893
 3759SOL     OW17112   3.516   6.061   7.942  0.2353  0.2223 -0.2480
 3759SOL    HW117113   3.610   6.066   7.956  0.1460  0.0058  0.4202
 3759SOL    HW217114   3.484   6.149   7.962  0.2680  0.2544 -0.3316
 3760SOL     OW17115   7.158   0.251   9.826  0.2995  0.1856 -0.4426
 3760SOL    HW117116   7.218   0.321   9.852  2.0066 -0.6511 -1.9390
 3760SOL    HW217117   7.212   0.173   9.821 -1.3748 -1.0888  0.2229
 3761SOL     OW17118   7.554  10.029   6.803  0.0894 -0.3555 -0.5904
 3761SOL    HW117119   7.643   9.996   6.790  0.4001  0.6553 -1.2481
 3761SOL    HW217120   7.530  10.003   6.891  1.9280  1.2452  0.4703
 3762SOL     OW17121  10.499   8.533   9.824  0.2541 -0.1439  0.3623
 3762SOL    HW117122  10.476   8.445   9.796  1.4483  0.3511 -2.5328
 3762SOL    HW217123  10.445   8.590   9.770  2.4887  0.8835 -0.9341
 3763SOL     OW17124   4.721   2.288   6.366  0.1729 -0.6776 -0.0988
 3763SOL    HW117125   4.693   2.363   6.314  1.5607  1.3944  1.9537
 3763SOL    HW217126   4.810   2.270   6.336 -0.1358 -1.5016 -0.5477
 3764SOL     OW17127   0.925   8.373   5.731 -0.2791  0.0881  0.0799
 3764SOL    HW117128   0.990   8.320   5.685 -1.4586  0.4786 -2.1616
 3764SOL    HW217129   0.915   8.452   5.677 -0.9357  1.1071  1.6079
 3765SOL     OW17130   7.440   5.200   6.668 -0.0015 -0.3167  0.1113
 3765SOL    HW117131   7.496   5.158   6.603 -0.1740  0.4907 -0.5767
 3765SOL    HW217132   7.419   5.286   6.631 -0.5617 -0.0551  0.9809
 3766SOL     OW17133   5.763   4.047   3.540 -0.3761 -0.6943 -0.8024
 3766SOL    HW117134   5.707   4.123   3.528  0.8043  0.0341 -1.9943
 3766SOL    HW217135   5.789   4.049   3.632 -2.5365 -1.2560 -0.1337
 3767SOL     OW17136   0.873   8.140  10.104 -0.3910 -0.5674 -0.4183
 3767SOL    HW117137   0.784   8.135  10.071  0.1294 -2.6714 -1.6757
 3767SOL    HW217138   0.924   8.085  10.045  1.7148  0.3802  0.4121
 3768SOL     OW17139   8.283   8.766   1.465 -0.9357 -0.2399 -0.5899
 3768SOL    HW117140   8.221   8.794   1.397 -0.5192  2.7098  0.1080
 3768SOL    HW217141   8.351   8.834   1.465  1.1855 -2.2217  0.1658
 3769SOL     OW17142   7.427   3.521   9.950  0.3971  0.6438 -0.1494
 3769SOL    HW117143   7.509   3.493   9.911 -0.5611 -1.1438 -1.0093
 3769SOL    HW217144   7.411   3.608   9.912  2.8037  1.9631  1.5792
 3770SOL     OW17145   5.393   6.344   0.975 -0.2680  0.0316 -0.6483
 3770SOL    HW117146   5.407   6.250   0.987 -0.9264 -0.2297 -1.8281
 3770SOL    HW217147   5.411   6.360   0.882  1.0774  1.3145 -0.2161
 3771SOL     OW17148  10.390   2.957   2.143 -0.2188 -0.5050  0.0388
 3771SOL    HW117149  10.389   2.940   2.237 -1.0182  1.0872  0.3609
 3771SOL    HW217150  10.352   2.879   2.104 -0.9812 -0.7090  1.1467
 3772SOL     OW17151   5.601   5.128   0.598 -0.0549  0.0469  0.3599
 3772SOL    HW117152   5.624   5.038   0.622  2.4028  0.6432  0.5727
 3772SOL    HW217153   5.552   5.119   0.516  0.3107 -1.4960  0.2760
 3773SOL     OW17154  10.683   8.676   3.863  0.1563  0.2285 -0.5247
 3773SOL    HW117155  10.661   8.767   3.884  0.2027  0.5999 -1.9984
 3773SOL    HW217156  10.693   8.634   3.948  0.0866  1.5920  0.1848
 3774SOL     OW17157   8.178   6.646   1.832  0.3832 -0.1718 -0.1486
 3774SOL    HW117158   8.084   6.632   1.822  0.4317 -0.2924 -0.4632
 3774SOL    HW217159   8.204   6.591   1.906  0.4202 -1.0847 -0.8265
 3775SOL     OW17160   1.669   6.007   0.028  0.2866  0.0327 -0.1424
 3775SOL    HW117161   1.644   5.920  -0.003 -1.0318  0.5028 -0.4376
 3775SOL    HW217162   1.595   6.036   0.081  1.1759  0.5468  0.8461
 3776SOL     OW17163   9.216   3.215   4.337 -0.0444 -0.4342  0.1491
 3776SOL    HW117164   9.292   3.263   4.303  0.6647 -0.6028  1.4514
 3776SOL    HW217165   9.170   3.279   4.392 -0.2308 -0.6662  0.2657
 3777SOL     OW17166   8.555   0.039   5.347  0.1504  0.1351 -0.6295
 3777SOL    HW117167   8.559  -0.012   5.428 -1.6652 -1.6052 -1.5413
 3777SOL    HW217168   8.605   0.118   5.366  0.9393 -0.8307  1.7174
 3778SOL     OW17169   6.431   8.739   4.778 -0.2941 -0.1163  0.4669
 3778SOL    HW117170   6.474   8.789   4.847  0.5337 -0.6926  0.3809
 3778SOL    HW217171   6.486   8.751   4.701 -1.2177  0.5279 -0.1034
 3779SOL     OW17172   8.279   9.890  10.075 -0.6495  0.0565  0.5889
 3779SOL    HW117173   8.350   9.826  10.073  0.2824  1.0770 -0.5884
 3779SOL    HW217174   8.203   9.844  10.039 -0.6771 -1.1004  2.0272
 3780SOL     OW17175   7.317   2.224   2.953 -0.7720 -0.4982 -0.0746
 3780SOL    HW117176   7.268   2.142   2.949 -0.8243 -0.6395  2.3334
 3780SOL    HW217177   7.360   2.230   2.867 -2.4732 -1.9296 -1.1044
 3781SOL     OW17178   6.932   3.076   4.362  0.1786  0.1799  0.0903
 3781SOL    HW117179   6.949   3.000   4.306 -0.1179 -0.1914  0.5024
 3781SOL    HW217180   6.888   3.040   4.439  1.7036  0.5169  1.1505
 3782SOL     OW17181   9.610  10.038   0.610  0.1139 -0.1376  0.6469
 3782SOL    HW117182   9.655   9.953   0.608 -0.2845 -0.4137  2.2191
 3782SOL    HW217183   9.532  10.025   0.557  0.6007 -0.4171 -0.0142
 3783SOL     OW17184   3.702   7.486   7.550 -0.4689  0.4618 -0.1505
 3783SOL    HW117185   3.703   7.392   7.533 -2.4288  0.2041  0.8282
 3783SOL    HW217186   3.729   7.526   7.467 -0.8062 -0.9416 -0.9698
 3784SOL     OW17187   2.541   6.702  10.703  0.0470  0.4229  0.1378
 3784SOL    HW117188   2.448   6.679  10.696 -0.3938  1.8040  1.0580
 3784SOL    HW217189   2.586   6.634  10.654 -1.6171  0.9627 -2.3485
 3785SOL     OW17190   7.629   5.137   8.620  0.0869  0.2442 -0.0027
 3785SOL    HW117191   7.691   5.142   8.692  0.6135 -1.8724 -0.2413
 3785SOL    HW217192   7.667   5.191   8.551  1.1083 -0.1447  0.2448
 3786SOL     OW17193   2.331   0.504  10.611 -0.3607  0.7981 -0.3400
 3786SOL    HW117194   2.333   0.597  10.635 -0.1686  0.8070 -0.3941
 3786SOL    HW217195   2.256   0.497  10.552 -1.9613  0.4472  1.6180
 3787SOL     OW17196   5.101   3.732   1.639  0.3894 -0.1587 -0.3456
 3787SOL    HW117197   5.099   3.668   1.710  0.8189  0.5987  0.3779
 3787SOL    HW217198   5.092   3.817   1.683 -1.3123  0.2402 -1.3791
 3788SOL     OW17199   6.842   2.271   3.646 -0.7055 -0.4446 -0.1488
 3788SOL    HW117200   6.919   2.321   3.619 -0.8663 -0.2045 -0.1594
 3788SOL    HW217201   6.878   2.195   3.693 -0.4815 -0.0258  0.3663
 3789SOL     OW17202   1.473   4.703   9.060 -0.0666  0.4077  0.0981
 3789SOL    HW117203   1.517   4.663   9.135  1.9846  2.0234 -0.1254
 3789SOL    HW217204   1.419   4.634   9.023  0.6248 -1.0790  1.7423
 3790SOL     OW17205   0.528   6.986   1.903 -0.4105 -0.3524 -0.3837
 3790SOL    HW117206   0.568   6.950   1.824  0.8358  1.6017 -0.6993
 3790SOL    HW217207   0.481   6.912   1.942  0.1312 -1.7031 -2.1851
 3791SOL     OW17208   5.229   6.842   7.384  0.5635  0.1438 -0.7799
 3791SOL    HW117209   5.203   6.869   7.295  0.8153 -2.8574 -1.8685
 3791SOL    HW217210   5.212   6.748   7.387  0.1480  0.1950  2.5614
 3792SOL     OW17211   9.419   6.498   3.305 -0.2442  0.6692  0.3528
 3792SOL    HW117212   9.326   6.496   3.283 -0.5971 -1.4180  1.6775
 3792SOL    HW217213   9.443   6.590   3.302 -1.3387  1.0084 -3.8212
 3793SOL     OW17214   0.102   9.693   2.762  0.1958 -0.3425 -0.1799
 3793SOL    HW117215   0.019   9.727   2.729  0.9630  0.1779 -1.7239
 3793SOL    HW217216   0.154   9.771   2.780  0.0028 -0.6438  1.8191
 3794SOL     OW17217   3.436   2.361   4.934  0.0553  0.5354 -0.0351
 3794SOL    HW117218   3.445   2.271   4.901 -2.0891 -1.0373  3.1876
 3794SOL    HW217219   3.348   2.387   4.908  1.0243  2.2780 -1.8856
 3795SOL     OW17220   2.179   9.499   4.282 -0.7419  0.1724 -0.1182
 3795SOL    HW117221   2.102   9.535   4.237 -1.3491  0.3989  1.0590
 3795SOL    HW217222   2.191   9.557   4.358 -1.1306 -1.4739  1.2667
 3796SOL     OW17223   8.132   1.583   8.411  0.3737  0.0990 -0.3956
 3796SOL    HW117224   8.183   1.645   8.358  0.0718  0.5326 -0.1784
 3796SOL    HW217225   8.059   1.634   8.445 -0.0025 -0.4288 -0.3893
 3797SOL     OW17226   7.049   2.115   6.793 -0.4979  0.1348  0.5379
 3797SOL    HW117227   7.026   2.150   6.879 -0.6660 -0.1266  0.6005
 3797SOL    HW217228   6.972   2.135   6.739 -0.2548  0.5992  0.3623
 3798SOL     OW17229   2.636   2.134   9.314  0.1609 -0.5202 -0.0074
 3798SOL    HW117230   2.540   2.140   9.306  0.1121 -1.1174  0.0530
 3798SOL    HW217231   2.656   2.171   9.399  0.2986  2.3999 -1.1920
 3799SOL     OW17232   5.216   6.489   5.013  0.7897  0.1218  0.0925
 3799SOL    HW117233   5.208   6.394   5.000  1.9898  0.0005  0.1445
 3799SOL    HW217234   5.245   6.522   4.928 -1.5701  0.7519 -0.5602
 3800SOL     OW17235   6.237   1.226   5.939  0.2024 -0.5288  0.1722
 3800SOL    HW117236   6.277   1.221   6.026  0.5716 -0.6229 -0.0024
 3800SOL    HW217237   6.233   1.320   5.920  0.4983 -0.5286  0.1160
 3801SOL     OW17238   8.458   8.601  10.199 -0.1231 -0.4026 -0.2318
 3801SOL    HW117239   8.407   8.678  10.227 -1.9792 -2.4574  2.5564
 3801SOL    HW217240   8.393   8.535  10.178  1.4330 -1.2966 -2.6883
 3802SOL     OW17241   7.955  10.716  10.235 -0.4632  0.3971  0.0588
 3802SOL    HW117242   8.006  10.698  10.314 -0.4984  0.5687  0.1215
 3802SOL    HW217243   7.961  10.636  10.183 -0.8689  0.0920  0.4688
 3803SOL     OW17244   1.729   9.133   8.337 -0.2130 -0.5551  0.0753
 3803SOL    HW117245   1.641   9.127   8.299 -0.5817 -0.1279  0.8496
 3803SOL    HW217246   1.723   9.083   8.419 -0.0257  0.3309  0.6438
 3804SOL     OW17247   3.330   0.600   4.460  0.2218  0.3013 -0.0710
 3804SOL    HW117248   3.351   0.537   4.390 -0.2995 -1.8694  1.6061
 3804SOL    HW217249   3.247   0.639   4.432  0.4913  0.1782 -1.0952
 3805SOL     OW17250   1.802   1.515   5.427 -0.0812 -0.1309 -0.5369
 3805SOL    HW117251   1.825   1.562   5.508 -2.2670 -0.1609  0.1594
 3805SOL    HW217252   1.821   1.423   5.446 -0.2348 -0.0921 -0.1920
 3806SOL     OW17253   9.209   8.220   7.845  0.8267  0.0904  1.2098
 3806SOL    HW117254   9.183   8.151   7.906  0.4831 -0.5445  0.3614
 3806SOL    HW217255   9.244   8.174   7.769  0.2021  0.8279  0.4502
 3807SOL     OW17256   2.059   5.566   2.723 -0.0914  0.2648 -0.6389
 3807SOL    HW117257   2.103   5.598   2.801 -0.5204 -0.9281  0.1129
 3807SOL    HW217258   1.970   5.601   2.729 -0.3544 -0.4831 -0.1838
 3808SOL     OW17259  10.542   9.438   8.450 -0.4721 -0.0551  0.0237
 3808SOL    HW117260  10.454   9.445   8.413 -0.4715 -1.0506 -0.1999
 3808SOL    HW217261  10.536   9.485   8.534 -1.3797 -0.5775  0.2773
 3809SOL     OW17262   5.647   3.093  10.493  0.1966 -0.2333  0.4218
 3809SOL    HW117263   5.670   3.029  10.426 -4.1439 -0.1645 -1.4777
 3809SOL    HW217264   5.624   3.041  10.570 -0.3951 -0.8132 -0.1321
 3810SOL     OW17265   5.538   8.969   0.160 -0.9665  0.2112  0.4156
 3810SOL    HW117266   5.577   8.957   0.074  1.8251 -0.2443  1.6435
 3810SOL    HW217267   5.547   8.884   0.203 -3.4823  0.0581  0.7953
 3811SOL     OW17268   4.575   2.735   7.642 -0.1514  0.1138  0.3357
 3811SOL    HW117269   4.539   2.691   7.565 -0.5027 -0.3005  0.7378
 3811SOL    HW217270   4.503   2.738   7.704  0.0011  0.8413  0.4953
 3812SOL     OW17271   4.775   1.048   6.963 -0.1130  0.3266  0.5706
 3812SOL    HW117272   4.837   0.988   7.004  0.5930  0.0506 -0.8518
 3812SOL    HW217273   4.698   1.045   7.020  0.2969 -1.1413  1.0986
 3813SOL     OW17274   4.470   0.385   3.493  0.0964  0.0976 -0.1421
 3813SOL    HW117275   4.402   0.453   3.492 -0.5467 -0.5227  0.3183
 3813SOL    HW217276   4.486   0.366   3.401 -1.0604 -0.4355 -0.2482
 3814SOL     OW17277   6.822   0.902   8.784  0.0760  0.1641  0.1778
 3814SOL    HW117278   6.831   0.857   8.700  0.2902 -1.8387  1.2156
 3814SOL    HW217279   6.907   0.944   8.798 -0.0498  0.7315 -0.7060
 3815SOL     OW17280   7.279   1.643   8.361  0.7720 -0.5176  0.6874
 3815SOL    HW117281   7.243   1.728   8.386  0.0424 -1.0747  1.5759
 3815SOL    HW217282   7.203   1.585   8.357  1.0978 -0.8973 -1.0245
 3816SOL     OW17283   6.767   6.127   6.288 -0.0696  0.3745 -0.2435
 3816SOL    HW117284   6.771   6.193   6.357 -0.8586  0.4937 -0.3011
 3816SOL    HW217285   6.848   6.139   6.239 -0.3394  1.5190 -0.4407
 3817SOL     OW17286   5.015   5.651   0.568  0.5109  0.1982 -0.6874
 3817SOL    HW117287   4.963   5.723   0.603 -0.3660 -0.2607 -0.9911
 3817SOL    HW217288   5.002   5.657   0.473  2.1492  0.9073 -0.8861
 3818SOL     OW17289   0.967   0.402   5.525 -0.4732 -0.1831 -0.5625
 3818SOL    HW117290   0.958   0.498   5.530  2.4713  0.2158 -1.0913
 3818SOL    HW217291   0.986   0.376   5.615 -1.8987 -0.4038 -0.3005
 3819SOL     OW17292   5.640   7.627   4.519  0.2392 -0.2044 -0.0277
 3819SOL    HW117293   5.562   7.681   4.531  0.4542 -0.3172  2.1913
 3819SOL    HW217294   5.620   7.574   4.441 -1.5940  0.2785  0.0665
 3820SOL     OW17295   1.426   0.430   9.157  0.2684 -0.3734 -0.5496
 3820SOL    HW117296   1.450   0.357   9.100  2.1263 -1.5070  1.5220
 3820SOL    HW217297   1.470   0.411   9.240  1.2513  3.3538 -0.0436
 3821SOL     OW17298   9.976   4.653   0.319  0.6939 -0.8782 -0.0577
 3821SOL    HW117299  10.062   4.624   0.288  0.7319 -0.4629 -0.3517
 3821SOL    HW217300   9.958   4.599   0.396  1.7392 -0.1675  0.7017
 3822SOL     OW17301  10.166   5.349   2.702  0.3141  0.0753 -0.7362
 3822SOL    HW117302  10.133   5.418   2.644  0.8164 -0.0532 -1.1816
 3822SOL    HW217303  10.258   5.371   2.717  0.4647 -0.4506 -0.8333
 3823SOL     OW17304   0.510   9.328   2.371 -0.2421  0.5273  0.3344
 3823SOL    HW117305   0.538   9.325   2.279  0.8475 -0.1142  0.6782
 3823SOL    HW217306   0.482   9.418   2.384 -0.5852  0.5850 -0.6757
 3824SOL     OW17307   6.584   4.584   1.818  0.1446 -0.4364 -0.2330
 3824SOL    HW117308   6.595   4.499   1.859 -1.1815 -2.0657 -3.0094
 3824SOL    HW217309   6.665   4.599   1.770 -0.1836 -0.8828 -0.9468
 3825SOL     OW17310   6.999   3.945   8.145  0.2805 -0.0859  0.8977
 3825SOL    HW117311   6.986   4.019   8.086  0.2736 -1.4516 -0.8830
 3825SOL    HW217312   6.934   3.880   8.117  1.5644 -1.5285  1.1383
 3826SOL     OW17313   7.770   8.811   6.707  0.9416 -0.1514  0.2254
 3826SOL    HW117314   7.790   8.780   6.796  1.2623  0.2012  0.2762
 3826SOL    HW217315   7.851   8.797   6.658  1.0371  0.4413  0.2040
 3827SOL     OW17316   5.825   0.429   8.418 -0.0297 -0.1315  0.1994
 3827SOL    HW117317   5.871   0.508   8.447 -1.4132  1.0385 -0.6682
 3827SOL    HW217318   5.895   0.366   8.402  1.1770  1.1168  0.2907
 3828SOL     OW17319   9.598   9.899   5.207 -0.2957 -0.1392  0.3707
 3828SOL    HW117320   9.560   9.812   5.222 -0.2051 -0.2469 -0.0098
 3828SOL    HW217321   9.625   9.928   5.294  2.2320 -1.6863  0.2083
 3829SOL     OW17322   1.686   8.241   4.716 -0.4343 -0.0280 -0.3489
 3829SOL    HW117323   1.667   8.307   4.784 -0.8443  2.0313 -2.3260
 3829SOL    HW217324   1.781   8.241   4.710 -0.4587  1.3742 -1.1780
 3830SOL     OW17325   2.257   1.696   5.284 -0.4848 -0.1018  0.2331
 3830SOL    HW117326   2.212   1.681   5.201 -3.1893  0.7672  1.4148
 3830SOL    HW217327   2.187   1.695   5.349  1.3453  0.7152  2.3457
 3831SOL     OW17328   7.505   1.983   3.640 -0.1041 -0.3382 -0.6918
 3831SOL    HW117329   7.591   1.949   3.665 -0.4412  0.0552  1.1690
 3831SOL    HW217330   7.458   1.993   3.723 -1.5835  0.4489 -1.5767
 3832SOL     OW17331   9.677   1.387   1.432  0.2452  0.0120  0.7580
 3832SOL    HW117332   9.587   1.402   1.462 -0.7630  0.3106 -2.1050
 3832SOL    HW217333   9.668   1.324   1.360  2.2203  0.6444 -0.1107
 3833SOL     OW17334   5.275   8.115   0.592  0.4378 -0.1289  0.0984
 3833SOL    HW117335   5.213   8.102   0.664  1.1450  0.9078  0.9093
 3833SOL    HW217336   5.237   8.065   0.520 -1.0211 -0.0361  0.7574
 3834SOL     OW17337   2.846   9.563   5.109  0.8081  0.2682  0.9555
 3834SOL    HW117338   2.931   9.522   5.128 -0.0945 -1.2714  1.8830
 3834SOL    HW217339   2.788   9.529   5.177 -1.2526 -1.0139 -1.2799
 3835SOL     OW17340   7.246   0.045   3.662 -0.3549  0.2259  0.0316
 3835SOL    HW117341   7.318  -0.017   3.652  0.7305  1.2167  1.3451
 3835SOL    HW217342   7.236   0.085   3.576 -0.8391 -1.4760 -0.7471
 3836SOL     OW17343   3.517   8.953   6.558 -0.0318  0.5407 -0.3265
 3836SOL    HW117344   3.470   8.883   6.513  0.5315  0.4118 -0.7322
 3836SOL    HW217345   3.609   8.936   6.539  0.1426  1.1148 -0.0260
 3837SOL     OW17346   8.489   9.729  10.072 -0.2144 -0.7169  0.4241
 3837SOL    HW117347   8.582   9.709  10.071 -0.3630 -1.4708  1.0518
 3837SOL    HW217348   8.446   9.645  10.086 -0.9117 -0.1707  1.7566
 3838SOL     OW17349   9.319   7.436  10.219 -0.4795  0.0470 -0.0408
 3838SOL    HW117350   9.308   7.459  10.126  3.6600  0.2951 -0.6461
 3838SOL    HW217351   9.341   7.519  10.261  0.9672 -0.5865  0.4820
 3839SOL     OW17352   4.453  10.574   7.340 -0.0179  0.5653 -1.0565
 3839SOL    HW117353   4.397  10.506   7.378  0.2377  0.9433  0.0297
 3839SOL    HW217354   4.454  10.554   7.247 -1.3150  0.0758 -0.9962
 3840SOL     OW17355   4.364   2.818  10.208  0.6886 -0.2460  0.1516
 3840SOL    HW117356   4.373   2.913  10.212  2.1709 -0.3148 -0.7967
 3840SOL    HW217357   4.454   2.786  10.202  0.2503 -1.7587  1.1208
 3841SOL     OW17358   3.725   6.821   6.066  0.3489  0.0223  0.2199
 3841SOL    HW117359   3.699   6.864   5.985 -0.6966 -2.3886 -0.8254
 3841SOL    HW217360   3.647   6.772   6.093  1.2614 -0.6866  1.6904
 3842SOL     OW17361   2.973   4.841   8.508  0.2468  0.3864  0.7017
 3842SOL    HW117362   2.985   4.759   8.461  1.4740  1.2547 -0.5901
 3842SOL    HW217363   2.939   4.902   8.442  0.9747  1.3559  1.1910
 3843SOL     OW17364   0.875   1.125   5.295 -0.4628  0.7677 -0.3012
 3843SOL    HW117365   0.919   1.204   5.327 -0.5715  1.4668 -1.8218
 3843SOL    HW217366   0.787   1.156   5.271 -1.2211 -0.2525  1.0342
 3844SOL     OW17367   4.347   5.298   0.603  0.3241  0.1189  0.3472
 3844SOL    HW117368   4.387   5.375   0.562  0.2430 -0.0840 -0.1178
 3844SOL    HW217369   4.256   5.300   0.574  0.8532 -1.4265 -1.5884
 3845SOL     OW17370   0.848   4.072   5.596 -0.0359 -0.3856  0.0198
 3845SOL    HW117371   0.900   3.996   5.569 -0.4709 -0.7474  0.1698
 3845SOL    HW217372   0.904   4.147   5.580 -0.0987 -0.6163 -1.4350
 3846SOL     OW17373   2.129   6.549   9.508 -0.0440 -0.0520 -0.3682
 3846SOL    HW117374   2.192   6.524   9.576 -1.0317  0.3049  0.7141
 3846SOL    HW217375   2.178   6.540   9.426  1.0566 -0.8933  0.3457
 3847SOL     OW17376   4.676   7.427   3.922  0.6010  0.0176 -0.4348
 3847SOL    HW117377   4.691   7.466   3.836  0.4376  1.9115  0.3372
 3847SOL    HW217378   4.758   7.442   3.969  0.2802  0.0858  0.1116
 3848SOL     OW17379   9.766   6.633   6.879  0.5121 -0.4022  0.0822
 3848SOL    HW117380   9.842   6.584   6.849  0.7824  0.7780 -1.2826
 3848SOL    HW217381   9.697   6.612   6.815  0.4143  0.3990 -0.0882
 3849SOL     OW17382   8.550   9.933   2.246 -0.0705 -0.2039  0.0761
 3849SOL    HW117383   8.522   9.957   2.158 -0.6270  0.7639  0.5036
 3849SOL    HW217384   8.555  10.016   2.293  1.6477 -0.5413  0.5614
 3850SOL     OW17385   9.107   1.665   3.201 -0.2524  0.2014 -0.4862
 3850SOL    HW117386   9.167   1.696   3.268 -1.9945  0.4116  1.0366
 3850SOL    HW217387   9.086   1.744   3.149  1.4491 -0.0506 -1.6268
 3851SOL     OW17388   8.553   8.528   5.500 -0.3687 -0.3808  0.0466
 3851SOL    HW117389   8.617   8.597   5.483 -1.5159  0.8633  0.6203
 3851SOL    HW217390   8.601   8.447   5.483  0.5142  0.5517 -2.4897
 3852SOL     OW17391   9.626   5.458   1.880  0.7714  0.6556  0.3044
 3852SOL    HW117392   9.629   5.527   1.814  0.5977  0.2004 -0.1895
 3852SOL    HW217393   9.554   5.484   1.938 -0.4585  0.0151 -0.8855
 3853SOL     OW17394   4.672   8.107   7.940  0.0303  0.4894  0.1637
 3853SOL    HW117395   4.692   8.196   7.911  0.2128  0.5113  0.3530
 3853SOL    HW217396   4.583   8.091   7.908  0.8081 -0.0978 -1.8141
 3854SOL     OW17397   1.698   6.131   6.607  0.4711  0.9053  0.4083
 3854SOL    HW117398   1.785   6.095   6.619  0.9351  1.9867  0.4211
 3854SOL    HW217399   1.650   6.104   6.685  1.5548  2.3936  1.6737
 3855SOL     OW17400  10.544   0.684   6.537  0.0196  0.6823 -0.6361
 3855SOL    HW117401  10.559   0.593   6.513 -1.0443  0.1255  0.7194
 3855SOL    HW217402  10.474   0.713   6.478 -0.5378  0.2122 -0.2194
 3856SOL     OW17403   4.485   1.466   2.067  0.1357 -0.1678  0.4367
 3856SOL    HW117404   4.513   1.524   2.137  0.6807  0.8027 -0.5625
 3856SOL    HW217405   4.540   1.389   2.076  0.8372  0.3385  0.5101
 3857SOL     OW17406  10.270   7.906   2.564  0.0338 -0.0646  0.2168
 3857SOL    HW117407  10.226   7.991   2.558 -0.5732 -0.2628  1.4880
 3857SOL    HW217408  10.209   7.845   2.524  0.2893  0.0307 -0.3269
 3858SOL     OW17409   4.349   7.007   2.204  0.0435  0.2111  0.2209
 3858SOL    HW117410   4.300   6.927   2.183 -2.0043  1.5889 -0.6213
 3858SOL    HW217411   4.346   7.013   2.299 -0.8333 -0.1241  0.2250
 3859SOL     OW17412   7.718   9.821   7.845 -0.1319  0.4677 -0.1254
 3859SOL    HW117413   7.737   9.913   7.866 -1.5311  0.7068  0.1608
 3859SOL    HW217414   7.716   9.818   7.749  1.0664  0.4798 -0.1619
 3860SOL     OW17415   0.699   5.346   9.558  0.0147 -0.1048 -0.2352
 3860SOL    HW117416   0.766   5.310   9.616 -0.6523 -0.9644  0.0331
 3860SOL    HW217417   0.723   5.314   9.471  0.0003 -0.3468 -0.1514
 3861SOL     OW17418   1.362  10.154   5.684  0.6477  0.1578 -0.0500
 3861SOL    HW117419   1.376  10.088   5.752  2.9165  1.0967  0.4685
 3861SOL    HW217420   1.306  10.110   5.620  1.4949 -2.0290  0.6072
 3862SOL     OW17421   7.650   2.844   5.322  0.0296  0.0375 -0.2655
 3862SOL    HW117422   7.575   2.879   5.370  0.0614 -0.3882  0.0998
 3862SOL    HW217423   7.722   2.845   5.385  0.4677  0.8992 -0.7528
 3863SOL     OW17424  10.420   0.722   1.624  0.0826  0.0866  0.6302
 3863SOL    HW117425  10.349   0.689   1.680 -0.1135 -1.4049 -0.4288
 3863SOL    HW217426  10.389   0.705   1.535  2.0098 -1.1729  0.1502
 3864SOL     OW17427  10.692   5.443   9.822 -0.2414  0.1999  0.3667
 3864SOL    HW117428  10.678   5.443   9.727  2.5468  1.8600 -0.1590
 3864SOL    HW217429  10.787   5.452   9.832 -0.3906 -0.5226  3.3590
 3865SOL     OW17430   6.133   1.071   1.759 -0.0741 -0.4322  0.1942
 3865SOL    HW117431   6.211   1.085   1.813  0.9242 -1.1417 -1.0054
 3865SOL    HW217432   6.059   1.092   1.817  1.0121  0.7044  1.2151
 3866SOL     OW17433   3.541   9.024   5.339  0.2650 -0.0723  0.2970
 3866SOL    HW117434   3.558   8.951   5.399  0.4407 -3.1521 -3.1405
 3866SOL    HW217435   3.623   9.037   5.292 -0.3860  0.8926 -0.6407
 3867SOL     OW17436   4.760   6.767   1.634 -0.2592 -0.2443 -0.3005
 3867SOL    HW117437   4.796   6.688   1.674 -0.1006  0.0554  0.1579
 3867SOL    HW217438   4.765   6.833   1.703 -2.7821 -0.4754  0.2019
 3868SOL     OW17439  10.190   0.801   8.308  0.2355 -0.0309  0.0852
 3868SOL    HW117440  10.211   0.809   8.215  0.2426  0.7518  0.1532
 3868SOL    HW217441  10.225   0.715   8.332 -0.8346 -0.7913 -0.9119
 3869SOL     OW17442   3.167   4.248   5.123  0.2206 -0.8713  0.1242
 3869SOL    HW117443   3.152   4.339   5.147  0.3599 -0.7355 -0.3001
 3869SOL    HW217444   3.100   4.199   5.171  1.6598 -0.8201  2.3396
 3870SOL     OW17445   4.811   3.505   2.426  0.4631 -0.2680 -0.1808
 3870SOL    HW117446   4.774   3.420   2.451 -1.1735  0.3063 -0.5430
 3870SOL    HW217447   4.793   3.562   2.501 -0.6558  0.3709 -0.9129
 3871SOL     OW17448   3.098   2.806   7.149 -0.1113 -0.2066 -0.3786
 3871SOL    HW117449   3.091   2.714   7.128  1.5405 -0.8224  1.4081
 3871SOL    HW217450   3.027   2.848   7.101 -0.9100 -2.3925 -1.2092
 3872SOL     OW17451   6.756   4.760   0.115  0.3498  0.2274  0.4459
 3872SOL    HW117452   6.771   4.703   0.190 -2.1412 -1.0418  0.0723
 3872SOL    HW217453   6.743   4.847   0.153  0.9339 -0.0359  1.2864
 3873SOL     OW17454  10.315   8.800   6.603  0.1100 -0.7164  0.7498
 3873SOL    HW117455  10.365   8.779   6.525  0.3686 -0.0154  0.7171
 3873SOL    HW217456  10.332   8.727   6.663  0.1922 -1.0807  0.2896
 3874SOL     OW17457   1.537   2.436   8.413  0.5377 -0.4073  0.4517
 3874SOL    HW117458   1.548   2.531   8.414 -1.2292 -0.1714  1.2875
 3874SOL    HW217459   1.554   2.412   8.322  0.1947  0.8378  0.0321
 3875SOL     OW17460   7.102   7.883   8.002  0.6148  0.0676 -0.4763
 3875SOL    HW117461   7.129   7.864   7.912  1.8449 -1.6220  0.2009
 3875SOL    HW217462   7.184   7.889   8.051 -0.0688 -2.1091  1.0744
 3876SOL     OW17463   3.912   5.401  10.050 -0.3582 -0.2190 -0.3471
 3876SOL    HW117464   4.000   5.416  10.017  0.1014  0.2219  1.0337
 3876SOL    HW217465   3.902   5.463  10.122 -1.0873 -1.5814  0.7702
 3877SOL     OW17466   0.142   7.366  10.222 -0.3382  0.0813 -0.3212
 3877SOL    HW117467   0.185   7.440  10.265 -1.8200  2.7217 -2.9760
 3877SOL    HW217468   0.068   7.345  10.280  0.2532  0.4809  0.6090
 3878SOL     OW17469   1.187   1.338   7.372 -0.1565 -0.8051 -0.1017
 3878SOL    HW117470   1.117   1.379   7.422  0.6047  1.0248 -0.4823
 3878SOL    HW217471   1.263   1.340   7.430 -0.3382 -2.6828  0.2676
 3879SOL     OW17472   7.608   5.959   9.595 -0.2247  0.5796  0.3932
 3879SOL    HW117473   7.552   5.948   9.672  1.5600  3.0251  2.1593
 3879SOL    HW217474   7.687   5.908   9.614  0.0256  0.7791 -0.0837
 3880SOL     OW17475   7.253   1.123   2.676 -0.0746 -0.0433 -0.5924
 3880SOL    HW117476   7.326   1.174   2.711  0.3696 -1.3588  0.5330
 3880SOL    HW217477   7.292   1.070   2.607 -0.3971  0.6466 -1.3196
 3881SOL     OW17478   8.747   0.376   6.821  0.0593  0.0867  0.0115
 3881SOL    HW117479   8.672   0.329   6.785 -0.2505  0.0851  0.6387
 3881SOL    HW217480   8.782   0.317   6.888 -0.3514  0.7411  0.8253
 3882SOL     OW17481   6.919   2.545   9.781 -0.2048  0.4715  0.1641
 3882SOL    HW117482   6.881   2.483   9.720  1.6168  0.1288 -0.6800
 3882SOL    HW217483   6.844   2.592   9.818 -1.4460 -0.5721 -0.9593
 3883SOL     OW17484   2.693   2.541   3.832 -0.2325  0.4781 -0.6637
 3883SOL    HW117485   2.665   2.620   3.878  0.1265  0.2843 -0.1006
 3883SOL    HW217486   2.780   2.523   3.867 -0.7247 -0.7596  0.0116
 3884SOL     OW17487   4.732   2.361   5.513  0.7610  0.0253 -0.3922
 3884SOL    HW117488   4.735   2.319   5.427 -0.6508  1.4985 -1.2174
 3884SOL    HW217489   4.732   2.288   5.575 -1.3288 -1.2673 -1.7451
 3885SOL     OW17490   7.996   3.071   2.360  0.1216 -0.0069  0.2155
 3885SOL    HW117491   8.020   3.106   2.275 -0.3900  0.2492  0.1732
 3885SOL    HW217492   7.940   3.139   2.399 -1.6046 -1.1194 -0.2172
 3886SOL     OW17493   2.108   8.695   9.487  0.3500  0.1397 -0.1290
 3886SOL    HW117494   2.103   8.786   9.514  1.4547  0.8847 -2.1900
 3886SOL    HW217495   2.200   8.680   9.468  0.5314 -2.0336  1.9718
 3887SOL     OW17496   3.367   9.215   5.259  0.7163  1.0257 -0.7605
 3887SOL    HW117497   3.288   9.178   5.298  0.2843  0.5676 -2.0199
 3887SOL    HW217498   3.439   9.173   5.306  0.2514 -1.4361 -2.0655
 3888SOL     OW17499   5.125   5.338   5.337 -0.2325  0.1374  0.2607
 3888SOL    HW117500   5.122   5.266   5.400 -2.3058  1.0068  1.2850
 3888SOL    HW217501   5.069   5.309   5.265  0.4245 -0.0010 -0.2023
 3889SOL     OW17502   8.957   9.870   8.170 -0.0884 -0.0463  0.5273
 3889SOL    HW117503   9.014   9.797   8.195 -0.0095 -0.2658 -0.2495
 3889SOL    HW217504   8.902   9.834   8.101 -0.5358  0.4301  0.6336
 3890SOL     OW17505   6.261   5.490   8.747 -0.5205  0.2670 -0.0960
 3890SOL    HW117506   6.312   5.410   8.738  1.4667  1.5259 -0.6797
 3890SOL    HW217507   6.298   5.550   8.682 -1.5607  1.8599  0.7099
 3891SOL     OW17508   1.707   1.538   0.603 -0.4761  0.0951  0.2069
 3891SOL    HW117509   1.660   1.513   0.524  0.5378 -0.8546 -0.1186
 3891SOL    HW217510   1.700   1.461   0.660  0.3621  0.0669  0.2867
 3892SOL     OW17511   2.007   2.414   4.344 -0.0693 -0.1708 -0.9730
 3892SOL    HW117512   1.986   2.369   4.426 -1.4335  0.7991 -0.7522
 3892SOL    HW217513   1.922   2.428   4.302  0.3456  1.7301 -1.2601
 3893SOL     OW17514   0.093   2.387   9.770  0.0208  0.5652 -0.0905
 3893SOL    HW117515   0.162   2.334   9.811  0.2423  1.4101  0.6415
 3893SOL    HW217516   0.128   2.408   9.684  1.6016  2.6410  0.9604
 3894SOL     OW17517   2.151  10.721   4.940 -0.6078 -0.0459 -0.4018
 3894SOL    HW117518   2.183  10.758   4.857  1.5621  0.2797  0.5219
 3894SOL    HW217519   2.193  10.773   5.007 -1.3021 -1.1546  0.9383
 3895SOL     OW17520   4.122  10.094   9.775 -0.4435 -0.0138  0.0294
 3895SOL    HW117521   4.069  10.172   9.788 -1.2446 -0.6841  0.8770
 3895SOL    HW217522   4.212  10.124   9.784 -0.7444  0.8126  0.3215
 3896SOL     OW17523   9.272   8.954   8.821 -0.3180  0.2699  0.5222
 3896SOL    HW117524   9.330   8.884   8.790 -0.6294 -0.6091  1.8303
 3896SOL    HW217525   9.301   8.971   8.910 -1.7562  0.1374  1.0418
 3897SOL     OW17526   7.232   3.907   0.264  0.6654 -0.2799 -0.1330
 3897SOL    HW117527   7.208   3.841   0.198  1.1007 -0.9913  0.3992
 3897SOL    HW217528   7.218   3.863   0.348 -1.6056  1.2055  0.3560
 3898SOL     OW17529   7.430   6.965   0.670 -0.2083 -0.3678  0.1664
 3898SOL    HW117530   7.524   6.969   0.655 -0.0325 -2.1338  0.5588
 3898SOL    HW217531   7.392   7.015   0.598  1.0107  0.1218 -0.1655
 3899SOL     OW17532   1.042   2.359   0.038 -0.9184 -0.1577  0.5763
 3899SOL    HW117533   0.951   2.331   0.042 -0.4059 -1.8439  1.5404
 3899SOL    HW217534   1.074   2.324  -0.045 -0.8821 -0.4797  0.7243
 3900SOL     OW17535   5.583   1.263   2.284 -0.0318 -0.5761  0.1345
 3900SOL    HW117536   5.588   1.267   2.189  0.6956 -0.3956  0.1748
 3900SOL    HW217537   5.489   1.262   2.303 -0.1870  0.2536 -0.5491
 3901SOL     OW17538   3.776   9.923   5.919  0.0393 -0.2570  0.1473
 3901SOL    HW117539   3.725   9.958   5.993  0.0729 -0.3095  0.1954
 3901SOL    HW217540   3.839   9.992   5.899 -0.5600  0.1346 -0.4203
 3902SOL     OW17541   2.659   1.030   8.392 -0.3854 -0.9286 -0.2243
 3902SOL    HW117542   2.701   0.962   8.444  0.0717 -0.4448  0.0534
 3902SOL    HW217543   2.638   0.988   8.309  0.3396 -1.2783 -0.2376
 3903SOL     OW17544   9.809   8.679   5.427  0.2956  0.2556  0.2224
 3903SOL    HW117545   9.741   8.689   5.494 -0.5848 -1.4713 -0.3544
 3903SOL    HW217546   9.774   8.722   5.350  0.4936  0.6286  0.3407
 3904SOL     OW17547   0.391  10.355   2.014  0.1749  0.5237 -0.3652
 3904SOL    HW117548   0.306  10.377   1.977  0.3498 -1.0061 -1.7904
 3904SOL    HW217549   0.382  10.265   2.045 -0.0274  1.7498  3.7003
 3905SOL     OW17550  10.197   9.441   3.916  0.1822  0.2973 -0.1289
 3905SOL    HW117551  10.134   9.489   3.970  0.6967 -0.6286  1.3431
 3905SOL    HW217552  10.142   9.391   3.854 -0.6975 -1.6622  2.0864
 3906SOL     OW17553   5.420   7.900   2.258  0.2135 -0.0932  0.1392
 3906SOL    HW117554   5.474   7.823   2.239 -2.9270 -2.1688 -1.2176
 3906SOL    HW217555   5.401   7.893   2.352  0.1317 -0.8852  0.0709
 3907SOL     OW17556   7.403   6.347   6.000  0.0776 -0.6828  0.4237
 3907SOL    HW117557   7.378   6.297   5.922 -2.2653  1.0064 -0.0062
 3907SOL    HW217558   7.497   6.331   6.010 -0.0362 -2.8498 -1.3198
 3908SOL     OW17559   7.864   6.732   5.061  0.3832 -0.1927  0.0755
 3908SOL    HW117560   7.914   6.685   5.127  1.2614 -0.0364 -0.4622
 3908SOL    HW217561   7.929   6.763   4.999 -0.0843  2.1566  0.6496
 3909SOL     OW17562   1.659   1.814   3.152  0.1097 -0.1604  0.0405
 3909SOL    HW117563   1.682   1.860   3.072 -0.0279  2.2225  1.2893
 3909SOL    HW217564   1.571   1.781   3.135 -0.7010  1.9508 -0.1985
 3910SOL     OW17565   3.255   1.819   3.558  0.5214  0.2752  0.6937
 3910SOL    HW117566   3.286   1.759   3.490  1.0243  1.2052  0.0821
 3910SOL    HW217567   3.335   1.851   3.600  0.3028  1.0518  0.5349
 3911SOL     OW17568   5.080   5.849   0.950  0.1171 -0.1937 -0.4262
 3911SOL    HW117569   5.168   5.812   0.955 -1.0264 -3.0319  4.0135
 3911SOL    HW217570   5.072   5.904   1.028 -1.8493  0.5685 -1.1078
 3912SOL     OW17571   8.355   1.734   0.131  0.4659  0.4306  0.0990
 3912SOL    HW117572   8.407   1.775   0.062 -0.1436  2.6929  0.9081
 3912SOL    HW217573   8.287   1.686   0.084  2.1023 -1.0270 -0.9085
 3913SOL     OW17574   3.824   3.570   1.170  0.5024  0.2135  0.2282
 3913SOL    HW117575   3.797   3.608   1.253  1.2035 -0.8432  0.9618
 3913SOL    HW217576   3.750   3.516   1.142  0.2156  0.6726  0.0940
 3914SOL     OW17577   6.883   3.295   0.577 -0.2396  0.2450 -0.5090
 3914SOL    HW117578   6.928   3.297   0.493 -0.4405 -1.4471 -0.6873
 3914SOL    HW217579   6.830   3.375   0.579  1.6820  1.6049 -0.8789
 3915SOL     OW17580   1.969   3.896   1.279  0.0146 -0.0068  0.3530
 3915SOL    HW117581   2.037   3.833   1.301  1.2550  1.4974  0.9698
 3915SOL    HW217582   1.968   3.957   1.352  0.2393  1.8276 -1.1078
 3916SOL     OW17583   5.217   5.114   4.752 -0.3046  0.6010  0.3219
 3916SOL    HW117584   5.312   5.126   4.747  0.0887 -1.6620  1.2346
 3916SOL    HW217585   5.188   5.117   4.661  0.9937 -0.8987 -0.1754
 3917SOL     OW17586   7.715   4.123   1.733  0.0313 -0.2147 -0.2481
 3917SOL    HW117587   7.758   4.177   1.801 -0.6489 -1.4624  1.2343
 3917SOL    HW217588   7.622   4.126   1.756 -0.2989 -0.1100 -1.5567
 3918SOL     OW17589   2.891   8.171   2.736 -0.1354  0.3131 -0.1268
 3918SOL    HW117590   2.798   8.193   2.738 -0.3213 -0.4743  0.3192
 3918SOL    HW217591   2.931   8.239   2.682 -0.7997  1.2989  0.5929
 3919SOL     OW17592   2.736   2.148   5.138  0.5680  0.1292 -0.1108
 3919SOL    HW117593   2.737   2.162   5.233  0.4565  0.0574 -0.0996
 3919SOL    HW217594   2.644   2.137   5.116  0.5955  0.1295 -0.2258
 3920SOL     OW17595   1.547   4.156   6.760  0.0609  0.2409 -0.2139
 3920SOL    HW117596   1.568   4.118   6.845  0.5404  2.2704  0.6295
 3920SOL    HW217597   1.508   4.084   6.710 -0.5797 -0.9120  1.8401
 3921SOL     OW17598   8.265   4.879   9.499 -0.4699  0.1185  0.3980
 3921SOL    HW117599   8.352   4.888   9.540  0.1798 -0.3346 -0.8291
 3921SOL    HW217600   8.279   4.907   9.408 -1.7337  0.5118  0.3158
 3922SOL     OW17601   1.250   4.116   8.386  0.8876  0.6596  0.2120
 3922SOL    HW117602   1.209   4.035   8.418  0.2137  0.9723  0.1535
 3922SOL    HW217603   1.189   4.150   8.321  2.3219 -0.0487 -1.5818
 3923SOL     OW17604  10.598   1.907   5.733 -0.3691 -0.5903 -0.3823
 3923SOL    HW117605  10.670   1.930   5.675  0.3370 -1.5087  0.1035
 3923SOL    HW217606  10.536   1.859   5.677  0.3510 -1.5526 -0.3776
 3924SOL     OW17607   2.540   9.642   1.882  0.0704  0.2207 -0.2506
 3924SOL    HW117608   2.562   9.559   1.839 -0.2559 -0.4027  0.7395
 3924SOL    HW217609   2.615   9.698   1.867  1.2077 -0.9618  0.7877
 3925SOL     OW17610   4.211   3.111   7.466 -0.0682 -0.2815  0.3566
 3925SOL    HW117611   4.244   3.192   7.505 -1.3886  0.9254 -0.8771
 3925SOL    HW217612   4.136   3.086   7.520  0.7069 -1.0475  1.0976
 3926SOL     OW17613  10.453   9.129   6.766  0.1130  0.2384 -0.1323
 3926SOL    HW117614  10.372   9.080   6.779  0.4609 -0.4764 -0.6092
 3926SOL    HW217615  10.476   9.114   6.674  1.5160 -0.7036  0.3379
 3927SOL     OW17616   4.111   2.602   8.219  0.6798 -0.0257  0.5205
 3927SOL    HW117617   4.177   2.577   8.284  1.6628  0.9516 -0.0611
 3927SOL    HW217618   4.141   2.688   8.186  0.7951 -0.9127 -1.9231
 3928SOL     OW17619   3.839   4.997   6.799  0.1748 -0.5825 -0.4088
 3928SOL    HW117620   3.906   5.033   6.857  0.1777  0.0616 -0.7991
 3928SOL    HW217621   3.885   4.983   6.716 -0.4647  1.1244 -1.0862
 3929SOL     OW17622   7.526   3.777   6.634 -0.2067  0.1896 -0.2522
 3929SOL    HW117623   7.593   3.824   6.585  0.1054 -0.2295 -0.2305
 3929SOL    HW217624   7.461   3.751   6.568  0.5160 -0.9059 -0.5522
 3930SOL     OW17625   9.176   5.905   5.032 -0.0720 -0.5471 -0.4700
 3930SOL    HW117626   9.087   5.936   5.015  0.6104  0.8282 -1.7854
 3930SOL    HW217627   9.178   5.815   5.000 -0.6444 -0.1542 -1.6332
 3931SOL     OW17628   8.135   4.685  10.339  0.0200 -0.1110 -0.0568
 3931SOL    HW117629   8.145   4.625  10.264  0.5155  0.2582 -0.2936
 3931SOL    HW217630   8.120   4.627  10.414 -2.9467 -0.4458 -0.7625
 3932SOL     OW17631   4.582   0.350   0.622 -0.0922 -0.3253  0.2727
 3932SOL    HW117632   4.630   0.397   0.553  1.0559 -1.1649  0.4724
 3932SOL    HW217633   4.517   0.299   0.575  0.3025 -0.4487 -0.1505
 3933SOL     OW17634   6.666   4.729  10.385 -0.0255  0.7676 -0.0161
 3933SOL    HW117635   6.707   4.726  10.471  0.4367  0.9599 -0.2246
 3933SOL    HW217636   6.676   4.820  10.357 -0.8547  0.8845  0.0478
 3934SOL     OW17637   5.413   2.318   2.320 -0.6903 -0.1584 -0.0154
 3934SOL    HW117638   5.473   2.243   2.331  0.7429  0.7336 -1.2480
 3934SOL    HW217639   5.450   2.366   2.246 -2.2970  1.1001 -0.0372
 3935SOL     OW17640   0.547   1.126   3.085  0.1663  0.0889  0.2129
 3935SOL    HW117641   0.563   1.092   2.996  1.7552 -0.8274  0.8072
 3935SOL    HW217642   0.603   1.072   3.141 -1.2468  0.2720  1.8645
 3936SOL     OW17643   8.009   0.249   8.955  0.0845 -0.1357 -0.1984
 3936SOL    HW117644   7.965   0.176   9.000 -0.1918  0.1104 -0.0675
 3936SOL    HW217645   7.940   0.292   8.905 -0.1093  1.0560  1.0359
 3937SOL     OW17646   6.208   3.185   3.732  0.4414 -0.1785  0.1471
 3937SOL    HW117647   6.155   3.106   3.733  0.9927 -0.5571  0.3542
 3937SOL    HW217648   6.191   3.227   3.817 -1.5810  1.1353 -0.8215
 3938SOL     OW17649   5.738   7.936   9.288 -0.6306  0.4652  0.6793
 3938SOL    HW117650   5.678   7.942   9.214  0.3824 -2.1774 -0.4683
 3938SOL    HW217651   5.819   7.902   9.251  0.3721  0.3519  2.8065
 3939SOL     OW17652   3.197   8.130   0.030  0.6923 -0.1923 -0.5745
 3939SOL    HW117653   3.141   8.055   0.052  0.4509 -0.0439 -0.6753
 3939SOL    HW217654   3.195   8.134  -0.065  1.2239 -0.4492 -0.5960
 3940SOL     OW17655   6.050   8.041   4.037 -0.3929 -0.2872  0.2522
 3940SOL    HW117656   6.033   8.004   3.950 -2.1391 -0.7833  0.7555
 3940SOL    HW217657   6.007   7.981   4.098  0.7243  0.1021  1.4649
 3941SOL     OW17658   5.938   3.182   3.516  0.3722  0.0691 -0.5027
 3941SOL    HW117659   5.929   3.253   3.580  2.5596 -0.2174  0.2259
 3941SOL    HW217660   5.989   3.220   3.445  2.4951 -0.9337  0.3697
 3942SOL     OW17661   1.309   3.092   9.073 -0.2014  0.1369  0.0300
 3942SOL    HW117662   1.236   3.154   9.084 -0.4591 -0.2114  0.3171
 3942SOL    HW217663   1.387   3.147   9.074 -0.4820  0.5755 -0.8200
 3943SOL     OW17664   6.054   7.075  10.534 -0.8402  0.2397 -0.9324
 3943SOL    HW117665   6.124   7.100  10.595 -0.6967 -1.8474 -0.1396
 3943SOL    HW217666   6.076   7.120  10.452  1.8375 -0.8253 -0.9132
 3944SOL     OW17667   2.206   4.516   8.753  0.1408 -0.5130  0.5196
 3944SOL    HW117668   2.222   4.598   8.706 -0.2403 -0.1800  0.9659
 3944SOL    HW217669   2.202   4.541   8.845  1.6165 -1.2703  0.8267
 3945SOL     OW17670   5.318   0.479   0.149 -0.2477  0.1365  0.0613
 3945SOL    HW117671   5.223   0.472   0.151 -0.4126  1.9867  0.9636
 3945SOL    HW217672   5.337   0.542   0.080  0.4037 -0.8278 -0.6713
 3946SOL     OW17673   1.808   8.772   7.821 -0.0810  0.3531  0.2254
 3946SOL    HW117674   1.820   8.722   7.902 -1.2172 -0.8166 -0.2740
 3946SOL    HW217675   1.715   8.761   7.801  0.6306 -1.5352 -2.5537
 3947SOL     OW17676   6.037   6.426   6.364 -0.2198  0.5297 -0.0484
 3947SOL    HW117677   6.087   6.498   6.327 -1.6245  0.7797 -1.5888
 3947SOL    HW217678   6.008   6.458   6.449  0.8008  1.0097  0.1318
 3948SOL     OW17679   3.817   2.580   0.273 -0.7196  0.0450 -0.3807
 3948SOL    HW117680   3.796   2.488   0.254  0.2422  0.2135 -2.5265
 3948SOL    HW217681   3.907   2.591   0.241 -0.9403  1.8172 -0.4604
 3949SOL     OW17682   2.104   4.290   9.439 -0.7272 -0.2121 -0.3924
 3949SOL    HW117683   2.034   4.227   9.455 -1.3480  0.2987 -1.0555
 3949SOL    HW217684   2.064   4.376   9.454 -0.0472  0.0600 -0.0648
 3950SOL     OW17685   9.513   1.678   8.210  0.0998 -0.0170 -0.0050
 3950SOL    HW117686   9.428   1.718   8.192 -0.1514 -1.3553 -2.1696
 3950SOL    HW217687   9.565   1.695   8.131  1.0807 -1.1036  0.3738
 3951SOL     OW17688   1.310   2.723   0.683 -0.2586 -0.5311 -0.4996
 3951SOL    HW117689   1.306   2.645   0.738 -1.3810 -1.8790 -2.3616
 3951SOL    HW217690   1.236   2.776   0.711 -1.0354 -1.3751 -0.9104
 3952SOL     OW17691   3.075   6.983   7.480 -0.5578 -0.7238 -0.2844
 3952SOL    HW117692   3.107   7.073   7.480 -1.3230 -0.3955  2.1873
 3952SOL    HW217693   3.064   6.962   7.387  3.3220  0.3331 -1.1865
 3953SOL     OW17694   9.835   2.810   8.446  0.1277  0.6769  1.0254
 3953SOL    HW117695   9.908   2.865   8.472  1.3870  0.7756 -2.2482
 3953SOL    HW217696   9.760   2.869   8.443  0.8578  1.5876  0.2714
 3954SOL     OW17697  10.079   8.266   9.049 -0.1857  1.0464 -0.5405
 3954SOL    HW117698  10.038   8.210   9.116 -1.5401  1.8802 -0.6535
 3954SOL    HW217699  10.021   8.342   9.042  1.1280  2.0346 -1.0707
 3955SOL     OW17700   8.214   1.792  10.481 -0.0569  0.0427 -0.5499
 3955SOL    HW117701   8.303   1.828  10.480 -0.2752  0.6262 -2.1140
 3955SOL    HW217702   8.226   1.699  10.461  0.1901  0.2087 -1.2184
 3956SOL     OW17703   1.511  10.565   8.895  0.1491 -0.1692  0.3130
 3956SOL    HW117704   1.427  10.540   8.855 -0.9524 -0.1009  2.4482
 3956SOL    HW217705   1.548  10.630   8.835 -0.0997 -1.9590 -1.9419
 3957SOL     OW17706   6.690   0.009   8.315  0.2887  0.5918  0.1027
 3957SOL    HW117707   6.627  -0.027   8.377  0.6191  0.3245  0.2879
 3957SOL    HW217708   6.776  -0.010   8.354  0.5562 -0.6357 -0.9965
 3958SOL     OW17709   3.237   9.994   1.928 -0.2096 -0.0340  0.8491
 3958SOL    HW117710   3.187  10.057   1.876 -0.5503 -2.3025 -1.7908
 3958SOL    HW217711   3.322  10.037   1.943  0.1862  0.5003 -2.3002
 3959SOL     OW17712   5.657   6.075   7.652 -0.3900 -0.1237 -0.6662
 3959SOL    HW117713   5.578   6.021   7.659  0.2337 -0.9962 -0.1188
 3959SOL    HW217714   5.626   6.164   7.666 -1.4440 -0.3266 -1.5747
 3960SOL     OW17715   6.777   0.019   6.964 -0.1945 -0.2187 -0.3456
 3960SOL    HW117716   6.813  -0.031   6.891  1.0451 -1.0224  0.7743
 3960SOL    HW217717   6.736  -0.046   7.021 -0.6343  0.3220 -0.0271
 3961SOL     OW17718   6.793   2.264   8.749 -0.3568 -0.4609 -0.1380
 3961SOL    HW117719   6.865   2.202   8.739  0.2783  0.3624 -0.8039
 3961SOL    HW217720   6.772   2.261   8.842  1.1468 -0.0701  0.2429
 3962SOL     OW17721   6.445   9.431   7.585  0.5046  0.0359 -0.4076
 3962SOL    HW117722   6.434   9.336   7.585  1.3742 -0.0732 -0.1710
 3962SOL    HW217723   6.540   9.444   7.590  0.3510  0.9155  0.5895
 3963SOL     OW17724   3.288   1.988   8.979 -0.3463 -0.7351 -0.2662
 3963SOL    HW117725   3.211   2.015   9.030  0.0409  1.4008 -0.7429
 3963SOL    HW217726   3.274   1.894   8.963 -2.8749 -0.4003 -0.3832
 3964SOL     OW17727   9.956   9.856   5.180  0.9300  0.4499  0.1895
 3964SOL    HW117728  10.042   9.825   5.152  0.6805 -2.0224  1.9027
 3964SOL    HW217729   9.895   9.819   5.117  0.9352  0.3685  0.2320
 3965SOL     OW17730   5.770   0.104   5.162 -0.3473 -0.0329 -0.3968
 3965SOL    HW117731   5.813   0.099   5.076  0.3617  0.6229 -0.0930
 3965SOL    HW217732   5.708   0.176   5.154 -0.9521 -0.5654 -0.6330
 3966SOL     OW17733   5.663  10.236   0.388 -0.1561 -0.4005 -0.3471
 3966SOL    HW117734   5.753  10.265   0.374 -0.5134  0.0230 -1.9775
 3966SOL    HW217735   5.656  10.227   0.483  1.3611  0.3530 -0.1197
 3967SOL     OW17736   0.302   9.055  10.190  0.2840 -0.1704  0.0124
 3967SOL    HW117737   0.354   9.047  10.110 -0.3868 -0.1990 -0.4235
 3967SOL    HW217738   0.308   9.147  10.213 -0.3174  0.0360 -0.6182
 3968SOL     OW17739   2.759   5.141   2.506  0.1512  0.3447 -0.1903
 3968SOL    HW117740   2.744   5.144   2.601 -2.0336 -0.5654 -0.4396
 3968SOL    HW217741   2.733   5.228   2.476  0.1863  0.4142 -0.0246
 3969SOL     OW17742   1.072  10.303   5.386  0.1862  0.5946  0.2279
 3969SOL    HW117743   1.099  10.327   5.475  0.5083  1.6734 -0.1441
 3969SOL    HW217744   0.980  10.327   5.382 -0.6223 -2.0088  1.1219
 3970SOL     OW17745   5.826   5.666   5.868 -0.3220 -0.1011 -0.4489
 3970SOL    HW117746   5.774   5.597   5.828  1.1318 -0.9523 -0.9481
 3970SOL    HW217747   5.910   5.625   5.888  0.0524  1.1288  0.6550
 3971SOL     OW17748   0.928   2.239   5.034  0.0614 -0.4248  0.1599
 3971SOL    HW117749   0.860   2.187   5.077 -0.5317  0.2735  0.0753
 3971SOL    HW217750   0.881   2.295   4.973  0.6888  0.2098  0.2469
 3972SOL     OW17751   1.418   8.964   1.335  0.1709 -0.3224 -0.0350
 3972SOL    HW117752   1.512   8.972   1.349  0.3243 -0.4978 -0.9179
 3972SOL    HW217753   1.410   8.926   1.248 -0.7249  0.0907 -0.1420
 3973SOL     OW17754   2.036   0.954   5.482 -0.3626  0.3727 -0.0118
 3973SOL    HW117755   2.041   0.859   5.490 -0.5273  0.3166 -0.5652
 3973SOL    HW217756   1.943   0.973   5.479 -0.3251  0.4865 -0.6164
 3974SOL     OW17757   3.553   5.761   3.207  0.4471 -0.6666  0.8600
 3974SOL    HW117758   3.522   5.811   3.283 -0.5562  0.3814 -0.1831
 3974SOL    HW217759   3.492   5.785   3.137  1.4984 -1.3953 -0.3460
 3975SOL     OW17760   1.182   5.201  10.716  0.0755  0.4915  0.0352
 3975SOL    HW117761   1.091   5.176  10.734 -0.0036 -0.6636 -1.7013
 3975SOL    HW217762   1.182   5.296  10.721 -1.2072  0.5068  0.1623
 3976SOL     OW17763   5.453   9.247   6.007 -0.1325 -0.6964  0.2211
 3976SOL    HW117764   5.411   9.325   5.969  0.7858 -1.4132 -2.5141
 3976SOL    HW217765   5.535   9.279   6.044 -0.1273 -0.2426 -0.1735
 3977SOL     OW17766   2.881   0.151   3.648  0.7068 -0.0559 -0.5557
 3977SOL    HW117767   2.824   0.105   3.586 -1.1096  1.0927  0.1813
 3977SOL    HW217768   2.866   0.106   3.731  0.0172  0.9439 -0.1286
 3978SOL     OW17769   3.551   7.549   2.362 -0.7774  0.1278 -0.6165
 3978SOL    HW117770   3.466   7.538   2.403  0.0043 -1.7367  0.6829
 3978SOL    HW217771   3.604   7.593   2.428 -0.3510 -0.0155 -0.8582
 3979SOL     OW17772   2.683   9.871   0.956  0.0521 -0.0114  0.5383
 3979SOL    HW117773   2.630   9.824   0.890 -0.1056  2.0299 -0.8647
 3979SOL    HW217774   2.731   9.937   0.906  1.6722  0.1502  2.2092
 3980SOL     OW17775   9.948   9.599   2.951  0.4267  0.2519 -0.9637
 3980SOL    HW117776  10.003   9.586   3.029  1.0833 -1.4117 -1.6702
 3980SOL    HW217777   9.870   9.546   2.968 -0.7726  2.1509 -0.2211
 3981SOL     OW17778   5.451   1.522   9.338  0.0816 -0.5124 -0.4123
 3981SOL    HW117779   5.475   1.551   9.426 -2.4913  2.8500 -0.6167
 3981SOL    HW217780   5.380   1.460   9.352 -0.5807  0.3035 -0.0610
 3982SOL     OW17781   7.369   2.135   9.526 -0.0512  0.1770 -0.1904
 3982SOL    HW117782   7.448   2.106   9.571  0.5679  0.2312 -1.2140
 3982SOL    HW217783   7.386   2.117   9.433 -1.6655 -0.7859 -0.3269
 3983SOL     OW17784   3.670   2.443  10.641  0.3339  0.3529 -0.1054
 3983SOL    HW117785   3.754   2.450  10.686  1.8572 -1.2314 -2.4863
 3983SOL    HW217786   3.635   2.358  10.669 -0.3171  0.8221  0.5514
 3984SOL     OW17787  10.459   4.485   4.625 -0.0059 -0.0405 -0.5906
 3984SOL    HW117788  10.479   4.446   4.540 -3.1165 -0.8264 -1.0902
 3984SOL    HW217789  10.494   4.574   4.619 -0.4328  0.0397 -2.8574
 3985SOL     OW17790   5.989   5.016   7.699 -0.0384  0.2170 -0.0629
 3985SOL    HW117791   5.905   5.061   7.692  0.4511  1.1025 -0.3598
 3985SOL    HW217792   5.969   4.936   7.748 -1.3179 -0.2722 -1.3147
 3986SOL     OW17793   0.113   2.774   2.904  0.1104  0.3192 -0.2276
 3986SOL    HW117794   0.076   2.709   2.844  1.1753 -0.9610  0.4372
 3986SOL    HW217795   0.063   2.763   2.985 -1.9506  2.6787 -1.0637
 3987SOL     OW17796   0.916   8.832   3.428  0.0904 -0.1583  0.7309
 3987SOL    HW117797   0.981   8.809   3.494  1.2940 -0.7046 -0.6135
 3987SOL    HW217798   0.949   8.913   3.389 -0.4867  0.0297  0.6190
 3988SOL     OW17799   3.148   9.535   9.685 -0.1314 -0.8009 -0.0135
 3988SOL    HW117800   3.229   9.558   9.639 -1.2676 -0.1092 -1.7520
 3988SOL    HW217801   3.151   9.587   9.766  0.7479 -0.1210 -0.4595
 3989SOL     OW17802   6.742   6.589   7.331  0.4317 -0.0727 -0.2529
 3989SOL    HW117803   6.711   6.676   7.304  2.8044  0.5822 -1.1744
 3989SOL    HW217804   6.692   6.528   7.276  0.8746  0.9312 -1.8564
 3990SOL     OW17805   3.881   4.477   3.733  0.2458 -0.1303 -0.2955
 3990SOL    HW117806   3.889   4.382   3.736 -0.1565 -0.1555  1.5164
 3990SOL    HW217807   3.812   4.494   3.669 -1.9028 -1.2963  1.5748
 3991SOL     OW17808   2.981   1.399   8.184  0.4779 -0.4755  0.4524
 3991SOL    HW117809   2.919   1.353   8.240 -1.8756 -1.4174 -2.6123
 3991SOL    HW217810   3.040   1.331   8.152 -1.3654 -1.0766 -2.0047
 3992SOL     OW17811   1.332   1.156   5.026 -0.6024  0.3877  0.3912
 3992SOL    HW117812   1.334   1.178   4.933 -0.2163  0.2973  0.3754
 3992SOL    HW217813   1.259   1.095   5.034  0.9619 -1.7282 -0.3530
 3993SOL     OW17814   0.674   2.691   5.819 -0.1093 -0.0431 -0.5488
 3993SOL    HW117815   0.760   2.733   5.828 -0.2129 -0.0625  0.8366
 3993SOL    HW217816   0.681   2.611   5.872 -1.1584  0.2600  0.0834
 3994SOL     OW17817   5.080   3.914   8.949  0.1870  0.1737 -0.4664
 3994SOL    HW117818   5.129   3.921   9.031  0.4439  1.6345 -0.7185
 3994SOL    HW217819   5.106   3.992   8.899 -0.6887 -0.2042 -1.5382
 3995SOL     OW17820   5.302   2.311   3.921  0.9231  0.3190  0.1583
 3995SOL    HW117821   5.264   2.387   3.878  0.7567  1.3738  2.0395
 3995SOL    HW217822   5.356   2.270   3.854 -0.0028  1.3432 -1.2754
 3996SOL     OW17823   0.193   2.179   8.532  0.0753  0.3891  0.4781
 3996SOL    HW117824   0.199   2.274   8.526  0.8868  0.3065 -0.2556
 3996SOL    HW217825   0.214   2.148   8.443 -1.8392 -0.4106  0.2455
 3997SOL     OW17826   0.187   2.919   2.444 -0.4677  0.0249 -0.4714
 3997SOL    HW117827   0.212   2.922   2.537  0.3599 -1.3617 -0.6180
 3997SOL    HW217828   0.094   2.940   2.444 -0.3344  0.7103  0.6018
 3998SOL     OW17829   0.979   3.777   9.064  0.1023  0.1066 -0.4418
 3998SOL    HW117830   1.055   3.719   9.058  1.0409  1.3368 -0.7536
 3998SOL    HW217831   0.962   3.804   8.974 -0.1774  0.5225 -0.2648
 3999SOL     OW17832   3.258   2.470   7.882 -0.0698 -0.6958  0.8428
 3999SOL    HW117833   3.246   2.458   7.976  0.5184  1.4225  1.2298
 3999SOL    HW217834   3.349   2.445   7.866 -0.1783 -1.0843  0.8106
 4000SOL     OW17835   3.356   1.463   2.360 -0.4223 -0.3774  0.3494
 4000SOL    HW117836   3.356   1.550   2.398  0.2663 -0.3039  0.2074
 4000SOL    HW217837   3.314   1.473   2.274  0.1470 -0.0722  0.1020
 4001SOL     OW17838   0.978   1.613   0.111  0.5553  0.0493  0.0064
 4001SOL    HW117839   0.975   1.689   0.169 -0.6896  0.3486 -0.4334
 4001SOL    HW217840   1.042   1.637   0.043 -0.5040  1.0933 -0.6487
 4002SOL     OW17841   0.574   9.891   1.520 -0.5054 -0.2277 -0.7501
 4002SOL    HW117842   0.585   9.809   1.470 -0.6814 -0.0667 -1.0558
 4002SOL    HW217843   0.657   9.937   1.507 -0.3280 -0.4480 -0.4090
 4003SOL     OW17844   7.802   6.570   0.054  0.4016 -0.3267  0.5810
 4003SOL    HW117845   7.798   6.531  -0.033 -3.3008  2.0285 -0.5544
 4003SOL    HW217846   7.719   6.546   0.095  0.7265  1.1411  2.2190
 4004SOL     OW17847   7.450   6.609   9.587 -0.4342  0.6366 -0.2027
 4004SOL    HW117848   7.540   6.588   9.613 -0.6492 -0.1566 -0.0668
 4004SOL    HW217849   7.454   6.618   9.492 -0.0640  1.3834 -0.1242
 4005SOL     OW17850   9.899   4.266   9.689 -0.6754 -0.3570 -0.5661
 4005SOL    HW117851   9.937   4.354   9.694  0.3720 -0.7036 -1.9048
 4005SOL    HW217852   9.815   4.279   9.644 -0.8716  0.0449 -0.0942
 4006SOL     OW17853   8.719   8.525   8.206 -0.3322  0.1225  0.3564
 4006SOL    HW117854   8.758   8.482   8.130 -0.0007  0.6297  0.2292
 4006SOL    HW217855   8.761   8.482   8.281  0.2795  0.4781  0.2242
 4007SOL     OW17856   3.601   6.485   8.240  0.3502  0.4868  0.5375
 4007SOL    HW117857   3.589   6.391   8.230  0.1605  0.6087 -0.4532
 4007SOL    HW217858   3.535   6.524   8.182 -0.5709  1.2517  2.0240
 4008SOL     OW17859   3.740   8.751   4.060 -0.0672 -0.1348 -0.6201
 4008SOL    HW117860   3.820   8.699   4.061 -0.3180 -0.5253  0.2240
 4008SOL    HW217861   3.764   8.833   4.104  0.1994  0.2786 -1.5162
 4009SOL     OW17862   7.553   2.140   6.874  0.0376  0.3574  0.3206
 4009SOL    HW117863   7.500   2.075   6.921 -0.3957  1.0592  0.8292
 4009SOL    HW217864   7.489   2.191   6.824  0.2682  0.9619  0.6340
 4010SOL     OW17865   9.743   9.215   3.688 -0.1046 -0.1475  0.2741
 4010SOL    HW117866   9.690   9.290   3.662 -1.6920 -1.6402 -1.0527
 4010SOL    HW217867   9.706   9.187   3.771  1.0323  0.9988  1.1942
 4011SOL     OW17868   6.973   8.767   3.723 -0.1837  0.0109 -0.3136
 4011SOL    HW117869   6.899   8.775   3.663 -0.5346 -0.1436  0.0982
 4011SOL    HW217870   7.038   8.717   3.673 -0.7474 -0.7326 -0.3214
 4012SOL     OW17871   7.227   5.485  10.708  0.2150 -0.6699  0.1288
 4012SOL    HW117872   7.173   5.536  10.769  0.9648  0.6656 -0.2830
 4012SOL    HW217873   7.229   5.397  10.746  1.0571  0.2155  2.3283
 4013SOL     OW17874   2.804   8.736   6.294  0.0489 -0.8490 -1.2127
 4013SOL    HW117875   2.861   8.796   6.245 -0.0190 -2.0218 -2.7806
 4013SOL    HW217876   2.858   8.658   6.307 -0.5888 -1.2626 -1.0451
 4014SOL     OW17877   9.600   9.161   4.206  0.5438  0.5575 -0.1743
 4014SOL    HW117878   9.651   9.240   4.225  1.0677  0.3200 -0.5684
 4014SOL    HW217879   9.634   9.095   4.265 -0.2878  0.7646  0.5618
 4015SOL     OW17880   8.826   4.083   7.833 -0.7562 -0.7397 -0.0326
 4015SOL    HW117881   8.763   4.081   7.761 -0.4715  0.3270 -0.3306
 4015SOL    HW217882   8.779   4.125   7.905  0.3254  2.3737 -1.0238
 4016SOL     OW17883   1.939   4.967   4.862 -0.1581  0.0419 -0.8019
 4016SOL    HW117884   1.863   4.928   4.905  0.6858 -1.8485 -0.9162
 4016SOL    HW217885   1.987   4.892   4.826  1.4373  1.2356 -1.2608
 4017SOL     OW17886   8.008   6.055  10.570 -0.2360  0.0416 -0.1924
 4017SOL    HW117887   8.008   6.079  10.477  0.1730  1.7902  0.2249
 4017SOL    HW217888   7.919   6.022  10.586  0.0558 -1.5016 -1.4640
 4018SOL     OW17889   3.664   0.203   4.295  0.8169  0.1350 -0.2369
 4018SOL    HW117890   3.753   0.228   4.270  1.7161 -2.6257 -0.1934
 4018SOL    HW217891   3.636   0.271   4.355  3.0888  0.8737  0.0895
 4019SOL     OW17892   9.895   9.657   9.205  0.1383 -0.3161 -0.7014
 4019SOL    HW117893   9.824   9.657   9.270 -0.6793  0.1176 -1.5768
 4019SOL    HW217894   9.939   9.741   9.217 -1.0386  0.4873 -1.7760
 4020SOL     OW17895   7.739   0.349   3.954 -0.4722  0.2175  0.4729
 4020SOL    HW117896   7.708   0.393   3.875  0.7595 -0.0848 -0.2031
 4020SOL    HW217897   7.698   0.397   4.026  0.6405  2.3596 -0.2353
 4021SOL     OW17898   2.094   5.232   3.787 -0.1084  0.0015  0.9596
 4021SOL    HW117899   2.177   5.260   3.823 -0.3222  1.4167  0.3852
 4021SOL    HW217900   2.032   5.240   3.860  0.0413 -0.0452  1.0927
 4022SOL     OW17901   2.963  10.161   0.240  0.1118 -0.2567  0.4113
 4022SOL    HW117902   2.890  10.152   0.179  0.6696  2.2068 -0.7829
 4022SOL    HW217903   2.949  10.247   0.281  1.7232 -0.2399  1.0019
 4023SOL     OW17904   1.789   2.491   7.219  0.4647 -0.8938  0.1714
 4023SOL    HW117905   1.703   2.525   7.192  0.0290 -1.8016  0.3855
 4023SOL    HW217906   1.774   2.398   7.235  1.6549 -1.2161 -0.4824
 4024SOL     OW17907   3.938   8.694   1.195 -0.2177 -0.2118 -0.4611
 4024SOL    HW117908   3.955   8.692   1.289 -0.0229 -0.0517 -0.4912
 4024SOL    HW217909   3.962   8.782   1.168  2.8283 -1.1506 -1.2060
 4025SOL     OW17910   4.102   5.556   8.250 -0.0030 -0.3199  0.0423
 4025SOL    HW117911   4.033   5.570   8.315 -0.3482 -0.3449 -0.3092
 4025SOL    HW217912   4.064   5.493   8.189 -0.0416  0.3931 -0.6906
 4026SOL     OW17913   5.239   3.562  10.332  0.0655 -0.4647  0.5770
 4026SOL    HW117914   5.170   3.626  10.350  1.0438  0.5427  0.8941
 4026SOL    HW217915   5.213   3.484  10.380 -1.4056 -0.4848 -0.2064
 4027SOL     OW17916   1.480   1.616   2.129 -0.3588  0.1505  0.1890
 4027SOL    HW117917   1.434   1.638   2.209 -0.3659 -0.7822  0.4591
 4027SOL    HW217918   1.557   1.673   2.128 -0.8461  0.8219  0.3726
 4028SOL     OW17919   5.154   8.282   3.991 -0.2005 -0.0566  0.7838
 4028SOL    HW117920   5.194   8.344   3.930 -0.2610 -0.7007  0.0707
 4028SOL    HW217921   5.089   8.333   4.039  0.7070  0.7493  1.1857
 4029SOL     OW17922   2.582   5.938   9.444 -0.0242  0.1496  0.2829
 4029SOL    HW117923   2.495   5.954   9.407  0.0612 -1.4280 -0.6779
 4029SOL    HW217924   2.611   6.023   9.476 -0.9162  1.2005 -1.5721
 4030SOL     OW17925   8.434  10.050   9.809 -0.2382 -0.0476 -0.2301
 4030SOL    HW117926   8.456  10.040   9.717 -1.5905 -0.6765 -0.5133
 4030SOL    HW217927   8.517  10.038   9.855  0.0569 -2.3141 -1.2141
 4031SOL     OW17928   8.246   5.244   2.914 -0.9488 -0.0068 -0.4405
 4031SOL    HW117929   8.316   5.307   2.932  1.6123 -2.5152 -0.8115
 4031SOL    HW217930   8.212   5.270   2.828  0.7784  0.3489 -1.0728
 4032SOL     OW17931   8.824   0.409   1.538 -0.5525 -0.0868  0.6053
 4032SOL    HW117932   8.798   0.330   1.491  1.5336 -0.3900 -0.1493
 4032SOL    HW217933   8.893   0.380   1.598  2.0604  1.4479 -1.4206
 4033SOL     OW17934   2.608   3.504   2.360 -0.5586  0.3118 -0.1617
 4033SOL    HW117935   2.532   3.562   2.365 -0.7982 -0.0689  0.8569
 4033SOL    HW217936   2.673   3.546   2.417  0.1570  0.8566 -1.3558
 4034SOL     OW17937   8.753  10.655   6.066  0.1062 -0.0793 -0.6165
 4034SOL    HW117938   8.796  10.586   6.117 -0.6645 -1.2477 -1.5017
 4034SOL    HW217939   8.688  10.692   6.126  1.4648  0.8688  0.3240
 4035SOL     OW17940  10.515   0.545   2.247  0.2988  0.3512  0.2139
 4035SOL    HW117941  10.576   0.574   2.179  1.1591 -1.2594  0.2629
 4035SOL    HW217942  10.493   0.455   2.224 -2.3899  0.9612  0.0030
 4036SOL     OW17943   3.850   0.453   3.912 -0.0597  0.4056 -0.2966
 4036SOL    HW117944   3.847   0.399   3.833 -1.0344  1.2151 -0.8424
 4036SOL    HW217945   3.942   0.481   3.918  0.1838 -0.2766 -0.7036
 4037SOL     OW17946   6.565   2.797   5.445  0.3771  0.3321  0.2599
 4037SOL    HW117947   6.647   2.847   5.443  1.5509 -1.5383 -1.1215
 4037SOL    HW217948   6.562   2.753   5.360 -1.7356 -0.1955  0.5696
 4038SOL     OW17949   6.749   3.255   7.246  0.1705 -0.3901 -0.2593
 4038SOL    HW117950   6.832   3.261   7.199  0.1191  0.2128 -0.2810
 4038SOL    HW217951   6.698   3.190   7.196 -0.7870  1.8820 -2.4924
 4039SOL     OW17952   2.916   7.711  10.225  0.0447  0.3370  0.0420
 4039SOL    HW117953   2.936   7.743  10.313  1.5902 -1.3044  0.3304
 4039SOL    HW217954   2.993   7.733  10.173 -0.2048 -0.0944 -0.5222
 4040SOL     OW17955   8.666   5.481   0.472  0.2690 -0.5537 -0.0152
 4040SOL    HW117956   8.602   5.411   0.456 -0.3669  0.1084 -0.4075
 4040SOL    HW217957   8.724   5.444   0.538  0.0665 -1.5340 -0.3586
 4041SOL     OW17958   7.344   2.097   7.545  0.7473  0.3546 -0.3349
 4041SOL    HW117959   7.434   2.094   7.510  0.0413 -0.8091 -2.1662
 4041SOL    HW217960   7.288   2.092   7.468 -0.9302 -2.3299  0.9368
 4042SOL     OW17961   0.860   3.576   0.420  0.2219  0.6876 -0.0528
 4042SOL    HW117962   0.832   3.614   0.336  0.9583  1.9601  0.2357
 4042SOL    HW217963   0.953   3.598   0.426  0.3331  0.0395  0.8048
 4043SOL     OW17964   6.671   4.062   1.256 -0.2384 -0.0346  0.8507
 4043SOL    HW117965   6.602   4.124   1.282  0.4071  1.3544 -0.5567
 4043SOL    HW217966   6.696   4.090   1.168  0.6963 -1.8023  0.5036
 4044SOL     OW17967   5.028   8.335   3.736  0.4339 -0.3528  0.0979
 4044SOL    HW117968   5.122   8.335   3.720  0.1554 -1.1037 -1.7376
 4044SOL    HW217969   4.991   8.283   3.665 -1.4306  0.3785  0.4687
 4045SOL     OW17970   6.747   1.658   2.377  0.4255  0.2539 -0.5777
 4045SOL    HW117971   6.736   1.721   2.306 -3.2519 -0.2118 -0.6395
 4045SOL    HW217972   6.720   1.705   2.455  1.6827 -0.0805  0.0853
 4046SOL     OW17973   1.762   8.593   7.239  0.8663 -0.4547 -0.5426
 4046SOL    HW117974   1.785   8.602   7.332 -1.5477 -0.6052  0.1526
 4046SOL    HW217975   1.767   8.499   7.223 -1.3885 -0.7783  0.2898
 4047SOL     OW17976   3.893   0.674   5.883  0.7292 -0.5396  0.6490
 4047SOL    HW117977   3.810   0.707   5.917  0.9150  2.0831 -1.1751
 4047SOL    HW217978   3.909   0.724   5.803  3.0005 -2.5255 -0.3008
 4048SOL     OW17979   1.525   8.368   1.262 -0.3783  0.7145 -0.2934
 4048SOL    HW117980   1.502   8.333   1.176 -0.0878 -2.3717  0.7816
 4048SOL    HW217981   1.612   8.407   1.249 -0.5823  0.8218 -1.4988
 4049SOL     OW17982   8.161   0.285   5.645  0.2724  0.0113 -0.4170
 4049SOL    HW117983   8.108   0.270   5.724 -0.2969 -0.6194 -0.9089
 4049SOL    HW217984   8.183   0.197   5.615  2.0857  0.2542  0.0851
 4050SOL     OW17985   8.763   1.391   5.740  0.2919 -0.0928 -0.7622
 4050SOL    HW117986   8.834   1.341   5.700 -0.7452 -1.9019 -0.4479
 4050SOL    HW217987   8.800   1.427   5.820  1.9717  2.3361 -2.5016
 4051SOL     OW17988   0.613   1.988   6.019  0.7005  0.0399  0.0730
 4051SOL    HW117989   0.523   2.019   6.005  1.3904  2.3545  0.2226
 4051SOL    HW217990   0.634   1.939   5.940 -0.0174  1.3155 -0.9657
 4052SOL     OW17991   3.259   2.418   6.885 -0.3351 -0.2746 -0.7011
 4052SOL    HW117992   3.336   2.366   6.910  1.4350  3.1955  1.7792
 4052SOL    HW217993   3.186   2.377   6.931  0.4234 -2.1550 -1.0791
 4053SOL     OW17994   3.055   0.958   7.868 -0.0215  0.1635 -0.0191
 4053SOL    HW117995   3.077   0.865   7.868  0.7745  0.3436 -0.4726
 4053SOL    HW217996   3.114   0.997   7.803 -0.7388  0.8946 -0.2510
 4054SOL     OW17997   9.472  10.052   4.023  0.0969  0.0905 -0.0225
 4054SOL    HW117998   9.420   9.972   4.033  0.3217 -0.0049  0.4245
 4054SOL    HW217999   9.562  10.021   4.012  0.0895  0.2602 -0.5643
 4055SOL     OW18000   0.921   6.118   0.572 -0.7421 -0.3790  0.1948
 4055SOL    HW118001   0.940   6.058   0.644 -1.7594  0.3660  1.1149
 4055SOL    HW218002   0.924   6.062   0.494  0.5909 -1.1561  0.7689
 4056SOL     OW18003   8.236   3.381  10.681  0.1929 -0.1101 -0.0726
 4056SOL    HW118004   8.148   3.343  10.675 -0.3403  1.1543 -0.5346
 4056SOL    HW218005   8.243   3.411  10.772 -0.1803  0.5228 -0.2453
 4057SOL     OW18006   7.749   8.939   6.156  0.7796 -0.4152  0.1889
 4057SOL    HW118007   7.823   8.923   6.215  0.1796 -1.2714  0.7355
 4057SOL    HW218008   7.672   8.915   6.207  0.0862  0.7045 -0.2878
 4058SOL     OW18009   9.254   9.668   4.179  0.8262  0.4018  0.3225
 4058SOL    HW118010   9.172   9.706   4.210 -0.6802 -0.9129 -1.7897
 4058SOL    HW218011   9.284   9.727   4.109  0.7968  0.0296 -0.0106
 4059SOL     OW18012   2.511   6.855   8.087 -0.3622  0.5945  0.2059
 4059SOL    HW118013   2.499   6.941   8.046 -1.1921  0.0950 -0.6409
 4059SOL    HW218014   2.427   6.835   8.127 -1.0790 -0.9602 -1.8941
 4060SOL     OW18015   0.828   8.717   4.496  0.2022  0.0096  0.0505
 4060SOL    HW118016   0.766   8.760   4.555  1.0904  0.1197  0.9360
 4060SOL    HW218017   0.882   8.788   4.462 -1.3925  0.1899 -2.3187
 4061SOL     OW18018   7.667   6.417   2.874 -0.2149  0.3215 -0.2137
 4061SOL    HW118019   7.694   6.484   2.812  3.2173  0.4954  1.2611
 4061SOL    HW218020   7.647   6.465   2.955 -0.4880 -0.2151  0.0439
 4062SOL     OW18021  10.497   3.857   6.112  0.0304  0.1103  0.0938
 4062SOL    HW118022  10.542   3.871   6.028  0.3461  1.0724  0.4031
 4062SOL    HW218023  10.517   3.767   6.136  1.9770  0.5509  0.3091
 4063SOL     OW18024   4.833   4.331   8.499 -0.2371 -0.7379 -0.4651
 4063SOL    HW118025   4.818   4.238   8.513  1.4042 -0.8942  0.5184
 4063SOL    HW218026   4.928   4.341   8.504 -0.2718  0.7645 -2.0717
 4064SOL     OW18027   2.604   7.143   5.886  0.1355  0.3550 -0.3727
 4064SOL    HW118028   2.655   7.066   5.911 -1.0766 -0.1004  0.8493
 4064SOL    HW218029   2.567   7.120   5.801  0.8249  0.1365 -0.6241
 4065SOL     OW18030   8.215   1.301   7.376 -0.1691  0.1818  0.1623
 4065SOL    HW118031   8.234   1.271   7.465  0.0416  1.6758  0.6485
 4065SOL    HW218032   8.171   1.385   7.388  1.1558  1.1144 -1.1685
 4066SOL     OW18033   0.297   9.722   8.949 -0.1789  0.0729 -0.5988
 4066SOL    HW118034   0.225   9.669   8.982  2.0979 -2.5331  0.6485
 4066SOL    HW218035   0.311   9.788   9.016 -0.6551 -0.1559 -0.2703
 4067SOL     OW18036   3.825   8.251   5.953 -0.7391  0.0821 -0.2812
 4067SOL    HW118037   3.781   8.223   5.873  0.8984 -0.6796 -0.9663
 4067SOL    HW218038   3.878   8.326   5.927  0.4746 -0.6985 -0.1611
 4068SOL     OW18039   9.713   2.153   2.499 -0.2044  0.3500 -0.2084
 4068SOL    HW118040   9.625   2.182   2.523 -0.0305  1.5452 -0.8985
 4068SOL    HW218041   9.771   2.207   2.554  0.1130 -1.8200  1.7199
 4069SOL     OW18042   4.801   1.136   8.807 -0.3316  0.0976 -0.2930
 4069SOL    HW118043   4.769   1.053   8.844  0.5414 -0.4873 -0.8292
 4069SOL    HW218044   4.834   1.113   8.721 -0.6940  1.1399 -0.7200
 4070SOL     OW18045   2.354   9.639   0.378 -0.2010  0.1273  0.3103
 4070SOL    HW118046   2.377   9.562   0.326  0.6287 -0.3512  1.3548
 4070SOL    HW218047   2.395   9.624   0.463 -1.2470  1.0518  1.0089
 4071SOL     OW18048   0.318   0.732   6.561 -0.0930 -0.0363  0.0380
 4071SOL    HW118049   0.368   0.712   6.640 -0.9394  0.6508  0.7683
 4071SOL    HW218050   0.241   0.779   6.592 -1.1378 -0.9485 -1.0764
 4072SOL     OW18051   1.723   2.495   0.438 -0.1958  0.2910 -0.4324
 4072SOL    HW118052   1.792   2.531   0.382  0.1573  0.7657  0.2921
 4072SOL    HW218053   1.766   2.480   0.523  0.0140 -2.9806 -0.9873
 4073SOL     OW18054   2.800   1.250   8.363 -0.1828  0.3158 -0.1110
 4073SOL    HW118055   2.794   1.308   8.440 -4.0259  2.1214 -1.4850
 4073SOL    HW218056   2.753   1.171   8.389  0.4879 -0.0159  0.0999
 4074SOL     OW18057   7.986   9.254   7.430  0.5905 -0.2758  0.0415
 4074SOL    HW118058   7.927   9.328   7.412 -0.7096 -0.3005  3.4714
 4074SOL    HW218059   8.056   9.292   7.484 -0.2679 -1.5040  2.1341
 4075SOL     OW18060   3.171   3.408   3.895 -0.0201  0.3879 -0.5424
 4075SOL    HW118061   3.171   3.427   3.801 -1.3597  1.2341 -0.4082
 4075SOL    HW218062   3.109   3.472   3.932 -0.5709 -0.8165  0.7179
 4076SOL     OW18063   4.623   7.529   0.330  0.1208  0.4502 -0.3732
 4076SOL    HW118064   4.542   7.556   0.287 -0.1088 -0.6689 -0.6854
 4076SOL    HW218065   4.617   7.434   0.333  1.9792  0.2443 -1.5306
 4077SOL     OW18066   8.761   9.010   0.439 -0.3849 -0.0870 -0.0990
 4077SOL    HW118067   8.780   9.103   0.454  1.1606 -0.1535 -1.4078
 4077SOL    HW218068   8.816   8.964   0.503 -0.3595 -0.1342 -0.1543
 4078SOL     OW18069   5.841   5.121   8.724  0.2187  0.1160  0.0782
 4078SOL    HW118070   5.878   5.206   8.748 -1.2766  0.4815  1.2699
 4078SOL    HW218071   5.850   5.068   8.803  0.7797 -0.7282 -0.5330
 4079SOL     OW18072   8.559   6.057   3.327  0.2137 -0.1666  0.1331
 4079SOL    HW118073   8.574   5.972   3.286  1.1223  0.2106 -0.3457
 4079SOL    HW218074   8.485   6.042   3.386  1.5360 -1.7828  1.4948
 4080SOL     OW18075   5.060   5.760   9.826  0.7426 -0.2207  0.0257
 4080SOL    HW118076   5.093   5.733   9.740 -0.0883  0.4800 -0.5242
 4080SOL    HW218077   5.125   5.823   9.858 -0.2662  1.5804 -1.3023
 4081SOL     OW18078   5.561   8.719   3.628 -0.4102 -0.1579 -0.6127
 4081SOL    HW118079   5.550   8.651   3.694  1.1873  1.1018  1.0575
 4081SOL    HW218080   5.498   8.786   3.652  1.2930  1.0536  0.7728
 4082SOL     OW18081   2.619   7.237   5.330 -0.1281  0.0823 -0.4305
 4082SOL    HW118082   2.568   7.157   5.316  0.4729 -0.1634 -1.3410
 4082SOL    HW218083   2.693   7.229   5.269  0.6231  0.7446  0.3586
 4083SOL     OW18084   4.034   1.563   5.743  0.4794 -0.0868 -0.3498
 4083SOL    HW118085   4.105   1.581   5.682  1.4087  0.0257  0.7525
 4083SOL    HW218086   4.074   1.510   5.812 -0.8301 -1.2691 -0.4494
 4084SOL     OW18087   3.687   3.491   0.238  0.3293  0.3155 -0.1159
 4084SOL    HW118088   3.694   3.463   0.146 -2.1435 -0.2757 -0.1994
 4084SOL    HW218089   3.623   3.431   0.276 -0.3818  1.9547  1.4103
 4085SOL     OW18090   7.690   7.378   0.078 -1.0824 -0.7832 -0.1347
 4085SOL    HW118091   7.677   7.287   0.102  0.1672 -1.1699 -0.8687
 4085SOL    HW218092   7.699   7.378  -0.017 -1.6800  0.1869 -0.2102
 4086SOL     OW18093   2.971   7.186   6.405 -0.2506 -0.3235 -0.0055
 4086SOL    HW118094   2.952   7.151   6.492 -3.8963  0.3676 -0.3521
 4086SOL    HW218095   2.970   7.109   6.347 -1.1921 -0.4652  0.1741
 4087SOL     OW18096   9.371   0.669   2.808 -0.5336  0.3950  0.3362
 4087SOL    HW118097   9.429   0.630   2.742 -0.6012  0.0980  0.4485
 4087SOL    HW218098   9.419   0.661   2.890 -0.5737  0.4875  0.3685
 4088SOL     OW18099   6.848   2.945   4.970  0.0889  0.0732  0.3116
 4088SOL    HW118100   6.822   2.859   4.938 -1.4611  0.6190  0.0576
 4088SOL    HW218101   6.785   2.965   5.039  0.2841  1.1316  0.1918
 4089SOL     OW18102   0.663   0.142   6.079  0.1327 -0.5384  0.3972
 4089SOL    HW118103   0.638   0.139   5.986  1.3527 -0.6574  0.0558
 4089SOL    HW218104   0.652   0.052   6.110  0.8274 -0.7472  0.0540
 4090SOL     OW18105   9.025   4.643   6.126 -0.3218 -0.1124  0.4801
 4090SOL    HW118106   9.039   4.662   6.219 -1.2798  2.7273  0.1604
 4090SOL    HW218107   8.936   4.607   6.123  0.0267 -1.0318  0.7048
 4091SOL     OW18108   7.912   6.564   6.770 -0.6113 -0.0349 -0.9169
 4091SOL    HW118109   8.004   6.548   6.791  0.2780  1.1916 -3.4490
 4091SOL    HW218110   7.864   6.498   6.820  1.7457 -1.5826 -0.5355
 4092SOL     OW18111   3.918   5.387   2.496  0.5019  0.1515  0.3929
 4092SOL    HW118112   3.911   5.482   2.500 -0.6749  0.1184 -0.3962
 4092SOL    HW218113   3.969   5.370   2.417  0.0110  0.1240  0.0735
 4093SOL     OW18114   4.065   4.332   4.322 -0.0952  0.2815  0.2219
 4093SOL    HW118115   3.993   4.318   4.383 -0.9328  1.9566 -0.3102
 4093SOL    HW218116   4.116   4.251   4.325 -1.7812 -0.8075  0.9090
 4094SOL     OW18117   0.433   4.252   7.360  0.3720 -0.1100 -0.1545
 4094SOL    HW118118   0.426   4.169   7.313  1.1756 -0.3552  0.1461
 4094SOL    HW218119   0.460   4.227   7.449 -4.3989 -0.0242  1.6795
 4095SOL     OW18120   6.084   4.364   3.130  0.3579 -0.0180 -0.0563
 4095SOL    HW118121   6.050   4.427   3.194 -0.4105  2.3313 -2.5863
 4095SOL    HW218122   6.014   4.356   3.065  1.7297 -0.9965 -1.4843
 4096SOL     OW18123   0.928   4.496   4.945 -0.4100 -0.1874  0.4938
 4096SOL    HW118124   1.006   4.464   4.989  1.5296 -0.1577 -2.6437
 4096SOL    HW218125   0.959   4.559   4.881 -2.7435 -1.3159 -1.9881
 4097SOL     OW18126   3.289   2.265   7.224  0.4472  0.4271  0.0927
 4097SOL    HW118127   3.288   2.173   7.197  1.1267  0.3298  0.3626
 4097SOL    HW218128   3.269   2.263   7.318 -0.9337  0.6806 -0.1760
 4098SOL     OW18129  10.511   0.014   7.632  0.3677  0.1557  0.2765
 4098SOL    HW118130  10.427  -0.031   7.645  0.2154  0.6423  1.0709
 4098SOL    HW218131  10.509   0.042   7.540 -0.8759  1.2074  0.6001
 4099SOL     OW18132   7.631   6.214   7.226  0.0855 -0.5501  0.4712
 4099SOL    HW118133   7.694   6.285   7.226  0.7150 -1.0805 -1.0127
 4099SOL    HW218134   7.546   6.257   7.231  0.3838  0.4140 -1.7172
 4100SOL     OW18135   6.549   9.355   5.629  0.5175  0.2346  0.2405
 4100SOL    HW118136   6.547   9.300   5.551  0.5087 -0.1705  0.5250
 4100SOL    HW218137   6.596   9.434   5.601  3.3611 -1.1759  0.6108
 4101SOL     OW18138   6.442   6.386   3.971 -0.0142  0.3897 -0.2086
 4101SOL    HW118139   6.382   6.352   4.037  0.1193  0.5152 -0.0241
 4101SOL    HW218140   6.476   6.308   3.927 -1.0395  0.3395 -0.9601
 4102SOL     OW18141  10.342   1.891   5.056  0.3106 -0.4592 -0.3914
 4102SOL    HW118142  10.303   1.972   5.089  1.4136  0.4947 -1.2971
 4102SOL    HW218143  10.328   1.895   4.962  1.6669 -0.5602 -0.6217
 4103SOL     OW18144   8.112   9.341   2.682  0.1151 -0.7304 -0.1751
 4103SOL    HW118145   8.122   9.434   2.704 -1.9352 -0.9939  2.3534
 4103SOL    HW218146   8.049   9.340   2.610  0.1419 -0.1647 -0.2074
 4104SOL     OW18147   7.880   1.603   4.889 -0.6126  0.1268 -0.4125
 4104SOL    HW118148   7.919   1.573   4.807  1.7915 -1.0980  1.0741
 4104SOL    HW218149   7.847   1.690   4.869  2.7783  1.2240 -1.9565
 4105SOL     OW18150   0.531   1.229   5.690 -0.0448  0.0587  0.0796
 4105SOL    HW118151   0.441   1.261   5.677  0.0581 -0.2485 -1.5576
 4105SOL    HW218152   0.559   1.271   5.771 -0.4163  3.0511 -1.2203
 4106SOL     OW18153   1.282   4.094   1.623 -0.1146 -0.1131 -0.5783
 4106SOL    HW118154   1.272   4.020   1.683 -3.2112  0.5079 -0.1178
 4106SOL    HW218155   1.226   4.072   1.548  2.0210  0.0780 -2.3249
 4107SOL     OW18156   4.257   4.118   2.403 -0.5395 -0.3401  0.0625
 4107SOL    HW118157   4.175   4.167   2.399 -0.2819  0.0768 -0.1907
 4107SOL    HW218158   4.252   4.058   2.328 -0.9987 -0.9438  0.5622
 4108SOL     OW18159   3.402   3.844   0.592  0.2070 -0.0389  0.1024
 4108SOL    HW118160   3.372   3.768   0.543 -0.1688  0.5422 -0.5927
 4108SOL    HW218161   3.357   3.918   0.551  1.0318  0.6229  0.3651
 4109SOL     OW18162   5.526   7.957   1.930  0.3090  0.3112  0.6170
 4109SOL    HW118163   5.456   8.001   1.977 -0.4089 -0.4956  0.3371
 4109SOL    HW218164   5.606   8.003   1.956 -0.6258  3.6686 -1.8001
 4110SOL     OW18165   8.472   4.555   9.791  0.4307 -0.1486 -0.4714
 4110SOL    HW118166   8.454   4.510   9.873  3.4791 -0.2871  0.2422
 4110SOL    HW218167   8.553   4.514   9.759 -0.2736  0.4099 -3.1889
 4111SOL     OW18168   5.548   2.124   9.624  0.6238  0.4527 -0.7068
 4111SOL    HW118169   5.612   2.060   9.591 -2.1281 -2.0527 -1.6272
 4111SOL    HW218170   5.515   2.166   9.545 -0.1579  0.3690 -0.4260
 4112SOL     OW18171   6.709   1.106   9.840  0.1799  0.2892 -0.6196
 4112SOL    HW118172   6.710   1.153   9.924 -1.3107 -0.4474 -0.1566
 4112SOL    HW218173   6.649   1.155   9.785  0.4250  0.2391 -0.9336
 4113SOL     OW18174   6.566   0.135   6.060 -0.8963 -0.1528  0.1252
 4113SOL    HW118175   6.504   0.081   6.109 -2.8675  1.8648  0.0497
 4113SOL    HW218176   6.576   0.214   6.113  1.1311 -0.1403 -0.2181
 4114SOL     OW18177   8.524   1.221  10.047  0.2969  0.5631  0.2591
 4114SOL    HW118178   8.475   1.158   9.994  0.3573  0.5971  0.1617
 4114SOL    HW218179   8.572   1.167  10.110 -0.4736  0.5704  0.8766
 4115SOL     OW18180   6.296   8.038   6.266  0.0587  0.3444 -0.2306
 4115SOL    HW118181   6.297   7.964   6.206 -0.2398  0.8991 -0.9281
 4115SOL    HW218182   6.389   8.053   6.287  0.2297  0.5676 -1.0901
 4116SOL     OW18183   8.338   8.360   7.523 -0.0256  0.1611  0.1727
 4116SOL    HW118184   8.295   8.350   7.438  1.4356  0.1767 -0.6020
 4116SOL    HW218185   8.393   8.282   7.530  0.5869  0.6371  0.6701
 4117SOL     OW18186   5.087   0.144   5.008  0.4669 -0.4020  0.3134
 4117SOL    HW118187   5.002   0.126   4.968  0.5667  0.4711 -0.3144
 4117SOL    HW218188   5.070   0.216   5.070  0.5486 -0.9420  0.9809
 4118SOL     OW18189   6.157   0.604   3.997 -0.8078 -0.1999  0.2245
 4118SOL    HW118190   6.109   0.636   3.921  1.3260  0.9190 -0.7548
 4118SOL    HW218191   6.090   0.583   4.062 -2.7183 -1.3583 -1.9910
 4119SOL     OW18192   3.737   8.285   3.399  0.6038 -0.0897  0.2942
 4119SOL    HW118193   3.699   8.311   3.315 -0.2270 -1.8387  0.0652
 4119SOL    HW218194   3.694   8.341   3.463 -0.1020  0.0501 -0.2823
 4120SOL     OW18195   0.089   2.983   5.527 -0.6276  0.2028  0.3284
 4120SOL    HW118196   0.017   2.937   5.485 -1.0869  1.2425 -0.0555
 4120SOL    HW218197   0.114   3.051   5.465  0.4865  0.0511  0.5926
 4121SOL     OW18198  10.635   1.316   4.844  0.2361 -0.8492  0.2582
 4121SOL    HW118199  10.692   1.353   4.776 -1.5208  1.6074 -0.0253
 4121SOL    HW218200  10.681   1.334   4.926  1.9416 -3.0253 -0.1139
 4122SOL     OW18201   7.404   2.096   1.139 -0.0870 -0.1018  0.1811
 4122SOL    HW118202   7.445   2.022   1.094  1.1179  1.1435 -0.8575
 4122SOL    HW218203   7.477   2.146   1.174 -0.7351  1.6138 -0.8013
 4123SOL     OW18204   1.270   2.705   7.455  1.0110  0.2448  0.9744
 4123SOL    HW118205   1.215   2.702   7.532  2.0662  0.6318  1.7728
 4123SOL    HW218206   1.238   2.781   7.405 -0.5386 -0.7981  0.3241
 4124SOL     OW18207   3.769   8.866   6.616  0.2269  0.4035  0.1269
 4124SOL    HW118208   3.801   8.860   6.706  0.2035  0.0800  0.1164
 4124SOL    HW218209   3.799   8.784   6.575 -1.4035 -0.3672  0.3788
 4125SOL     OW18210   3.528   3.906  10.104 -0.4056 -0.0454  0.3803
 4125SOL    HW118211   3.602   3.895  10.164 -0.2858 -0.3366  0.1828
 4125SOL    HW218212   3.510   4.001  10.105  2.2692  0.6495 -2.2371
 4126SOL     OW18213   4.753   9.510   3.525 -0.1718  0.0762 -0.1156
 4126SOL    HW118214   4.727   9.488   3.435  0.6368 -1.6122  0.0294
 4126SOL    HW218215   4.674   9.496   3.577 -0.3998  0.1766 -0.4302
 4127SOL     OW18216   9.721   1.927   6.413 -0.1438 -0.4562 -0.6113
 4127SOL    HW118217   9.710   1.877   6.332 -0.7148 -1.6555  0.1853
 4127SOL    HW218218   9.682   1.872   6.481  4.1524 -1.6006  1.2520
 4128SOL     OW18219   5.565   2.920   1.846  0.0599  0.2959 -0.4144
 4128SOL    HW118220   5.635   2.949   1.787 -0.8864  2.2533 -0.6679
 4128SOL    HW218221   5.569   2.982   1.919 -0.3076 -0.6524  0.4283
 4129SOL     OW18222   6.913   7.610   3.033  0.1833 -0.0890 -0.0104
 4129SOL    HW118223   6.881   7.596   3.122 -1.7317  1.3335 -0.3917
 4129SOL    HW218224   6.848   7.568   2.977 -0.3152  1.6233 -0.7905
 4130SOL     OW18225   8.652   9.417   0.903 -0.3634 -0.0912 -0.4348
 4130SOL    HW118226   8.712   9.343   0.893 -0.0530  0.0210  0.4317
 4130SOL    HW218227   8.576   9.381   0.948  0.8503  0.5427  2.3842
 4131SOL     OW18228   7.654   2.423   3.302  0.1080 -0.0554 -0.0050
 4131SOL    HW118229   7.579   2.381   3.262  0.5085 -0.7844 -0.0056
 4131SOL    HW218230   7.660   2.508   3.259 -1.5240  0.5939  0.9575
 4132SOL     OW18231   7.392   5.515   8.964  0.2790  0.4022  0.7542
 4132SOL    HW118232   7.389   5.429   8.922 -3.5806 -0.3953  2.1617
 4132SOL    HW218233   7.373   5.577   8.894 -0.2270 -0.2704  0.2849
 4133SOL     OW18234   7.564   5.252   2.691 -0.0720  0.5075  0.1840
 4133SOL    HW118235   7.490   5.302   2.657 -0.7967 -0.6196  0.0633
 4133SOL    HW218236   7.552   5.251   2.786  0.4678  1.3420  0.2767
 4134SOL     OW18237   5.929   4.110   9.924  0.1188  0.0521  0.0088
 4134SOL    HW118238   5.993   4.116   9.995  0.0833  1.2449 -0.0338
 4134SOL    HW218239   5.980   4.080   9.848  0.5471  0.5472  0.0901
 4135SOL     OW18240   3.259   6.393   6.735  0.0081  0.2346 -0.0133
 4135SOL    HW118241   3.302   6.338   6.800  0.7359  2.7368  1.7871
 4135SOL    HW218242   3.171   6.406   6.769 -1.1843 -2.0292 -1.9186
 4136SOL     OW18243  10.192   8.934   3.892  0.5392 -0.3087  0.2826
 4136SOL    HW118244  10.214   9.022   3.920  1.6074 -0.3139 -0.4941
 4136SOL    HW218245  10.112   8.913   3.941 -0.6211  1.6580 -0.6476
 4137SOL     OW18246   7.374   9.715   2.903 -0.1681 -0.1015 -0.3769
 4137SOL    HW118247   7.279   9.716   2.915 -0.5864 -3.2450 -2.1919
 4137SOL    HW218248   7.394   9.801   2.866 -2.2621  0.6814  0.1357
 4138SOL     OW18249   1.806  10.017   4.148  0.1656  0.0195  0.2170
 4138SOL    HW118250   1.858  10.089   4.113  0.5655 -0.1762  0.4078
 4138SOL    HW218251   1.818  10.023   4.243  1.4086 -1.2042  0.1646
 4139SOL     OW18252   2.843   0.728   3.371  0.0046 -0.2137 -0.0089
 4139SOL    HW118253   2.851   0.797   3.436  0.2172 -0.1985 -0.0512
 4139SOL    HW218254   2.932   0.697   3.356 -0.2178 -1.4670  1.0435
 4140SOL     OW18255   5.804   0.866   6.295 -0.0870  0.1013  0.3626
 4140SOL    HW118256   5.710   0.851   6.307 -0.5920  1.0375 -1.9238
 4140SOL    HW218257   5.833   0.794   6.238  0.4773  0.0958  0.6488
 4141SOL     OW18258   1.289   8.863   2.808 -0.2057 -0.1368 -0.8487
 4141SOL    HW118259   1.289   8.944   2.757 -1.0464  0.1012 -0.4926
 4141SOL    HW218260   1.335   8.885   2.889 -1.2351  0.2755 -0.3464
 4142SOL     OW18261   7.463   5.879   9.368  0.5160 -0.0989 -0.0892
 4142SOL    HW118262   7.492   5.940   9.301 -0.9100 -1.0897 -1.7090
 4142SOL    HW218263   7.510   5.905   9.447  0.7566  2.3731 -0.9647
 4143SOL     OW18264   8.145   6.990   5.265 -0.5625 -0.0332 -0.2765
 4143SOL    HW118265   8.174   7.045   5.192  0.5964  2.0207  1.5730
 4143SOL    HW218266   8.179   6.903   5.245  3.4472  1.3206 -0.3378
 4144SOL     OW18267   0.106   3.052   2.139  0.2070 -0.2426 -0.0983
 4144SOL    HW118268   0.172   2.989   2.113  2.0553  1.2408  0.7737
 4144SOL    HW218269   0.075   3.090   2.057  2.5664  1.0730 -0.4694
 4145SOL     OW18270   9.235   5.160   3.813 -0.2907  0.3891 -0.1723
 4145SOL    HW118271   9.276   5.214   3.881  0.9941 -1.8132  0.9254
 4145SOL    HW218272   9.154   5.128   3.854 -0.4425  0.4900 -0.3862
 4146SOL     OW18273   7.779   9.294   0.548 -0.6926  0.3490  0.5133
 4146SOL    HW118274   7.731   9.295   0.630  0.1247  1.5547  0.9986
 4146SOL    HW218275   7.862   9.337   0.567  0.6369 -1.6724 -0.2956
 4147SOL     OW18276   7.813   5.531   8.264 -0.4622 -0.1821  0.1677
 4147SOL    HW118277   7.740   5.540   8.202 -0.2104  0.7984 -0.0050
 4147SOL    HW218278   7.771   5.535   8.350 -0.6471  0.1181  0.0668
 4148SOL     OW18279   6.753   9.540  10.284  0.1728 -0.6660  0.0536
 4148SOL    HW118280   6.714   9.580  10.362 -0.7463  0.7901 -1.1058
 4148SOL    HW218281   6.839   9.581  10.276  0.8901 -1.9007  1.0933
 4149SOL     OW18282   3.175   5.333   3.646  0.1547 -0.4454  0.0831
 4149SOL    HW118283   3.139   5.302   3.729 -0.9882 -0.9019 -0.5548
 4149SOL    HW218284   3.144   5.423   3.638 -0.9645 -0.8713 -0.5133
 4150SOL     OW18285   1.093   3.221  10.033 -0.3115  0.1697 -0.1300
 4150SOL    HW118286   1.074   3.242  10.124  1.1154  2.3590 -0.2748
 4150SOL    HW218287   1.184   3.192  10.033 -1.0608 -2.4824 -0.5514
 4151SOL     OW18288   4.080   7.453   1.794  0.7899 -0.3647  0.6844
 4151SOL    HW118289   4.157   7.439   1.848 -0.2822 -1.3526  2.0269
 4151SOL    HW218290   4.037   7.529   1.831  1.6334  0.8452 -0.7258
 4152SOL     OW18291   8.120   3.064   9.081 -0.2069 -0.0830 -0.7551
 4152SOL    HW118292   8.098   3.057   9.174  0.4904  0.2083 -0.5634
 4152SOL    HW218293   8.213   3.084   9.080 -0.6043  2.0085 -1.4601
 4153SOL     OW18294   3.870   4.933   7.161 -0.1978 -0.3065  0.2226
 4153SOL    HW118295   3.930   4.982   7.105 -0.4792  0.0551  0.2297
 4153SOL    HW218296   3.925   4.899   7.232 -0.3555  2.1597  1.6765
 4154SOL     OW18297   1.003   0.771   9.059 -0.6354 -0.8434 -0.0510
 4154SOL    HW118298   0.932   0.721   9.101 -0.5504 -0.3931  0.6544
 4154SOL    HW218299   1.048   0.707   9.004 -0.2622 -1.6554  1.1585
 4155SOL     OW18300   5.762   4.977   8.296 -0.2475  0.1395  0.2458
 4155SOL    HW118301   5.745   4.895   8.341 -0.2056 -0.0600 -0.0971
 4155SOL    HW218302   5.676   5.004   8.263 -0.9029  1.8476  2.9953
 4156SOL     OW18303   4.360   6.317   9.502 -0.2567 -0.2668  0.2740
 4156SOL    HW118304   4.363   6.263   9.423  1.1079 -2.7318  1.8655
 4156SOL    HW218305   4.451   6.325   9.529 -0.5603  1.7728  0.8594
 4157SOL     OW18306  10.215   1.830   8.873  0.0752  0.0797  0.2617
 4157SOL    HW118307  10.228   1.757   8.812  1.2189  1.2620 -0.9608
 4157SOL    HW218308  10.122   1.825   8.895  0.4884 -3.0042  1.9161
 4158SOL     OW18309   2.446   9.566   6.863 -0.1114 -0.1103 -0.5367
 4158SOL    HW118310   2.473   9.625   6.792  0.6867 -0.1225 -0.2525
 4158SOL    HW218311   2.512   9.579   6.931  0.5047 -1.8667 -0.7506
 4159SOL     OW18312   8.270   3.312   4.929 -0.0040  0.4459 -0.3926
 4159SOL    HW118313   8.240   3.402   4.942 -2.3584 -0.2219 -0.8785
 4159SOL    HW218314   8.246   3.267   5.010  0.9697  0.1552 -0.2419
 4160SOL     OW18315   0.858   4.423   6.935 -0.4026  0.0572  0.2500
 4160SOL    HW118316   0.818   4.502   6.898 -0.6963 -0.5288 -0.7331
 4160SOL    HW218317   0.896   4.378   6.859 -0.6995 -1.0077  0.7152
 4161SOL     OW18318   1.428   7.884   8.773  0.6497  0.3298  0.2249
 4161SOL    HW118319   1.428   7.820   8.845 -0.3741 -0.2685 -0.2816
 4161SOL    HW218320   1.466   7.963   8.811 -1.3954  0.5841  1.9636
 4162SOL     OW18321   8.487   9.740   5.993 -0.0224  0.0504 -0.2166
 4162SOL    HW118322   8.432   9.680   6.044 -0.1500  0.8240  0.5769
 4162SOL    HW218323   8.461   9.827   6.022  0.8878  0.4619 -0.5924
 4163SOL     OW18324   0.467   5.842   9.027 -0.0974  0.6445  0.2165
 4163SOL    HW118325   0.432   5.927   8.999  3.3459  2.0282 -0.3206
 4163SOL    HW218326   0.506   5.804   8.948  0.3511 -0.4216  0.9270
 4164SOL     OW18327   7.943   1.309   1.616 -0.0527  0.1308  0.9099
 4164SOL    HW118328   7.952   1.227   1.665 -1.3890 -1.8649 -1.8588
 4164SOL    HW218329   7.854   1.339   1.637 -0.6076 -0.6980 -0.1503
 4165SOL     OW18330   3.114   3.918   5.171 -0.2443 -0.4512 -0.5297
 4165SOL    HW118331   3.201   3.885   5.148 -0.8796 -1.5880 -1.3864
 4165SOL    HW218332   3.071   3.934   5.087 -0.6593  0.6952 -0.1134
 4166SOL     OW18333   9.566   8.617   3.753  0.0326  0.3218  0.3306
 4166SOL    HW118334   9.591   8.569   3.832  0.9470  0.5991  0.2247
 4166SOL    HW218335   9.474   8.639   3.766 -0.2818 -1.0430  0.5885
 4167SOL     OW18336   8.966   1.521   5.105  0.3878 -0.6337 -0.3847
 4167SOL    HW118337   8.904   1.541   5.035 -1.4591  0.0169  1.3453
 4167SOL    HW218338   8.979   1.426   5.098 -0.2596 -0.6828 -1.2072
 4168SOL     OW18339   7.949   3.401   4.386  0.1454  0.0818  0.4014
 4168SOL    HW118340   7.988   3.333   4.331 -0.3018 -0.2060  0.4316
 4168SOL    HW218341   7.947   3.363   4.474 -0.9458 -0.2466  0.2588
 4169SOL     OW18342   2.911   0.730   5.085  0.5547 -0.6190  0.3584
 4169SOL    HW118343   2.874   0.718   4.997  2.5884  0.0553 -0.6632
 4169SOL    HW218344   3.000   0.696   5.078  1.3676  1.1054  1.6383
 4170SOL     OW18345   8.720   0.630  10.302  0.1706  0.1537  0.0685
 4170SOL    HW118346   8.634   0.650  10.341 -1.1729 -0.9006 -2.1617
 4170SOL    HW218347   8.700   0.573  10.228  2.7667  0.4619 -0.9736
 4171SOL     OW18348   8.352   2.610  10.296 -0.1521 -0.1284  0.1043
 4171SOL    HW118349   8.321   2.607  10.205  2.2014  2.7930 -0.9836
 4171SOL    HW218350   8.283   2.656  10.343 -0.2254  0.8443 -0.8956
 4172SOL     OW18351  10.534   0.439   6.384  0.1789  0.2589  0.0648
 4172SOL    HW118352  10.444   0.456   6.411  0.3309  0.7270  0.2931
 4172SOL    HW218353  10.535   0.347   6.359 -0.2405  0.1117  0.5699
 4173SOL     OW18354   6.350   2.482   7.600  0.3900  0.0304  0.2928
 4173SOL    HW118355   6.381   2.439   7.520 -0.8852  0.8267 -0.6501
 4173SOL    HW218356   6.364   2.575   7.584  2.2524  0.1019  1.9471
 4174SOL     OW18357   1.037   9.641   8.432  0.2921  0.2372 -0.1909
 4174SOL    HW118358   1.004   9.729   8.413  0.8608  0.6976  0.8952
 4174SOL    HW218359   1.081   9.649   8.516 -0.8833 -1.4027  0.6464
 4175SOL     OW18360   4.854   7.937   5.653 -0.4625 -0.3403 -0.3558
 4175SOL    HW118361   4.932   7.940   5.708 -0.3061  0.0739 -0.6008
 4175SOL    HW218362   4.877   7.985   5.575 -1.2933  0.6840  0.0038
 4176SOL     OW18363   6.430   5.483  10.284  0.6779 -0.7039 -0.0847
 4176SOL    HW118364   6.340   5.504  10.259  0.7431 -0.2815  0.0268
 4176SOL    HW218365   6.484   5.520  10.214  0.7904 -0.5389  0.0878
 4177SOL     OW18366   3.976   5.539   4.067 -0.4538  0.4967  0.0138
 4177SOL    HW118367   4.006   5.461   4.019 -0.5332  0.4587  0.0251
 4177SOL    HW218368   3.908   5.576   4.011  0.0720  0.9606 -0.3329
 4178SOL     OW18369   3.120   8.330   8.727  0.2139 -0.0416 -0.1591
 4178SOL    HW118370   3.090   8.278   8.653 -0.4628  1.1052 -0.7101
 4178SOL    HW218371   3.158   8.266   8.788 -2.6815 -1.5101  0.2612
 4179SOL     OW18372   7.432   5.861   4.544 -0.2180  0.0568  0.4308
 4179SOL    HW118373   7.417   5.803   4.470 -1.2286 -2.0197  2.1829
 4179SOL    HW218374   7.491   5.812   4.602  0.4123  1.5592  1.1291
 4180SOL     OW18375   8.736   2.757   0.288 -0.1562  0.4849  0.0718
 4180SOL    HW118376   8.644   2.766   0.313 -0.1316  0.8832  0.0148
 4180SOL    HW218377   8.762   2.844   0.259 -0.3160 -0.0260 -1.7764
 4181SOL     OW18378   5.674   3.988   1.902  0.0914  0.3123  0.3761
 4181SOL    HW118379   5.763   3.961   1.877 -0.3289 -0.5556 -0.2243
 4181SOL    HW218380   5.643   3.919   1.960 -0.9493 -0.4827 -1.0751
 4182SOL     OW18381   4.614   2.422   2.166  0.2517  0.1160  0.1144
 4182SOL    HW118382   4.556   2.443   2.093  2.4739 -0.3145 -1.8829
 4182SOL    HW218383   4.597   2.490   2.231 -3.0592 -0.4808  0.0454
 4183SOL     OW18384   5.702   6.236  10.666 -0.0987 -0.1398  0.1294
 4183SOL    HW118385   5.745   6.173  10.608  1.6497  0.4509  0.7393
 4183SOL    HW218386   5.706   6.319  10.618 -1.2487 -0.2101 -0.1174
 4184SOL     OW18387  10.373   4.086   8.938 -0.0895  0.0246 -0.2579
 4184SOL    HW118388  10.434   4.153   8.904 -0.9551  0.3517 -1.2116
 4184SOL    HW218389  10.425   4.037   9.001  0.4418  1.9013  0.8448
 4185SOL     OW18390   3.426   0.662   1.115 -0.2672  0.2361 -0.2464
 4185SOL    HW118391   3.459   0.672   1.026  1.2570  0.3019  0.3086
 4185SOL    HW218392   3.378   0.743   1.132 -0.2587  0.3786 -0.8685
 4186SOL     OW18393  10.700   0.121   6.656 -0.3694 -0.0991  0.1046
 4186SOL    HW118394  10.680   0.035   6.692 -0.2959 -0.2124 -0.1270
 4186SOL    HW218395  10.744   0.103   6.573  0.2773  0.1473  0.3816
 4187SOL     OW18396   4.562   4.664   1.206  0.4333 -0.0396 -0.0696
 4187SOL    HW118397   4.565   4.569   1.218 -0.5304 -0.2309 -1.1661
 4187SOL    HW218398   4.611   4.679   1.126  3.4044  0.7920  1.7263
 4188SOL     OW18399   8.011   5.183   6.900  0.0424 -0.0602  0.3007
 4188SOL    HW118400   8.007   5.087   6.908 -2.1804 -0.0914 -0.3745
 4188SOL    HW218401   8.034   5.213   6.988  2.2937 -1.2333  0.1731
 4189SOL     OW18402  10.012   9.269   7.919  0.0329  0.0751  0.3599
 4189SOL    HW118403   9.993   9.202   7.854  0.7419  0.0230  0.1930
 4189SOL    HW218404   9.927   9.296   7.952 -0.2938 -0.4227 -0.0617
 4190SOL     OW18405   1.806   2.465   0.906 -0.5663 -0.1092  0.2635
 4190SOL    HW118406   1.731   2.511   0.944 -1.3302 -0.5292 -0.6920
 4190SOL    HW218407   1.841   2.526   0.841  0.2567  0.2967  1.0712
 4191SOL     OW18408   9.623   7.586   2.152  0.2149  0.1613  0.1940
 4191SOL    HW118409   9.706   7.546   2.124  0.6536  0.0930  1.4983
 4191SOL    HW218410   9.556   7.525   2.123  0.6021  0.2680 -0.9809
 4192SOL     OW18411   6.215   7.717   7.726 -0.1402 -0.0733  0.2338
 4192SOL    HW118412   6.126   7.693   7.752 -0.1409  0.9292  1.2478
 4192SOL    HW218413   6.270   7.645   7.758 -0.5845 -0.7546 -0.5016
 4193SOL     OW18414   0.995   9.365   0.848  0.2147 -0.1931  0.6514
 4193SOL    HW118415   1.088   9.387   0.850  0.3597 -0.6541 -0.3455
 4193SOL    HW218416   0.963   9.386   0.936  1.7555 -2.1065  1.7498
 4194SOL     OW18417   9.011   7.898   1.005  0.4231 -0.4457 -0.1988
 4194SOL    HW118418   8.918   7.875   0.998  0.5538 -0.9041 -0.4559
 4194SOL    HW218419   9.024   7.916   1.098 -0.0069 -0.0087 -0.2193
 4195SOL     OW18420   6.135   8.448   9.394  0.1719  0.3517  0.7502
 4195SOL    HW118421   6.081   8.519   9.427  0.5544  1.1534 -0.2990
 4195SOL    HW218422   6.211   8.491   9.354 -0.6615 -0.4478 -1.9417
 4196SOL     OW18423   5.010   9.157   7.182  0.3692 -0.1462  0.4080
 4196SOL    HW118424   5.086   9.115   7.225  0.5891  0.6399  0.8163
 4196SOL    HW218425   5.034   9.162   7.090  0.0944 -1.4322  0.2561
 4197SOL     OW18426   0.544   9.543   7.124  0.2766 -0.2674  0.0023
 4197SOL    HW118427   0.449   9.527   7.124  0.2627 -0.2693 -0.9863
 4197SOL    HW218428   0.582   9.456   7.119  0.4019 -0.3938  2.1477
 4198SOL     OW18429   5.869   4.033   5.095 -0.3280 -0.1767  0.5748
 4198SOL    HW118430   5.963   4.046   5.083 -0.3939  0.0557  0.3011
 4198SOL    HW218431   5.856   3.939   5.091 -0.2004 -0.1709 -0.0786
 4199SOL     OW18432   4.345   1.569  10.705  0.3173  0.3753 -0.6510
 4199SOL    HW118433   4.254   1.558  10.678  0.7033 -0.4410 -1.6940
 4199SOL    HW218434   4.366   1.660  10.682 -0.8783  1.3220  1.6966
 4200SOL     OW18435   8.943   4.009   1.255  0.0491 -0.1185  0.5995
 4200SOL    HW118436   9.024   4.031   1.209 -0.6224  0.9319 -0.1234
 4200SOL    HW218437   8.876   4.062   1.213 -0.8084 -0.0208  2.0102
 4201SOL     OW18438   4.435   9.509   8.470 -0.6717  0.2792  0.6198
 4201SOL    HW118439   4.467   9.421   8.489  0.1052  0.3564 -0.2632
 4201SOL    HW218440   4.363   9.496   8.409 -0.7909  0.2390  0.7687
 4202SOL     OW18441   8.399   6.814   9.299  0.0995 -0.2300  0.6857
 4202SOL    HW118442   8.306   6.826   9.279 -0.4356 -2.2384  1.7550
 4202SOL    HW218443   8.409   6.849   9.387  0.9304  2.1335 -0.2638
 4203SOL     OW18444   2.807   6.526   0.445 -0.4344  0.6252 -0.3710
 4203SOL    HW118445   2.787   6.439   0.480 -0.9568  0.3883 -1.2423
 4203SOL    HW218446   2.729   6.578   0.465 -0.1258  0.9010  0.1426
 4204SOL     OW18447   9.293   4.447   0.305  0.1907 -0.2163  0.6798
 4204SOL    HW118448   9.215   4.449   0.360  1.3841  0.5779  2.4268
 4204SOL    HW218449   9.284   4.366   0.254 -0.6383 -1.3983  2.5826
 4205SOL     OW18450   2.632   3.087   3.156 -0.8112 -0.2252  0.2352
 4205SOL    HW118451   2.545   3.104   3.121 -0.6403 -2.0430 -1.2509
 4205SOL    HW218452   2.681   3.168   3.139 -1.6438  0.0782 -0.8487
 4206SOL     OW18453   1.885   2.043   8.847 -0.0566  0.2735 -0.2917
 4206SOL    HW118454   1.816   1.979   8.829 -2.3182  2.1831  0.8785
 4206SOL    HW218455   1.911   2.076   8.760 -1.3642  0.1983 -0.7348
 4207SOL     OW18456   6.348   7.188   7.432  0.0008 -0.1566 -0.3967
 4207SOL    HW118457   6.322   7.272   7.396  0.7060 -0.3139 -1.3259
 4207SOL    HW218458   6.393   7.210   7.514  0.6679  0.4257 -0.9046
 4208SOL     OW18459   8.047   6.842   4.914  0.0245 -0.2798  0.1024
 4208SOL    HW118460   8.034   6.863   4.821 -2.0039  0.2495  0.4590
 4208SOL    HW218461   8.141   6.849   4.927  0.3317 -0.1540 -1.8719
 4209SOL     OW18462   7.515   3.934   0.422  0.7855 -0.1139  0.9772
 4209SOL    HW118463   7.578   3.913   0.353  0.3556 -0.2505  0.6230
 4209SOL    HW218464   7.482   4.021   0.398  0.5780 -0.1956  0.9693
 4210SOL     OW18465   2.455   7.720   8.044  0.1246  0.1890  0.3014
 4210SOL    HW118466   2.475   7.672   7.963  0.2948  0.1420  0.3721
 4210SOL    HW218467   2.513   7.796   8.041 -0.1549  0.4034  0.1813
 4211SOL     OW18468  10.629  10.208   6.007 -0.2978 -0.2685 -0.5047
 4211SOL    HW118469  10.596  10.266   6.076 -1.9473  0.4824 -1.8401
 4211SOL    HW218470  10.690  10.150   6.052 -1.0512  0.3992  1.5251
 4212SOL     OW18471   4.962   0.349   0.922  0.1372  0.1164 -0.4362
 4212SOL    HW118472   4.922   0.435   0.910 -1.6900 -0.6689 -0.2542
 4212SOL    HW218473   5.051   0.359   0.888 -0.0109  2.0907 -0.3263
 4213SOL     OW18474   0.140   9.149   5.905 -0.4380 -0.3122 -0.1182
 4213SOL    HW118475   0.161   9.128   5.814 -0.2007  0.6051 -0.2855
 4213SOL    HW218476   0.223   9.140   5.951 -0.2027  0.7878 -0.3007
 4214SOL     OW18477   7.649   5.359   6.399 -0.2174  0.5913  0.4446
 4214SOL    HW118478   7.716   5.351   6.331 -1.3408  0.7443 -0.7106
 4214SOL    HW218479   7.696   5.343   6.481  1.1278  0.1978 -0.3766
 4215SOL     OW18480   2.854   6.790   8.294  0.1104  0.3057 -0.3494
 4215SOL    HW118481   2.905   6.714   8.268  1.4036  0.7373  0.8153
 4215SOL    HW218482   2.859   6.791   8.389 -0.4494  1.4568 -0.3158
 4216SOL     OW18483   4.084   9.790   5.709 -0.2612  0.4205 -0.0354
 4216SOL    HW118484   4.108   9.815   5.798 -0.6511  0.1288  0.1540
 4216SOL    HW218485   3.990   9.769   5.714  0.0199 -0.9582 -0.2107
 4217SOL     OW18486   3.597   5.484   5.618  0.3251 -0.2973 -0.7453
 4217SOL    HW118487   3.642   5.408   5.656 -0.7273 -1.7059 -2.2144
 4217SOL    HW218488   3.635   5.559   5.664  1.3907 -1.6911  0.7710
 4218SOL     OW18489   5.991   7.729   3.112  0.2705  0.2088 -0.0419
 4218SOL    HW118490   6.039   7.797   3.160  0.2145  0.2659 -0.0677
 4218SOL    HW218491   5.937   7.686   3.178  0.1217  0.3504 -0.0725
 4219SOL     OW18492   9.850   3.901   0.901  0.4351 -0.2548 -0.3050
 4219SOL    HW118493   9.867   3.978   0.955 -0.7915 -0.8120  0.9426
 4219SOL    HW218494   9.770   3.922   0.852 -0.7581 -1.2127  1.1278
 4220SOL     OW18495   9.991   3.979   9.738 -0.1135  0.3358  0.2920
 4220SOL    HW118496  10.050   3.968   9.812 -1.3838 -0.7467  1.1947
 4220SOL    HW218497   9.989   4.073   9.723  0.9508  0.4863  0.9652
 4221SOL     OW18498   4.108   2.249   8.809 -0.4525 -0.6188  0.0536
 4221SOL    HW118499   4.084   2.238   8.717  0.7646 -1.2212 -0.2205
 4221SOL    HW218500   4.046   2.313   8.843 -0.8587 -0.3104 -1.2126
 4222SOL     OW18501   0.615   8.674   3.211  0.1570 -0.3815 -0.1812
 4222SOL    HW118502   0.625   8.589   3.169 -0.6495  0.1519 -1.4936
 4222SOL    HW218503   0.658   8.736   3.152 -0.7768  0.3488 -0.1174
 4223SOL     OW18504   2.838   9.910   3.229 -0.1767 -0.1773 -0.3864
 4223SOL    HW118505   2.772   9.891   3.295 -0.1194  1.0337  0.0397
 4223SOL    HW218506   2.835  10.005   3.218  2.4527  0.1116  0.7027
 4224SOL     OW18507   9.951   8.993   9.473  0.3842 -0.2593 -0.2040
 4224SOL    HW118508  10.009   9.018   9.545  0.6713 -2.7689  0.5435
 4224SOL    HW218509   9.864   8.990   9.512  0.5530 -1.7179  0.1436
 4225SOL     OW18510   6.864   9.985   5.971 -0.0990  0.1929  0.1544
 4225SOL    HW118511   6.816   9.953   6.048 -1.7052  1.2160 -0.3647
 4225SOL    HW218512   6.948   9.940   5.975 -0.6756 -0.8479  1.7313
 4226SOL     OW18513   7.611   8.322   9.485 -0.0063 -0.4610  0.2785
 4226SOL    HW118514   7.538   8.350   9.541  1.9775 -1.6022  3.7860
 4226SOL    HW218515   7.688   8.364   9.524  1.4438 -0.5053 -2.3434
 4227SOL     OW18516   5.900   2.171   9.097  1.1194  0.3371 -0.1331
 4227SOL    HW118517   5.994   2.186   9.101  1.4023 -0.2419 -2.7766
 4227SOL    HW218518   5.891   2.088   9.050 -0.6951 -0.1167  0.9363
 4228SOL     OW18519   3.956   9.625   6.561  0.3473  0.5565 -0.0860
 4228SOL    HW118520   3.892   9.563   6.594  1.0260 -0.2588 -0.2551
 4228SOL    HW218521   3.949   9.700   6.620 -0.7583  0.4940 -0.1139
 4229SOL     OW18522   5.472   5.344   2.381  0.2992 -0.3480  0.0913
 4229SOL    HW118523   5.542   5.354   2.316 -0.1903 -0.3763 -0.4521
 4229SOL    HW218524   5.432   5.430   2.386 -2.0515 -1.1193 -2.4402
 4230SOL     OW18525   6.610   6.413   4.626 -0.1279  0.2693  0.1392
 4230SOL    HW118526   6.639   6.466   4.551 -0.6041 -1.5087 -1.3741
 4230SOL    HW218527   6.690   6.370   4.657 -0.2426 -0.5272 -0.6409
 4231SOL     OW18528   2.862   7.709   2.766 -0.1612 -0.9313 -0.2377
 4231SOL    HW118529   2.898   7.792   2.795 -0.5130 -1.2494  1.1726
 4231SOL    HW218530   2.939   7.654   2.749  0.0600 -0.4949 -0.6553
 4232SOL     OW18531   6.118   8.588   1.905 -0.4615 -0.0974  0.0247
 4232SOL    HW118532   6.213   8.598   1.898 -0.6278  0.8360 -1.0032
 4232SOL    HW218533   6.104   8.493   1.896  0.2589 -0.1019 -1.3504
 4233SOL     OW18534  10.229   4.010  10.693 -0.1379 -0.5167  0.3283
 4233SOL    HW118535  10.189   3.983  10.610  0.8396 -1.1829  0.0579
 4233SOL    HW218536  10.161   4.061  10.737 -0.7568 -0.3522 -0.7799
 4234SOL     OW18537   7.416   9.176   7.261 -0.4292  0.1455  0.7062
 4234SOL    HW118538   7.486   9.235   7.231 -0.3817 -0.8393 -1.2707
 4234SOL    HW218539   7.353   9.176   7.189 -1.1279 -1.0877  1.2998
 4235SOL     OW18540   6.800   2.889   4.551  0.0521  0.0411 -0.0976
 4235SOL    HW118541   6.784   2.807   4.504  2.1979  0.0590 -0.9682
 4235SOL    HW218542   6.804   2.863   4.643  1.7847 -1.0740 -0.4417
 4236SOL     OW18543   7.068   7.642   0.294 -0.0378 -0.6002 -0.0116
 4236SOL    HW118544   7.074   7.596   0.377 -1.6081 -1.2919 -0.2438
 4236SOL    HW218545   6.974   7.652   0.279  0.1805  2.5625 -0.0538
 4237SOL     OW18546   2.747   4.061   4.127  0.2891  0.0686 -0.5373
 4237SOL    HW118547   2.682   4.077   4.195  0.6376  0.0030 -0.1825
 4237SOL    HW218548   2.696   4.040   4.049 -0.1580  1.7494 -0.7284
 4238SOL     OW18549   9.055   4.533   3.591 -0.2699  0.1463 -0.1780
 4238SOL    HW118550   9.003   4.487   3.658  0.5298  1.4922  1.4409
 4238SOL    HW218551   9.136   4.482   3.585 -0.1683  0.2544  0.2112
 4239SOL     OW18552   6.681   3.323   4.636 -0.4383  0.1533 -0.1024
 4239SOL    HW118553   6.749   3.284   4.690 -0.1319  0.2781 -0.3918
 4239SOL    HW218554   6.606   3.333   4.694 -0.6870 -1.3043 -0.1317
 4240SOL     OW18555   6.600   4.336   3.636  0.1197  0.1167  0.4232
 4240SOL    HW118556   6.627   4.252   3.600 -1.5021 -0.9469  1.5232
 4240SOL    HW218557   6.654   4.347   3.715  3.0132  2.0062 -1.6224
 4241SOL     OW18558   8.442   7.742   2.223  0.1384  0.2294 -0.0886
 4241SOL    HW118559   8.532   7.733   2.191  0.5009  0.7360  0.7450
 4241SOL    HW218560   8.430   7.667   2.281  0.1633  0.3764  0.1077
 4242SOL     OW18561   9.737   0.586   8.436  0.4813  0.6226  0.6694
 4242SOL    HW118562   9.815   0.629   8.471  1.7031 -0.7979 -0.2081
 4242SOL    HW218563   9.768   0.502   8.404 -1.4621 -0.0585  0.4437
 4243SOL     OW18564   9.172   9.642   8.487  0.5376  0.2489 -0.6127
 4243SOL    HW118565   9.192   9.734   8.505 -1.2626  0.2129  1.9627
 4243SOL    HW218566   9.236   9.593   8.539 -1.5364  0.1345  1.9930
 4244SOL     OW18567   0.961   2.863   8.946  0.0895 -0.7417 -0.0587
 4244SOL    HW118568   0.866   2.870   8.941  0.2336  2.2747 -0.4656
 4244SOL    HW218569   0.979   2.856   9.040 -0.5021  0.1983  0.1383
 4245SOL     OW18570   9.960   4.441   1.208  0.9511  0.0751  0.2558
 4245SOL    HW118571   9.891   4.504   1.190  1.8127  0.7459 -0.8585
 4245SOL    HW218572   9.992   4.415   1.121 -0.0768 -2.7133  0.6193
 4246SOL     OW18573  10.477   0.050   0.660 -0.2025 -0.5547  0.2194
 4246SOL    HW118574  10.440   0.116   0.602 -0.0126 -0.0460  0.6705
 4246SOL    HW218575  10.543   0.005   0.607 -0.6128 -0.6556 -0.2131
 4247SOL     OW18576   7.295   5.776   9.591 -0.2359 -0.6830  0.3860
 4247SOL    HW118577   7.359   5.817   9.649  0.7889 -1.0789 -0.4483
 4247SOL    HW218578   7.320   5.684   9.588 -0.2482 -0.6621 -0.7063
 4248SOL     OW18579   5.643   0.313   3.178  0.0652  0.3646 -0.1715
 4248SOL    HW118580   5.688   0.293   3.096 -1.9151  0.0733 -1.2532
 4248SOL    HW218581   5.610   0.402   3.167 -0.2132  0.3271  0.2998
 4249SOL     OW18582   2.866  10.517   2.378 -0.6309 -0.1421 -0.2285
 4249SOL    HW118583   2.862  10.612   2.388  0.0205 -0.3318  3.3147
 4249SOL    HW218584   2.774  10.489   2.373 -1.1895  0.4776  3.6036
 4250SOL     OW18585   7.139   4.148   7.077  0.0486 -0.4856  0.9349
 4250SOL    HW118586   7.217   4.200   7.096  1.3485 -0.5241 -3.2520
 4250SOL    HW218587   7.070   4.187   7.130  2.1556  1.7438  2.2463
 4251SOL     OW18588   8.081   0.513   1.056 -0.0949 -0.0716  0.2361
 4251SOL    HW118589   8.039   0.512   0.970  0.0287  2.1239  0.0835
 4251SOL    HW218590   8.118   0.601   1.063  0.6434 -0.4907  2.1903
 4252SOL     OW18591   5.922   5.238   6.168  0.1188 -0.2204 -0.0689
 4252SOL    HW118592   6.005   5.216   6.125  0.7892  2.1371 -0.1475
 4252SOL    HW218593   5.945   5.250   6.260 -0.1224  0.4528 -0.0946
 4253SOL     OW18594   6.263   0.432   0.108  0.1179  0.2388 -0.4892
 4253SOL    HW118595   6.297   0.490   0.040 -0.1542 -0.3679 -1.1598
 4253SOL    HW218596   6.285   0.343   0.078 -0.4537 -0.0654 -0.0427
 4254SOL     OW18597  10.193   1.060   4.573 -0.2148 -0.1906 -0.3918
 4254SOL    HW118598  10.206   1.110   4.493 -0.4716 -1.0936 -1.0209
 4254SOL    HW218599  10.216   0.970   4.548 -1.6241 -0.7295  0.1587
 4255SOL     OW18600   4.465   9.240   2.319  0.0557 -0.5130  0.5444
 4255SOL    HW118601   4.516   9.172   2.275 -1.2017 -0.3850 -1.2285
 4255SOL    HW218602   4.375   9.224   2.291 -0.4830  1.0017  1.2867
 4256SOL     OW18603   3.546   9.500   6.433  0.4589  0.6177 -0.5656
 4256SOL    HW118604   3.454   9.499   6.406  0.0912 -3.6773  0.0439
 4256SOL    HW218605   3.591   9.448   6.367  1.5840 -0.7713  1.1807
 4257SOL     OW18606   5.513   3.440  10.167  0.1210  0.4230  0.1622
 4257SOL    HW118607   5.599   3.433  10.126 -0.1040  0.3901 -0.3179
 4257SOL    HW218608   5.484   3.349  10.178 -0.1007  0.4400 -0.2302
 4258SOL     OW18609   9.932   1.184   9.031 -1.0268 -0.5226 -0.0068
 4258SOL    HW118610   9.911   1.205   9.122 -1.1211 -0.0395 -0.1375
 4258SOL    HW218611  10.025   1.205   9.022 -1.7306  2.6846 -0.9054
 4259SOL     OW18612   2.654   6.989   4.345  0.5871  0.2491  0.0639
 4259SOL    HW118613   2.608   7.065   4.379  0.2105 -0.5787  1.4848
 4259SOL    HW218614   2.621   6.979   4.256 -0.4593  0.8720  0.3709
 4260SOL     OW18615   1.152   1.934   4.268  0.0332 -0.6469  0.3647
 4260SOL    HW118616   1.154   1.915   4.362 -0.0995 -0.0671  0.4910
 4260SOL    HW218617   1.134   2.028   4.263  0.3721 -0.6071 -0.2347
 4261SOL     OW18618   3.951   9.305   5.746 -0.3356 -0.2709  0.0413
 4261SOL    HW118619   4.028   9.324   5.693 -2.0413 -0.7569 -2.8342
 4261SOL    HW218620   3.900   9.244   5.693 -2.8486  0.2516  1.6690
 4262SOL     OW18621  10.662   5.980   0.645 -0.1507  0.2162  0.1530
 4262SOL    HW118622  10.709   5.899   0.624 -1.1234 -0.4215  0.4076
 4262SOL    HW218623  10.620   5.963   0.728  0.7874  1.5092  0.9360
 4263SOL     OW18624   0.356   8.833   5.494 -0.1946 -0.2704 -0.4070
 4263SOL    HW118625   0.381   8.746   5.526  0.5695  0.3770  0.8764
 4263SOL    HW218626   0.292   8.864   5.558 -2.2214 -0.7678 -2.1169
 4264SOL     OW18627   7.890   0.713   5.292 -0.2973 -0.9557 -0.8816
 4264SOL    HW118628   7.874   0.640   5.353  0.2082  0.4430  1.0297
 4264SOL    HW218629   7.822   0.704   5.226 -1.5117 -1.9986  0.4297
 4265SOL     OW18630   8.237  10.610   2.664  0.0131  0.6129 -0.1022
 4265SOL    HW118631   8.320  10.565   2.676 -0.2124  0.7065  2.1966
 4265SOL    HW218632   8.211  10.638   2.752 -1.8552  1.6583 -0.9135
 4266SOL     OW18633   0.906  10.300   6.823 -0.3296  0.8581 -0.3573
 4266SOL    HW118634   0.819  10.260   6.817 -0.5798  1.5634 -2.7917
 4266SOL    HW218635   0.963  10.239   6.776 -0.1806  1.9045 -1.6026
 4267SOL     OW18636   0.040   5.706   0.204 -0.4393 -0.2695 -0.6305
 4267SOL    HW118637   0.072   5.644   0.138  0.3669 -1.6178  0.9591
 4267SOL    HW218638   0.120   5.745   0.241 -0.9070  1.0219 -0.9255
 4268SOL     OW18639   0.725   9.760   2.759  0.4534 -0.3832 -0.9050
 4268SOL    HW118640   0.701   9.720   2.843 -0.0864  0.5708 -0.5790
 4268SOL    HW218641   0.718   9.854   2.775 -1.0794 -0.1913 -2.4210
 4269SOL     OW18642   3.029   9.796   9.487  0.3214 -0.0613 -0.5859
 4269SOL    HW118643   3.058   9.885   9.507 -0.7626  0.2950 -0.5205
 4269SOL    HW218644   2.977   9.770   9.563 -0.3854 -0.2786 -1.1344
 4270SOL     OW18645   3.161   9.533   4.924 -0.0428 -0.4903 -0.0255
 4270SOL    HW118646   3.128   9.533   4.834 -0.1953  1.2768  0.0028
 4270SOL    HW218647   3.197   9.621   4.936  1.5419 -1.2503  1.0874
 4271SOL     OW18648   1.088   6.900   0.551  0.6864 -0.1028  0.2598
 4271SOL    HW118649   1.033   6.947   0.613  2.3509  0.2972  1.5040
 4271SOL    HW218650   1.027   6.863   0.488 -0.9471  0.7205  1.2934
 4272SOL     OW18651   9.577   3.550   3.991  0.1657  0.0279 -0.0798
 4272SOL    HW118652   9.551   3.614   4.057 -1.5896  1.1123 -1.7367
 4272SOL    HW218653   9.567   3.596   3.907 -0.1104 -2.0648 -1.2688
 4273SOL     OW18654   5.781   7.607   3.250  0.2383 -0.5487  0.1729
 4273SOL    HW118655   5.739   7.653   3.178  0.9917  2.0635  1.2828
 4273SOL    HW218656   5.713   7.549   3.285 -1.5197  1.3404  0.0586
 4274SOL     OW18657   7.815   2.153   8.525 -0.4474 -0.2929 -0.5322
 4274SOL    HW118658   7.857   2.071   8.500  0.4912  0.3162 -1.0172
 4274SOL    HW218659   7.859   2.220   8.472  0.0922  0.7679  1.1398
 4275SOL     OW18660   4.081  10.616   7.769 -0.2607  0.3978 -0.4385
 4275SOL    HW118661   4.050  10.640   7.857 -0.7222  0.1471 -0.5250
 4275SOL    HW218662   4.065  10.695   7.716 -1.0027  0.1909 -0.5380
 4276SOL     OW18663   9.875   3.092   9.203  0.0259 -0.1840  0.1496
 4276SOL    HW118664   9.915   3.119   9.120 -0.4505  0.2931  0.0658
 4276SOL    HW218665   9.910   3.004   9.219  0.0091 -0.3454 -0.6363
 4277SOL     OW18666   0.500   0.851   1.169  0.0628  0.2009  0.3304
 4277SOL    HW118667   0.515   0.945   1.180  0.1869  0.1919  0.2510
 4277SOL    HW218668   0.498   0.838   1.074  0.3230  0.0823  0.3386
 4278SOL     OW18669   4.579   3.332   4.798 -0.3881  0.0734  0.6930
 4278SOL    HW118670   4.582   3.240   4.772 -2.6020 -0.6966  2.7925
 4278SOL    HW218671   4.497   3.364   4.761 -0.3376  0.8002  1.1940
 4279SOL     OW18672   7.061   6.636   9.802  0.0656  0.7002  0.4742
 4279SOL    HW118673   7.114   6.716   9.805 -0.0885  0.7817  1.8031
 4279SOL    HW218674   7.119   6.568   9.835  0.4788  0.0470 -1.4639
 4280SOL     OW18675   7.990  10.320   1.938 -0.0451 -0.2301 -0.0973
 4280SOL    HW118676   7.968  10.379   1.866  1.9535 -1.7864 -2.1730
 4280SOL    HW218677   8.054  10.259   1.899  0.1166 -1.9863  2.6681
 4281SOL     OW18678   8.448   3.309   9.431 -0.0824 -0.0427 -0.1558
 4281SOL    HW118679   8.485   3.394   9.408 -1.1427  0.1737 -1.1879
 4281SOL    HW218680   8.524   3.251   9.441  0.5699  0.5157 -1.6096
 4282SOL     OW18681   5.143   6.048   1.165  0.7051  0.2928  0.2096
 4282SOL    HW118682   5.096   6.005   1.236  0.3963 -0.5218 -0.4731
 4282SOL    HW218683   5.228   6.004   1.162  0.9397  0.7156  0.4318
 4283SOL     OW18684   7.848   3.007   3.077  0.0140  0.1818 -0.2209
 4283SOL    HW118685   7.850   3.038   2.986  0.2533 -1.1988 -0.7012
 4283SOL    HW218686   7.878   2.917   3.073  0.8179  0.3420  1.3497
 4284SOL     OW18687   6.334   4.001   8.476 -0.2822 -0.3631  0.7200
 4284SOL    HW118688   6.298   3.914   8.488  0.3603 -0.7884 -0.2478
 4284SOL    HW218689   6.405   4.007   8.541  1.2386 -1.5051 -0.7339
 4285SOL     OW18690   8.778   3.702   3.896  0.1105 -0.1729  0.2945
 4285SOL    HW118691   8.786   3.766   3.967  0.9426 -0.6032  0.6123
 4285SOL    HW218692   8.861   3.654   3.899  0.6909  0.5781 -1.7428
 4286SOL     OW18693   7.831   1.264   9.501 -0.0932  0.1617  0.2336
 4286SOL    HW118694   7.853   1.272   9.594  3.2131  1.1192 -0.4881
 4286SOL    HW218695   7.776   1.340   9.482 -0.7685 -0.0265  1.3790
 4287SOL     OW18696   2.219   3.405   8.002 -0.0924 -0.0464 -0.2191
 4287SOL    HW118697   2.182   3.317   7.993 -1.0624  0.4773 -1.8595
 4287SOL    HW218698   2.199   3.430   8.093 -0.8803 -1.0601 -0.0917
 4288SOL     OW18699   7.322   0.275   5.466  0.3561 -0.4723 -0.3431
 4288SOL    HW118700   7.245   0.251   5.414 -0.5151  0.7195  0.3610
 4288SOL    HW218701   7.342   0.364   5.438  0.0340  0.0868  1.1520
 4289SOL     OW18702   7.676   6.000   4.146 -0.6079 -0.2872 -0.0599
 4289SOL    HW118703   7.650   5.927   4.090 -1.1202  1.0869 -1.7098
 4289SOL    HW218704   7.603   6.012   4.207 -1.3765 -0.0119 -1.0012
 4290SOL     OW18705  10.450   2.333   3.156  0.4748  0.0554 -0.5360
 4290SOL    HW118706  10.469   2.383   3.236  0.0951  0.5274 -0.7359
 4290SOL    HW218707  10.483   2.245   3.175 -0.0999  0.0193  0.3518
 4291SOL     OW18708   0.509  10.382   1.163 -0.0266  0.3302 -0.1058
 4291SOL    HW118709   0.454  10.442   1.113  1.0251  1.1991 -0.2664
 4291SOL    HW218710   0.594  10.426   1.168  0.2231 -0.2429  1.4682
 4292SOL     OW18711   8.977   8.901   9.897 -0.0422 -0.5299 -0.2605
 4292SOL    HW118712   8.897   8.858   9.927 -0.7110  0.3125 -0.7595
 4292SOL    HW218713   9.035   8.829   9.871 -1.1956 -1.1386 -1.2630
 4293SOL     OW18714   2.772   1.422   2.617 -0.3941  0.2071 -0.7485
 4293SOL    HW118715   2.712   1.466   2.557 -0.0778 -0.1189 -1.3231
 4293SOL    HW218716   2.816   1.493   2.664 -0.2441  0.4908 -1.3113
 4294SOL     OW18717   1.243   6.306   8.302  0.4629  1.1631 -0.2876
 4294SOL    HW118718   1.293   6.286   8.223  0.5508  1.2099 -0.2432
 4294SOL    HW218719   1.154   6.274   8.282  0.0364  2.7412 -1.1008
 4295SOL     OW18720   0.259   7.216  10.454 -0.1227 -0.0779 -0.3596
 4295SOL    HW118721   0.216   7.297  10.483 -2.9988 -0.4320 -3.1521
 4295SOL    HW218722   0.192   7.149  10.462  1.0540 -1.4561 -1.5607
 4296SOL     OW18723   0.655   7.765  10.641  0.6373 -0.1594 -0.2621
 4296SOL    HW118724   0.602   7.810  10.707 -1.4089 -0.8882 -1.3253
 4296SOL    HW218725   0.724   7.722  10.691  0.1909  0.7406  1.1971
 4297SOL     OW18726   8.750   1.109   7.978 -0.8743  0.0745  0.1234
 4297SOL    HW118727   8.709   1.117   8.065 -1.5181  1.0067 -0.2422
 4297SOL    HW218728   8.795   1.024   7.980 -0.1121  0.4761  1.6791
 4298SOL     OW18729   4.679  10.508   5.830 -0.0681 -0.2958  0.5549
 4298SOL    HW118730   4.730  10.519   5.910  0.1031  2.8384  0.1394
 4298SOL    HW218731   4.742  10.477   5.765  1.0917  2.1094  0.4182
 4299SOL     OW18732   1.549   8.712   4.123  0.4860 -0.6134  0.6468
 4299SOL    HW118733   1.499   8.631   4.128 -0.2293 -0.9103 -4.9835
 4299SOL    HW218734   1.641   8.684   4.125  0.2598 -1.4112  0.1176
 4300SOL     OW18735   1.945   4.062   5.627 -0.2001  0.2601  0.0690
 4300SOL    HW118736   1.897   4.091   5.705 -0.5258 -0.7060  0.2448
 4300SOL    HW218737   1.881   4.062   5.557  0.1157  1.2193 -0.2385
 4301SOL     OW18738   1.126  10.117   6.469 -0.2491  0.7293  0.7030
 4301SOL    HW118739   1.187  10.181   6.506 -0.4860  0.4385  1.6351
 4301SOL    HW218740   1.041  10.141   6.505 -0.2507 -0.4399  1.5589
 4302SOL     OW18741   6.378   2.078   6.269 -0.0999 -0.6912 -0.0824
 4302SOL    HW118742   6.430   2.157   6.258  0.6745 -1.3343 -1.3900
 4302SOL    HW218743   6.315   2.099   6.338  0.1839  0.9953 -0.2963
 4303SOL     OW18744   1.233   9.027   9.430 -0.0654 -0.0858  0.2148
 4303SOL    HW118745   1.305   9.064   9.380 -1.4800  1.4918 -0.7823
 4303SOL    HW218746   1.274   8.987   9.506  1.7641  1.7634  0.2748
 4304SOL     OW18747   9.093   9.915   9.282  0.9145  0.4686 -0.0006
 4304SOL    HW118748   9.148   9.993   9.280  1.6693 -0.0556 -1.0443
 4304SOL    HW218749   9.087   9.892   9.375  0.4914  1.8764  0.3377
 4305SOL     OW18750   4.523   6.202   2.301  0.1130 -0.2866  0.7142
 4305SOL    HW118751   4.498   6.125   2.249  0.3358 -2.1491  3.1474
 4305SOL    HW218752   4.440   6.237   2.334  0.0288  0.3380 -0.1604
 4306SOL     OW18753   6.671   4.988   5.252  0.0409  0.1410  0.3175
 4306SOL    HW118754   6.626   5.032   5.324  1.1280  1.8031  0.0494
 4306SOL    HW218755   6.690   4.900   5.285  1.7702  1.2816  2.6452
 4307SOL     OW18756   1.255   0.819   2.110 -0.0082 -0.2500  0.2399
 4307SOL    HW118757   1.305   0.899   2.098  0.9267 -0.9383 -0.5789
 4307SOL    HW218758   1.230   0.792   2.022 -2.5153  0.4601  0.6433
 4308SOL     OW18759   6.469   7.633   5.039 -0.2009 -0.1009 -0.1042
 4308SOL    HW118760   6.461   7.702   4.973 -0.4267 -0.3443 -0.3315
 4308SOL    HW218761   6.557   7.646   5.075  0.2414 -0.4458 -1.0067
 4309SOL     OW18762   4.551   5.263   8.638 -0.4656 -0.0454 -0.1165
 4309SOL    HW118763   4.519   5.257   8.548  0.8278 -1.5803 -0.5400
 4309SOL    HW218764   4.614   5.335   8.636 -2.0631  1.4237  0.1556
 4310SOL     OW18765   4.440   9.542   0.219  0.2470 -0.1193 -0.5227
 4310SOL    HW118766   4.366   9.504   0.171  0.2811 -1.3826  0.3598
 4310SOL    HW218767   4.439   9.497   0.303  1.1766  0.8730  0.0399
 4311SOL     OW18768   9.145  10.326   3.295  0.0096 -0.0857  1.0674
 4311SOL    HW118769   9.128  10.327   3.201  0.6661 -0.8257  0.9324
 4311SOL    HW218770   9.103  10.246   3.326  0.5026 -0.2728  1.2586
 4312SOL     OW18771   7.274   5.905   7.830  0.6418 -0.3970  0.1564
 4312SOL    HW118772   7.348   5.864   7.785 -1.3541 -3.9352 -0.2859
 4312SOL    HW218773   7.286   5.882   7.922  1.9620  2.3311  0.7615
 4313SOL     OW18774   8.836   7.005   0.475 -0.2420 -0.3730 -0.0997
 4313SOL    HW118775   8.862   7.080   0.423  0.9935 -0.9951 -0.4210
 4313SOL    HW218776   8.751   7.029   0.512  0.0725  1.1090 -0.3026
 4314SOL     OW18777   0.126   6.029   1.325 -0.1206 -0.2356  0.2448
 4314SOL    HW118778   0.109   6.020   1.232 -2.2649 -1.1042  0.6719
 4314SOL    HW218779   0.134   5.939   1.357  2.6145  0.0582  0.6287
 4315SOL     OW18780   3.880   4.493   1.984 -0.5974 -0.5942  0.3081
 4315SOL    HW118781   3.908   4.583   1.963  1.3678 -1.0349  0.8587
 4315SOL    HW218782   3.791   4.503   2.016 -0.6908  1.0791 -0.3560
 4316SOL     OW18783   4.444  10.143   4.915 -0.2434  0.1577 -0.9909
 4316SOL    HW118784   4.535  10.173   4.909  0.0975 -0.7556 -0.5311
 4316SOL    HW218785   4.412  10.144   4.825 -0.1267  1.4885 -1.0494
 4317SOL     OW18786   4.102   4.699  10.027 -0.0745 -0.2120  0.2590
 4317SOL    HW118787   4.107   4.675  10.120 -0.2533 -1.5417 -0.0565
 4317SOL    HW218788   4.174   4.760  10.015 -0.1992  0.1742  1.3293
 4318SOL     OW18789   3.040   4.290   5.414  0.2169  0.6434  0.2356
 4318SOL    HW118790   2.966   4.269   5.357 -0.1675 -1.0573  1.2880
 4318SOL    HW218791   3.048   4.214   5.473  1.0807  1.9708  1.9296
 4319SOL     OW18792   9.486   7.495   0.008  0.2725  0.3595 -0.7600
 4319SOL    HW118793   9.423   7.500   0.079  0.7343  1.1972 -0.4022
 4319SOL    HW218794   9.549   7.565   0.026  0.7408  0.1847 -1.6543
 4320SOL     OW18795   3.148   9.742   7.942 -0.0152 -0.2164 -0.4331
 4320SOL    HW118796   3.223   9.689   7.969 -0.6980 -0.7888  0.3827
 4320SOL    HW218797   3.144   9.813   8.007 -1.5373 -1.4804  0.9361
 4321SOL     OW18798   5.485   7.270   9.683 -0.0497 -0.0781 -0.4272
 4321SOL    HW118799   5.459   7.178   9.680  0.7070 -0.3384  0.3300
 4321SOL    HW218800   5.561   7.271   9.742  0.6162  0.8686 -1.2578
 4322SOL     OW18801   0.465   1.838   5.517 -0.7474  0.2656 -0.0588
 4322SOL    HW118802   0.459   1.748   5.484  1.6612 -0.0738  0.2743
 4322SOL    HW218803   0.418   1.836   5.600  1.4680 -1.4392  1.2619
 4323SOL     OW18804   8.965   7.679   3.169  0.2617  0.4025 -0.1111
 4323SOL    HW118805   9.043   7.628   3.146  1.0076  1.8929 -1.0299
 4323SOL    HW218806   8.931   7.710   3.085 -2.2249 -1.3804  0.1150
 4324SOL     OW18807   2.718   5.304   7.420  0.3972 -0.0682  1.0473
 4324SOL    HW118808   2.633   5.260   7.430  0.3914 -0.0246  1.1874
 4324SOL    HW218809   2.761   5.292   7.504  0.5728 -0.1797  0.9420
 4325SOL     OW18810   8.146   6.841   2.762  0.1475  0.0684  0.1602
 4325SOL    HW118811   8.070   6.899   2.749  1.3944  1.5751 -0.7521
 4325SOL    HW218812   8.221   6.893   2.732  1.9865 -0.2197  3.7131
 4326SOL     OW18813  10.298   7.665  10.173 -0.4786  1.0163  0.2500
 4326SOL    HW118814  10.223   7.646  10.116  0.4318 -0.0156 -0.6359
 4326SOL    HW218815  10.286   7.607  10.248  0.1788 -0.2571 -0.5864
 4327SOL     OW18816   1.299   9.930   4.664 -0.3681  0.1109 -0.0826
 4327SOL    HW118817   1.227   9.976   4.622  1.3710  2.1452 -0.9794
 4327SOL    HW218818   1.362   9.998   4.687  0.2771 -1.3110  2.8196
 4328SOL     OW18819   5.920   3.463   7.455  0.1371  0.6984 -0.0620
 4328SOL    HW118820   5.992   3.431   7.400  0.5183  1.2390  0.1177
 4328SOL    HW218821   5.841   3.431   7.411  0.4494  0.7861 -0.7117
 4329SOL     OW18822   2.843   8.763   2.426  0.3638 -0.1129 -0.0963
 4329SOL    HW118823   2.748   8.768   2.441 -0.6617 -2.2421 -4.2117
 4329SOL    HW218824   2.862   8.839   2.371  0.9419 -0.0232  0.2197
 4330SOL     OW18825   2.945   6.575  10.645 -0.7835  0.3200 -0.0704
 4330SOL    HW118826   3.027   6.545  10.606 -0.9058 -1.3540  0.8565
 4330SOL    HW218827   2.937   6.666  10.618  0.9996  0.2950 -0.8001
 4331SOL     OW18828   7.622   6.578   6.449  0.5984  0.0211 -0.0076
 4331SOL    HW118829   7.528   6.592   6.460  0.4343 -1.5750  0.9455
 4331SOL    HW218830   7.629   6.500   6.395  1.3666 -0.0565  0.1838
 4332SOL     OW18831   5.450   7.757   6.228 -0.2002  0.1132 -0.2647
 4332SOL    HW118832   5.526   7.779   6.173  1.0309  0.3099  1.4556
 4332SOL    HW218833   5.464   7.666   6.253  0.4285  0.6609  1.4936
 4333SOL     OW18834   9.610   8.327   2.452 -0.2145  0.1738 -0.4224
 4333SOL    HW118835   9.601   8.401   2.393  1.6390  1.8640  1.2658
 4333SOL    HW218836   9.703   8.305   2.450  0.1866  1.0536  2.5879
 4334SOL     OW18837  10.563   0.151   3.157  0.8020 -0.0231 -0.0487
 4334SOL    HW118838  10.584   0.232   3.111  2.3860 -0.3686 -0.0012
 4334SOL    HW218839  10.515   0.179   3.235  0.2972  0.7594 -0.6316
 4335SOL     OW18840   3.376   2.394  10.358 -0.6261  0.1126 -0.3517
 4335SOL    HW118841   3.459   2.440  10.363  0.1188 -1.2856  0.6648
 4335SOL    HW218842   3.355   2.393  10.265  0.4115  0.6307 -0.6036
 4336SOL     OW18843   0.514   1.169   8.970  0.3175 -0.0891 -0.2923
 4336SOL    HW118844   0.520   1.088   9.020 -0.7924  0.7313  1.2393
 4336SOL    HW218845   0.497   1.237   9.035 -1.3322  1.0168 -1.7696
 4337SOL     OW18846   3.900   3.270   8.940  0.4638 -0.3627  0.3485
 4337SOL    HW118847   3.874   3.339   9.002  2.3336 -0.0996  0.9130
 4337SOL    HW218848   3.984   3.301   8.904  0.3312 -1.4066 -0.9129
 4338SOL     OW18849   6.608   7.634   7.737 -0.4946  0.3519  0.2954
 4338SOL    HW118850   6.553   7.567   7.778 -2.0494  0.1796 -1.8545
 4338SOL    HW218851   6.617   7.702   7.803 -1.3598 -0.6740  1.5171
 4339SOL     OW18852   3.958   7.011   2.191  0.4731  0.4043  0.4182
 4339SOL    HW118853   3.880   7.034   2.243 -0.9716 -0.6755 -1.1512
 4339SOL    HW218854   3.993   6.933   2.235  0.0493  0.2794  0.5429
 4340SOL     OW18855   3.694  10.427   9.081 -0.8867  0.0561  0.1039
 4340SOL    HW118856   3.699  10.414   9.176 -2.4428 -1.5595  0.0150
 4340SOL    HW218857   3.702  10.521   9.070  2.8627  0.1014  1.5229
 4341SOL     OW18858   4.455   6.392   2.691  0.0523 -0.9597 -0.0601
 4341SOL    HW118859   4.535   6.342   2.678  0.1052 -0.7646 -0.4970
 4341SOL    HW218860   4.390   6.326   2.718  0.2831 -1.1620  0.0054
 4342SOL     OW18861   1.602   7.975   7.563 -0.0651 -0.2680  0.2651
 4342SOL    HW118862   1.597   8.039   7.635 -1.4619 -0.3180  0.2384
 4342SOL    HW218863   1.514   7.937   7.559  0.1788 -0.7282 -1.0656
 4343SOL     OW18864   7.418   2.007   1.835 -0.2091 -0.1243  0.1578
 4343SOL    HW118865   7.418   2.103   1.842 -2.2524 -0.1613  1.6143
 4343SOL    HW218866   7.460   1.978   1.916  0.3021 -0.4757 -0.2285
 4344SOL     OW18867   2.856   5.662   4.994  0.2787  0.4336 -0.4461
 4344SOL    HW118868   2.818   5.741   5.031 -1.2664 -0.7621  0.6705
 4344SOL    HW218869   2.794   5.634   4.927  1.0342  0.3845 -1.1491
 4345SOL     OW18870   9.256   4.929   5.435  0.0889 -0.2168  0.0561
 4345SOL    HW118871   9.220   4.841   5.423 -0.0238 -0.2501  0.6060
 4345SOL    HW218872   9.317   4.920   5.509  1.0459 -0.1087 -0.6906
 4346SOL     OW18873  10.631   3.293   4.708 -0.3445  0.1921  0.2344
 4346SOL    HW118874  10.544   3.254   4.715 -0.2713  0.1273  0.8161
 4346SOL    HW218875  10.688   3.234   4.757  0.0279  0.2402 -0.1350
 4347SOL     OW18876   0.195   7.956   0.103 -0.2813  0.6632 -0.3582
 4347SOL    HW118877   0.172   7.864   0.115 -0.5400  0.4373 -2.2212
 4347SOL    HW218878   0.151   8.002   0.174 -0.2794 -0.6230  0.5059
 4348SOL     OW18879   8.370   2.515  10.562 -0.0535 -0.0959 -0.2622
 4348SOL    HW118880   8.341   2.427  10.541 -1.4235  0.1861  0.3135
 4348SOL    HW218881   8.351   2.566  10.483 -1.9452  0.2398  0.3479
 4349SOL     OW18882   2.789  10.073   2.813  0.1793  0.1353  0.0870
 4349SOL    HW118883   2.826   9.985   2.806  0.5525 -0.0559  3.0487
 4349SOL    HW218884   2.694  10.058   2.815  0.0537  0.1682 -2.5471
 4350SOL     OW18885   6.324   8.157   8.734 -0.5508 -0.4507 -0.4971
 4350SOL    HW118886   6.411   8.181   8.766  0.0506 -0.9470 -1.6976
 4350SOL    HW218887   6.336   8.143   8.640 -1.7890 -1.1921 -0.5692
 4351SOL     OW18888   4.800   3.104   9.495  0.1614 -0.2667  0.0984
 4351SOL    HW118889   4.854   3.127   9.571  0.6486 -1.9671  0.3203
 4351SOL    HW218890   4.842   3.148   9.421  1.1510 -0.5889  0.4555
 4352SOL     OW18891   3.249   5.730  10.247  0.1169  0.0995  0.3574
 4352SOL    HW118892   3.174   5.679  10.279  1.2460 -1.8017  0.1341
 4352SOL    HW218893   3.323   5.697  10.297  1.2435  0.0177 -1.2933
 4353SOL     OW18894   9.438   7.882  10.226  0.4399 -0.2778  0.5740
 4353SOL    HW118895   9.409   7.967  10.260  0.1711  0.3735 -1.1456
 4353SOL    HW218896   9.412   7.883  10.134 -0.8641 -2.8231  0.8182
 4354SOL     OW18897   7.438   1.306   2.737  0.5305  0.4177 -0.1186
 4354SOL    HW118898   7.505   1.375   2.737  0.5636  0.3840 -0.4003
 4354SOL    HW218899   7.362   1.346   2.780  0.5606  0.6181 -0.2544
 4355SOL     OW18900   0.854   1.264   3.917  0.3211 -0.1551  0.2208
 4355SOL    HW118901   0.871   1.323   3.990  1.8361 -0.7535  0.3949
 4355SOL    HW218902   0.941   1.242   3.883 -0.0038 -3.4730  1.1578
 4356SOL     OW18903   7.886   2.651   8.054  1.1259  0.2071  0.2361
 4356SOL    HW118904   7.886   2.658   7.959 -1.4776  1.5662  0.2404
 4356SOL    HW218905   7.905   2.559   8.072  0.4373 -0.3375 -1.6308
 4357SOL     OW18906   5.378   5.600   2.382  0.8399  0.6739 -0.0317
 4357SOL    HW118907   5.334   5.589   2.298  0.0088  0.9549  0.3611
 4357SOL    HW218908   5.325   5.664   2.429  0.5827 -0.3922  1.1901
 4358SOL     OW18909   9.710   4.450   4.983  0.1827 -0.1122  0.7941
 4358SOL    HW118910   9.638   4.403   4.940 -0.7496  0.5931  1.5517
 4358SOL    HW218911   9.784   4.390   4.977  0.6498  0.5457 -3.3082
 4359SOL     OW18912   3.593   4.415   0.350 -0.2101 -0.5506  0.1979
 4359SOL    HW118913   3.654   4.342   0.338  0.7660  0.3171 -0.3442
 4359SOL    HW218914   3.579   4.449   0.261  2.0460  1.9922  0.6592
 4360SOL     OW18915   2.697   4.978   7.599  0.4280  0.0362  0.0593
 4360SOL    HW118916   2.663   4.972   7.509 -0.6873  0.1915  0.4534
 4360SOL    HW218917   2.735   5.065   7.604 -0.3541  0.3929  0.0041
 4361SOL     OW18918   3.760   3.216   9.658 -0.0108  0.0561  0.1276
 4361SOL    HW118919   3.668   3.199   9.677 -0.0050  1.4902  1.6287
 4361SOL    HW218920   3.802   3.130   9.665 -0.4260 -0.0235  4.6186
 4362SOL     OW18921   0.792  10.567  10.717 -0.8969 -0.0781  0.4836
 4362SOL    HW118922   0.798  10.472  10.729 -3.7842 -0.4292 -0.3315
 4362SOL    HW218923   0.852  10.585  10.645  0.2679 -1.1258  1.1341
 4363SOL     OW18924   0.542   4.006   0.392 -0.0279  0.2929 -0.1016
 4363SOL    HW118925   0.517   4.049   0.473 -0.3427  1.4329 -0.7827
 4363SOL    HW218926   0.600   3.934   0.419 -1.5126 -0.4460  1.2582
 4364SOL     OW18927   0.939   5.482   8.724  0.4556 -0.0097 -0.2245
 4364SOL    HW118928   0.930   5.527   8.808  0.3866 -0.2804 -0.0829
 4364SOL    HW218929   1.023   5.511   8.690  0.2074  0.5707 -0.3469
 4365SOL     OW18930  10.662   9.403   6.606  0.1586  0.0066  0.0653
 4365SOL    HW118931  10.737   9.457   6.582 -0.1697  0.7604  0.6682
 4365SOL    HW218932  10.650   9.344   6.532  0.1699  1.1598 -0.8878
 4366SOL     OW18933   8.386   5.099   1.456  0.2672 -0.1802  0.1529
 4366SOL    HW118934   8.352   5.055   1.534  0.2259 -1.2667 -0.4686
 4366SOL    HW218935   8.338   5.059   1.383  1.6125 -0.4885 -0.5842
 4367SOL     OW18936   3.128   9.765   6.936 -0.1755 -0.1923  0.4434
 4367SOL    HW118937   3.033   9.758   6.949 -0.0863  0.7801  1.9780
 4367SOL    HW218938   3.137   9.822   6.860 -0.8002 -1.0611 -0.3090
 4368SOL     OW18939  10.631   3.356   5.505  0.4336 -0.2997 -0.1957
 4368SOL    HW118940  10.672   3.314   5.580 -1.2402 -1.3782  0.1926
 4368SOL    HW218941  10.669   3.313   5.428  2.7399  1.3634 -0.0678
 4369SOL     OW18942   3.377   7.146   4.568 -0.4364  0.2109 -0.6974
 4369SOL    HW118943   3.361   7.238   4.590 -0.0832  0.0598  0.2507
 4369SOL    HW218944   3.351   7.097   4.646 -2.4974 -0.7002 -1.8830
 4370SOL     OW18945   0.895   1.987  10.346  0.2226 -0.0471  0.1039
 4370SOL    HW118946   0.815   1.981  10.294 -0.6726 -1.1529  1.5053
 4370SOL    HW218947   0.865   2.014  10.433  1.3873 -0.3485  0.6197
 4371SOL     OW18948   5.679   3.497   4.477  0.0773 -0.3452  0.3831
 4371SOL    HW118949   5.603   3.440   4.483  0.0634 -0.3339  0.3012
 4371SOL    HW218950   5.751   3.438   4.454  0.4842 -0.7012  2.3748
 4372SOL     OW18951   2.735   1.899   4.876 -0.1239 -0.2576 -0.6319
 4372SOL    HW118952   2.732   1.867   4.966 -0.9827  0.2121 -0.4764
 4372SOL    HW218953   2.743   1.820   4.822  1.7231 -0.4679 -0.1076
 4373SOL     OW18954   2.954   9.859   0.592  0.2437  0.3464  0.1836
 4373SOL    HW118955   3.021   9.909   0.545  0.3571 -0.5162 -0.5917
 4373SOL    HW218956   2.889   9.838   0.526 -0.3817  0.4400  0.7534
 4374SOL     OW18957   2.803   9.496   6.831  0.1738 -0.1885 -0.7231
 4374SOL    HW118958   2.740   9.476   6.900  1.6061  0.2279  0.7420
 4374SOL    HW218959   2.777   9.438   6.759 -0.4453 -1.7552  0.6820
 4375SOL     OW18960   0.097   9.471   8.471 -0.0463 -0.5912 -0.5606
 4375SOL    HW118961   0.159   9.402   8.445 -0.3160 -0.3863 -1.8126
 4375SOL    HW218962   0.012   9.440   8.440 -0.0780  0.5849 -1.7558
 4376SOL     OW18963   8.289   4.268   3.838 -0.0364 -0.5917 -0.1830
 4376SOL    HW118964   8.230   4.237   3.906  2.0833  1.7456  3.0335
 4376SOL    HW218965   8.234   4.321   3.780 -1.6533 -1.2862  0.6546
 4377SOL     OW18966   2.221   1.518   6.645  0.4207  0.5376 -0.7338
 4377SOL    HW118967   2.271   1.470   6.711  0.6177  0.0104 -1.2593
 4377SOL    HW218968   2.220   1.608   6.677 -0.7069  0.0507  0.7376
 4378SOL     OW18969   9.422   8.287  10.527 -0.2271 -0.3082 -0.0297
 4378SOL    HW118970   9.452   8.330  10.607 -1.4832 -0.2705  0.4422
 4378SOL    HW218971   9.329   8.309  10.521 -0.4747 -1.4511 -0.7650
 4379SOL     OW18972   3.158   0.634   8.114 -0.2089  0.1574 -0.1996
 4379SOL    HW118973   3.194   0.705   8.167 -1.6016  0.9806 -0.3100
 4379SOL    HW218974   3.130   0.677   8.033 -1.0572 -0.5155 -0.2737
 4380SOL     OW18975   1.765   5.671   2.781 -0.1148 -0.3703  0.2013
 4380SOL    HW118976   1.757   5.753   2.732 -0.5043  0.4087  1.4940
 4380SOL    HW218977   1.674   5.643   2.795  0.0253 -1.1920 -0.4817
 4381SOL     OW18978   5.285  10.190   5.368 -0.3168 -0.1890 -0.3496
 4381SOL    HW118979   5.307  10.177   5.460 -0.3566 -0.0586 -0.3213
 4381SOL    HW218980   5.215  10.255   5.369 -0.6217 -0.5125 -0.4459
 4382SOL     OW18981   2.272   2.179   7.973  0.2311  0.0747 -0.4816
 4382SOL    HW118982   2.264   2.267   7.935 -0.1410 -0.4677 -1.7010
 4382SOL    HW218983   2.183   2.156   8.000 -0.0695 -0.7246 -2.0479
 4383SOL     OW18984   1.832   8.947   7.559  0.0087 -0.4057  0.1115
 4383SOL    HW118985   1.899   9.013   7.542 -0.2962  0.1779  1.0894
 4383SOL    HW218986   1.808   8.960   7.651  0.0666 -1.9970  0.3853
 4384SOL     OW18987   5.146   0.448   9.362  0.4143  0.8096 -0.2971
 4384SOL    HW118988   5.158   0.471   9.454  1.1365 -0.2854 -0.0928
 4384SOL    HW218989   5.211   0.500   9.315  1.4262 -0.1232  0.0510
 4385SOL     OW18990   5.678   5.663  10.202 -0.7312  0.5886  0.2831
 4385SOL    HW118991   5.671   5.580  10.155 -1.4190  0.0767  1.2510
 4385SOL    HW218992   5.605   5.716  10.169  0.2537  1.2013 -1.0245
 4386SOL     OW18993   6.082   5.496   6.604  0.4384 -0.1272  0.0852
 4386SOL    HW118994   6.002   5.547   6.599  0.6678  0.2349  0.0507
 4386SOL    HW218995   6.147   5.547   6.555  0.6059 -0.5798 -0.1820
 4387SOL     OW18996   4.400  10.200   1.213  0.2044  0.3682 -0.1061
 4387SOL    HW118997   4.398  10.288   1.174  0.0277  0.8953  1.0575
 4387SOL    HW218998   4.437  10.213   1.300 -0.7075 -0.5579  0.4476
 4388SOL     OW18999   8.879   5.124   3.447  0.1702 -0.1509 -0.1092
 4388SOL    HW119000   8.899   5.170   3.366 -0.6093 -0.5934 -0.5601
 4388SOL    HW219001   8.822   5.184   3.495  1.2232  0.4307  0.4686
 4389SOL     OW19002   0.873   5.433   3.955 -0.5041 -0.1953  0.4016
 4389SOL    HW119003   0.792   5.484   3.959  0.2373  0.9661  1.9187
 4389SOL    HW219004   0.922   5.472   3.883 -1.8090 -1.8130 -1.4597
 4390SOL     OW19005   6.991   7.698   5.682  0.2342 -0.5142 -0.5412
 4390SOL    HW119006   6.982   7.747   5.601  0.1143  1.9863  0.8968
 4390SOL    HW219007   7.025   7.761   5.746  3.1331 -3.0643  0.7212
 4391SOL     OW19008   3.400   2.819   1.986  0.0711  0.5434 -0.7910
 4391SOL    HW119009   3.368   2.904   2.014 -1.4316 -0.2498  0.0096
 4391SOL    HW219010   3.321   2.768   1.969  0.9214 -0.2439 -2.7325
 4392SOL     OW19011   1.024   2.758   5.052  0.1352 -0.0366  0.2489
 4392SOL    HW119012   1.004   2.670   5.082 -0.2540  0.0830  0.3418
 4392SOL    HW219013   1.118   2.756   5.034  0.1129 -0.4927  0.1701
 4393SOL     OW19014   1.982   0.269   1.612 -0.2889 -0.6811 -0.6997
 4393SOL    HW119015   2.030   0.280   1.530  2.7365  2.4387  1.1795
 4393SOL    HW219016   1.903   0.321   1.601  1.8001  2.8536 -0.6848
 4394SOL     OW19017   0.688   5.543   8.633 -0.2579 -0.0311 -0.4738
 4394SOL    HW119018   0.776   5.530   8.667  0.2573  1.3372 -1.1798
 4394SOL    HW219019   0.662   5.458   8.598  1.0886 -0.2746 -0.9340
 4395SOL     OW19020   6.917   7.958   3.470 -0.0044 -0.2579 -0.2223
 4395SOL    HW119021   6.975   7.947   3.395  0.5097  2.0874 -0.2672
 4395SOL    HW219022   6.955   8.032   3.518 -0.5432 -1.4091  2.1505
 4396SOL     OW19023   4.599   3.627   4.058 -1.0569 -0.6369 -0.5299
 4396SOL    HW119024   4.578   3.713   4.095  0.1977 -0.6485  0.2744
 4396SOL    HW219025   4.576   3.634   3.965 -2.7036 -0.0581 -0.1123
 4397SOL     OW19026   0.355   4.270   0.466 -0.2043  0.5737 -0.3250
 4397SOL    HW119027   0.307   4.275   0.549 -1.3898  0.9939 -1.0064
 4397SOL    HW219028   0.289   4.292   0.400  0.8733  0.8455 -1.3283
 4398SOL     OW19029   1.289   5.594   1.194 -0.1863 -0.6425  0.2593
 4398SOL    HW119030   1.352   5.528   1.221  1.0089 -0.1937 -1.2789
 4398SOL    HW219031   1.251   5.560   1.113 -0.0346  0.2388 -0.1988
 4399SOL     OW19032   2.559   5.813   1.225  0.2917 -0.2099  0.1870
 4399SOL    HW119033   2.479   5.832   1.175  1.2539 -0.8680 -1.7300
 4399SOL    HW219034   2.630   5.829   1.163  1.9119  2.8815  2.5752
 4400SOL     OW19035   8.418   7.534   4.655  0.4493 -0.1524 -0.3450
 4400SOL    HW119036   8.449   7.551   4.744 -1.5820  0.4473  0.2911
 4400SOL    HW219037   8.401   7.440   4.652  0.3120 -0.1374 -0.0228
 4401SOL     OW19038   4.706  10.336   2.212 -0.2018 -0.2513  0.0252
 4401SOL    HW119039   4.687  10.399   2.282  0.5492 -0.5126  0.4759
 4401SOL    HW219040   4.661  10.257   2.239 -0.3258 -0.2032 -0.0393
 4402SOL     OW19041  10.661   9.650   3.494  0.4392 -0.2918  0.1532
 4402SOL    HW119042  10.736   9.621   3.443  0.8258  1.4564 -0.3253
 4402SOL    HW219043  10.587   9.602   3.456  1.3790 -3.0124  1.4565
 4403SOL     OW19044   5.100   4.631   2.592  0.0824 -0.1513  0.0143
 4403SOL    HW119045   5.181   4.681   2.577 -0.4688  0.6966 -0.2284
 4403SOL    HW219046   5.042   4.694   2.636 -0.2803 -0.8986  0.6220
 4404SOL     OW19047   3.753   1.612   0.359  0.0432 -0.1653  0.3037
 4404SOL    HW119048   3.682   1.549   0.369  1.0512 -1.4673 -0.4460
 4404SOL    HW219049   3.797   1.587   0.277  1.4683  0.4928  0.8215
 4405SOL     OW19050   7.659   7.998   6.812  0.3043  0.3122 -0.2041
 4405SOL    HW119051   7.750   7.970   6.802 -0.0081 -0.6372 -0.5489
 4405SOL    HW219052   7.616   7.923   6.854 -0.1601  1.0488  0.6620
 4406SOL     OW19053   8.241   9.581   7.270  0.1925  0.0791  0.1358
 4406SOL    HW119054   8.148   9.578   7.251  0.5344 -2.4340 -1.5938
 4406SOL    HW219055   8.252   9.661   7.323 -2.6672  1.2128 -0.7790
 4407SOL     OW19056   3.410   1.919   5.424  0.0040  0.5369  0.0063
 4407SOL    HW119057   3.357   1.934   5.346  0.7342  0.1041 -0.5888
 4407SOL    HW219058   3.360   1.960   5.495 -1.1955  0.0015 -0.5005
 4408SOL     OW19059   9.286   8.903   0.259 -0.6687 -0.2479 -0.1954
 4408SOL    HW119060   9.350   8.906   0.188 -0.7627  0.3074 -0.2595
 4408SOL    HW219061   9.220   8.968   0.235 -0.4939  0.2407  0.6001
 4409SOL     OW19062   4.896   4.510   8.931 -0.0381  0.0087  1.2206
 4409SOL    HW119063   4.955   4.435   8.928  0.2040  0.0943  2.7874
 4409SOL    HW219064   4.809   4.473   8.914  0.3331 -0.2553 -0.2015
 4410SOL     OW19065   7.932   9.086   6.970 -0.4936  0.3015 -0.5423
 4410SOL    HW119066   7.863   9.134   6.925 -0.1560 -1.5819 -3.2738
 4410SOL    HW219067   7.885   9.036   7.038 -1.1416  2.3601  0.6300
 4411SOL     OW19068   1.450   9.682   5.225  0.0304 -0.5475  0.4575
 4411SOL    HW119069   1.504   9.760   5.212  1.2671 -1.6306 -1.2304
 4411SOL    HW219070   1.371   9.715   5.268  0.8036  1.5194  0.4036
 4412SOL     OW19071   1.619   8.515   9.589 -0.5356 -0.1619  0.0143
 4412SOL    HW119072   1.561   8.575   9.542 -1.0488 -1.0688 -0.5696
 4412SOL    HW219073   1.563   8.474   9.655 -0.2428 -0.1439  0.2760
 4413SOL     OW19074   8.154   3.694   4.278  0.5862 -0.1210 -0.7188
 4413SOL    HW119075   8.105   3.726   4.354  1.1051 -0.9696 -0.0017
 4413SOL    HW219076   8.148   3.765   4.214  0.2602  0.6797  0.1670
 4414SOL     OW19077   7.380   3.983   3.506 -0.0149 -0.3909  0.5103
 4414SOL    HW119078   7.427   3.930   3.571  0.1375  0.7903  1.4131
 4414SOL    HW219079   7.445   4.001   3.438  0.2512 -0.4407  0.7511
 4415SOL     OW19080   0.335   6.367   1.714  0.4980  0.3966  0.2265
 4415SOL    HW119081   0.261   6.305   1.718  0.0233  0.9837  0.7350
 4415SOL    HW219082   0.308   6.432   1.649  1.5930 -0.6573 -1.3669
 4416SOL     OW19083   2.614  10.664   5.432  0.1746 -0.0498 -0.5662
 4416SOL    HW119084   2.609  10.759   5.444  1.5142  0.0040 -0.2903
 4416SOL    HW219085   2.696  10.650   5.384 -0.0063 -1.0742 -0.6073
 4417SOL     OW19086   2.232   2.019   5.186 -1.1012  0.0183 -0.2821
 4417SOL    HW119087   2.232   2.057   5.274 -1.9571 -1.4014  0.3541
 4417SOL    HW219088   2.325   2.015   5.163 -0.9336  1.6114 -0.0070
 4418SOL     OW19089   5.659   0.390   1.521  0.5045  0.3704 -0.0309
 4418SOL    HW119090   5.604   0.466   1.505 -0.0560 -0.0629 -0.2044
 4418SOL    HW219091   5.685   0.359   1.434 -0.4826 -0.5007 -0.0319
 4419SOL     OW19092   6.982   5.654   5.652 -0.6589  0.6284  0.0213
 4419SOL    HW119093   6.976   5.595   5.577 -0.3819  0.1505  0.3660
 4419SOL    HW219094   6.895   5.653   5.691 -1.5278  2.7483 -1.6495
 4420SOL     OW19095   6.016   8.491   8.855 -0.2435  0.5583  0.1242
 4420SOL    HW119096   6.096   8.506   8.906 -1.0690  3.4562  0.7527
 4420SOL    HW219097   6.010   8.395   8.847  1.9946  0.1590  2.1137
 4421SOL     OW19098   4.004   8.962   7.674  1.1787  0.4897 -0.6491
 4421SOL    HW119099   3.988   8.883   7.623 -0.0371  0.0079  0.4232
 4421SOL    HW219100   4.009   8.932   7.765 -0.7284  1.7498 -0.0587
 4422SOL     OW19101   2.790  10.476   3.124  0.4096 -0.1666 -0.2253
 4422SOL    HW119102   2.710  10.476   3.177 -0.5673  0.3867 -1.6528
 4422SOL    HW219103   2.848  10.538   3.168 -0.1973 -0.0620  0.4426
 4423SOL     OW19104   6.108   1.192   3.885 -0.1968  0.1285  0.6310
 4423SOL    HW119105   6.186   1.247   3.894  1.3801 -1.8151 -0.3044
 4423SOL    HW219106   6.134   1.124   3.822 -2.0334 -1.6645  1.7052
 4424SOL     OW19107   9.130  10.558   8.951  0.0992 -0.0661  0.2102
 4424SOL    HW119108   9.082  10.560   8.868  2.4355 -0.8669 -1.2599
 4424SOL    HW219109   9.195  10.628   8.943 -0.9018  1.2074  2.2798
 4425SOL     OW19110   3.056   3.586  10.067  0.0440  0.2396  0.2782
 4425SOL    HW119111   2.977   3.533  10.070  0.1510  0.1129  2.2992
 4425SOL    HW219112   3.050   3.643  10.144  1.4155  0.9478 -0.1009
 4426SOL     OW19113  10.078   9.836   7.231  0.3806  0.7513  0.1231
 4426SOL    HW119114   9.987   9.834   7.262  0.0358 -0.2578 -0.8709
 4426SOL    HW219115  10.093   9.927   7.208 -0.7514  0.7570 -0.6870
 4427SOL     OW19116   0.742   2.666   4.700  0.6341  0.3069 -0.1979
 4427SOL    HW119117   0.730   2.571   4.701  3.4810 -0.2464 -2.7193
 4427SOL    HW219118   0.734   2.693   4.791  0.1049 -2.3801  0.6234
 4428SOL     OW19119   1.954   3.402   0.023 -0.3080 -0.4656 -0.3353
 4428SOL    HW119120   1.943   3.483  -0.028 -1.3831 -0.7036 -0.5175
 4428SOL    HW219121   2.045   3.404   0.052  0.0937  0.1017 -1.5443
 4429SOL     OW19122   9.189   6.789   4.288 -0.0918  0.3081  0.4303
 4429SOL    HW119123   9.271   6.779   4.240  1.4409 -0.0510  2.9396
 4429SOL    HW219124   9.212   6.845   4.363 -2.7646  2.3053 -0.0851
 4430SOL     OW19125   4.416   4.626   3.883  0.3871  0.1442  0.3336
 4430SOL    HW119126   4.417   4.595   3.974 -2.0848 -1.3379 -0.0646
 4430SOL    HW219127   4.393   4.719   3.890 -0.0164 -0.0122  1.2246
 4431SOL     OW19128   7.785   3.856   9.891  0.0416  0.2915 -0.1144
 4431SOL    HW119129   7.834   3.900   9.821  1.2710 -0.1656  0.4321
 4431SOL    HW219130   7.726   3.796   9.846 -0.8699  1.6629 -0.8302
 4432SOL     OW19131   4.723   6.683   7.618 -0.2099  0.1010 -0.4455
 4432SOL    HW119132   4.771   6.708   7.539 -0.3666  2.1028  0.0179
 4432SOL    HW219133   4.631   6.678   7.590 -0.0032 -1.6583 -0.8876
 4433SOL     OW19134   2.198   0.770   4.087 -0.0189 -0.6944 -0.7086
 4433SOL    HW119135   2.208   0.820   4.168  0.4764 -2.2437  0.2309
 4433SOL    HW219136   2.269   0.802   4.031  0.2078 -0.2613 -0.1907
 4434SOL     OW19137   7.876  10.645   7.916  0.0387  0.0618 -0.7108
 4434SOL    HW119138   7.808  10.580   7.897  0.8531 -0.8759 -0.4725
 4434SOL    HW219139   7.876  10.653   8.011 -0.1679  0.5362 -0.7489
 4435SOL     OW19140   8.627   7.545   7.443 -0.3029  0.2142 -0.2119
 4435SOL    HW119141   8.658   7.459   7.416 -1.8425 -0.5759  0.4123
 4435SOL    HW219142   8.558   7.567   7.380 -0.4644  0.6268  0.1018
 4436SOL     OW19143   2.871   0.089   7.384 -0.1273  0.4307  0.0087
 4436SOL    HW119144   2.796   0.072   7.441 -0.2404 -0.1142 -0.2940
 4436SOL    HW219145   2.833   0.111   7.299  0.0508  0.4339 -0.0714
 4437SOL     OW19146   1.087   9.381   8.725 -0.6489  0.0715 -0.3191
 4437SOL    HW119147   1.082   9.462   8.776 -0.3947  1.0128 -1.7569
 4437SOL    HW219148   1.085   9.312   8.791  0.5575  1.2603  1.0461
 4438SOL     OW19149   8.270   0.626   8.964 -0.3822  0.3233  0.1530
 4438SOL    HW119150   8.348   0.624   8.908  0.3580  1.9341  1.0554
 4438SOL    HW219151   8.196   0.616   8.904  0.4948 -1.2963 -0.7179
 4439SOL     OW19152   2.978   6.790   0.203  0.0403  0.0801  0.0195
 4439SOL    HW119153   3.049   6.726   0.197  0.2227  0.2254  0.5665
 4439SOL    HW219154   2.904   6.740   0.237  0.7433  0.5456  2.4515
 4440SOL     OW19155   8.498  10.034   1.395 -0.2611 -0.4235 -0.1724
 4440SOL    HW119156   8.417  10.074   1.362  0.3934  0.2565 -0.9883
 4440SOL    HW219157   8.475   9.941   1.407 -1.1548 -0.2460 -0.4014
 4441SOL     OW19158   2.838   9.460   1.054 -0.2067 -0.5589  0.0573
 4441SOL    HW119159   2.779   9.491   0.985  1.1582 -1.2929 -1.5157
 4441SOL    HW219160   2.828   9.364   1.053  1.8567 -0.8327 -1.1509
 4442SOL     OW19161   0.640   1.646   0.367 -0.4962 -0.1112  0.7007
 4442SOL    HW119162   0.648   1.565   0.317 -2.0653 -0.7553  1.4530
 4442SOL    HW219163   0.711   1.642   0.431 -0.6283 -0.9469  0.8003
 4443SOL     OW19164   5.354   3.591   3.982 -0.0641  0.1665 -0.1670
 4443SOL    HW119165   5.306   3.545   3.913  0.6182  2.0359 -1.9719
 4443SOL    HW219166   5.445   3.564   3.971  0.0305  0.3756  0.0895
 4444SOL     OW19167   2.515   8.781   1.595  0.1648 -0.3404 -0.1336
 4444SOL    HW119168   2.587   8.807   1.538  1.0543  1.2223  1.5854
 4444SOL    HW219169   2.557   8.732   1.666 -0.6395 -0.4939  0.2486
 4445SOL     OW19170   4.370   4.967   4.625  0.4104  0.2255  0.1728
 4445SOL    HW119171   4.316   4.903   4.579  0.7431 -0.9908  1.4013
 4445SOL    HW219172   4.343   5.052   4.589  0.5598 -0.6282 -2.1277
 4446SOL     OW19173   3.195   7.441  10.482  0.4658 -0.2767 -0.3097
 4446SOL    HW119174   3.228   7.499  10.413  1.7518 -0.6226  0.0022
 4446SOL    HW219175   3.106   7.474  10.499  1.3344  1.9765  0.2424
 4447SOL     OW19176   2.774   8.567   0.993  0.2732 -0.4582 -0.0783
 4447SOL    HW119177   2.845   8.587   1.054  0.6301 -0.3325 -0.5291
 4447SOL    HW219178   2.760   8.649   0.945 -0.2560 -0.4504  0.0866
 4448SOL     OW19179   6.594   6.154   8.744  0.4365  0.2411 -0.5492
 4448SOL    HW119180   6.674   6.207   8.748  0.5826 -0.0558  1.8544
 4448SOL    HW219181   6.620   6.074   8.699  1.7423 -0.1965  0.9203
 4449SOL     OW19182   4.985   1.089   1.669 -0.8989  0.4922 -0.5309
 4449SOL    HW119183   4.959   1.108   1.579 -0.8420 -0.5828 -0.7821
 4449SOL    HW219184   4.979   1.174   1.714 -2.7543  0.6836 -1.0751
 4450SOL     OW19185   2.334   4.438   7.253  0.3680 -0.2135  0.0069
 4450SOL    HW119186   2.343   4.452   7.347  1.9980 -0.8784 -0.0093
 4450SOL    HW219187   2.271   4.367   7.245 -0.7006  0.6427  0.5145
 4451SOL     OW19188   4.818   2.680   4.178  0.5027 -0.0333  0.1920
 4451SOL    HW119189   4.887   2.618   4.203 -0.0045 -0.0133  1.7509
 4451SOL    HW219190   4.737   2.639   4.208  0.2997  2.1916  3.2080
 4452SOL     OW19191   7.156   3.582   3.937  0.2698  0.6558  0.5543
 4452SOL    HW119192   7.213   3.598   4.012  1.8795 -1.4885 -0.0780
 4452SOL    HW219193   7.086   3.527   3.971  3.3194 -4.2107 -0.0151
 4453SOL     OW19194   7.705   2.622   1.571 -0.2438 -0.3226 -0.2920
 4453SOL    HW119195   7.675   2.706   1.605 -1.4948 -0.5744 -0.7412
 4453SOL    HW219196   7.772   2.593   1.633 -0.8606  0.3004  0.6756
 4454SOL     OW19197   9.036   6.642   1.956  0.3741  0.1721  0.1809
 4454SOL    HW119198   8.967   6.703   1.982 -1.6728 -1.7555 -0.4192
 4454SOL    HW219199   9.109   6.699   1.930 -0.9747  2.3074  0.7841
 4455SOL     OW19200   6.250   3.803   8.750 -0.1547  0.0591  0.0331
 4455SOL    HW119201   6.279   3.815   8.841 -1.3137  0.8050  0.3217
 4455SOL    HW219202   6.185   3.872   8.736  0.7066  0.5777 -1.6882
 4456SOL     OW19203   5.390   4.809   2.924 -0.1638  0.1507  0.3087
 4456SOL    HW119204   5.313   4.753   2.934 -0.7866  0.7787 -0.7461
 4456SOL    HW219205   5.357   4.887   2.879  1.1184  0.3460 -0.3519
 4457SOL     OW19206   2.556  10.537   3.873  0.0567 -0.1073  0.1219
 4457SOL    HW119207   2.596  10.451   3.885 -0.5612 -0.2946  0.8998
 4457SOL    HW219208   2.483  10.521   3.812 -2.5202 -0.9542  3.1656
 4458SOL     OW19209   8.594   4.925   9.357 -0.1411 -0.6687 -0.2343
 4458SOL    HW119210   8.573   4.835   9.381  3.7748 -1.3733  1.2709
 4458SOL    HW219211   8.674   4.918   9.306  1.5886  1.9923  1.8290
 4459SOL     OW19212   6.607  10.293   4.109  0.1695  0.3035  0.0720
 4459SOL    HW119213   6.638  10.338   4.188  0.2455  1.2126 -0.4557
 4459SOL    HW219214   6.670  10.318   4.041 -0.6940  0.7183 -0.5980
 4460SOL     OW19215   2.599   9.479   3.309 -0.2322 -0.4884  0.0511
 4460SOL    HW119216   2.646   9.494   3.391  0.5511 -1.4212 -0.2038
 4460SOL    HW219217   2.652   9.523   3.242 -0.5540 -0.2272 -0.0341
 4461SOL     OW19218   1.919   9.129   6.028 -0.5789  0.0665  0.0961
 4461SOL    HW119219   1.944   9.222   6.026 -1.6860  0.3729 -0.4726
 4461SOL    HW219220   1.835   9.126   5.983  0.0279 -1.4124 -1.0094
 4462SOL     OW19221  10.509   2.508   3.393  0.2257  0.9553  0.0661
 4462SOL    HW119222  10.437   2.568   3.415 -0.3705 -0.6744  3.1390
 4462SOL    HW219223  10.588   2.558   3.412  0.0136  2.4365 -2.4358
 4463SOL     OW19224   3.026  10.603   1.870 -0.1739  0.7624  0.6773
 4463SOL    HW119225   3.113  10.607   1.829  0.3896  1.6854  1.8873
 4463SOL    HW219226   2.996  10.694   1.872 -1.7908  0.3230 -0.9241
 4464SOL     OW19227   4.186   1.437   8.121 -0.4752 -0.3009  0.0496
 4464SOL    HW119228   4.203   1.353   8.165  2.0858  1.0630  1.9406
 4464SOL    HW219229   4.247   1.438   8.048  0.9964  0.6565  1.2218
 4465SOL     OW19230   7.461   2.282   3.568 -0.1651  0.0125 -0.1132
 4465SOL    HW119231   7.529   2.329   3.615  1.5864 -0.7709 -1.6988
 4465SOL    HW219232   7.472   2.191   3.596 -1.1498 -0.0013  0.2553
 4466SOL     OW19233   4.152   3.562   4.833 -0.1582 -0.4940  0.7379
 4466SOL    HW119234   4.217   3.630   4.851  0.4616 -1.1483  1.0290
 4466SOL    HW219235   4.088   3.570   4.904  0.5915 -1.0157  1.4934
 4467SOL     OW19236   7.959   8.836   4.724 -0.3893  0.8998  0.0524
 4467SOL    HW119237   7.981   8.929   4.712 -2.0417  1.3968  0.6508
 4467SOL    HW219238   7.975   8.797   4.638 -2.0128  2.2618 -0.9442
 4468SOL     OW19239   7.059   2.474   9.378  0.6465 -0.2079 -0.1436
 4468SOL    HW119240   7.086   2.538   9.312 -1.9101  0.0410 -1.0714
 4468SOL    HW219241   7.073   2.519   9.462 -0.7961  1.5035 -0.7588
 4469SOL     OW19242   3.629   0.422   9.206 -0.0716 -0.3378 -0.7635
 4469SOL    HW119243   3.645   0.502   9.156 -0.0821 -0.2618 -0.6442
 4469SOL    HW219244   3.549   0.441   9.256  1.5928  0.7140  1.6552
 4470SOL     OW19245   5.443   0.900   8.312 -0.2367 -0.1924 -0.0348
 4470SOL    HW119246   5.358   0.913   8.354  0.1827  1.6989  0.3066
 4470SOL    HW219247   5.457   0.805   8.315 -2.6471 -0.6329 -0.7710
 4471SOL     OW19248   5.426   7.435   1.319  0.3239 -1.1373 -0.0156
 4471SOL    HW119249   5.476   7.459   1.240 -0.6000  1.1653  0.0203
 4471SOL    HW219250   5.354   7.381   1.286 -0.6273  0.6114 -0.9605
 4472SOL     OW19251   5.439   5.634   2.886 -0.1173 -0.1012 -0.5504
 4472SOL    HW119252   5.527   5.609   2.916 -0.8665 -1.6033  0.5331
 4472SOL    HW219253   5.387   5.635   2.966 -1.3999 -0.6662 -1.3523
 4473SOL     OW19254   1.582   4.547   9.302  0.0531  0.2459  0.1044
 4473SOL    HW119255   1.593   4.589   9.387  1.4341 -0.6214  0.3910
 4473SOL    HW219256   1.494   4.510   9.304  0.2104 -0.0925  1.3100
 4474SOL     OW19257   0.902   4.802   6.638 -0.0849  0.0036  0.5964
 4474SOL    HW119258   0.963   4.757   6.697 -0.0351  0.3290  0.7967
 4474SOL    HW219259   0.954   4.870   6.597 -0.9453  2.2907  3.0027
 4475SOL     OW19260   3.968   2.350   4.598  0.1058  0.0972  0.4658
 4475SOL    HW119261   3.958   2.444   4.614  1.5207  0.4931 -0.7269
 4475SOL    HW219262   4.046   2.344   4.543 -0.5752 -1.6929 -0.3782
 4476SOL     OW19263  10.655   4.112   2.028 -0.0686 -0.0705  0.3477
 4476SOL    HW119264  10.737   4.129   2.074 -0.0100 -0.4412  0.3850
 4476SOL    HW219265  10.671   4.030   1.981  0.1448  0.6998 -0.9735
 4477SOL     OW19266  10.373   9.357   2.390 -0.0458  0.5820 -0.1035
 4477SOL    HW119267  10.425   9.409   2.329 -1.6263  3.6159  0.9149
 4477SOL    HW219268  10.285   9.396   2.387 -1.5141 -2.3480  0.5046
 4478SOL     OW19269   6.245  10.404   5.429  0.5871  0.2066  0.3468
 4478SOL    HW119270   6.324  10.437   5.472  0.2785 -0.6193  1.6122
 4478SOL    HW219271   6.220  10.328   5.482 -0.0143 -0.6537 -1.1145
 4479SOL     OW19272   6.107   3.749   3.529  0.8584  0.1004 -0.0741
 4479SOL    HW119273   6.172   3.766   3.462 -0.0837  1.9409 -0.6058
 4479SOL    HW219274   6.024   3.744   3.481  0.3231  0.1493  0.8233
 4480SOL     OW19275   1.191   5.960   9.012 -0.3914  0.0291 -0.2877
 4480SOL    HW119276   1.237   6.023   8.955 -1.5496 -0.3019 -1.6595
 4480SOL    HW219277   1.100   5.962   8.980 -0.5097 -2.1342 -0.1901
 4481SOL     OW19278   0.796   5.241   1.054  0.0428  0.1002  0.1028
 4481SOL    HW119279   0.794   5.286   1.138  2.5230 -1.3785  1.0900
 4481SOL    HW219280   0.808   5.311   0.990 -0.4182  1.1505  1.1279
 4482SOL     OW19281  10.247  10.286   3.655 -0.4508  0.1682 -0.0695
 4482SOL    HW119282  10.286  10.326   3.578 -1.5030  1.9682  0.2795
 4482SOL    HW219283  10.170  10.240   3.621  0.6527 -1.4820 -0.4437
 4483SOL     OW19284   6.762   4.986   0.272 -0.2704 -0.8566 -0.5319
 4483SOL    HW119285   6.726   5.072   0.296 -1.0203 -1.1567 -0.5562
 4483SOL    HW219286   6.833   4.972   0.334 -1.2197 -0.9524  0.5627
 4484SOL     OW19287   7.575   2.786   0.278  0.3647  0.2185  0.3782
 4484SOL    HW119288   7.654   2.739   0.306 -0.3192 -1.2294 -0.0170
 4484SOL    HW219289   7.525   2.720   0.229 -0.8798  1.2386  0.2517
 4485SOL     OW19290   9.702   6.819   0.785 -0.1616  0.6617 -0.5710
 4485SOL    HW119291   9.621   6.767   0.791 -0.1429  0.6388 -0.5186
 4485SOL    HW219292   9.691   6.870   0.705 -0.0174  0.2960 -0.8316
 4486SOL     OW19293   2.734   1.999   2.706 -0.3327 -0.2646 -0.7660
 4486SOL    HW119294   2.772   1.946   2.776 -0.7735 -0.2823 -0.5387
 4486SOL    HW219295   2.807   2.017   2.647 -0.3921 -1.9911 -1.4029
 4487SOL     OW19296   1.192   9.821   7.572  0.4873  0.0611 -0.3610
 4487SOL    HW119297   1.134   9.836   7.498 -0.0889 -2.0590 -0.4044
 4487SOL    HW219298   1.210   9.727   7.570  1.4427  0.1535  1.4726
 4488SOL     OW19299   3.166   9.604   9.366  0.2976 -0.4901  0.2896
 4488SOL    HW119300   3.244   9.618   9.419  0.4646  0.0545 -0.0798
 4488SOL    HW219301   3.095   9.646   9.415  0.6928  1.2202 -0.5302
 4489SOL     OW19302   6.252   3.269   1.918 -0.0627 -0.1860 -0.3417
 4489SOL    HW119303   6.282   3.190   1.874  2.1515 -0.5902  1.6639
 4489SOL    HW219304   6.214   3.238   2.000 -1.8613  0.6816 -0.8114
 4490SOL     OW19305   7.686   9.924   8.433 -0.0966  0.0658 -0.1473
 4490SOL    HW119306   7.695   9.907   8.526  0.3816  0.6521 -0.0777
 4490SOL    HW219307   7.592   9.915   8.416 -0.6540  2.7770  0.9923
 4491SOL     OW19308   6.851  10.320   8.089  0.2806 -0.0119 -0.5727
 4491SOL    HW119309   6.913  10.334   8.161 -0.0303  0.3862 -0.3782
 4491SOL    HW219310   6.844  10.225   8.081 -0.8724 -0.0731  0.9570
 4492SOL     OW19311   5.875   2.191   7.032 -0.5502 -0.0598 -0.4108
 4492SOL    HW119312   5.940   2.186   6.962 -0.7057 -2.8743 -0.4477
 4492SOL    HW219313   5.822   2.112   7.021 -2.2757  0.7862  1.2833
 4493SOL     OW19314  10.611   3.618   2.102  1.0849 -0.4553  0.6087
 4493SOL    HW119315  10.635   3.621   2.195  1.4380  0.5034  0.4997
 4493SOL    HW219316  10.526   3.574   2.101  1.4323 -1.1531  1.3057
 4494SOL     OW19317   1.020   4.019   4.341  0.1029 -0.4788  0.5230
 4494SOL    HW119318   0.988   4.003   4.430 -2.4350 -0.3296 -0.3080
 4494SOL    HW219319   0.982   4.103   4.316  0.3232 -0.7733 -0.9111
 4495SOL     OW19320   5.670   4.383   1.417  0.1042  0.2810  0.1012
 4495SOL    HW119321   5.684   4.433   1.336 -0.6156  1.3556  0.6046
 4495SOL    HW219322   5.614   4.310   1.391  1.5608 -0.5604 -0.7440
 4496SOL     OW19323   6.545   6.080   6.121 -0.0042 -0.2392 -0.0949
 4496SOL    HW119324   6.626   6.098   6.168 -0.6042  1.0001  0.5223
 4496SOL    HW219325   6.562   6.109   6.031  0.7888 -1.6120 -0.4079
 4497SOL     OW19326   0.631   8.992   5.747  0.1168  0.6821  0.1444
 4497SOL    HW119327   0.635   8.921   5.812  2.9815 -0.2800 -0.9188
 4497SOL    HW219328   0.660   9.069   5.795 -0.4147  0.5721  0.6549
 4498SOL     OW19329   7.870   5.974   7.091  0.4055  0.0141 -0.0027
 4498SOL    HW119330   7.858   6.068   7.081  2.8891  0.3786 -0.3620
 4498SOL    HW219331   7.862   5.958   7.185  1.5977  0.9157  0.2775
 4499SOL     OW19332   6.816   2.423   7.059  0.3883 -0.6283  0.3421
 4499SOL    HW119333   6.768   2.341   7.074 -0.6447 -0.5639 -2.0718
 4499SOL    HW219334   6.749   2.491   7.067  0.4880 -0.3473 -0.9265
 4500SOL     OW19335   0.203   4.285   5.769  0.2390 -0.6164 -0.2561
 4500SOL    HW119336   0.227   4.376   5.785 -0.5746 -0.5418  0.5995
 4500SOL    HW219337   0.214   4.274   5.674  0.5403  0.3064 -0.3397
 4501SOL     OW19338   7.415   3.707   1.911 -0.4491 -0.4683  0.1628
 4501SOL    HW119339   7.506   3.684   1.896 -0.7279 -1.1945 -0.4658
 4501SOL    HW219340   7.365   3.651   1.851 -1.4082 -1.1847  1.5609
 4502SOL     OW19341   9.458   4.862   0.685  0.0789 -0.1604 -0.3100
 4502SOL    HW119342   9.499   4.948   0.696 -0.8282  0.3796 -1.0128
 4502SOL    HW219343   9.367   4.882   0.664 -0.7399 -1.3309  1.8364
 4503SOL     OW19344   3.364   9.019   1.904  0.3387  0.1757  0.8015
 4503SOL    HW119345   3.372   8.926   1.922  0.0326 -0.2309 -0.9297
 4503SOL    HW219346   3.406   9.062   1.978  1.5031 -1.3642  1.0893
 4504SOL     OW19347   8.534   7.943   9.912 -0.4220  0.1091 -0.8722
 4504SOL    HW119348   8.446   7.908   9.926 -0.3587 -0.4670 -1.8994
 4504SOL    HW219349   8.580   7.926   9.995 -0.9066 -0.6899 -0.7613
 4505SOL     OW19350  10.105   7.496   3.552  0.6690  0.2234 -0.8062
 4505SOL    HW119351  10.050   7.569   3.525 -1.6825 -0.7961  0.8645
 4505SOL    HW219352  10.143   7.523   3.636  1.6734  0.3768 -1.2876
 4506SOL     OW19353   7.673   6.843   4.919  0.0886 -0.3056 -0.4008
 4506SOL    HW119354   7.596   6.853   4.975  0.6120  1.4864  0.0572
 4506SOL    HW219355   7.734   6.792   4.971  0.0546  0.1896  0.1375
 4507SOL     OW19356   8.822   8.280  10.112 -0.5157 -0.1008 -0.6371
 4507SOL    HW119357   8.792   8.255  10.025 -0.2675  1.9454 -1.3504
 4507SOL    HW219358   8.911   8.312  10.099  0.4913 -2.0482  0.7968
 4508SOL     OW19359   2.427   7.730   2.301  0.1986 -0.2210  0.2868
 4508SOL    HW119360   2.519   7.718   2.279  1.0684  0.3107  3.1907
 4508SOL    HW219361   2.412   7.824   2.291 -1.4996 -0.7206 -4.6868
 4509SOL     OW19362   2.674   0.669   3.706  0.6710 -0.3528 -0.3465
 4509SOL    HW119363   2.727   0.590   3.715  2.1263  0.4791 -1.3021
 4509SOL    HW219364   2.646   0.669   3.614 -0.6546 -0.5548  0.0372
 4510SOL     OW19365   9.294   2.324   9.187  0.0944 -0.0118  0.0696
 4510SOL    HW119366   9.385   2.299   9.203  0.2894  0.0547 -0.8835
 4510SOL    HW219367   9.282   2.405   9.237  0.3844 -0.3155  0.6485
 4511SOL     OW19368   0.583   8.567   1.443 -0.1551  0.3693 -0.4125
 4511SOL    HW119369   0.535   8.599   1.519 -0.4527 -1.6215  0.2858
 4511SOL    HW219370   0.515   8.538   1.382  0.1078  0.6081 -0.8258
 4512SOL     OW19371   2.599   5.484  10.227 -0.1304 -0.2270  0.6064
 4512SOL    HW119372   2.526   5.524  10.179 -0.7550 -0.9513  0.9319
 4512SOL    HW219373   2.588   5.514  10.317  1.7553  2.1368  0.1343
 4513SOL     OW19374   4.232   2.828   7.464 -0.7113  0.1051  0.0559
 4513SOL    HW119375   4.300   2.840   7.399  2.1001 -1.7682  2.3732
 4513SOL    HW219376   4.235   2.907   7.518  1.7452 -1.0250  1.7724
 4514SOL     OW19377   3.402   5.935   7.241  0.1230 -0.3520 -0.5142
 4514SOL    HW119378   3.366   5.917   7.155  1.5253 -0.7327 -1.0582
 4514SOL    HW219379   3.326   5.951   7.297 -0.7984  0.0206 -1.8408
 4515SOL     OW19380   9.124   3.341   5.820  0.2194  0.6155 -0.7173
 4515SOL    HW119381   9.157   3.260   5.858  0.6306  0.3453 -1.6041
 4515SOL    HW219382   9.143   3.332   5.726  2.5251  2.7426 -0.5632
 4516SOL     OW19383   8.923   0.441   8.586 -0.4681 -0.1021  0.1412
 4516SOL    HW119384   9.007   0.403   8.612 -0.8615 -1.7207 -0.8358
 4516SOL    HW219385   8.922   0.527   8.627  2.6169  0.8624 -1.5009
 4517SOL     OW19386   8.153   1.024   1.263  0.2647  0.2395 -0.1562
 4517SOL    HW119387   8.222   1.067   1.213  1.0092 -0.2181  0.4560
 4517SOL    HW219388   8.091   1.095   1.284 -0.0981  0.4265 -1.7471
 4518SOL     OW19389   1.392   9.240   3.634 -0.6755  0.7128  0.5026
 4518SOL    HW119390   1.419   9.243   3.726  0.0496  0.5993  0.2990
 4518SOL    HW219391   1.454   9.180   3.593  0.3195  2.3464 -0.4791
 4519SOL     OW19392   1.027   6.283   1.524  0.1077  0.3320 -0.6078
 4519SOL    HW119393   1.106   6.304   1.573  0.0598 -0.3845 -0.2060
 4519SOL    HW219394   0.955   6.316   1.577 -0.1781 -3.0720  1.4438
 4520SOL     OW19395   1.653   1.420   9.045  0.3294 -0.0611  0.0224
 4520SOL    HW119396   1.578   1.419   9.103  0.8341 -0.4948  0.6729
 4520SOL    HW219397   1.621   1.384   8.963  0.1004 -1.2749  0.6339
 4521SOL     OW19398   1.139   2.274   5.783  0.1530 -0.1273  0.5326
 4521SOL    HW119399   1.153   2.264   5.689 -0.7793  2.3223  0.0731
 4521SOL    HW219400   1.091   2.195   5.808 -2.3430  0.5310 -1.7001
 4522SOL     OW19401   9.454   4.587  10.463  0.0441  0.8776  0.5600
 4522SOL    HW119402   9.497   4.577  10.548 -1.7445  2.2001  1.6813
 4522SOL    HW219403   9.362   4.604  10.484 -1.0505 -1.4669 -1.7108
 4523SOL     OW19404   2.261   5.437   3.655 -0.3813  0.0504  0.0062
 4523SOL    HW119405   2.183   5.471   3.699 -1.4895  0.1672 -1.9261
 4523SOL    HW219406   2.235   5.428   3.563  2.8319  3.2189 -1.4550
 4524SOL     OW19407   8.749   9.812   5.875 -0.3192 -0.5526  0.3602
 4524SOL    HW119408   8.694   9.735   5.892  0.3007 -1.2789 -0.8431
 4524SOL    HW219409   8.811   9.783   5.809  1.2952  0.3583  1.4106
 4525SOL     OW19410   6.140   4.004   3.633  0.0051  0.0776 -0.4422
 4525SOL    HW119411   6.073   4.035   3.694  0.0149 -0.4204 -0.1756
 4525SOL    HW219412   6.117   3.912   3.616  1.0602 -0.3334  0.2533
 4526SOL     OW19413   9.264   7.396   4.105 -0.7454  0.0110  0.0968
 4526SOL    HW119414   9.198   7.329   4.125 -1.3432  1.1182  2.0550
 4526SOL    HW219415   9.316   7.404   4.185  0.3836  0.7162 -0.6800
 4527SOL     OW19416   2.246   3.519   7.583 -0.0327  0.5053  0.2700
 4527SOL    HW119417   2.273   3.503   7.674  1.4974  0.8819 -0.0902
 4527SOL    HW219418   2.153   3.495   7.581 -0.5895  2.1931  2.3649
 4528SOL     OW19419   8.186   1.634   3.806  0.5725 -0.1527 -0.1213
 4528SOL    HW119420   8.118   1.699   3.826 -0.6342 -1.3325 -0.2586
 4528SOL    HW219421   8.143   1.571   3.748  0.7725 -2.6374  2.1827
 4529SOL     OW19422   0.558   9.100   2.668 -0.5125 -0.1161  0.3257
 4529SOL    HW119423   0.502   9.099   2.591 -2.0228 -2.1328  1.3701
 4529SOL    HW219424   0.547   9.188   2.705 -0.2452  0.6625 -1.3702
 4530SOL     OW19425   8.735   6.505   3.278 -0.3177  0.2588 -0.9732
 4530SOL    HW119426   8.697   6.545   3.200  0.7383  1.3426 -0.9613
 4530SOL    HW219427   8.759   6.579   3.334 -0.8672 -0.4849  0.3060
 4531SOL     OW19428   3.085   4.347  10.003 -0.1935 -0.0849  0.0831
 4531SOL    HW119429   3.019   4.397  10.051  1.4387  2.3952 -0.0742
 4531SOL    HW219430   3.116   4.408   9.935 -1.1573 -2.8165 -3.0979
 4532SOL     OW19431   1.535   4.845  10.253  0.0172 -0.4774  0.2501
 4532SOL    HW119432   1.496   4.910  10.194  0.3215 -1.6968 -1.3749
 4532SOL    HW219433   1.484   4.766  10.239  1.3556 -1.3575  0.0909
 4533SOL     OW19434   2.723   1.237   0.803 -0.8630  0.8683  0.1879
 4533SOL    HW119435   2.742   1.229   0.710  0.8854  0.2878  0.5626
 4533SOL    HW219436   2.652   1.174   0.818 -0.2816  0.0272 -0.5218
 4534SOL     OW19437   7.062   5.275   9.002 -0.1229 -0.7329 -0.1880
 4534SOL    HW119438   6.971   5.260   8.978 -0.1116 -0.5155 -0.3691
 4534SOL    HW219439   7.113   5.238   8.930 -0.0869 -0.1298 -0.4772
 4535SOL     OW19440   2.538   8.675   4.905 -0.8862  0.3276  0.2887
 4535SOL    HW119441   2.537   8.665   4.810  0.9289 -0.6441  0.3375
 4535SOL    HW219442   2.498   8.595   4.938  2.2957 -1.3610  0.3788
 4536SOL     OW19443   3.031   4.128   0.528 -1.1720  0.1286  0.2050
 4536SOL    HW119444   3.050   4.181   0.605  1.2930 -1.0117  0.4883
 4536SOL    HW219445   3.050   4.185   0.453 -3.3963  1.1785  0.3663
 4537SOL     OW19446   0.529   2.066   4.703 -0.2852  0.1226  0.2068
 4537SOL    HW119447   0.520   2.134   4.636  1.5545  1.1033  0.8804
 4537SOL    HW219448   0.623   2.054   4.712 -0.4805 -0.0819  2.5086
 4538SOL     OW19449   0.152   3.697   6.360 -0.2713  0.4025  0.4649
 4538SOL    HW119450   0.142   3.640   6.436 -0.4868 -0.8175 -0.4545
 4538SOL    HW219451   0.093   3.770   6.377 -0.7702 -0.1573  1.1989
 4539SOL     OW19452   8.930  10.526   2.315 -0.3103 -0.4683  0.5134
 4539SOL    HW119453   8.958  10.468   2.244 -1.3693  0.5170 -0.7578
 4539SOL    HW219454   8.893  10.467   2.381  1.2739 -1.4574  0.5684
 4540SOL     OW19455   1.639   6.379   9.202  0.5684  0.2353 -0.2008
 4540SOL    HW119456   1.731   6.396   9.221  0.4759  0.0895  0.3886
 4540SOL    HW219457   1.640   6.338   9.115  0.9337  1.5660 -0.8441
 4541SOL     OW19458   3.514   9.611   9.211 -0.2561  0.2449 -0.3936
 4541SOL    HW119459   3.531   9.529   9.166  1.0898 -0.0804  0.6417
 4541SOL    HW219460   3.542   9.595   9.301 -1.8597  1.2072  0.3303
 4542SOL     OW19461   9.245   2.478   5.499  0.2127 -0.0578  0.2177
 4542SOL    HW119462   9.207   2.526   5.573  1.2074 -0.1355  0.8065
 4542SOL    HW219463   9.218   2.387   5.513 -0.7173  0.1278 -0.2698
 4543SOL     OW19464   7.330   6.549   7.068  0.1762 -0.3261 -0.1248
 4543SOL    HW119465   7.254   6.608   7.072  0.1212 -0.4150  0.1269
 4543SOL    HW219466   7.364   6.561   6.979 -0.4301 -0.6516 -0.4111
 4544SOL     OW19467   2.544   1.961  10.690  0.1821 -0.2069  0.2397
 4544SOL    HW119468   2.596   1.882  10.677 -0.9554 -1.0752  0.8173
 4544SOL    HW219469   2.607   2.026  10.722  0.9812 -1.1107  0.5536
 4545SOL     OW19470   7.321   9.353   8.146  0.1805 -0.1724  0.0797
 4545SOL    HW119471   7.265   9.298   8.091  1.6940 -0.9310 -0.7814
 4545SOL    HW219472   7.399   9.299   8.161  1.9380  1.8684 -1.1885
 4546SOL     OW19473   4.368   3.819   3.332  0.0911  0.4160  0.5815
 4546SOL    HW119474   4.395   3.740   3.286 -0.9189 -0.0287  0.7333
 4546SOL    HW219475   4.430   3.886   3.303 -0.6678  0.2262 -1.6523
 4547SOL     OW19476   6.996   0.618  10.105 -0.0957  0.5245  0.0351
 4547SOL    HW119477   7.014   0.551  10.039 -0.6161  0.3508  0.0692
 4547SOL    HW219478   6.986   0.699  10.055 -0.2909  0.4283 -0.0836
 4548SOL     OW19479   4.526  10.075   5.996  0.2592 -0.1943  0.5406
 4548SOL    HW119480   4.551  10.164   6.023 -1.9345  1.1648 -1.5297
 4548SOL    HW219481   4.443  10.059   6.041 -0.0938 -0.5852 -0.2408
 4549SOL     OW19482   4.049   4.339   7.985  0.5787 -0.1440  0.0278
 4549SOL    HW119483   3.994   4.324   7.908  0.1601  1.1747  0.0514
 4549SOL    HW219484   4.038   4.432   8.005  2.2831 -0.0172  0.4708
 4550SOL     OW19485   2.359  10.658   1.848  0.9023 -0.0724 -0.0180
 4550SOL    HW119486   2.443  10.699   1.870  0.7035 -0.1046  0.8457
 4550SOL    HW219487   2.345  10.594   1.917  1.8944 -2.6683 -2.0835
 4551SOL     OW19488   4.371   5.777   0.849 -0.3367  0.3214 -0.2916
 4551SOL    HW119489   4.439   5.711   0.841 -0.8501 -0.5294  1.7014
 4551SOL    HW219490   4.353   5.804   0.759 -0.9018 -3.0797 -1.3595
 4552SOL     OW19491   1.062   7.289   8.847 -0.0209  0.2420  0.5950
 4552SOL    HW119492   0.973   7.306   8.877  0.0164 -0.8527  1.3999
 4552SOL    HW219493   1.051   7.256   8.757 -0.3507  0.9435  0.3719
 4553SOL     OW19494   9.712  10.294   8.985 -0.0897 -0.4384 -0.0826
 4553SOL    HW119495   9.643  10.320   8.923  0.1184  1.5065  0.4363
 4553SOL    HW219496   9.771  10.240   8.933  0.1708  1.2784 -1.6909
 4554SOL     OW19497   5.461   8.318   2.896  0.4283 -0.0187  0.6186
 4554SOL    HW119498   5.445   8.346   2.986  0.8696 -0.4375  0.8335
 4554SOL    HW219499   5.552   8.344   2.879  0.4433 -0.2126  0.3974
 4555SOL     OW19500   6.686   7.993   6.919  0.3122 -0.5815 -0.1490
 4555SOL    HW119501   6.748   8.051   6.875 -0.3162 -1.2894 -2.0870
 4555SOL    HW219502   6.622   8.052   6.959 -0.5454  0.1115 -2.4163
 4556SOL     OW19503   6.477  10.134  10.376  0.1352  0.0917 -0.4409
 4556SOL    HW119504   6.487  10.143  10.281  0.1456  1.7737 -0.3066
 4556SOL    HW219505   6.566  10.142  10.410  0.0129  0.5647 -0.2270
 4557SOL     OW19506   5.433   1.534   2.952  0.3453  0.1370 -0.5744
 4557SOL    HW119507   5.499   1.602   2.967 -0.2074  0.3729  0.9450
 4557SOL    HW219508   5.358   1.581   2.915 -0.3772  0.5649  1.3230
 4558SOL     OW19509  10.606   6.780   3.056  0.5767  0.0430 -0.0501
 4558SOL    HW119510  10.683   6.779   3.112  1.3300  0.1798 -1.0685
 4558SOL    HW219511  10.572   6.869   3.065  0.0107 -0.2610  1.0695
 4559SOL     OW19512   0.849   2.478   1.723  0.1743  0.2294  0.6398
 4559SOL    HW119513   0.774   2.537   1.736  0.9513  1.5625 -0.5588
 4559SOL    HW219514   0.872   2.449   1.811 -1.4637  0.1487  1.0724
 4560SOL     OW19515   8.904   9.078   7.917 -0.0962  0.2903 -0.0850
 4560SOL    HW119516   8.922   8.984   7.921  0.0969  0.3687  1.3563
 4560SOL    HW219517   8.840   9.087   7.847  0.9356 -0.7325 -1.2100
 4561SOL     OW19518  10.285   9.871   1.492  0.2640  0.2781 -0.1865
 4561SOL    HW119519  10.312   9.840   1.406 -0.4513 -0.7818 -0.0485
 4561SOL    HW219520  10.256   9.961   1.477 -0.9855 -0.2818 -1.2840
 4562SOL     OW19521   8.498   1.664   6.687  0.1585  0.2151 -0.1908
 4562SOL    HW119522   8.460   1.680   6.600 -2.1906  0.5886  0.8322
 4562SOL    HW219523   8.511   1.569   6.690  0.8672  0.2640 -1.1517
 4563SOL     OW19524   3.652   9.177   0.774 -0.2298 -0.1997 -0.5595
 4563SOL    HW119525   3.717   9.232   0.817 -1.1346  0.5396 -0.0835
 4563SOL    HW219526   3.618   9.121   0.845 -1.8030  1.0936 -0.2083
 4564SOL     OW19527   1.194   7.822  10.441  0.3058  0.4479  0.4149
 4564SOL    HW119528   1.232   7.908  10.458 -0.1832  0.6935  0.2689
 4564SOL    HW219529   1.250   7.785  10.372  0.4087  0.7169  0.3514
 4565SOL     OW19530   5.726   3.479   9.338  0.2792 -0.7042  0.1264
 4565SOL    HW119531   5.634   3.484   9.362  0.5547  0.9535  1.0514
 4565SOL    HW219532   5.726   3.446   9.248 -1.2347 -0.3275 -0.0398
 4566SOL     OW19533   5.077   4.122   9.701  0.0119 -0.5324  0.5846
 4566SOL    HW119534   5.070   4.156   9.612  0.5417  0.1587  0.7984
 4566SOL    HW219535   5.163   4.150   9.731  0.0477 -1.1908  1.1420
 4567SOL     OW19536   2.012   2.890   9.645  0.1768 -0.2133 -0.3450
 4567SOL    HW119537   2.063   2.831   9.700 -1.9222 -1.4568  0.3809
 4567SOL    HW219538   1.924   2.889   9.683 -0.3559  2.1162 -1.3065
 4568SOL     OW19539   7.820   8.766   9.240  0.3860  0.1387 -0.4562
 4568SOL    HW119540   7.746   8.714   9.272  1.0191  0.4690  1.7568
 4568SOL    HW219541   7.838   8.732   9.153 -2.1278 -0.1907 -0.9375
 4569SOL     OW19542   4.074   6.671   9.675 -0.4681  0.3913 -0.8702
 4569SOL    HW119543   4.094   6.737   9.609 -1.0108  0.0188 -1.4230
 4569SOL    HW219544   3.979   6.675   9.685 -0.6577 -1.1107 -1.7973
 4570SOL     OW19545   1.975   9.989   5.402  0.2408 -0.4759  0.0823
 4570SOL    HW119546   1.971   9.903   5.445 -1.4644 -0.8900 -0.8036
 4570SOL    HW219547   1.954  10.051   5.472 -1.1521 -1.0276  0.1886
 4571SOL     OW19548   5.121   6.691   1.283  0.6267  0.4660 -0.4973
 4571SOL    HW119549   5.198   6.642   1.253  1.6192  1.9842 -0.5076
 4571SOL    HW219550   5.094   6.742   1.207  0.9375  1.5751  0.1262
 4572SOL     OW19551   5.862   6.427   4.910  0.0322  0.5154 -0.2340
 4572SOL    HW119552   5.790   6.400   4.853 -0.2811 -0.6255  0.6821
 4572SOL    HW219553   5.917   6.350   4.917  0.6033  0.9571  0.2110
 4573SOL     OW19554   1.812   1.497   2.378 -0.8729 -0.2601 -0.3598
 4573SOL    HW119555   1.854   1.583   2.382 -2.0837  0.4051 -1.2750
 4573SOL    HW219556   1.775   1.484   2.465 -0.1157 -0.1693 -0.0148
 4574SOL     OW19557   0.454   3.319   6.004  0.2744 -0.2811 -0.2973
 4574SOL    HW119558   0.546   3.290   6.000  0.6672  0.8469  0.1459
 4574SOL    HW219559   0.429   3.334   5.913  0.5142 -0.6250 -0.4227
 4575SOL     OW19560   1.645  10.267   4.373 -0.0460  0.5712 -0.4617
 4575SOL    HW119561   1.693  10.184   4.368  0.6590  0.5949  3.0816
 4575SOL    HW219562   1.694  10.319   4.436 -1.8101  2.7720 -0.7844
 4576SOL     OW19563   3.788   7.533   3.019  0.2511 -0.0865  0.2014
 4576SOL    HW119564   3.754   7.487   2.942  0.2953  0.8980 -0.4141
 4576SOL    HW219565   3.882   7.521   3.015  0.2990  0.4112 -0.1920
 4577SOL     OW19566   2.847   9.250   0.462  0.0544  0.2614 -0.3618
 4577SOL    HW119567   2.933   9.207   0.455 -0.0624 -0.1702  0.6385
 4577SOL    HW219568   2.825   9.243   0.555  0.4819  3.4028  0.0608
 4578SOL     OW19569   7.662   7.882   9.023 -0.3488  0.5171 -0.0318
 4578SOL    HW119570   7.712   7.820   8.969 -1.8124 -0.5977 -0.1683
 4578SOL    HW219571   7.712   7.887   9.105 -0.0328 -0.6096 -0.1339
 4579SOL     OW19572   7.446   5.349   1.126  0.3030 -0.1255  0.6359
 4579SOL    HW119573   7.376   5.370   1.063  0.3911 -2.6090 -0.4009
 4579SOL    HW219574   7.399   5.323   1.205  0.0823 -0.0504  0.5322
 4580SOL     OW19575   7.975   4.031   9.779  0.0760 -0.4266  0.2742
 4580SOL    HW119576   8.019   3.958   9.736  0.5302 -0.9065  1.5030
 4580SOL    HW219577   8.042   4.070   9.835 -0.6321 -0.1651  0.9554
 4581SOL     OW19578   0.250   6.816   2.999  0.5280 -0.2865 -0.6204
 4581SOL    HW119579   0.240   6.903   2.960  0.6649 -0.7321 -1.6905
 4581SOL    HW219580   0.288   6.763   2.929 -2.5679 -2.0481 -1.0977
 4582SOL     OW19581   3.792   6.094   5.367 -0.2828  0.5208  0.3860
 4582SOL    HW119582   3.829   6.135   5.445 -0.0544 -0.1577  0.6445
 4582SOL    HW219583   3.726   6.033   5.402  2.1707 -2.3870  0.3575
 4583SOL     OW19584   4.926   8.861   3.544  0.1820 -0.4974 -0.1242
 4583SOL    HW119585   4.904   8.767   3.549 -1.2944 -0.2581 -1.2512
 4583SOL    HW219586   4.948   8.876   3.452 -0.0515  0.3455 -0.0517
 4584SOL     OW19587   9.176   1.361   4.834 -0.4261  0.1252 -0.2419
 4584SOL    HW119588   9.116   1.343   4.762 -0.9233  0.1728  0.1517
 4584SOL    HW219589   9.208   1.275   4.861  0.8066  0.1898 -1.3760
 4585SOL     OW19590   1.820   8.951   4.800  0.0386  0.1798  0.1150
 4585SOL    HW119591   1.753   8.941   4.732  0.1238 -0.6293  0.1402
 4585SOL    HW219592   1.789   9.024   4.853 -0.2419  0.5526 -0.5470
 4586SOL     OW19593   7.506   8.518  10.525 -0.0638 -0.4696 -0.5281
 4586SOL    HW119594   7.578   8.482  10.474 -0.2603 -3.5045  1.1284
 4586SOL    HW219595   7.545   8.540  10.610 -0.8718 -1.2473  0.0606
 4587SOL     OW19596   0.390   3.932   2.176  0.0021 -0.0118  0.0697
 4587SOL    HW119597   0.479   3.921   2.144 -0.6055  1.1178 -2.1855
 4587SOL    HW219598   0.340   3.864   2.130 -0.6647  0.8063 -0.4472
 4588SOL     OW19599   8.718   1.999   8.558 -0.5527  0.7134 -0.0476
 4588SOL    HW119600   8.741   1.945   8.633 -1.4422  0.4758  0.0645
 4588SOL    HW219601   8.800   2.041   8.532  0.2603 -1.0707 -0.4650
 4589SOL     OW19602   1.158   5.728   2.868  0.5231  0.4667  0.3905
 4589SOL    HW119603   1.097   5.767   2.931  1.0081 -0.1198  1.2479
 4589SOL    HW219604   1.174   5.798   2.804  2.1710  2.0970  2.4361
 4590SOL     OW19605   3.690   0.142   5.077  0.2473 -0.1032  0.7513
 4590SOL    HW119606   3.763   0.200   5.097 -0.1110 -0.1051  2.1577
 4590SOL    HW219607   3.732   0.057   5.061  0.8350  0.5902 -1.9756
 4591SOL     OW19608   1.793   8.851   8.652 -0.4630  0.5844 -0.0979
 4591SOL    HW119609   1.765   8.761   8.668 -0.8186  0.3713 -1.7489
 4591SOL    HW219610   1.712   8.902   8.660 -0.5527  0.5398 -0.6928
 4592SOL     OW19611   3.481   6.840   1.569  0.1474  0.1935  0.6006
 4592SOL    HW119612   3.526   6.921   1.592 -0.2864  0.3330  0.9561
 4592SOL    HW219613   3.413   6.830   1.635  1.1064 -1.2184  1.4301
 4593SOL     OW19614   5.837  10.522  10.085  0.4194  0.2548 -0.1362
 4593SOL    HW119615   5.871  10.592  10.141 -3.8202  1.9778  0.5969
 4593SOL    HW219616   5.806  10.568  10.006 -2.3053 -0.6971  0.2916
 4594SOL     OW19617   6.539  10.716   4.804 -0.3028 -0.5367  0.6615
 4594SOL    HW119618   6.547  10.643   4.865 -0.9470  0.9447  2.6457
 4594SOL    HW219619   6.444  10.726   4.792 -0.2336  0.1702  0.6770
 4595SOL     OW19620   5.610   7.710  10.466  0.3588  0.5947 -0.6011
 4595SOL    HW119621   5.634   7.618  10.454 -0.1577  0.5751 -1.5637
 4595SOL    HW219622   5.662   7.738  10.541  0.5066 -0.4888 -0.2767
 4596SOL     OW19623   6.615   8.726   0.091 -0.4945 -0.3499 -0.3222
 4596SOL    HW119624   6.677   8.786   0.049 -1.2682  1.0094  0.4103
 4596SOL    HW219625   6.579   8.776   0.165 -1.5033 -1.5589  0.0426
 4597SOL     OW19626   9.243   7.252   9.126 -0.1730  0.3750 -0.0715
 4597SOL    HW119627   9.288   7.218   9.049  0.2280  1.4222 -0.3180
 4597SOL    HW219628   9.204   7.175   9.167  1.0476 -0.4389 -0.3763
 4598SOL     OW19629   9.387   4.722   3.548 -0.0605 -0.0251  0.0448
 4598SOL    HW119630   9.360   4.801   3.594 -1.8197 -0.5661 -0.0111
 4598SOL    HW219631   9.356   4.734   3.458  0.5728 -0.3513 -0.2315
 4599SOL     OW19632   2.511   6.375   7.418 -0.0661  0.5118  0.1865
 4599SOL    HW119633   2.529   6.427   7.339  0.0096  1.0984  0.5776
 4599SOL    HW219634   2.532   6.435   7.490  0.8066 -0.3331  0.6542
 4600SOL     OW19635   2.101   4.312   3.221  0.0184 -0.3863 -0.2256
 4600SOL    HW119636   2.055   4.394   3.203 -0.5949 -0.1955  1.8969
 4600SOL    HW219637   2.032   4.246   3.220  0.4577 -0.8598 -1.5589
 4601SOL     OW19638   8.489   6.870   9.019  0.2786  0.2973 -0.1662
 4601SOL    HW119639   8.479   6.866   9.114  0.4116  0.7800 -0.1268
 4601SOL    HW219640   8.526   6.785   8.995 -0.1908 -0.0011  0.1560
 4602SOL     OW19641   9.758   7.408   3.971  0.5918 -0.1389 -0.2917
 4602SOL    HW119642   9.737   7.392   4.063  1.8853 -1.2072 -0.1460
 4602SOL    HW219643   9.676   7.392   3.924 -0.3206  1.3077  0.7350
 4603SOL     OW19644   2.165   4.742   2.471 -0.3055  0.4497 -0.2930
 4603SOL    HW119645   2.111   4.689   2.412 -1.0061  0.7512  0.0586
 4603SOL    HW219646   2.112   4.819   2.488 -0.2281  0.2392  0.9511
 4604SOL     OW19647   8.264  10.098   0.545 -0.6515  0.3816 -0.3065
 4604SOL    HW119648   8.321  10.088   0.622 -0.7928  0.3010 -0.2119
 4604SOL    HW219649   8.187  10.143   0.579  0.3200  2.5974 -0.8861
 4605SOL     OW19650   3.246   7.497  10.216  0.0139  0.4427  0.2093
 4605SOL    HW119651   3.318   7.439  10.192  0.8125  1.0281  1.1317
 4605SOL    HW219652   3.168   7.443  10.208  0.6665 -0.5329  0.3191
 4606SOL     OW19653   1.881   2.611   6.969 -0.3855 -0.2016 -0.2493
 4606SOL    HW119654   1.875   2.576   7.058 -1.7473  0.4717 -0.0490
 4606SOL    HW219655   1.905   2.703   6.982 -1.0999  0.0246 -0.5557
 4607SOL     OW19656   7.658   9.131  10.186 -0.0212  0.5643 -0.8480
 4607SOL    HW119657   7.725   9.073  10.148 -0.2416 -0.2064 -0.0860
 4607SOL    HW219658   7.708   9.203  10.224  0.5247 -0.6664  0.9037
 4608SOL     OW19659   2.086   9.858   0.735 -0.2393 -0.4119 -0.2411
 4608SOL    HW119660   2.032   9.885   0.661 -0.2568 -0.2503 -0.1708
 4608SOL    HW219661   2.150   9.928   0.744 -0.8795  0.0958  0.5495
 4609SOL     OW19662   1.821   4.564   2.962  0.0146  0.6857  0.0457
 4609SOL    HW119663   1.826   4.619   2.885 -1.8961  0.6966 -0.1129
 4609SOL    HW219664   1.736   4.585   3.002  0.5328 -0.0067  1.6206
 4610SOL     OW19665   3.194   9.964   6.044  0.1261 -0.4843  0.1972
 4610SOL    HW119666   3.143  10.042   6.065 -0.0280  0.3174 -2.7106
 4610SOL    HW219667   3.285   9.988   6.062 -0.0313 -0.0652  0.4522
 4611SOL     OW19668   8.557   0.156   2.695 -0.0277  0.4814  0.2075
 4611SOL    HW119669   8.502   0.147   2.617 -1.4321  0.3717  1.1754
 4611SOL    HW219670   8.603   0.239   2.682  1.0266 -0.2850 -1.4656
 4612SOL     OW19671  10.007   8.886   6.205 -0.5354 -0.0620 -0.1809
 4612SOL    HW119672   9.976   8.833   6.131 -1.6956 -1.3570  1.1806
 4612SOL    HW219673   9.927   8.916   6.248  0.0513 -1.4547  2.0144
 4613SOL     OW19674   5.899   1.871   5.802  0.4094 -0.2145 -0.6377
 4613SOL    HW119675   5.863   1.893   5.716  0.1642  2.0292 -0.0240
 4613SOL    HW219676   5.910   1.955   5.846 -3.2183 -1.2966  3.0413
 4614SOL     OW19677   1.715   5.794   7.463 -0.6193  0.0841  0.7783
 4614SOL    HW119678   1.661   5.791   7.383  0.0692 -1.9608  0.3291
 4614SOL    HW219679   1.660   5.840   7.527 -2.1941 -0.3646 -0.1748
 4615SOL     OW19680   1.338  10.301   5.236  0.7232 -0.6324 -0.2114
 4615SOL    HW119681   1.249  10.309   5.272 -0.0604  0.9994 -2.2875
 4615SOL    HW219682   1.377  10.388   5.249  2.7848 -1.8107  2.3270
 4616SOL     OW19683   4.666   6.752   0.499  0.5681 -0.1466 -0.9407
 4616SOL    HW119684   4.753   6.711   0.508  0.3955 -0.1037  1.7213
 4616SOL    HW219685   4.608   6.697   0.551 -0.1755  2.0063  0.6393
 4617SOL     OW19686   5.671   5.861   8.528  0.1420 -0.1588 -0.6081
 4617SOL    HW119687   5.683   5.818   8.612  1.2493 -2.0932 -1.6960
 4617SOL    HW219688   5.759   5.886   8.501 -0.2475  0.8385 -1.0182
 4618SOL     OW19689   0.676   8.736   0.020  0.3275 -0.0935 -0.2189
 4618SOL    HW119690   0.695   8.643   0.035  0.0202  0.0814  1.4464
 4618SOL    HW219691   0.628   8.763   0.098 -0.1826  1.3069 -0.9952
 4619SOL     OW19692   5.164   5.239  10.536  0.4872  0.2909  0.1777
 4619SOL    HW119693   5.221   5.316  10.548  1.0809 -0.1036 -0.0771
 4619SOL    HW219694   5.076   5.275  10.540  0.6391  0.6112  2.9996
 4620SOL     OW19695   4.297   9.831   3.032  0.0811  0.3542 -0.3277
 4620SOL    HW119696   4.349   9.751   3.033 -1.4868 -0.7816 -1.9445
 4620SOL    HW219697   4.336   9.884   2.962  0.5892  0.6244  0.1574
 4621SOL     OW19698   0.800   2.116   8.583  0.4210 -0.0127 -0.6239
 4621SOL    HW119699   0.747   2.079   8.512  1.2559 -1.4655 -0.5229
 4621SOL    HW219700   0.804   2.210   8.563 -0.4489 -0.1881 -1.7632
 4622SOL     OW19701   8.980   1.009   9.488  0.0917  0.1894  0.0117
 4622SOL    HW119702   9.014   1.089   9.526  0.3044  0.9291 -1.6490
 4622SOL    HW219703   8.972   1.028   9.395 -1.5507 -1.1204 -0.1764
 4623SOL     OW19704   5.300   9.826   9.704  0.3630  0.4978 -0.2537
 4623SOL    HW119705   5.338   9.845   9.790  1.3551 -0.7125 -0.3864
 4623SOL    HW219706   5.305   9.731   9.696  1.0890  0.6244 -1.9764
 4624SOL     OW19707   4.020   6.417   7.844 -0.4473  0.2544  0.5061
 4624SOL    HW119708   3.971   6.449   7.768  1.1243 -0.9069 -1.0826
 4624SOL    HW219709   3.965   6.348   7.881 -0.8483  0.2232 -0.1342
 4625SOL     OW19710  10.078   3.630   4.370 -0.0081  0.0956  0.1391
 4625SOL    HW119711  10.171   3.610   4.382 -0.0370 -0.4526 -0.4908
 4625SOL    HW219712  10.033   3.548   4.393 -0.2994  0.1924 -0.0831
 4626SOL     OW19713   2.522  10.448   9.067  0.0252 -0.3259  0.1906
 4626SOL    HW119714   2.511  10.356   9.089  0.1192 -0.2116  0.7314
 4626SOL    HW219715   2.436  10.487   9.079 -0.6817 -0.8114 -2.4922
 4627SOL     OW19716   5.102   8.575   1.962  0.1280  0.1620  0.1281
 4627SOL    HW119717   5.190   8.597   1.931  0.0935  0.0758 -0.0346
 4627SOL    HW219718   5.045   8.639   1.920  0.2782  1.1844  1.4239
 4628SOL     OW19719   7.881   8.354   5.046 -0.3918  0.1923  0.2502
 4628SOL    HW119720   7.810   8.369   4.984 -0.5250 -0.6269  0.1883
 4628SOL    HW219721   7.861   8.411   5.120 -1.8792 -1.0049  0.8295
 4629SOL     OW19722   9.775   3.766   2.452 -0.2778 -0.3102 -0.7585
 4629SOL    HW119723   9.733   3.752   2.367  1.2349 -0.6417 -1.4843
 4629SOL    HW219724   9.816   3.682   2.473 -1.2000 -0.4437  0.6567
 4630SOL     OW19725   6.119   6.144   7.534 -0.4238  0.0687  0.0202
 4630SOL    HW119726   6.173   6.064   7.534 -0.2551  0.1668 -1.2518
 4630SOL    HW219727   6.030   6.113   7.549 -0.3470 -0.3588 -0.3851
 4631SOL     OW19728   1.448   1.705   7.018  0.4226  0.5566  0.3207
 4631SOL    HW119729   1.469   1.790   6.980 -1.9149  0.9762 -0.2216
 4631SOL    HW219730   1.461   1.643   6.946 -0.4603  0.8548 -0.1145
 4632SOL     OW19731   0.468   3.277   0.888 -0.3810 -0.1883  0.0807
 4632SOL    HW119732   0.393   3.333   0.911  0.0212  0.5439 -0.3395
 4632SOL    HW219733   0.542   3.317   0.934 -0.1504 -0.5825  0.0496
 4633SOL     OW19734  10.342   4.645   4.941 -0.0724  1.1541  0.4113
 4633SOL    HW119735  10.388   4.565   4.913 -0.1793  1.8316 -1.8580
 4633SOL    HW219736  10.252   4.617   4.953 -0.2476  1.0153 -1.0223
 4634SOL     OW19737   4.032   6.834   8.464  0.1558  0.3276  0.0148
 4634SOL    HW119738   3.951   6.792   8.433  0.8251 -0.4276 -0.7574
 4634SOL    HW219739   4.001   6.908   8.517 -1.0485 -0.4210  0.4196
 4635SOL     OW19740   4.227   1.858   6.543  0.0512  0.6971  0.6689
 4635SOL    HW119741   4.171   1.935   6.548  1.1348  1.6478 -0.8431
 4635SOL    HW219742   4.187   1.803   6.477 -2.1081 -1.3395  3.4355
 4636SOL     OW19743   4.472   9.127   5.285 -0.1351  0.2325 -0.1365
 4636SOL    HW119744   4.435   9.132   5.197 -2.1537 -0.8866  0.5930
 4636SOL    HW219745   4.535   9.055   5.280 -0.7551 -0.2986 -0.5061
 4637SOL     OW19746   8.752   0.143  10.589 -0.4923 -0.5515  0.2060
 4637SOL    HW119747   8.819   0.125  10.524 -0.4074 -2.4534  0.7710
 4637SOL    HW219748   8.770   0.233  10.617  1.3201 -0.7430 -0.2246
 4638SOL     OW19749   9.213   5.900   1.760 -0.2464 -0.3153  0.3687
 4638SOL    HW119750   9.168   5.822   1.793 -0.0121 -0.7616 -0.3395
 4638SOL    HW219751   9.291   5.907   1.814  0.0433 -0.9331  0.0420
 4639SOL     OW19752   6.493   8.765   3.352  0.0333 -0.3490 -0.2645
 4639SOL    HW119753   6.491   8.825   3.426  2.4701  0.7195 -0.9629
 4639SOL    HW219754   6.532   8.684   3.387 -0.3400 -0.4278 -0.0262
 4640SOL     OW19755   1.042  10.611   4.837  0.3793  0.0204  0.2626
 4640SOL    HW119756   0.953  10.609   4.871 -0.5906  1.0555 -1.9783
 4640SOL    HW219757   1.050  10.532   4.784  0.4830  0.3373 -0.2054
 4641SOL     OW19758   5.841   0.940   9.689 -0.1222 -0.8469 -0.1024
 4641SOL    HW119759   5.802   1.026   9.672 -1.9918 -1.8279 -1.1497
 4641SOL    HW219760   5.769   0.879   9.676  1.6611 -2.7507 -1.5872
 4642SOL     OW19761   3.278   1.427   9.280  0.4864  0.2594  0.3403
 4642SOL    HW119762   3.339   1.480   9.330 -0.8706  1.8202  0.4549
 4642SOL    HW219763   3.329   1.395   9.206  1.9813 -0.3562  1.5777
 4643SOL     OW19764   3.613   1.600   7.541 -0.4315 -0.3360 -1.0372
 4643SOL    HW119765   3.621   1.533   7.473 -0.0726 -1.3293 -0.0430
 4643SOL    HW219766   3.530   1.579   7.585 -1.1767  0.9171 -1.7969
 4644SOL     OW19767   9.394   6.549   6.288 -0.1641 -0.7511 -0.0418
 4644SOL    HW119768   9.487   6.526   6.294  0.1178  0.2988 -0.2826
 4644SOL    HW219769   9.370   6.526   6.198  0.5825  1.4715 -0.8716
 4645SOL     OW19770   1.869   3.602   3.830  0.3879  0.2271  0.2330
 4645SOL    HW119771   1.821   3.577   3.750  0.8494 -0.5679  0.1963
 4645SOL    HW219772   1.875   3.521   3.880 -1.6267  1.0954  2.0273
 4646SOL     OW19773   8.312   3.167   8.484  0.4109  0.3110  0.1060
 4646SOL    HW119774   8.369   3.162   8.560 -0.2069  0.2537  0.5772
 4646SOL    HW219775   8.354   3.229   8.425  1.2534 -0.1820  0.1784
 4647SOL     OW19776   1.695   0.899   6.771  0.3911  0.2602  0.5854
 4647SOL    HW119777   1.748   0.978   6.761  0.0882  0.4155  0.1208
 4647SOL    HW219778   1.758   0.827   6.776  0.6389  0.4070 -0.2928
 4648SOL     OW19779   1.097   4.383   6.722 -0.0827  0.0454 -0.0224
 4648SOL    HW119780   1.097   4.298   6.766 -0.6522 -0.1077 -0.3059
 4648SOL    HW219781   1.128   4.364   6.633  0.6912  0.2893  0.1923
 4649SOL     OW19782   5.885   0.275   7.147  0.7082 -0.3178 -0.3406
 4649SOL    HW119783   5.831   0.327   7.207  3.3685  2.1174  0.1323
 4649SOL    HW219784   5.939   0.221   7.204 -0.3675 -1.9376 -0.7867
 4650SOL     OW19785   8.328   6.443   3.345 -0.1406  0.8164 -0.1510
 4650SOL    HW119786   8.373   6.527   3.338  1.6540 -0.1713 -1.1656
 4650SOL    HW219787   8.391   6.385   3.388 -0.4198 -0.6020 -1.5647
 4651SOL     OW19788   2.301   1.049   2.939  0.3356  0.3113  0.3720
 4651SOL    HW119789   2.309   1.026   3.032 -2.1466 -1.4907  0.2367
 4651SOL    HW219790   2.233   0.990   2.906  1.5669  0.4865 -2.7546
 4652SOL     OW19791   3.791   5.862  10.068 -0.1200  0.1887 -0.1004
 4652SOL    HW119792   3.701   5.893  10.059 -0.9383 -1.6133  1.3062
 4652SOL    HW219793   3.828   5.918  10.137 -0.4567  0.3334 -0.0326
 4653SOL     OW19794   4.574   0.808   7.958 -0.0418  0.4304 -0.6624
 4653SOL    HW119795   4.612   0.863   7.889 -0.9803  0.4597 -1.1814
 4653SOL    HW219796   4.495   0.771   7.917  1.1540 -2.2660 -0.7608
 4654SOL     OW19797   9.242   9.790   5.017  0.0055  0.1823  0.2962
 4654SOL    HW119798   9.269   9.707   5.057 -0.1383 -0.5681 -1.1006
 4654SOL    HW219799   9.203   9.839   5.089 -0.5486 -1.2487  1.0134
 4655SOL     OW19800   8.121   7.575   4.618  0.1409  0.4267 -0.4215
 4655SOL    HW119801   8.100   7.567   4.711  0.2327 -5.2561 -0.5051
 4655SOL    HW219802   8.214   7.552   4.613 -0.2098 -0.8664 -1.8970
 4656SOL     OW19803   3.980   9.127   1.602 -0.0788 -0.3704 -0.2894
 4656SOL    HW119804   3.979   9.165   1.514  0.5876 -0.6825 -0.4401
 4656SOL    HW219805   3.908   9.063   1.601 -1.2524  0.8947 -0.0103
 4657SOL     OW19806   2.707   7.669   6.395 -0.1524 -0.8712  0.5276
 4657SOL    HW119807   2.779   7.606   6.393  0.8528  0.1589  2.1864
 4657SOL    HW219808   2.677   7.673   6.304  1.9356 -1.2967 -0.2467
 4658SOL     OW19809   6.878   8.750   9.070 -0.0476 -0.0284  0.4077
 4658SOL    HW119810   6.861   8.787   8.983  1.1257  0.3710  0.3268
 4658SOL    HW219811   6.962   8.706   9.061 -1.3863 -2.7929  0.5067
 4659SOL     OW19812   0.186   0.286   8.403  0.5053  0.3417  0.4480
 4659SOL    HW119813   0.172   0.372   8.362 -0.2937 -0.7523 -1.7763
 4659SOL    HW219814   0.278   0.285   8.426  1.0146  1.0815 -1.3729
 4660SOL     OW19815   1.621   1.642   6.601  0.2918 -0.1170 -0.3614
 4660SOL    HW119816   1.540   1.648   6.652  0.1673 -0.7357 -0.4770
 4660SOL    HW219817   1.684   1.602   6.661  1.0503  1.9795  0.3404
 4661SOL     OW19818   8.079   4.759   1.664  0.2811 -0.3804 -0.6217
 4661SOL    HW119819   8.052   4.799   1.581 -0.4810 -2.3597 -1.4033
 4661SOL    HW219820   8.133   4.684   1.638 -0.9761 -1.7743  0.5931
 4662SOL     OW19821   1.145   6.028   5.530  0.3938  0.2732  0.9037
 4662SOL    HW119822   1.092   5.982   5.465  0.4263 -0.4839  1.4096
 4662SOL    HW219823   1.180   5.959   5.586  0.3324  0.9210  1.7604
 4663SOL     OW19824   6.998   6.198   9.265  0.1632  0.3425 -0.4435
 4663SOL    HW119825   6.983   6.162   9.353  0.3879  0.0555 -0.5222
 4663SOL    HW219826   6.922   6.254   9.249  0.3404  0.7580  0.1207
 4664SOL     OW19827   0.064   5.441  10.698 -0.3694 -0.4225  0.2171
 4664SOL    HW119828   0.066   5.457  10.604  2.0471 -1.7859 -0.0505
 4664SOL    HW219829   0.023   5.355  10.707 -1.4297  0.1053  0.5043
 4665SOL     OW19830   5.338  10.199   9.942 -0.2794  0.2436 -0.3721
 4665SOL    HW119831   5.297  10.285   9.949 -1.3266 -0.2668 -0.1659
 4665SOL    HW219832   5.337  10.179   9.848 -0.2043  0.3674 -0.3998
 4666SOL     OW19833  10.312  10.495   1.631  0.2427 -0.3197  0.7160
 4666SOL    HW119834  10.267  10.450   1.560 -1.1588 -0.7973  1.8700
 4666SOL    HW219835  10.398  10.517   1.594 -1.4119  2.1824 -2.1663
 4667SOL     OW19836   2.166   3.179  10.181  0.0819  0.4384 -0.0818
 4667SOL    HW119837   2.099   3.145  10.121 -0.5559  0.4530  0.6086
 4667SOL    HW219838   2.224   3.230  10.125 -1.0890  1.3102 -0.5432
 4668SOL     OW19839   0.697  10.430   8.511 -0.2011 -0.0871  0.0594
 4668SOL    HW119840   0.683  10.448   8.604 -0.4252  0.5249 -0.0854
 4668SOL    HW219841   0.618  10.384   8.482 -0.1085 -0.3236  0.1818
 4669SOL     OW19842   8.773  10.499   0.490  0.3479 -0.0523 -0.3252
 4669SOL    HW119843   8.800  10.571   0.547  1.2164 -1.1403  0.6752
 4669SOL    HW219844   8.848  10.483   0.434  0.2537 -0.3533 -0.3678
 4670SOL     OW19845   3.394   7.436   2.816 -0.0480 -0.0298  0.2367
 4670SOL    HW119846   3.386   7.346   2.848  2.0766  0.4824  2.5869
 4670SOL    HW219847   3.486   7.444   2.791 -0.5569  1.0907 -1.4311
 4671SOL     OW19848  10.153   4.255   4.702  0.1250  0.2750  0.2387
 4671SOL    HW119849  10.130   4.314   4.774 -0.0778  0.1811  0.2506
 4671SOL    HW219850  10.097   4.283   4.630  0.9242  0.9147 -0.1426
 4672SOL     OW19851   5.383   4.461   0.292 -0.1497 -0.1918 -0.4978
 4672SOL    HW119852   5.341   4.547   0.291 -0.0048 -0.1203 -1.0789
 4672SOL    HW219853   5.373   4.429   0.202  3.6099  1.1116 -1.5859
 4673SOL     OW19854   5.553   1.605   0.624 -0.0367  0.4365  0.0392
 4673SOL    HW119855   5.459   1.599   0.643  0.0397  1.4093  0.8368
 4673SOL    HW219856   5.570   1.699   0.614  1.1821  0.4723  1.8946
 4674SOL     OW19857   4.067   4.333   9.624 -0.2150 -0.5254 -0.0315
 4674SOL    HW119858   4.031   4.394   9.559  0.7928  0.0484 -0.0659
 4674SOL    HW219859   4.088   4.388   9.699 -1.3316 -1.1767  0.7878
 4675SOL     OW19860   0.493   8.349   5.801  0.5501  0.4665  0.1654
 4675SOL    HW119861   0.441   8.295   5.743 -1.2794 -0.8029  2.7908
 4675SOL    HW219862   0.429   8.405   5.846  1.6450  0.3603  1.9807
 4676SOL     OW19863   5.860   5.943   0.717 -0.2012 -0.3744  0.5783
 4676SOL    HW119864   5.819   5.999   0.782 -0.8722 -1.1286  0.8237
 4676SOL    HW219865   5.789   5.920   0.656 -0.7151 -3.2726  2.0835
 4677SOL     OW19866   9.703  10.478   0.551 -0.2556 -0.1946  0.4039
 4677SOL    HW119867   9.634  10.449   0.610 -1.5486  0.2265 -0.8503
 4677SOL    HW219868   9.737  10.397   0.512  0.0759 -0.4106  1.1244
 4678SOL     OW19869  10.443   0.971   8.362 -0.1941  0.2651  0.4777
 4678SOL    HW119870  10.449   0.977   8.457 -0.0533  3.0429  0.3657
 4678SOL    HW219871  10.357   0.932   8.346 -0.3618  0.0771  1.7259
 4679SOL     OW19872   4.185  10.266   0.182  0.3307  1.1737  0.0960
 4679SOL    HW119873   4.250  10.284   0.249  0.3245  1.7179 -0.0314
 4679SOL    HW219874   4.190  10.172   0.167 -0.5093  0.8406  1.7126
 4680SOL     OW19875   9.198  10.341   6.326 -0.3077  0.3611  0.4542
 4680SOL    HW119876   9.179  10.249   6.340  0.6588  0.0677 -0.0577
 4680SOL    HW219877   9.213  10.348   6.232  1.3564  0.6790  0.7126
 4681SOL     OW19878   8.719   1.463   7.120 -0.0966 -0.2520  0.0555
 4681SOL    HW119879   8.708   1.460   7.025  0.9158  0.0167 -0.0775
 4681SOL    HW219880   8.667   1.539   7.148 -1.1889 -0.8972 -0.1483
 4682SOL     OW19881   8.745   1.576   1.435  0.7825  0.7392  0.0819
 4682SOL    HW119882   8.825   1.558   1.386  2.4190 -1.7156  3.2545
 4682SOL    HW219883   8.678   1.524   1.391  2.2217 -1.5424  0.4070
 4683SOL     OW19884   0.528   9.006   4.957 -0.3199  0.4175  0.0294
 4683SOL    HW119885   0.553   9.073   5.020 -0.9876  0.3057  0.4274
 4683SOL    HW219886   0.601   8.944   4.958 -0.0815  0.6952  0.2874
 4684SOL     OW19887   1.687  10.625   2.405  0.4297 -0.1449  0.5917
 4684SOL    HW119888   1.670  10.585   2.491 -0.5039  1.7032  1.3170
 4684SOL    HW219889   1.601  10.628   2.363  0.1788  2.3049  1.1460
 4685SOL     OW19890   7.150   2.677   3.984 -0.5573  0.4870 -0.0895
 4685SOL    HW119891   7.225   2.737   3.983  0.5704 -0.8295 -1.8089
 4685SOL    HW219892   7.097   2.705   3.910 -1.8025  1.3834  1.0983
 4686SOL     OW19893   1.220  10.327   6.644  0.1779  0.1000 -0.0957
 4686SOL    HW119894   1.131  10.352   6.670 -0.2403 -1.5323  0.1976
 4686SOL    HW219895   1.269  10.409   6.645 -1.4214  1.1169 -0.7153
 4687SOL     OW19896   4.569   8.393   7.241 -0.3718  0.1283 -0.3213
 4687SOL    HW119897   4.662   8.372   7.231 -0.3712 -0.8717  1.4518
 4687SOL    HW219898   4.561   8.424   7.331 -1.5021  1.8014 -0.9427
 4688SOL     OW19899   6.174   4.455   2.337 -0.2080  0.2454 -0.6260
 4688SOL    HW119900   6.211   4.409   2.261 -0.3431  0.9939 -1.1584
 4688SOL    HW219901   6.114   4.519   2.299  0.3545  1.2036  0.0628
 4689SOL     OW19902   0.268   4.885  10.037 -0.2614 -0.9672 -0.7375
 4689SOL    HW119903   0.203   4.883   9.966 -0.7811 -1.9653 -0.2559
 4689SOL    HW219904   0.350   4.861   9.995  0.0002  1.1542 -1.5266
 4690SOL     OW19905   8.966   6.384   3.227 -0.4014 -0.2923  0.5704
 4690SOL    HW119906   8.874   6.402   3.248 -0.3503  0.8224 -0.0932
 4690SOL    HW219907   8.968   6.291   3.204 -1.2670 -0.4418  1.0502
 4691SOL     OW19908   3.024   3.221   0.559 -0.1023  0.0361  0.4450
 4691SOL    HW119909   2.937   3.218   0.520 -0.2528  0.4054  0.7590
 4691SOL    HW219910   3.036   3.134   0.597 -0.4092  0.0521  0.5762
 4692SOL     OW19911   6.427   7.638   0.579  0.0798 -0.3352 -0.2189
 4692SOL    HW119912   6.445   7.703   0.511  0.3867 -0.4991 -0.2992
 4692SOL    HW219913   6.442   7.553   0.535 -2.1659 -0.5543 -0.6726
 4693SOL     OW19914   9.501   8.787   5.855 -0.4393  0.2494 -0.0225
 4693SOL    HW119915   9.420   8.837   5.864 -1.9754 -1.9442 -0.6553
 4693SOL    HW219916   9.499   8.725   5.927  1.2092  0.7746  0.5170
 4694SOL     OW19917   3.560   0.614   2.060 -0.1410 -0.5336 -0.4398
 4694SOL    HW119918   3.578   0.702   2.027 -0.8150 -0.3811 -0.4154
 4694SOL    HW219919   3.537   0.627   2.152 -2.1516 -0.4890 -0.9018
 4695SOL     OW19920   0.036   5.491  10.427 -0.3360  0.5513 -0.5439
 4695SOL    HW119921  -0.058   5.501  10.411 -0.5635 -0.6685 -0.1062
 4695SOL    HW219922   0.076   5.568  10.387 -1.4666  0.7899 -1.2514
 4696SOL     OW19923   3.519   1.920   9.545 -0.2417  0.0315  0.3633
 4696SOL    HW119924   3.466   1.939   9.468 -0.5699 -0.6990  0.3992
 4696SOL    HW219925   3.578   1.850   9.516  0.9398  1.0552  0.2256
 4697SOL     OW19926   5.674   4.527   0.013  0.4683  0.1464  0.3384
 4697SOL    HW119927   5.598   4.546  -0.042  0.1753 -1.6914  0.0550
 4697SOL    HW219928   5.744   4.506  -0.048  1.2883  1.8945  0.5973
 4698SOL     OW19929   6.135   4.126   1.031  0.2265  0.1848 -0.8118
 4698SOL    HW119930   6.131   4.031   1.018  2.1133 -0.7102  3.3818
 4698SOL    HW219931   6.093   4.141   1.116  1.2522  2.8741 -0.6703
 4699SOL     OW19932   5.839   4.383  10.559 -0.3884  0.3554 -0.1034
 4699SOL    HW119933   5.873   4.404  10.472 -0.4056  2.1709  0.2845
 4699SOL    HW219934   5.916   4.374  10.614 -0.3736 -0.9074 -0.3162
 4700SOL     OW19935  10.061   5.870   1.938 -0.2060  0.0022  0.0101
 4700SOL    HW119936   9.985   5.868   1.997  0.2823  0.6319  0.6748
 4700SOL    HW219937  10.106   5.787   1.953  0.2377  0.4044  0.9684
 4701SOL     OW19938   2.017   7.248   8.841 -0.2931 -0.1675  0.2645
 4701SOL    HW119939   2.055   7.160   8.843 -0.3166 -0.2234 -1.1063
 4701SOL    HW219940   2.061   7.294   8.913 -0.0130 -1.1765  0.7627
 4702SOL     OW19941   2.765   7.446   2.338 -0.4090  0.0310  0.4843
 4702SOL    HW119942   2.798   7.532   2.362 -1.0647  0.0531  1.3584
 4702SOL    HW219943   2.703   7.463   2.267  0.6564  0.0911 -0.4624
 4703SOL     OW19944   1.522   6.121   8.298 -0.1404 -0.5640 -0.1736
 4703SOL    HW119945   1.514   6.200   8.243 -1.4520 -0.7778 -0.3169
 4703SOL    HW219946   1.605   6.082   8.271  0.6911  0.9191  0.1138
 4704SOL     OW19947   6.434   5.929   2.211 -0.0300  0.0537  0.1250
 4704SOL    HW119948   6.518   5.916   2.255  0.9106  3.0798 -0.4835
 4704SOL    HW219949   6.451   5.903   2.120 -0.5267 -1.6288  0.4880
 4705SOL     OW19950   8.470   9.929   8.792 -0.4038  0.5018  0.0794
 4705SOL    HW119951   8.447   9.882   8.712 -0.3093  0.4036  0.1089
 4705SOL    HW219952   8.404   9.902   8.856  0.0310 -0.1061  0.2837
 4706SOL     OW19953   0.889   1.362   1.519 -0.4547  0.4457  0.4091
 4706SOL    HW119954   0.847   1.448   1.511 -1.0098 -0.0028 -2.8207
 4706SOL    HW219955   0.982   1.380   1.504 -0.5254  0.5335  0.0645
 4707SOL     OW19956   7.846   1.257   0.063  0.5169 -0.1413  0.2853
 4707SOL    HW119957   7.929   1.287   0.101  1.0950  0.1205 -1.0890
 4707SOL    HW219958   7.867   1.241  -0.029 -0.8857 -0.4132 -0.0111
 4708SOL     OW19959   1.918  10.649   1.368  0.1276  0.4519  0.0378
 4708SOL    HW119960   1.870  10.624   1.447  2.0606  0.1295  1.1606
 4708SOL    HW219961   1.977  10.718   1.396  0.2155  0.9755 -1.3473
 4709SOL     OW19962   6.066   6.293  10.374 -0.1369 -0.1945  0.1709
 4709SOL    HW119963   6.112   6.376  10.363 -0.7423 -0.0259 -1.3133
 4709SOL    HW219964   6.091   6.263  10.461  1.7737  0.4942 -0.1026
 4710SOL     OW19965  10.371   0.494  10.186  0.3930  0.0673  0.5687
 4710SOL    HW119966  10.339   0.534  10.105  0.4110 -0.9692  0.0305
 4710SOL    HW219967  10.464   0.517  10.188  0.7658 -1.1885 -0.5437
 4711SOL     OW19968   4.701   2.642  10.701  0.2269 -0.0542  0.5095
 4711SOL    HW119969   4.675   2.555  10.671  0.3908  0.0151  0.1646
 4711SOL    HW219970   4.791   2.631  10.731  0.6539  0.2539 -0.6445
 4712SOL     OW19971   7.657   8.373   9.075  0.1656  0.0720 -0.1382
 4712SOL    HW119972   7.666   8.468   9.085  1.4053 -0.1169  0.7971
 4712SOL    HW219973   7.741   8.338   9.104 -0.6461 -1.3792  0.5879
 4713SOL     OW19974   9.310   7.818   0.148 -0.2110  0.0109 -0.1250
 4713SOL    HW119975   9.235   7.821   0.207  0.6174  0.4721  0.9312
 4713SOL    HW219976   9.386   7.818   0.206  0.6105 -0.3129 -1.1810
 4714SOL     OW19977   2.735  10.050   4.171  0.3141 -0.6478  0.2542
 4714SOL    HW119978   2.795  10.009   4.109 -0.5261 -0.4685 -0.6916
 4714SOL    HW219979   2.761  10.142   4.173 -0.2588 -0.4520 -0.5866
 4715SOL     OW19980  10.374   2.536   6.031  0.5193  0.1000  0.1143
 4715SOL    HW119981  10.363   2.536   5.936 -1.0370 -0.5865  0.2635
 4715SOL    HW219982  10.429   2.460   6.049  2.5637  1.3853 -0.3574
 4716SOL     OW19983   1.700   3.389   7.623 -0.3570  0.5193 -0.9013
 4716SOL    HW119984   1.694   3.345   7.538  0.3099  1.3243 -1.3849
 4716SOL    HW219985   1.642   3.339   7.680  1.6913 -2.1789 -0.9164
 4717SOL     OW19986   0.561   0.975   2.834 -0.1760  0.5271  0.4248
 4717SOL    HW119987   0.612   0.903   2.796 -2.1811 -0.6262 -0.2116
 4717SOL    HW219988   0.475   0.937   2.851 -1.2963  2.7808  0.0931
 4718SOL     OW19989   5.147   2.749   8.390 -0.1413 -0.2858 -0.4246
 4718SOL    HW119990   5.145   2.711   8.478 -0.5411  0.4279 -0.1183
 4718SOL    HW219991   5.186   2.681   8.336 -0.2488 -0.8847  0.2321
 4719SOL     OW19992   3.434   4.776   1.529 -0.1361  0.1530 -0.0970
 4719SOL    HW119993   3.432   4.844   1.596 -0.6335 -1.1794  1.3008
 4719SOL    HW219994   3.482   4.704   1.569  1.0186 -0.0928 -1.8102
 4720SOL     OW19995   6.696   4.138   2.896  0.6983 -0.2118  0.2535
 4720SOL    HW119996   6.650   4.071   2.946  2.0315 -0.9422  0.5460
 4720SOL    HW219997   6.630   4.174   2.837 -0.4209 -0.6908  1.1791
 4721SOL     OW19998   6.098   6.882   3.679  0.4623  0.3937  0.2542
 4721SOL    HW119999   6.156   6.812   3.709 -0.2055 -1.2794 -2.0524
 4721SOL    HW220000   6.126   6.899   3.588 -0.0761  2.4245  0.4159
 4722SOL     OW20001   4.445   7.076  10.603 -0.1617 -0.3671  0.6748
 4722SOL    HW120002   4.535   7.048  10.587 -0.0309  0.2790  0.2372
 4722SOL    HW220003   4.454   7.164  10.640 -0.6428  0.1930 -0.4939
 4723SOL     OW20004   4.074   8.447   0.714  0.3788  0.3164 -0.0994
 4723SOL    HW120005   3.997   8.448   0.771 -0.4164  0.2630 -1.1394
 4723SOL    HW220006   4.040   8.420   0.629  1.7292 -0.7223 -0.3385
 4724SOL     OW20007   3.566   4.524   6.084  0.0501  0.0353 -0.0676
 4724SOL    HW120008   3.511   4.571   6.021 -0.6659  1.2277  1.3578
 4724SOL    HW220009   3.581   4.438   6.045 -0.3394  0.7458 -1.8413
 4725SOL     OW20010   3.930   0.545   6.598 -0.7929 -0.4065 -0.1641
 4725SOL    HW120011   3.882   0.463   6.611 -1.3582 -0.4585 -2.2352
 4725SOL    HW220012   3.864   0.607   6.566 -0.1113  0.5002  0.1410
 4726SOL     OW20013   3.095   1.535   6.598  0.2474 -0.1316  0.2702
 4726SOL    HW120014   3.178   1.511   6.640  1.6100  1.1970 -1.4778
 4726SOL    HW220015   3.058   1.602   6.656  0.4194 -0.6559  1.0095
 4727SOL     OW20016   9.605   0.888   7.458 -0.0208  0.3138 -0.2972
 4727SOL    HW120017   9.618   0.874   7.551 -3.1542  1.4154  0.4259
 4727SOL    HW220018   9.639   0.976   7.441  0.8455 -0.0130 -0.3002
 4728SOL     OW20019   1.897   3.521   5.013  0.3693  0.0663 -0.3471
 4728SOL    HW120020   1.878   3.549   5.102 -0.4597  0.5460 -0.6683
 4728SOL    HW220021   1.993   3.524   5.007  0.4249  0.1759  0.4688
 4729SOL     OW20022   5.681   3.739   5.748  0.6347  0.3075  0.4346
 4729SOL    HW120023   5.714   3.792   5.820  0.5390  1.9072 -0.6326
 4729SOL    HW220024   5.757   3.725   5.691  1.3132 -3.0296  1.9340
 4730SOL     OW20025   0.146   4.365   3.588  0.2702  0.2415  0.2384
 4730SOL    HW120026   0.110   4.287   3.631 -1.0658 -0.3169 -1.7718
 4730SOL    HW220027   0.188   4.414   3.659 -1.2122 -0.9626  2.0371
 4731SOL     OW20028   6.014  10.348   4.128 -0.1434 -0.1972 -0.0236
 4731SOL    HW120029   6.097  10.348   4.176 -0.2555 -0.7422  0.1793
 4731SOL    HW220030   6.037  10.375   4.039 -0.0012  1.3140  0.4375
 4732SOL     OW20031   9.087   6.383   8.449  0.0070  0.7717 -0.7987
 4732SOL    HW120032   9.180   6.393   8.430 -0.5552  3.9549 -2.4539
 4732SOL    HW220033   9.072   6.288   8.446  3.0794  0.1804 -0.7788
 4733SOL     OW20034   9.905   9.870   9.893  0.5748  0.1806 -0.2671
 4733SOL    HW120035   9.978   9.900   9.948  2.2367 -1.7353 -1.2957
 4733SOL    HW220036   9.828   9.883   9.947  2.0515 -1.1414  2.3834
 4734SOL     OW20037   2.618   2.722   6.961 -0.8145 -0.4290 -0.0006
 4734SOL    HW120038   2.586   2.687   7.044 -0.9009  0.4246  0.3325
 4734SOL    HW220039   2.669   2.651   6.923  1.2735 -0.0536  1.9267
 4735SOL     OW20040   0.582   9.891   5.284 -0.0271 -0.3200  0.3298
 4735SOL    HW120041   0.618   9.803   5.294 -0.5911 -0.5868  0.1018
 4735SOL    HW220042   0.634   9.931   5.215 -1.2623 -1.3244 -1.2550
 4736SOL     OW20043   1.073   5.668   9.230  0.7747 -0.0592  0.1203
 4736SOL    HW120044   1.078   5.573   9.234 -0.7069 -0.1398  0.4835
 4736SOL    HW220045   1.058   5.688   9.138 -0.8576 -0.3138  0.3044
 4737SOL     OW20046   0.824   4.513   2.412 -0.6105  0.3683  0.1390
 4737SOL    HW120047   0.797   4.480   2.326  0.1518  0.1556 -0.0257
 4737SOL    HW220048   0.743   4.546   2.451 -1.2635 -0.9391 -0.0288
 4738SOL     OW20049   4.124   3.742   6.235  0.3437  0.4227 -0.0680
 4738SOL    HW120050   4.181   3.721   6.161 -1.1009  1.8269 -1.6584
 4738SOL    HW220051   4.127   3.837   6.242 -1.4657  0.5000  0.0574
 4739SOL     OW20052  10.348   1.591   6.563  0.1113 -0.2993  0.2801
 4739SOL    HW120053  10.253   1.599   6.555  0.1665  2.3396  1.1125
 4739SOL    HW220054  10.382   1.614   6.477  0.0200 -2.4345 -0.3719
 4740SOL     OW20055   8.791   7.498   9.411  0.7546  0.0389  0.4141
 4740SOL    HW120056   8.806   7.579   9.363 -0.6898 -0.8701 -1.6677
 4740SOL    HW220057   8.867   7.443   9.391  1.1289  0.4000  0.8265
 4741SOL     OW20058   1.935   0.851   8.044  0.2135  0.1391 -0.5805
 4741SOL    HW120059   1.905   0.862   8.134 -1.1235  0.0462 -0.9844
 4741SOL    HW220060   1.968   0.761   8.040  1.3465  0.5182  0.0924
 4742SOL     OW20061   9.832   2.472   6.807  0.1489  0.0251  0.4558
 4742SOL    HW120062   9.831   2.555   6.760 -0.8232 -0.1146  0.2033
 4742SOL    HW220063   9.888   2.415   6.755 -0.3682  0.0826 -0.1787
 4743SOL     OW20064   0.414  10.630   4.579 -0.6838  0.3586  0.3696
 4743SOL    HW120065   0.366  10.549   4.560  1.3688 -1.2662  1.6417
 4743SOL    HW220066   0.483  10.633   4.513 -1.2602  1.5997 -0.2095
 4744SOL     OW20067   0.293   4.095  10.232  0.3606  0.7206  0.2168
 4744SOL    HW120068   0.351   4.035  10.278  0.9135 -0.0116 -1.3606
 4744SOL    HW220069   0.352   4.161  10.194  0.0428  0.7000 -0.3281
 4745SOL     OW20070   6.501   1.922   6.769 -0.4788 -0.4303 -0.2597
 4745SOL    HW120071   6.449   1.910   6.848 -0.3364 -0.8652 -0.2297
 4745SOL    HW220072   6.584   1.958   6.800 -1.0189  0.9643 -0.3810
 4746SOL     OW20073   8.234   1.370   9.089 -0.1743 -0.1273  0.4440
 4746SOL    HW120074   8.186   1.453   9.083  1.6756  1.2353  2.7421
 4746SOL    HW220075   8.182   1.316   9.147 -0.4370  0.1500  0.4708
 4747SOL     OW20076   0.295   7.243   2.604 -0.2212  0.2917 -0.0182
 4747SOL    HW120077   0.385   7.213   2.590 -0.3511 -0.3882  0.5390
 4747SOL    HW220078   0.242   7.184   2.552 -0.4015  0.2318  0.2331
 4748SOL     OW20079   0.013   9.039   5.391  0.1656 -1.0621  0.2489
 4748SOL    HW120080  -0.035   9.085   5.461  1.6557  0.7223  0.1903
 4748SOL    HW220081  -0.048   9.037   5.317  0.7266  3.2248 -0.6009
 4749SOL     OW20082   8.171   7.282   7.710 -0.4985  0.0854 -0.2714
 4749SOL    HW120083   8.185   7.328   7.792 -0.1923  1.1917 -0.9193
 4749SOL    HW220084   8.156   7.191   7.735 -0.0739  0.3456  0.9772
 4750SOL     OW20085   5.391   8.387   7.911 -0.0945 -0.8802 -0.0118
 4750SOL    HW120086   5.326   8.447   7.949 -1.8222 -1.5949 -1.6956
 4750SOL    HW220087   5.476   8.424   7.937 -1.1357  0.0112  2.3666
 4751SOL     OW20088   0.220   4.000   8.948 -0.0446  0.0108 -0.0257
 4751SOL    HW120089   0.141   3.969   8.992 -0.2040  0.2273 -0.1585
 4751SOL    HW220090   0.201   3.989   8.855  0.8238 -1.7838 -0.0323
 4752SOL     OW20091   1.209   2.193   3.019 -0.4203 -0.0967 -0.1034
 4752SOL    HW120092   1.148   2.124   3.044  0.0349 -0.6671 -0.5394
 4752SOL    HW220093   1.155   2.259   2.976 -1.0305  0.3340  1.2601
 4753SOL     OW20094  10.009   8.499   7.173 -0.5769 -0.0083  0.0392
 4753SOL    HW120095   9.935   8.446   7.202 -0.4449 -0.0011  0.4038
 4753SOL    HW220096  10.083   8.438   7.173 -0.3821  0.2126  0.6591
 4754SOL     OW20097   6.767   2.630   4.447 -0.0671  0.0139  0.0364
 4754SOL    HW120098   6.767   2.554   4.505  1.2140 -0.1992 -0.1982
 4754SOL    HW220099   6.837   2.612   4.384  0.2913  1.4027  0.0006
 4755SOL     OW20100   3.365   6.639   8.143  0.0428  0.3700  0.2894
 4755SOL    HW120101   3.289   6.605   8.097  1.6468 -2.6312 -0.3657
 4755SOL    HW220102   3.418   6.681   8.074 -0.7228  2.0018  0.6574
 4756SOL     OW20103   8.040   4.136   7.503 -0.8945  0.1109 -0.4220
 4756SOL    HW120104   7.991   4.101   7.578 -0.0809 -0.0788  0.0262
 4756SOL    HW220105   8.131   4.138   7.532 -0.8096  1.8391 -0.7422
 4757SOL     OW20106   2.865   3.868   1.394  0.1599 -0.3027  0.2193
 4757SOL    HW120107   2.893   3.800   1.332 -1.8479 -0.4648 -0.5631
 4757SOL    HW220108   2.904   3.949   1.359 -0.5813 -0.4610 -1.0313
 4758SOL     OW20109  10.525   5.485  10.135 -0.1165 -0.6164 -0.3745
 4758SOL    HW120110  10.595   5.423  10.117 -0.9403 -1.4018 -0.9742
 4758SOL    HW220111  10.568   5.559  10.177  1.1059 -0.9511 -1.0020
 4759SOL     OW20112   6.417   9.557   1.990 -0.0497 -0.1845  0.5308
 4759SOL    HW120113   6.498   9.598   1.960  0.4430  0.1802  2.2361
 4759SOL    HW220114   6.347   9.604   1.945  0.5990  1.2265  0.9506
 4760SOL     OW20115   3.488   4.111   9.130  0.6772  0.2489  0.2125
 4760SOL    HW120116   3.527   4.114   9.217 -1.2793 -1.2362  1.2151
 4760SOL    HW220117   3.404   4.156   9.139 -0.3487 -1.4488 -0.4056
 4761SOL     OW20118   6.619   4.091   7.943  0.1193  0.0982 -0.1608
 4761SOL    HW120119   6.627   4.026   7.873  1.2732  0.9079 -0.8140
 4761SOL    HW220120   6.549   4.149   7.914  0.6915  0.5162 -0.7264
 4762SOL     OW20121   4.175   7.142   9.249  0.0291 -0.1788 -0.5276
 4762SOL    HW120122   4.119   7.147   9.326  1.9481 -1.4453  1.0380
 4762SOL    HW220123   4.173   7.230   9.212  1.4194  1.3758  2.7360
 4763SOL     OW20124  10.227   4.409   3.553  0.1955 -0.2311  0.2355
 4763SOL    HW120125  10.279   4.406   3.473  1.0034 -3.5379  0.7490
 4763SOL    HW220126  10.139   4.382   3.526  0.0442  0.2820  0.2075
 4764SOL     OW20127   5.928   9.718   2.434 -0.0207 -0.3989  0.0455
 4764SOL    HW120128   5.960   9.658   2.500 -0.3043 -0.9217 -0.2882
 4764SOL    HW220129   5.834   9.702   2.429 -0.0539 -0.1381 -0.2567
 4765SOL     OW20130   2.337   1.355   5.199  0.2294  0.0184  0.4792
 4765SOL    HW120131   2.378   1.281   5.244  0.9659 -0.2689 -0.6318
 4765SOL    HW220132   2.281   1.395   5.266 -0.1379 -1.4931  1.1358
 4766SOL     OW20133   9.453   9.724   9.189  0.7486 -0.0660  0.2129
 4766SOL    HW120134   9.475   9.682   9.272  1.5718  1.7308  0.9567
 4766SOL    HW220135   9.416   9.654   9.135 -1.1855 -0.9815  2.5776
 4767SOL     OW20136   4.455   2.560   7.402 -0.2408 -0.2688  0.2983
 4767SOL    HW120137   4.460   2.505   7.480 -2.0313  0.2718  0.8462
 4767SOL    HW220138   4.396   2.514   7.344  1.5900 -0.9961 -1.0894
 4768SOL     OW20139   7.676   3.989   8.362  0.2056  0.0256  1.1088
 4768SOL    HW120140   7.768   3.985   8.338 -0.0443 -0.9015  0.2051
 4768SOL    HW220141   7.663   4.077   8.396  1.0624  0.7008 -0.2582
 4769SOL     OW20142   1.215   1.982   8.628 -0.4509 -0.1534  0.5449
 4769SOL    HW120143   1.195   1.938   8.711 -0.4720  0.6249  0.9657
 4769SOL    HW220144   1.304   2.015   8.640 -0.4476 -0.0533  0.2461
 4770SOL     OW20145   0.222   7.994  10.562 -0.6120  0.3656  0.3365
 4770SOL    HW120146   0.217   8.089  10.559  0.5485  0.4598  0.8501
 4770SOL    HW220147   0.227   7.973  10.656  1.0711 -0.0597  0.1790
 4771SOL     OW20148  10.691   6.263   6.049 -0.5019 -0.4090  0.5193
 4771SOL    HW120149  10.699   6.312   6.131  1.1994 -1.6451  1.1644
 4771SOL    HW220150  10.781   6.237   6.028 -0.9955 -0.7289 -1.3752
 4772SOL     OW20151   3.330   7.687   1.650  0.7025 -0.4642 -0.2612
 4772SOL    HW120152   3.304   7.611   1.598  0.9448 -1.6855  1.3238
 4772SOL    HW220153   3.403   7.656   1.704  1.7188  1.2967 -0.5454
 4773SOL     OW20154   6.439   5.273   8.730  0.8403  0.1152  0.9704
 4773SOL    HW120155   6.374   5.254   8.663  0.4887  0.1917  1.2912
 4773SOL    HW220156   6.518   5.296   8.680  0.6262  0.0167  0.5835
 4774SOL     OW20157   1.267   1.185   3.208 -0.0903  0.5854 -0.0219
 4774SOL    HW120158   1.203   1.122   3.174 -0.0268 -0.0403  0.9762
 4774SOL    HW220159   1.333   1.191   3.139 -0.3317 -0.1082 -0.3224
 4775SOL     OW20160   7.314   3.365   4.155 -0.1270 -0.2862  0.5080
 4775SOL    HW120161   7.259   3.291   4.182  1.5119 -1.3570  1.1117
 4775SOL    HW220162   7.285   3.438   4.208 -1.5481 -0.5689  0.1661
 4776SOL     OW20163   1.107  10.574  10.045 -0.1035  0.4968 -0.3720
 4776SOL    HW120164   1.031  10.632  10.036 -1.8125 -1.7647 -1.6020
 4776SOL    HW220165   1.123  10.570  10.139 -0.1613  2.6158 -0.2264
 4777SOL     OW20166   8.755   0.289   7.741  0.1281 -0.5133 -0.0611
 4777SOL    HW120167   8.779   0.227   7.810  2.0441  1.7828  1.5126
 4777SOL    HW220168   8.836   0.302   7.692 -0.8652 -1.0415 -1.9506
 4778SOL     OW20169   9.173   3.540   7.481 -0.2253  0.2515 -0.6659
 4778SOL    HW120170   9.136   3.580   7.403 -1.4784  0.8595  0.2205
 4778SOL    HW220171   9.116   3.568   7.552  0.5367 -0.7903  0.3880
 4779SOL     OW20172   8.907   8.979   2.420  0.6082  0.2416  0.1237
 4779SOL    HW120173   8.887   9.057   2.470 -1.7023 -1.6702  2.4631
 4779SOL    HW220174   8.964   8.927   2.477  1.0025 -0.3664 -0.7953
 4780SOL     OW20175   8.623   7.123   8.564  0.4124  0.4760  0.4017
 4780SOL    HW120176   8.690   7.061   8.593  1.6647  0.8537 -1.4617
 4780SOL    HW220177   8.545   7.070   8.551 -0.0074  0.1802  3.5173
 4781SOL     OW20178   6.865   8.828   5.966  0.2213  0.0405  0.1089
 4781SOL    HW120179   6.928   8.889   6.003  0.5044 -0.2404  0.0876
 4781SOL    HW220180   6.821   8.878   5.896 -1.3882  1.0838  1.7686
 4782SOL     OW20181   9.830   8.055   2.948 -0.1587 -0.0254 -0.7811
 4782SOL    HW120182   9.773   8.100   3.011  0.4429  0.8077 -0.8186
 4782SOL    HW220183   9.793   7.967   2.941 -0.3219 -0.0963  0.6379
 4783SOL     OW20184   0.313  10.255  10.183 -0.3646  0.0445 -0.2341
 4783SOL    HW120185   0.222  10.245  10.211 -0.1962 -2.8229 -0.4708
 4783SOL    HW220186   0.356  10.297  10.257 -1.5670  0.0847  0.4705
 4784SOL     OW20187   0.772   3.450   1.195  0.4886 -0.2001  0.5826
 4784SOL    HW120188   0.731   3.364   1.197  2.4045 -1.1359  1.5985
 4784SOL    HW220189   0.721   3.503   1.257 -0.4194 -0.6998  0.2812
 4785SOL     OW20190   0.521   3.156   5.316  0.5180  0.2469 -0.1536
 4785SOL    HW120191   0.457   3.222   5.343  2.0075  1.5777  0.3085
 4785SOL    HW220192   0.488   3.074   5.352 -0.7731  0.9400  0.3032
 4786SOL     OW20193   4.025   1.266   5.408 -0.6597 -0.5952  0.6526
 4786SOL    HW120194   4.013   1.348   5.360 -2.6475 -1.3673 -0.2676
 4786SOL    HW220195   4.092   1.287   5.474 -0.4325  1.4821 -0.1464
 4787SOL     OW20196   2.642   8.814   3.499 -0.0324  0.4284  0.5571
 4787SOL    HW120197   2.614   8.899   3.533 -2.5297  0.2403 -0.7669
 4787SOL    HW220198   2.637   8.824   3.404  2.0401 -0.4865  0.3161
 4788SOL     OW20199   3.289   4.667   1.317  0.3115  0.1237 -0.4635
 4788SOL    HW120200   3.313   4.710   1.399 -0.2158  1.7876 -1.1447
 4788SOL    HW220201   3.372   4.652   1.272  0.6085 -0.8344  0.3588
 4789SOL     OW20202  10.650   7.096   0.570  0.0720  0.2401  0.2619
 4789SOL    HW120203  10.612   7.166   0.623 -1.7919 -0.6299  0.1540
 4789SOL    HW220204  10.656   7.021   0.630  0.7655  0.0835  0.0116
 4790SOL     OW20205   7.607   3.580   7.685 -0.1839  0.2590  0.0131
 4790SOL    HW120206   7.536   3.571   7.622  0.1786 -0.7858 -0.2784
 4790SOL    HW220207   7.570   3.547   7.767 -0.4140  0.8922  0.1707
 4791SOL     OW20208   6.610   7.710   2.470 -0.0868 -0.0870  0.7422
 4791SOL    HW120209   6.539   7.669   2.519 -1.4386  0.0101 -1.0528
 4791SOL    HW220210   6.570   7.788   2.431  0.4417 -0.9823 -1.7829
 4792SOL     OW20211   2.557   5.443   5.703  0.3741  0.0933 -0.1445
 4792SOL    HW120212   2.539   5.373   5.766  0.3082  0.1723 -0.0758
 4792SOL    HW220213   2.528   5.523   5.747  0.8175  0.2141 -0.0639
 4793SOL     OW20214   4.636   7.106   9.497 -0.7210  0.4233 -0.6605
 4793SOL    HW120215   4.721   7.120   9.539  0.4758 -1.1282 -2.4290
 4793SOL    HW220216   4.618   7.013   9.510 -1.3024  0.3583 -1.8054
 4794SOL     OW20217   3.419   6.894  10.439  0.4294 -0.3547  0.1196
 4794SOL    HW120218   3.510   6.912  10.415  1.0512 -1.5466  1.4137
 4794SOL    HW220219   3.369   6.913  10.360  1.9429 -0.8001 -0.9908
 4795SOL     OW20220   6.596   2.056   0.841  0.4118 -0.1392 -0.5316
 4795SOL    HW120221   6.526   2.002   0.804  0.6099 -1.0033  0.3134
 4795SOL    HW220222   6.653   2.075   0.766  1.0707 -2.2753 -0.6260
 4796SOL     OW20223   5.895   1.190   7.099  0.5286  0.2196 -0.4453
 4796SOL    HW120224   5.860   1.217   7.014  2.6988 -0.6679 -1.7082
 4796SOL    HW220225   5.987   1.217   7.096  0.9114 -0.7937  1.1746
 4797SOL     OW20226   3.338   1.922   2.959 -0.4037  0.0667  0.5139
 4797SOL    HW120227   3.334   2.010   2.920 -0.9580 -1.2240 -2.7063
 4797SOL    HW220228   3.360   1.937   3.050 -0.9445  3.5738  0.2118
 4798SOL     OW20229   7.710   8.443   7.686  0.3470 -0.4256 -0.1563
 4798SOL    HW120230   7.618   8.456   7.712  0.3165 -0.0337 -0.4624
 4798SOL    HW220231   7.731   8.518   7.632  0.6537 -0.8435 -0.6290
 4799SOL     OW20232  10.451   3.274   0.750  0.5813  0.1167 -0.0963
 4799SOL    HW120233  10.468   3.180   0.747  0.7492  0.1503 -0.2817
 4799SOL    HW220234  10.537   3.312   0.770  0.3579  0.1833  0.7770
 4800SOL     OW20235   5.840   3.185   9.231  0.0552 -0.2746 -0.7136
 4800SOL    HW120236   5.808   3.178   9.321  0.1653 -0.2696 -0.6734
 4800SOL    HW220237   5.792   3.259   9.195  0.1896 -0.1240 -0.5833
 4801SOL     OW20238   8.273   3.435   7.623  0.1333  0.9144 -0.0267
 4801SOL    HW120239   8.365   3.433   7.647 -0.2508 -0.1286  1.5441
 4801SOL    HW220240   8.262   3.364   7.561  0.0684 -0.2273  1.2396
 4802SOL     OW20241   0.638   4.074   1.353 -0.1273  0.0311 -0.1651
 4802SOL    HW120242   0.678   4.099   1.436  0.0348  1.6459 -0.6969
 4802SOL    HW220243   0.693   4.116   1.286 -1.8142  1.0582 -0.9724
 4803SOL     OW20244   1.329   5.587   2.318 -0.0804  0.1951  0.2930
 4803SOL    HW120245   1.242   5.553   2.342  0.2565 -1.1685 -0.3000
 4803SOL    HW220246   1.339   5.562   2.226  0.4405  1.4533 -0.0103
 4804SOL     OW20247   6.049   0.062   8.413  0.6521 -0.1419  1.0507
 4804SOL    HW120248   6.119   0.089   8.471  2.8953 -3.4843  0.2041
 4804SOL    HW220249   6.067   0.109   8.331  1.0919  0.0373  1.2438
 4805SOL     OW20250   5.439   4.980   3.628  0.1206  0.1717  0.6619
 4805SOL    HW120251   5.396   4.908   3.674  2.8165 -1.1778  1.2959
 4805SOL    HW220252   5.464   4.943   3.543 -0.4094  1.0905  0.0853
 4806SOL     OW20253   6.548   4.513  10.535 -0.1730 -0.3402  0.4156
 4806SOL    HW120254   6.640   4.536  10.547 -0.6599  2.4162 -0.4169
 4806SOL    HW220255   6.546   4.468  10.450  0.1672  1.9004 -0.8713
 4807SOL     OW20256   9.139   5.368  10.542 -0.2892  0.2341  0.1143
 4807SOL    HW120257   9.092   5.385  10.460 -0.4576  3.0921  0.7007
 4807SOL    HW220258   9.073   5.380  10.610  0.3683  0.2198  0.7660
 4808SOL     OW20259   7.669   9.640   0.214 -0.1839 -0.1599 -0.0784
 4808SOL    HW120260   7.736   9.707   0.202 -0.7572  0.2772 -0.9178
 4808SOL    HW220261   7.717   9.557   0.210  0.6548  0.1810  1.7991
 4809SOL     OW20262   3.687   8.180   1.929  0.1106  0.7584 -0.1917
 4809SOL    HW120263   3.642   8.201   2.011 -0.1851 -1.4395  0.2844
 4809SOL    HW220264   3.616   8.152   1.871  0.6128 -0.9081 -0.0551
 4810SOL     OW20265   3.677   5.047   5.677 -0.2750  0.4209 -0.8749
 4810SOL    HW120266   3.766   5.015   5.666 -0.7147 -0.9049 -0.8145
 4810SOL    HW220267   3.685   5.122   5.735  0.8084  0.3491 -0.9226
 4811SOL     OW20268  10.605  10.393   6.201 -0.1732 -0.5739  0.2199
 4811SOL    HW120269  10.585  10.477   6.160 -0.4237 -0.7360  0.0081
 4811SOL    HW220270  10.556  10.395   6.283  1.1261  0.1739  1.0103
 4812SOL     OW20271   6.596   1.131   5.236  0.1578 -0.4727  0.0302
 4812SOL    HW120272   6.589   1.221   5.270 -0.6360 -0.5952  0.2285
 4812SOL    HW220273   6.671   1.133   5.177  1.3001 -0.1427  1.4380
 4813SOL     OW20274   0.476   5.105   6.944  0.5288 -0.0679  0.6765
 4813SOL    HW120275   0.527   5.170   6.992  1.9729 -1.0002  0.4652
 4813SOL    HW220276   0.487   5.128   6.852  0.4856 -0.2234  0.6316
 4814SOL     OW20277   5.219   5.120  10.281  0.3053  0.2956  0.2331
 4814SOL    HW120278   5.168   5.154  10.355 -1.0295  0.4093 -0.6954
 4814SOL    HW220279   5.179   5.035  10.262  1.4150 -0.2723  0.3832
 4815SOL     OW20280   5.287   3.959   3.035 -0.1904  0.1542  0.3170
 4815SOL    HW120281   5.259   3.868   3.032 -2.0106  0.6943 -0.4485
 4815SOL    HW220282   5.267   3.993   2.947  0.5816  1.2649  0.5524
 4816SOL     OW20283  10.481   9.663   0.704  0.3469  0.4933 -0.1568
 4816SOL    HW120284  10.416   9.717   0.749 -0.6710 -0.2405 -0.7034
 4816SOL    HW220285  10.557   9.663   0.762 -1.2998 -1.3580  2.1739
 4817SOL     OW20286   8.456   0.684   4.736 -0.6217 -0.0865  0.2622
 4817SOL    HW120287   8.539   0.730   4.721 -0.6388  0.0403  0.5557
 4817SOL    HW220288   8.409   0.740   4.797 -0.9548 -0.1248  0.0412
 4818SOL     OW20289   1.250   7.297   0.643 -0.4534 -0.1673 -0.4859
 4818SOL    HW120290   1.233   7.245   0.564 -0.4834 -0.5168 -0.2537
 4818SOL    HW220291   1.277   7.382   0.610 -1.3144 -0.0364 -0.8696
 4819SOL     OW20292   1.044   9.713   3.637  0.3111 -0.5963 -0.2291
 4819SOL    HW120293   1.102   9.789   3.642 -1.2238  1.0208 -3.6135
 4819SOL    HW220294   0.956   9.749   3.647 -0.3658 -2.5186  1.5569
 4820SOL     OW20295   0.332  10.593   6.768  0.0866  0.0031 -0.5194
 4820SOL    HW120296   0.299  10.535   6.699 -0.6726  0.6751 -0.7305
 4820SOL    HW220297   0.410  10.548   6.800  0.8540 -0.0154 -2.2577
 4821SOL     OW20298   5.406   8.084  10.579 -0.0292  0.1554  0.5111
 4821SOL    HW120299   5.465   8.146  10.622 -2.2508  1.2339  2.1761
 4821SOL    HW220300   5.346   8.055  10.647  0.0118 -2.8022 -0.5526
 4822SOL     OW20301   1.625   8.066   2.788 -0.6307 -0.1951  0.3029
 4822SOL    HW120302   1.610   8.020   2.705 -1.5458  0.5697  0.0188
 4822SOL    HW220303   1.665   8.149   2.762  0.9401 -0.7818  0.8032
 4823SOL     OW20304   9.887   3.309   9.877 -0.2247 -0.1597  0.4882
 4823SOL    HW120305   9.919   3.399   9.873 -1.1122  0.1586  0.3528
 4823SOL    HW220306   9.796   3.317   9.904 -1.0681 -0.8327 -1.8967
 4824SOL     OW20307   5.945   1.184   5.280 -0.1715  0.1080  0.1174
 4824SOL    HW120308   6.012   1.142   5.225  0.8210  0.9234  0.6616
 4824SOL    HW220309   5.867   1.186   5.225  0.2703 -0.8037 -0.5684
 4825SOL     OW20310   2.387   9.471   9.903  0.2115 -0.4050  0.0879
 4825SOL    HW120311   2.418   9.384   9.878  1.5819 -0.6397  2.3786
 4825SOL    HW220312   2.294   9.458   9.923  0.5502 -1.5142  1.0466
 4826SOL     OW20313   7.544   4.027   9.157  0.1895  0.3590  0.0440
 4826SOL    HW120314   7.550   3.933   9.138  0.9749  0.4382 -0.1297
 4826SOL    HW220315   7.580   4.036   9.245 -0.6890  0.3916  0.4116
 4827SOL     OW20316   8.788   8.909   8.593  0.5299 -0.3110  0.5261
 4827SOL    HW120317   8.813   8.998   8.568 -0.0260 -0.4646 -0.6215
 4827SOL    HW220318   8.871   8.864   8.608  0.8198  0.3744  1.0649
 4828SOL     OW20319   7.588   0.990   4.306  0.2353 -0.1827  0.1758
 4828SOL    HW120320   7.602   0.944   4.389  0.7349 -1.2710 -0.4815
 4828SOL    HW220321   7.625   0.931   4.240 -1.1461  0.1500 -0.9381
 4829SOL     OW20322   9.366   9.685   9.612 -0.0388  0.3529 -0.3041
 4829SOL    HW120323   9.387   9.778   9.616 -0.9099  0.5269  0.8535
 4829SOL    HW220324   9.449   9.641   9.629  0.1080  0.9582  0.6514
 4830SOL     OW20325   0.359   0.997   5.787 -0.4354 -0.0102  0.4493
 4830SOL    HW120326   0.306   1.061   5.741 -0.1343 -0.4445 -0.5300
 4830SOL    HW220327   0.365   0.922   5.727  2.5058  0.5754 -0.1662
 4831SOL     OW20328   7.939  10.667   5.637 -0.5538 -0.3648 -0.3509
 4831SOL    HW120329   7.931  10.743   5.696 -4.6090 -0.0539 -0.9901
 4831SOL    HW220330   7.948  10.592   5.695  1.5601  0.3661  0.3542
 4832SOL     OW20331   0.625   6.010   2.808 -0.4088 -0.4015  0.5063
 4832SOL    HW120332   0.551   5.953   2.828  0.1301 -1.5597 -0.6214
 4832SOL    HW220333   0.585   6.094   2.785 -1.2187 -0.3139  2.1438
 4833SOL     OW20334   3.638   7.315   2.212  0.1098  0.7379 -0.4258
 4833SOL    HW120335   3.721   7.354   2.186  1.2585 -1.1117  0.2925
 4833SOL    HW220336   3.607   7.371   2.283  2.1581 -0.0768  1.2033
 4834SOL     OW20337   3.860   7.934   0.450  0.1072  0.3239 -0.3054
 4834SOL    HW120338   3.773   7.914   0.415  0.2565 -1.2910  0.1485
 4834SOL    HW220339   3.910   7.966   0.375 -0.5938  0.2844 -0.7887
 4835SOL     OW20340   5.330   3.848   7.569 -0.8572 -0.1435  0.2294
 4835SOL    HW120341   5.423   3.836   7.587 -0.7952  0.5594  0.4111
 4835SOL    HW220342   5.300   3.762   7.539  0.2569  0.0701 -1.6806
 4836SOL     OW20343   3.648   3.953   6.213  0.2891  1.0618  0.5402
 4836SOL    HW120344   3.666   3.927   6.123  0.2836 -0.8083  1.0365
 4836SOL    HW220345   3.685   4.040   6.221  0.3081  1.2562 -1.2583
 4837SOL     OW20346   7.129   3.598   9.366 -0.7365 -0.1717 -0.0276
 4837SOL    HW120347   7.056   3.643   9.409 -2.6785 -0.9754 -2.2726
 4837SOL    HW220348   7.125   3.627   9.275  1.2037 -0.9714 -0.4240
 4838SOL     OW20349  10.675  10.013  10.668  0.0689 -0.1043  0.3468
 4838SOL    HW120350  10.758  10.039  10.708 -0.3086  0.4759  0.7591
 4838SOL    HW220351  10.672   9.918  10.681  1.7301 -0.5314 -1.6930
 4839SOL     OW20352   0.827   8.986   9.211  0.3895  0.3591  0.6115
 4839SOL    HW120353   0.756   9.046   9.192 -0.2954 -0.2327  1.2454
 4839SOL    HW220354   0.784   8.904   9.236  1.2694  0.2255  1.7839
 4840SOL     OW20355   7.901   6.808   8.195 -0.6526 -0.0806  0.1619
 4840SOL    HW120356   7.950   6.890   8.192 -2.0488  0.7950  0.3211
 4840SOL    HW220357   7.886   6.786   8.103 -0.4143 -0.0759  0.1204
 4841SOL     OW20358   4.444   8.595  10.142 -0.3871 -0.0128  0.2172
 4841SOL    HW120359   4.511   8.634  10.198  0.4593  0.4463 -1.0567
 4841SOL    HW220360   4.476   8.506  10.125 -0.7431 -0.2183  0.6272
 4842SOL     OW20361   2.725   6.117   9.763 -0.5207 -0.7902 -0.5557
 4842SOL    HW120362   2.792   6.050   9.757  1.5404  1.1230 -0.4072
 4842SOL    HW220363   2.702   6.121   9.856  2.2199  1.2130  0.1495
 4843SOL     OW20364   7.589   4.782   9.875 -0.0710 -0.5819  0.6032
 4843SOL    HW120365   7.509   4.829   9.853  0.9083  1.8034  1.8223
 4843SOL    HW220366   7.568   4.690   9.859 -2.3966  0.1473 -0.9584
 4844SOL     OW20367   9.462   2.668   6.527  0.4819 -0.2508 -0.3118
 4844SOL    HW120368   9.533   2.645   6.467 -1.0994 -4.0070 -0.9662
 4844SOL    HW220369   9.485   2.624   6.609  0.4122  1.2047  0.5344
 4845SOL     OW20370   8.388   8.387   9.809  0.5944 -0.6369  0.3619
 4845SOL    HW120371   8.430   8.304   9.831  1.0518 -0.4044  0.3818
 4845SOL    HW220372   8.380   8.385   9.713  1.8312 -0.1438  0.2205
 4846SOL     OW20373   0.980   1.344   8.035  0.1993  0.2730 -0.1050
 4846SOL    HW120374   0.959   1.349   8.128  1.5199  0.5075  0.2125
 4846SOL    HW220375   1.076   1.353   8.032  0.1738  0.3269 -1.4888
 4847SOL     OW20376   4.994   3.305   0.185  0.3567 -0.1795  0.2022
 4847SOL    HW120377   5.060   3.237   0.197 -0.5845 -1.4343 -1.3789
 4847SOL    HW220378   4.984   3.344   0.272  2.2929 -0.7553  0.7224
 4848SOL     OW20379   1.847   0.711   3.470 -0.0925 -0.0042  0.7080
 4848SOL    HW120380   1.815   0.721   3.559  0.1030  0.0235  0.7740
 4848SOL    HW220381   1.768   0.714   3.416 -0.2754 -0.6690  0.9301
 4849SOL     OW20382   9.458   0.034   3.216 -0.2416 -0.1613 -0.3540
 4849SOL    HW120383   9.441  -0.060   3.216 -2.6277  0.2045 -1.5054
 4849SOL    HW220384   9.503   0.051   3.133 -0.3285 -0.2105 -0.4107
 4850SOL     OW20385   8.319   6.210   9.889  0.2090  0.1605 -0.5329
 4850SOL    HW120386   8.392   6.253   9.934 -0.2221  2.5718 -1.9868
 4850SOL    HW220387   8.350   6.121   9.873  2.0566  0.5451  0.6036
 4851SOL     OW20388   7.190   2.175   5.211 -0.3625 -0.2820 -0.0956
 4851SOL    HW120389   7.164   2.093   5.252  1.9392 -1.4204 -0.7298
 4851SOL    HW220390   7.275   2.197   5.251 -1.2760  2.2750  0.6609
 4852SOL     OW20391   7.725   2.863   8.196 -0.1827  0.7706 -0.0459
 4852SOL    HW120392   7.780   2.821   8.130 -1.9634 -2.2063  0.1991
 4852SOL    HW220393   7.683   2.935   8.150 -2.9607 -2.3863 -3.0118
 4853SOL     OW20394   2.057   3.845   6.122  0.0530 -0.3696 -0.0759
 4853SOL    HW120395   2.048   3.871   6.030 -0.4128  0.1392  0.1073
 4853SOL    HW220396   2.078   3.926   6.168 -1.7068 -0.2180  0.5415
 4854SOL     OW20397  10.694  10.676   1.125 -0.0877 -0.3231 -0.2460
 4854SOL    HW120398  10.674  10.662   1.033 -1.0487 -2.0963  0.1712
 4854SOL    HW220399  10.773  10.729   1.126 -1.4668  1.9019 -2.0683
 4855SOL     OW20400   3.849   9.743   0.049  0.5616 -0.5284 -0.0840
 4855SOL    HW120401   3.821   9.750   0.140 -1.6248 -2.0860 -0.5511
 4855SOL    HW220402   3.830   9.652   0.025  0.5116 -0.0017 -2.2479
 4856SOL     OW20403   0.901   8.774   3.906  0.5872  0.7784 -1.0566
 4856SOL    HW120404   0.932   8.861   3.881  2.2298  0.1001 -1.4779
 4856SOL    HW220405   0.859   8.788   3.991  2.7551  1.6595 -0.0462
 4857SOL     OW20406   6.451   3.588   4.826 -0.5456 -0.2663 -0.4634
 4857SOL    HW120407   6.404   3.633   4.755  0.8695  0.7791 -0.7931
 4857SOL    HW220408   6.543   3.603   4.806 -0.0806 -1.3455  0.7424
 4858SOL     OW20409   8.336   5.520   4.287 -0.0138 -0.2382 -0.4265
 4858SOL    HW120410   8.244   5.544   4.297  0.2852 -0.0112  3.0727
 4858SOL    HW220411   8.349   5.513   4.192 -3.2485  1.0658 -1.1015
 4859SOL     OW20412   4.118   4.092   1.757 -0.6087  0.6419  0.3246
 4859SOL    HW120413   4.026   4.116   1.742  0.1757  2.6213 -1.7692
 4859SOL    HW220414   4.151   4.070   1.671  1.2664  1.4121  0.8037
 4860SOL     OW20415   2.791   8.985   2.889 -0.1725  0.2386  0.4733
 4860SOL    HW120416   2.774   8.922   2.819  0.0952 -0.2684  0.8530
 4860SOL    HW220417   2.863   8.946   2.939  1.0936  1.6092 -0.2117
 4861SOL     OW20418   2.904   1.354   7.258  0.3210 -0.0630  0.6179
 4861SOL    HW120419   2.863   1.437   7.284  0.2956 -0.0143  0.4244
 4861SOL    HW220420   2.836   1.307   7.210 -0.0451 -0.7138  1.7338
 4862SOL     OW20421   3.551   5.155   5.272 -0.1739 -0.5912 -0.4144
 4862SOL    HW120422   3.564   5.238   5.317  1.5543 -0.6858 -0.6922
 4862SOL    HW220423   3.489   5.107   5.328  1.9683 -0.7384  1.9939
 4863SOL     OW20424   9.364   7.228   1.413 -0.4067 -0.3183 -0.1130
 4863SOL    HW120425   9.458   7.243   1.403 -0.7631  1.5170 -1.1731
 4863SOL    HW220426   9.348   7.241   1.507  0.0664  1.9038 -0.2669
 4864SOL     OW20427   9.822   7.430   0.374 -0.5782  0.2655 -0.0139
 4864SOL    HW120428   9.739   7.382   0.364 -0.3808  0.2815 -2.1733
 4864SOL    HW220429   9.873   7.376   0.434 -1.6405 -0.4622  0.2728
 4865SOL     OW20430   9.606   3.830   1.329  0.1901  0.0027  0.3367
 4865SOL    HW120431   9.545   3.755   1.332 -0.6509  0.6985  1.3068
 4865SOL    HW220432   9.687   3.793   1.294 -0.3394 -1.2751  0.3892
 4866SOL     OW20433   7.594  10.629   8.076 -0.3467  0.2327 -0.0435
 4866SOL    HW120434   7.500  10.613   8.073 -0.2733 -0.2686  0.3303
 4866SOL    HW220435   7.633  10.553   8.035  0.0021 -0.6304  1.7766
 4867SOL     OW20436   8.060   9.419   4.680  0.2159  0.1714  0.6996
 4867SOL    HW120437   8.021   9.432   4.766  2.1846  0.8096  1.5480
 4867SOL    HW220438   8.085   9.327   4.678  0.9637  0.3571  1.1831
 4868SOL     OW20439   4.752   5.714   6.435 -0.2361 -0.3422  0.4222
 4868SOL    HW120440   4.843   5.735   6.455 -0.0943  0.4564 -0.8917
 4868SOL    HW220441   4.722   5.661   6.508  1.1016 -0.0982  1.1718
 4869SOL     OW20442   1.964   8.433   9.030  0.1092 -0.5733 -0.0941
 4869SOL    HW120443   1.976   8.520   8.992  0.2351 -0.1004  1.0093
 4869SOL    HW220444   1.908   8.448   9.107 -0.6563 -1.6037 -0.4262
 4870SOL     OW20445   2.438   8.775   5.191 -0.6788 -0.0633 -0.1575
 4870SOL    HW120446   2.500   8.744   5.257  0.4083  0.6936 -0.8031
 4870SOL    HW220447   2.488   8.777   5.109 -1.6685  0.1780 -0.7719
 4871SOL     OW20448   7.443   8.216   5.939 -0.4003  0.1899 -0.0398
 4871SOL    HW120449   7.525   8.243   5.896 -1.1147  0.4000 -1.3349
 4871SOL    HW220450   7.451   8.121   5.947  0.0937  0.2394  0.1151
 4872SOL     OW20451   2.951   9.508   7.578 -0.0187 -0.2860 -0.0851
 4872SOL    HW120452   2.985   9.576   7.636 -0.0582 -0.1233 -0.2485
 4872SOL    HW220453   2.857   9.521   7.579 -0.3510 -2.2196  2.2165
 4873SOL     OW20454   4.877   2.143   4.431 -0.0101  0.1956  0.6825
 4873SOL    HW120455   4.899   2.077   4.364 -1.2055 -0.8484  1.2655
 4873SOL    HW220456   4.810   2.100   4.484 -1.9656  2.4194  0.1768
 4874SOL     OW20457   7.132   6.917   3.187 -0.4651  0.1896 -0.0507
 4874SOL    HW120458   7.156   6.870   3.267 -1.6053 -0.3545 -0.0082
 4874SOL    HW220459   7.093   6.999   3.218 -0.4155  0.2202 -0.0683
 4875SOL     OW20460   8.291  10.397   6.568 -0.5553 -0.0398  0.1952
 4875SOL    HW120461   8.239  10.476   6.582  0.9679  0.9827  0.3187
 4875SOL    HW220462   8.300  10.359   6.655 -0.9855 -0.1566  0.1909
 4876SOL     OW20463   7.071   9.200   5.576 -0.2002 -0.0067 -0.1433
 4876SOL    HW120464   6.986   9.240   5.595 -0.1416 -0.2199  0.6072
 4876SOL    HW220465   7.125   9.223   5.651  0.3946  0.0948 -0.6031
 4877SOL     OW20466   1.289  10.466   8.205 -0.0508 -0.0927 -0.5392
 4877SOL    HW120467   1.356  10.532   8.219 -1.0604  0.5696  1.5035
 4877SOL    HW220468   1.334  10.383   8.215  0.8493  0.2881 -1.2728
 4878SOL     OW20469   3.899   9.068   7.278  1.1420  0.1646 -0.1005
 4878SOL    HW120470   3.879   9.124   7.203  0.7610  2.4935  1.6174
 4878SOL    HW220471   3.849   8.988   7.262  0.6685  0.7984 -2.0610
 4879SOL     OW20472   9.195   2.668  10.420  0.1392  0.3221  0.1526
 4879SOL    HW120473   9.181   2.743  10.362  0.6450  0.0135 -0.3701
 4879SOL    HW220474   9.283   2.637  10.400 -0.4534 -1.0752 -0.4098
 4880SOL     OW20475   3.519   6.796   9.206 -0.1380  0.1602  0.2458
 4880SOL    HW120476   3.583   6.817   9.274 -2.2341  3.6261  1.4276
 4880SOL    HW220477   3.535   6.861   9.137 -2.7335  1.7005  0.9622
 4881SOL     OW20478   2.091   8.211   5.768 -0.4904  0.1401 -0.1647
 4881SOL    HW120479   2.090   8.124   5.728 -0.7098  0.0729 -0.0120
 4881SOL    HW220480   1.999   8.231   5.784 -0.7293  1.5752 -2.7830
 4882SOL     OW20481  10.246   3.029   1.186  0.3092  0.2573  0.2265
 4882SOL    HW120482  10.285   3.092   1.246  0.0411 -0.9991  1.7670
 4882SOL    HW220483  10.186   2.978   1.240 -0.9044 -0.1018 -1.3763
 4883SOL     OW20484   9.793   3.518   6.424  0.6311 -0.6094  0.0165
 4883SOL    HW120485   9.875   3.479   6.394  0.0882 -0.7871 -1.3187
 4883SOL    HW220486   9.729   3.448   6.416 -0.2309  0.3345 -1.8198
 4884SOL     OW20487   6.191   5.145   1.118  0.3853  0.1058 -0.6288
 4884SOL    HW120488   6.223   5.057   1.140  1.5738  0.2648 -1.6498
 4884SOL    HW220489   6.181   5.144   1.023  0.7001  1.1654 -0.6832
 4885SOL     OW20490   3.809   5.029   0.534 -0.1010 -0.1414  0.2820
 4885SOL    HW120491   3.715   5.041   0.522 -0.1126 -0.2654  0.2478
 4885SOL    HW220492   3.820   4.934   0.544  0.2140 -0.3147 -1.3939
 4886SOL     OW20493   5.917   5.101   5.032 -0.1435 -0.1521  0.6820
 4886SOL    HW120494   5.982   5.111   4.963 -0.7549 -1.0358 -0.0473
 4886SOL    HW220495   5.955   5.145   5.108  1.6292 -1.2485  0.4762
 4887SOL     OW20496   7.459   9.784   8.696  0.1215 -0.8449  0.4669
 4887SOL    HW120497   7.497   9.782   8.608  1.5445 -0.7574  1.0611
 4887SOL    HW220498   7.434   9.694   8.714  1.3303 -1.1623  0.6009
 4888SOL     OW20499   8.850   8.294   1.906  0.0241 -0.2374  0.3369
 4888SOL    HW120500   8.793   8.337   1.842  0.3551 -0.0896  0.1432
 4888SOL    HW220501   8.824   8.334   1.990  1.7089  1.8813 -0.0607
 4889SOL     OW20502   7.401   4.686   5.428 -0.0630 -0.0147 -0.5343
 4889SOL    HW120503   7.305   4.691   5.429 -0.1137 -0.3111 -1.7138
 4889SOL    HW220504   7.425   4.655   5.515 -1.0201  0.2739 -0.1525
 4890SOL     OW20505   3.718   7.333   9.729 -0.7067 -0.3447 -0.2317
 4890SOL    HW120506   3.732   7.320   9.823 -1.6910 -3.5844 -0.4171
 4890SOL    HW220507   3.623   7.326   9.717 -1.0856  3.8925 -1.1070
 4891SOL     OW20508   8.233   4.006   1.417  0.1073  0.2590 -0.2371
 4891SOL    HW120509   8.235   4.035   1.326 -1.1143  0.0180 -0.3588
 4891SOL    HW220510   8.285   4.072   1.464  0.7495  0.3852 -1.0968
 4892SOL     OW20511   5.400   5.459   7.985 -0.3313 -0.3784 -0.0735
 4892SOL    HW120512   5.332   5.457   7.917 -0.2481 -1.4225 -0.1439
 4892SOL    HW220513   5.354   5.489   8.063 -1.2295 -2.3665  0.2203
 4893SOL     OW20514   2.258   0.408   9.772  0.3820 -0.2762  0.7598
 4893SOL    HW120515   2.225   0.318   9.773 -0.6787  0.0851 -0.0499
 4893SOL    HW220516   2.307   0.416   9.854  1.3533 -1.8905  0.3792
 4894SOL     OW20517   1.623   2.806   0.832  0.0368  0.5062 -0.0042
 4894SOL    HW120518   1.550   2.866   0.819  0.4089  0.7872 -0.8674
 4894SOL    HW220519   1.664   2.799   0.746  0.6098 -0.1959  0.3142
 4895SOL     OW20520  10.183   0.669   8.862 -0.6955  0.3734 -0.0510
 4895SOL    HW120521  10.106   0.693   8.913 -0.4620  0.7497  0.1290
 4895SOL    HW220522  10.212   0.752   8.823  0.4220  0.4824  0.9845
 4896SOL     OW20523   4.776   4.730   0.139 -0.7778 -0.1152  0.2423
 4896SOL    HW120524   4.810   4.819   0.128 -0.6686 -0.2422 -0.4769
 4896SOL    HW220525   4.853   4.674   0.132 -0.2857 -0.1447  3.8321
 4897SOL     OW20526   9.235   3.249   8.948 -0.4627 -0.0925 -0.4043
 4897SOL    HW120527   9.318   3.213   8.980 -0.6210  0.7340  1.0580
 4897SOL    HW220528   9.192   3.282   9.027 -0.6625  2.5459 -1.5128
 4898SOL     OW20529   4.724   6.803   8.369  0.1251 -0.0137  0.2074
 4898SOL    HW120530   4.791   6.868   8.390  0.3107 -0.3798  0.7521
 4898SOL    HW220531   4.761   6.720   8.397  0.3134 -0.5127 -1.4110
 4899SOL     OW20532   9.153   4.355   6.514 -0.3922  0.3292  0.2559
 4899SOL    HW120533   9.223   4.382   6.455 -1.8367  0.6064 -1.4023
 4899SOL    HW220534   9.195   4.292   6.573  1.2622  0.5461 -0.6283
 4900SOL     OW20535   5.993   8.222   5.507  0.2141  0.0527 -0.6570
 4900SOL    HW120536   5.946   8.142   5.531  0.5056  0.3576  1.0125
 4900SOL    HW220537   5.926   8.276   5.465 -0.0943 -0.8696 -1.4006
 4901SOL     OW20538   2.761   5.919   5.082  0.2267  0.1670  0.4898
 4901SOL    HW120539   2.844   5.966   5.088 -0.1140  0.8509 -0.0378
 4901SOL    HW220540   2.741   5.894   5.172 -0.2369  2.1765  0.9905
 4902SOL     OW20541   5.503   0.630   6.441 -0.2538 -0.1735 -0.4931
 4902SOL    HW120542   5.564   0.586   6.382 -0.4959 -0.8611 -0.2306
 4902SOL    HW220543   5.551   0.707   6.472  0.7166 -1.0341  0.1905
 4903SOL     OW20544   4.011   2.036   0.928  0.6675 -0.5021  0.4424
 4903SOL    HW120545   3.971   2.032   1.015 -0.7616 -1.6001 -0.2184
 4903SOL    HW220546   4.097   1.996   0.939  1.6949  1.9114  1.9098
 4904SOL     OW20547  10.702   1.818   1.905 -0.2722  0.1582 -0.3617
 4904SOL    HW120548  10.784   1.777   1.878 -1.1104 -1.4443 -0.5516
 4904SOL    HW220549  10.655   1.836   1.824 -0.2282  0.8724 -0.2419
 4905SOL     OW20550   5.955   2.486   6.177 -0.3070 -0.8568 -0.8634
 4905SOL    HW120551   5.994   2.572   6.166  0.2179 -0.9689  0.0366
 4905SOL    HW220552   5.877   2.488   6.122 -1.1268  0.7201  0.2657
 4906SOL     OW20553   8.876   3.418   4.401 -0.5103  0.3576 -0.3329
 4906SOL    HW120554   8.846   3.418   4.310  0.7642  0.5899 -0.7801
 4906SOL    HW220555   8.798   3.433   4.453 -0.8985  2.8398 -1.5199
 4907SOL     OW20556   5.648   1.861   3.220  0.6525  0.3821  0.7299
 4907SOL    HW120557   5.698   1.799   3.274 -0.1586  0.5927  1.7657
 4907SOL    HW220558   5.707   1.885   3.149  1.1118 -1.3200  0.4955
 4908SOL     OW20559   3.955   5.065   9.089  0.0469  0.4177  0.1884
 4908SOL    HW120560   4.030   5.101   9.136 -0.3626 -0.1239  1.2977
 4908SOL    HW220561   3.879   5.096   9.139 -0.4117  0.0378 -0.2654
 4909SOL     OW20562   0.056   1.019  10.071 -0.2087 -0.0252  0.1752
 4909SOL    HW120563  -0.030   1.060  10.073 -0.7432 -0.9312 -1.7047
 4909SOL    HW220564   0.043   0.939  10.021  1.8664  0.1555 -0.7577
 4910SOL     OW20565   0.941   4.589   4.103  0.5109  0.2955 -0.1209
 4910SOL    HW120566   1.011   4.646   4.073  0.8929 -0.0120  0.1795
 4910SOL    HW220567   0.977   4.544   4.179  0.5970 -1.0987 -0.9419
 4911SOL     OW20568   5.465   9.762   7.457 -0.3900 -0.0099 -0.0809
 4911SOL    HW120569   5.438   9.671   7.441 -1.4138  0.2112  0.3123
 4911SOL    HW220570   5.391   9.801   7.505  0.9382  0.3980  1.7673
 4912SOL     OW20571   4.190   4.352   8.394  0.6360  0.3306  0.8233
 4912SOL    HW120572   4.199   4.414   8.322  0.5090  0.4235  0.8878
 4912SOL    HW220573   4.159   4.272   8.352  1.6167  0.0408  0.6135
 4913SOL     OW20574   5.526   8.515   6.830 -0.2969  0.0544  0.2356
 4913SOL    HW120575   5.479   8.558   6.759 -1.1672 -1.4544 -0.1453
 4913SOL    HW220576   5.566   8.438   6.789  1.2173  0.4570  0.8903
 4914SOL     OW20577   8.497   8.830   4.339  0.4395 -1.0880 -0.0904
 4914SOL    HW120578   8.405   8.839   4.363  0.4834  2.4800 -0.7701
 4914SOL    HW220579   8.544   8.885   4.401  1.3957  1.7545 -3.0716
 4915SOL     OW20580   4.606   9.926   8.852  0.2699 -0.2467  0.3688
 4915SOL    HW120581   4.630   9.974   8.773  0.2809 -0.6321  0.1395
 4915SOL    HW220582   4.686   9.882   8.880 -0.2306 -1.8137 -0.5938
 4916SOL     OW20583   1.799   7.358   7.663  0.8422  0.2158 -0.2935
 4916SOL    HW120584   1.881   7.325   7.700  1.4642  1.2551 -0.6993
 4916SOL    HW220585   1.792   7.448   7.697  1.0102  0.9102 -1.9891
 4917SOL     OW20586   0.313   2.774   1.579  0.0795  0.0622 -0.2453
 4917SOL    HW120587   0.313   2.788   1.674  3.6438  0.4236 -0.1546
 4917SOL    HW220588   0.330   2.680   1.569 -0.9540 -0.0964 -0.5478
 4918SOL     OW20589   9.553   5.362   9.179  0.2604 -0.1909 -0.6438
 4918SOL    HW120590   9.607   5.292   9.143  2.5946  0.6621  1.0038
 4918SOL    HW220591   9.575   5.439   9.126  0.1070  0.0116 -0.4136
 4919SOL     OW20592   9.886   1.009   9.455  0.3910  0.3148 -0.2065
 4919SOL    HW120593   9.810   1.057   9.422  0.8296  0.5992 -0.8109
 4919SOL    HW220594   9.960   1.069   9.441  0.7966 -0.1497 -0.0630
 4920SOL     OW20595   6.394   6.021   1.115  0.3316  0.3907 -0.1042
 4920SOL    HW120596   6.394   6.062   1.029 -1.1472  4.3192  1.5113
 4920SOL    HW220597   6.327   5.953   1.110 -1.7771  2.4210 -1.3813
 4921SOL     OW20598   6.236   3.265   6.527  0.1141  0.1876 -0.1518
 4921SOL    HW120599   6.206   3.177   6.550 -1.4011  0.1808 -1.9633
 4921SOL    HW220600   6.173   3.296   6.462  1.2060  2.2242 -0.3182
 4922SOL     OW20601   3.428   9.710   1.500  0.0233  0.5139 -0.2577
 4922SOL    HW120602   3.333   9.715   1.491 -0.1091 -0.8695  0.2330
 4922SOL    HW220603   3.460   9.706   1.409 -0.3349  1.4411 -0.4403
 4923SOL     OW20604   5.936   8.227   3.668  0.4502  0.1114 -0.0083
 4923SOL    HW120605   5.872   8.289   3.633 -0.1714  0.9890  2.4386
 4923SOL    HW220606   5.984   8.277   3.735  1.3665 -1.4662  0.5810
 4924SOL     OW20607   8.831   8.080  10.290 -0.2570  0.2245  0.4259
 4924SOL    HW120608   8.908   8.024  10.280  0.1722  0.9795 -0.5340
 4924SOL    HW220609   8.840   8.147  10.223 -3.6948 -1.8730 -2.4677
 4925SOL     OW20610   3.368   3.128   0.554  0.3086 -0.4589  0.0234
 4925SOL    HW120611   3.385   3.037   0.576 -1.1808 -0.5508  0.9189
 4925SOL    HW220612   3.290   3.126   0.498  1.6681  0.1102 -2.0044
 4926SOL     OW20613   3.255   5.982   1.760  0.2381 -0.3504 -0.0436
 4926SOL    HW120614   3.267   6.026   1.844 -0.4225  1.4477 -0.8428
 4926SOL    HW220615   3.187   6.033   1.715  1.2302 -0.6701 -2.0413
 4927SOL     OW20616   6.014   3.257   2.757 -0.3824  0.0057 -0.5248
 4927SOL    HW120617   5.955   3.327   2.730  0.4204  0.4846 -1.0610
 4927SOL    HW220618   6.036   3.278   2.848 -0.1699  0.4237 -0.6734
 4928SOL     OW20619   6.138   3.319   5.394 -0.0472  0.3734  0.1133
 4928SOL    HW120620   6.216   3.283   5.351 -1.0018  1.6707 -2.9598
 4928SOL    HW220621   6.162   3.409   5.415  0.6959 -0.4523  3.3732
 4929SOL     OW20622   5.194   1.808   9.131  0.0370  0.1272 -0.4737
 4929SOL    HW120623   5.206   1.715   9.149  2.1702  0.1774 -1.3406
 4929SOL    HW220624   5.192   1.813   9.035  0.0256  0.9805 -0.4367
 4930SOL     OW20625   5.275   0.858   5.885  0.3158 -0.2006  0.2357
 4930SOL    HW120626   5.250   0.897   5.802 -1.1916  0.9345  1.1840
 4930SOL    HW220627   5.273   0.930   5.948  0.4315 -1.2149  1.4518
 4931SOL     OW20628   6.725   8.465   8.697 -0.5720 -0.3660 -0.3761
 4931SOL    HW120629   6.660   8.405   8.659 -1.4312 -0.0761  0.6077
 4931SOL    HW220630   6.709   8.463   8.791 -1.1910  2.0224 -0.3623
 4932SOL     OW20631   4.137   2.965   7.842  0.1245 -0.3274 -0.8190
 4932SOL    HW120632   4.161   2.875   7.864  0.9035 -0.4764 -2.1339
 4932SOL    HW220633   4.218   3.002   7.805  0.5244  1.6721  1.7819
 4933SOL     OW20634   2.852   5.053   9.310  0.5656  0.7855  0.1752
 4933SOL    HW120635   2.798   5.106   9.368 -0.6570  1.2239 -1.3132
 4933SOL    HW220636   2.812   4.966   9.314  0.2787  0.8964 -0.2548
 4934SOL     OW20637   7.414   5.174  10.534  0.2684  0.0526  0.1266
 4934SOL    HW120638   7.478   5.164  10.604  0.1599 -0.0532  0.2117
 4934SOL    HW220639   7.366   5.091  10.533  0.0631  0.1703  0.1337
 4935SOL     OW20640   1.996   4.193   3.996  0.4785  0.0116 -0.0142
 4935SOL    HW120641   1.996   4.101   4.024  1.9106 -0.1064 -0.3304
 4935SOL    HW220642   2.051   4.194   3.917  0.1090  1.0697 -0.2715
 4936SOL     OW20643   1.714   8.375   6.484  0.0053  0.3477 -0.2917
 4936SOL    HW120644   1.777   8.323   6.534  1.8895 -0.8231 -3.5607
 4936SOL    HW220645   1.636   8.319   6.480  0.5606 -0.4459 -0.3367
 4937SOL     OW20646   1.678   2.841   6.046 -0.6923  0.4019  0.6210
 4937SOL    HW120647   1.729   2.778   6.097 -0.1310 -0.0651 -0.4853
 4937SOL    HW220648   1.743   2.901   6.010 -0.3370 -2.0802 -3.5208
 4938SOL     OW20649   2.977   9.784   8.830  0.4493  0.0905  0.6578
 4938SOL    HW120650   2.905   9.819   8.883 -0.5420  0.5267 -0.8967
 4938SOL    HW220651   2.976   9.837   8.751  0.2592 -2.1008 -0.8980
 4939SOL     OW20652   1.376   2.808   2.821  0.2440  0.5235 -0.0668
 4939SOL    HW120653   1.341   2.784   2.735  1.1301 -0.0242 -0.2867
 4939SOL    HW220654   1.400   2.900   2.812 -1.3271  0.9872  0.1664
 4940SOL     OW20655   5.349   5.103   7.762  0.3475  0.6354 -0.0856
 4940SOL    HW120656   5.425   5.156   7.787  0.8067  0.0967 -0.3087
 4940SOL    HW220657   5.275   5.143   7.808  1.0053  0.2704  1.3397
 4941SOL     OW20658   4.640   3.261   9.691  0.4977  0.1012 -0.0992
 4941SOL    HW120659   4.722   3.305   9.714  1.1295 -2.0834  2.2727
 4941SOL    HW220660   4.667   3.181   9.646 -0.3959 -0.1013 -0.2985
 4942SOL     OW20661   7.539   2.714  10.562  0.0856 -0.3305 -0.5066
 4942SOL    HW120662   7.530   2.624  10.531 -1.5459 -0.2979 -0.2413
 4942SOL    HW220663   7.620   2.715  10.612  0.5996 -1.4140 -1.2805
 4943SOL     OW20664   7.213   8.140   1.236 -0.7510  0.3140  0.0995
 4943SOL    HW120665   7.128   8.175   1.209 -2.3060 -1.3461  2.4494
 4943SOL    HW220666   7.211   8.048   1.209  0.9628  0.5615 -1.0745
 4944SOL     OW20667   0.875   8.817   5.096  0.4305 -0.5294  0.0238
 4944SOL    HW120668   0.953   8.762   5.085  0.5993 -0.3343  0.2410
 4944SOL    HW220669   0.910   8.906   5.102  0.2093 -0.4711  0.4223
 4945SOL     OW20670   9.289   2.057   9.108  0.1077  0.1753 -0.3505
 4945SOL    HW120671   9.341   2.134   9.083 -0.1536  0.5311  0.1786
 4945SOL    HW220672   9.322   1.987   9.052  0.0477  0.7715 -1.1659
 4946SOL     OW20673   1.123   0.099   0.853  0.3160 -0.2278  0.8584
 4946SOL    HW120674   1.175   0.140   0.784  0.9598 -0.5848  1.1274
 4946SOL    HW220675   1.093   0.017   0.814 -0.3304  0.1313  0.5880
 4947SOL     OW20676   0.336   0.717   6.914  0.9929 -0.0023 -0.3447
 4947SOL    HW120677   0.333   0.812   6.909  0.6196 -0.0855 -2.1236
 4947SOL    HW220678   0.245   0.689   6.901  0.9780 -0.5990  0.8555
 4948SOL     OW20679   2.723   0.399   0.685 -0.6700  0.6377 -0.5348
 4948SOL    HW120680   2.763   0.313   0.685 -0.5181  0.6922  0.7213
 4948SOL    HW220681   2.631   0.384   0.709 -0.7852  0.7772 -0.8690
 4949SOL     OW20682   3.303   8.400   1.877 -0.1210  0.4134  0.5195
 4949SOL    HW120683   3.284   8.324   1.932  0.1297 -2.2994 -2.8630
 4949SOL    HW220684   3.261   8.381   1.794  1.4883  3.1462 -1.0651
 4950SOL     OW20685   0.903   3.682   7.331 -0.0288  0.3502  0.1634
 4950SOL    HW120686   0.919   3.765   7.287  0.4016  0.7892  1.1176
 4950SOL    HW220687   0.976   3.626   7.305 -0.6044  0.0735 -0.9152
 4951SOL     OW20688   9.155   0.841   3.582  0.4346  0.1607  0.3590
 4951SOL    HW120689   9.072   0.796   3.567  0.1714  0.7152  0.1152
 4951SOL    HW220690   9.181   0.873   3.495 -0.0238  1.5504  0.6983
 4952SOL     OW20691   3.032   3.016   9.104 -0.0842  0.0503 -0.3666
 4952SOL    HW120692   3.074   2.961   9.038  0.6226 -1.3045  1.1446
 4952SOL    HW220693   2.943   2.980   9.111  0.2203 -0.5986  0.2635
 4953SOL     OW20694   7.519   8.653   3.244 -0.3090 -0.3709 -0.1000
 4953SOL    HW120695   7.427   8.643   3.220  0.2993 -1.3116 -2.2011
 4953SOL    HW220696   7.546   8.735   3.203  0.3526 -1.2369 -1.4439
 4954SOL     OW20697   6.283   7.044   5.856 -0.6096 -0.2338  0.0401
 4954SOL    HW120698   6.377   7.039   5.873 -0.8267  0.4810  1.6910
 4954SOL    HW220699   6.276   7.088   5.772  0.5230  2.2452  1.1525
 4955SOL     OW20700   5.231   0.533   8.258 -0.6003  0.0660  0.0770
 4955SOL    HW120701   5.211   0.454   8.308 -1.3300 -0.2909 -0.7600
 4955SOL    HW220702   5.158   0.543   8.197 -0.2323  1.0651 -0.2270
 4956SOL     OW20703   3.913   6.658   6.671 -0.4334  0.2649 -0.2180
 4956SOL    HW120704   3.939   6.587   6.730 -2.3979 -0.1293  0.2312
 4956SOL    HW220705   3.837   6.623   6.623 -1.9040  2.2790  0.5136
 4957SOL     OW20706   8.769   3.550   6.880  0.0368 -0.3095 -0.1121
 4957SOL    HW120707   8.828   3.482   6.847  0.0480 -0.2103 -0.2962
 4957SOL    HW220708   8.794   3.561   6.972  0.1584 -0.4233 -0.1316
 4958SOL     OW20709   6.480   4.357   6.323 -0.8450 -0.1898 -0.2369
 4958SOL    HW120710   6.450   4.308   6.246 -1.5190 -0.3248  0.1012
 4958SOL    HW220711   6.473   4.294   6.395 -1.3660  0.2876  0.1409
 4959SOL     OW20712   8.210   9.030   7.544  0.5325  0.4655  0.1231
 4959SOL    HW120713   8.132   9.085   7.529  1.8240  2.2457 -0.4476
 4959SOL    HW220714   8.233   8.999   7.457  0.2360 -0.4162  0.3513
 4960SOL     OW20715  10.106  10.060   1.320  0.1616  0.1961 -0.2013
 4960SOL    HW120716  10.132  10.046   1.229 -1.4501  1.1203 -0.8480
 4960SOL    HW220717  10.180  10.106   1.360  1.2201 -0.9399 -0.7954
 4961SOL     OW20718   2.328   3.714   9.434  0.6231 -0.1902  0.0325
 4961SOL    HW120719   2.281   3.791   9.404  2.9608  1.3595  0.0913
 4961SOL    HW220720   2.352   3.733   9.524 -0.5521 -1.9380  0.7701
 4962SOL     OW20721   5.495  10.577   8.241  0.1183 -0.0768 -0.3717
 4962SOL    HW120722   5.404  10.606   8.232  0.6264  0.9673 -3.0449
 4962SOL    HW220723   5.498  10.492   8.198  0.3313 -0.2938  0.0663
 4963SOL     OW20724   4.974   3.082   6.119 -0.2747 -0.3320  0.2573
 4963SOL    HW120725   4.934   3.067   6.033 -0.0072  1.5612 -0.2616
 4963SOL    HW220726   4.930   3.161   6.152  2.5906  1.6114 -0.1455
 4964SOL     OW20727   7.523   0.060   0.653  0.2560  0.3487  0.3764
 4964SOL    HW120728   7.478   0.134   0.612 -0.4941 -1.0638 -1.4864
 4964SOL    HW220729   7.612   0.063   0.617  0.3797  0.6269  0.6995
 4965SOL     OW20730   5.658   5.305   1.715  0.0881  0.3802 -0.4729
 4965SOL    HW120731   5.564   5.305   1.699  0.0415  2.0225 -0.3769
 4965SOL    HW220732   5.670   5.362   1.791  0.8333 -2.8946  2.1159
 4966SOL     OW20733   8.440   3.873   8.694 -0.3315 -0.2912  0.3271
 4966SOL    HW120734   8.427   3.937   8.764 -0.5038 -1.4398  1.3935
 4966SOL    HW220735   8.535   3.867   8.684 -0.3227  0.4629 -0.1170
 4967SOL     OW20736   2.123   8.115   6.376  0.2661 -0.1972 -0.3600
 4967SOL    HW120737   2.106   8.094   6.284  1.2094  0.0756 -0.6102
 4967SOL    HW220738   2.122   8.211   6.379  0.0682 -0.2064 -0.0429
 4968SOL     OW20739   6.663   0.380   3.038  0.1244  0.3461 -0.1564
 4968SOL    HW120740   6.661   0.292   3.076  0.7608 -0.1001 -1.1238
 4968SOL    HW220741   6.734   0.424   3.084  1.1326 -0.3116 -1.0279
 4969SOL     OW20742   1.479   7.177   9.743  0.3419  0.5108 -0.4844
 4969SOL    HW120743   1.506   7.098   9.790  0.7301  0.3593 -0.9525
 4969SOL    HW220744   1.396   7.202   9.784 -0.1457 -0.5400 -0.7821
 4970SOL     OW20745   2.937   7.886   0.932 -0.5251 -0.4001 -0.0901
 4970SOL    HW120746   2.919   7.957   0.869 -0.1483 -0.8761 -0.7435
 4970SOL    HW220747   2.850   7.858   0.960 -0.7155 -0.4674 -0.7245
 4971SOL     OW20748   1.979   4.566   1.901  0.2429  0.6044 -0.1053
 4971SOL    HW120749   2.024   4.485   1.875  0.9547  1.1852 -0.7314
 4971SOL    HW220750   1.957   4.608   1.818  1.1563  1.7449  0.2168
 4972SOL     OW20751   5.133   4.310   4.390 -0.0724  0.1097  0.3442
 4972SOL    HW120752   5.146   4.357   4.307 -1.1756  0.8952  0.5825
 4972SOL    HW220753   5.219   4.313   4.433  0.3248  0.3527 -0.4397
 4973SOL     OW20754   1.946   1.518   3.665  0.3071 -0.0685 -0.6973
 4973SOL    HW120755   1.864   1.498   3.709  0.5105  1.1888  0.3181
 4973SOL    HW220756   1.921   1.575   3.591  0.1796 -0.4346 -0.9370
 4974SOL     OW20757   2.139   1.805  10.690 -0.6767 -0.6424 -0.2603
 4974SOL    HW120758   2.115   1.878  10.748  1.3281  0.0427 -0.2241
 4974SOL    HW220759   2.131   1.841  10.602  0.1614 -0.4079 -0.2476
 4975SOL     OW20760   8.061   8.207   7.145 -0.0314 -0.3384 -0.0735
 4975SOL    HW120761   8.006   8.129   7.156 -0.0894 -0.5576 -1.6778
 4975SOL    HW220762   7.999   8.277   7.126 -0.0650  0.3682  2.3250
 4976SOL     OW20763   3.358   8.561   9.482  0.5409  0.0947  0.5235
 4976SOL    HW120764   3.425   8.618   9.446 -0.1864 -1.2294 -3.4091
 4976SOL    HW220765   3.275   8.599   9.453 -0.0508 -1.6527 -0.2450
 4977SOL     OW20766   2.078   0.420   2.622  0.3569  0.8837 -0.4685
 4977SOL    HW120767   2.068   0.370   2.541 -0.0108  4.1296 -2.5999
 4977SOL    HW220768   2.110   0.505   2.594 -0.1415  2.3001  2.7958
 4978SOL     OW20769   9.993   4.738   2.643  0.2047  0.0676 -1.2390
 4978SOL    HW120770  10.011   4.819   2.596 -0.2264 -0.9037 -3.1786
 4978SOL    HW220771   9.915   4.702   2.600  0.6125 -1.5660 -0.6911
 4979SOL     OW20772   9.662   4.394   5.272 -0.4046  0.7205  0.4817
 4979SOL    HW120773   9.750   4.393   5.310 -0.1112 -0.6006 -0.1376
 4979SOL    HW220774   9.677   4.385   5.177 -1.1053  3.8522 -0.0309
 4980SOL     OW20775   4.305   7.720   1.342 -0.5543  0.1887  1.0376
 4980SOL    HW120776   4.265   7.674   1.416 -1.9512 -2.1331 -0.9956
 4980SOL    HW220777   4.301   7.657   1.270  0.2431  2.5094 -1.1857
 4981SOL     OW20778   6.155   7.327   1.365 -0.1829  0.2591  0.8080
 4981SOL    HW120779   6.086   7.394   1.371  0.9840  1.5310  0.4355
 4981SOL    HW220780   6.180   7.327   1.272  0.5352  0.0254  0.9982
 4982SOL     OW20781   6.062   1.575   0.199 -0.3283 -0.0797 -0.2396
 4982SOL    HW120782   6.020   1.525   0.130 -0.0660 -0.1046 -0.3818
 4982SOL    HW220783   6.006   1.562   0.275 -0.0752 -0.8814 -0.1777
 4983SOL     OW20784   5.795   5.684   3.254 -0.2762 -0.4092 -0.5617
 4983SOL    HW120785   5.759   5.727   3.331 -0.0584 -2.2481  0.6100
 4983SOL    HW220786   5.881   5.725   3.241  0.0603 -0.6952  0.7040
 4984SOL     OW20787   8.260   3.821   3.481 -0.4499  0.5985  0.0263
 4984SOL    HW120788   8.198   3.786   3.417 -0.2594  0.5980 -0.1571
 4984SOL    HW220789   8.223   3.797   3.566  0.4735 -1.4439 -0.0896
 4985SOL     OW20790   4.035   6.338   9.309 -0.4976 -0.3255 -0.0849
 4985SOL    HW120791   4.054   6.282   9.384  0.7202 -0.0171 -0.1374
 4985SOL    HW220792   4.072   6.291   9.234 -2.9140 -1.3079 -0.7516
 4986SOL     OW20793   8.005   9.072   4.475  0.0796 -0.6701  0.2275
 4986SOL    HW120794   7.961   9.155   4.457 -0.8306 -1.0727  0.4906
 4986SOL    HW220795   7.972   9.012   4.407  2.0346 -0.4100 -1.0213
 4987SOL     OW20796   9.201   9.250   6.356  0.0240 -0.4826 -0.2720
 4987SOL    HW120797   9.107   9.230   6.359 -0.3871  1.3890  2.3981
 4987SOL    HW220798   9.206   9.344   6.374  2.4639 -0.6110 -0.0081
 4988SOL     OW20799  10.008   2.496   9.066 -0.0491 -0.4823 -0.0216
 4988SOL    HW120800   9.927   2.469   9.023 -0.9675  0.2857  1.1811
 4988SOL    HW220801  10.018   2.588   9.043 -0.3470 -0.1671  1.0590
 4989SOL     OW20802   3.748   3.968   2.199 -0.6683  0.0909  0.5031
 4989SOL    HW120803   3.754   4.054   2.242  1.3233 -0.0096  0.5067
 4989SOL    HW220804   3.672   3.976   2.141  0.3699  2.4219 -0.6547
 4990SOL     OW20805   7.885   1.477   8.719 -0.4368  0.1302  0.6956
 4990SOL    HW120806   7.891   1.385   8.696 -1.3611  0.0905  0.5902
 4990SOL    HW220807   7.975   1.509   8.714  0.1176 -1.0985  2.1414
 4991SOL     OW20808   6.984   2.900   2.177  0.5341 -0.4438  0.2469
 4991SOL    HW120809   6.902   2.909   2.227  0.1198  1.4737 -0.6894
 4991SOL    HW220810   7.023   2.988   2.180  0.9963 -0.5370 -1.9385
 4992SOL     OW20811   3.775   0.997   9.277 -0.5364 -0.0377  0.5872
 4992SOL    HW120812   3.690   0.994   9.320 -1.4766  2.4893 -0.8626
 4992SOL    HW220813   3.827   1.058   9.329  0.8762 -2.3554  2.0816
 4993SOL     OW20814   5.905   9.052   3.201  0.5492 -0.1466  0.1641
 4993SOL    HW120815   5.828   9.026   3.251 -0.7270  0.8679 -1.1741
 4993SOL    HW220816   5.980   9.020   3.252 -0.5965  1.5682  3.1595
 4994SOL     OW20817   1.733   0.004   9.050  0.4263 -0.0850 -0.7078
 4994SOL    HW120818   1.814   0.031   9.094  0.6902 -2.8220  0.7047
 4994SOL    HW220819   1.762  -0.054   8.980 -0.1958 -3.9816  1.9403
 4995SOL     OW20820   6.472   4.649   8.775  0.5227 -0.2857 -1.0540
 4995SOL    HW120821   6.509   4.735   8.755  0.0391  0.2128  0.1131
 4995SOL    HW220822   6.544   4.601   8.815  0.1647  0.4100  0.4823
 4996SOL     OW20823   7.496   2.967   5.134 -0.6113 -0.0548 -0.7214
 4996SOL    HW120824   7.434   3.004   5.197 -1.6746 -0.2587 -1.6167
 4996SOL    HW220825   7.571   2.940   5.187  0.0864  2.9833  0.0302
 4997SOL     OW20826   9.532   4.344   0.438 -0.1050 -0.4390  0.1044
 4997SOL    HW120827   9.579   4.287   0.376  1.0790  1.0215 -0.4044
 4997SOL    HW220828   9.463   4.384   0.386  0.1422 -0.1153  0.0233
 4998SOL     OW20829  10.016   2.609   3.299 -0.5456 -0.4104 -0.3909
 4998SOL    HW120830  10.038   2.517   3.288  0.8095  0.0455 -1.8115
 4998SOL    HW220831   9.936   2.608   3.352  0.8576 -2.2828  1.9029
 4999SOL     OW20832   3.806   2.668   9.626  0.5745 -0.0131  0.4008
 4999SOL    HW120833   3.870   2.649   9.557  4.2028  1.8091  2.8975
 4999SOL    HW220834   3.802   2.587   9.678  0.3959 -0.3194 -0.0861
 5000SOL     OW20835   0.384   3.117   7.450 -0.7697  0.3921  0.2720
 5000SOL    HW120836   0.449   3.183   7.423 -0.1256  0.3168  1.6013
 5000SOL    HW220837   0.300   3.162   7.439 -0.3156  1.7816  1.9424
 5001SOL     OW20838   9.088   5.737   0.544  0.2977  0.3101  0.0242
 5001SOL    HW120839   9.150   5.786   0.489  0.3966 -1.1640 -1.2647
 5001SOL    HW220840   9.085   5.650   0.504 -3.1247  0.4908 -0.3716
 5002SOL     OW20841  10.043   2.040   5.048  0.2919 -0.4002 -0.5177
 5002SOL    HW120842   9.979   2.091   4.999 -0.2170 -0.7765 -0.2544
 5002SOL    HW220843  10.008   1.951   5.046  0.0355 -0.3534  0.8906
 5003SOL     OW20844   3.598   5.758   9.645  0.1793  0.5979  0.5278
 5003SOL    HW120845   3.524   5.729   9.593  1.5896 -1.5364 -0.4067
 5003SOL    HW220846   3.675   5.722   9.601  1.5806  0.2575  3.0343
 5004SOL     OW20847   0.251   5.469   9.851  0.3793  0.3203  0.3709
 5004SOL    HW120848   0.336   5.450   9.810  0.3676  0.8951  0.0733
 5004SOL    HW220849   0.269   5.473   9.944  0.5486 -0.2508  0.3695
 5005SOL     OW20850   1.690   0.326   1.893  0.1470  0.0262  0.7751
 5005SOL    HW120851   1.681   0.409   1.939  1.2446  2.0043 -2.2773
 5005SOL    HW220852   1.757   0.278   1.942  0.7428  1.6810  1.6299
 5006SOL     OW20853   0.143   3.732   0.649 -1.0242 -0.1683 -0.6456
 5006SOL    HW120854   0.164   3.713   0.741 -1.1297 -0.9434 -0.7737
 5006SOL    HW220855   0.193   3.811   0.629  0.7299 -1.1951 -0.5368
 5007SOL     OW20856   0.203   7.589   7.351 -0.2636 -0.3722 -0.1734
 5007SOL    HW120857   0.157   7.564   7.270 -0.3263  0.5125 -0.4182
 5007SOL    HW220858   0.136   7.586   7.418 -0.6068  0.5327 -0.4612
 5008SOL     OW20859   8.528  10.506   7.699 -0.0499  0.1621  0.2262
 5008SOL    HW120860   8.592  10.510   7.629  0.0964 -1.0268  0.2623
 5008SOL    HW220861   8.572  10.458   7.769 -0.5971  0.2997  0.6720
 5009SOL     OW20862   6.521   5.886   5.204  0.8171  0.1359 -0.2795
 5009SOL    HW120863   6.576   5.807   5.212  0.3755 -0.0229  1.6866
 5009SOL    HW220864   6.551   5.927   5.123  1.3597 -1.8160 -1.1370
 5010SOL     OW20865   4.829   3.123   6.838 -0.3401 -0.3472  0.7994
 5010SOL    HW120866   4.900   3.187   6.836 -1.3993  0.8567 -0.0632
 5010SOL    HW220867   4.763   3.163   6.895 -1.0541 -0.6090  0.1696
 5011SOL     OW20868   7.711   8.534  10.704  0.3487  0.2306 -0.0191
 5011SOL    HW120869   7.687   8.470  10.771 -2.4410  0.8309 -0.3130
 5011SOL    HW220870   7.780   8.586  10.745 -1.7920  1.1166  2.8166
 5012SOL     OW20871   8.858   9.458   8.898 -0.1493 -0.9046  0.0606
 5012SOL    HW120872   8.844   9.368   8.867 -0.7432 -0.5526 -0.7045
 5012SOL    HW220873   8.944   9.482   8.863  0.0906 -1.2237  0.4122
 5013SOL     OW20874   3.843   4.215   4.006 -0.3972  0.7089  0.1908
 5013SOL    HW120875   3.789   4.201   4.083 -1.4800  0.4600 -0.5863
 5013SOL    HW220876   3.784   4.201   3.932  0.7896  0.1677 -0.7023
 5014SOL     OW20877   4.276   1.046   6.328 -0.4341  0.0673 -0.1031
 5014SOL    HW120878   4.359   1.093   6.335 -0.9783  1.2360 -1.1543
 5014SOL    HW220879   4.269   1.024   6.235 -0.0138 -2.5087  0.4033
 5015SOL     OW20880   9.187   0.492   5.892 -0.0660 -0.3656  0.0933
 5015SOL    HW120881   9.257   0.480   5.828  1.2063  1.1526  1.1270
 5015SOL    HW220882   9.232   0.518   5.972 -1.8608  1.9335  0.4596
 5016SOL     OW20883   8.286   0.181   7.292  0.7252  0.1178 -0.0559
 5016SOL    HW120884   8.269   0.266   7.333  1.1294  0.2313 -0.1143
 5016SOL    HW220885   8.343   0.135   7.354  0.5650 -0.0821 -0.0569
 5017SOL     OW20886   6.122   7.977   7.894  0.0345  0.5162  0.1109
 5017SOL    HW120887   6.145   7.961   7.802 -0.0539 -1.1812  0.3494
 5017SOL    HW220888   6.032   8.010   7.890  0.3305  1.2774 -0.4542
 5018SOL     OW20889   8.110   0.971  10.429 -0.1239  0.5660 -0.0246
 5018SOL    HW120890   8.112   0.880  10.401  0.5902  0.7313 -0.5288
 5018SOL    HW220891   8.201   1.000  10.424 -0.5972  1.9523 -2.0393
 5019SOL     OW20892   6.855   8.756   6.264  0.2848 -0.1101  0.4819
 5019SOL    HW120893   6.856   8.821   6.193  2.9486 -1.4299 -0.8398
 5019SOL    HW220894   6.782   8.698   6.241  0.3283  0.1928 -0.4776
 5020SOL     OW20895   4.175   2.791   3.226  0.1741  0.1980 -0.0320
 5020SOL    HW120896   4.261   2.763   3.259  0.1554  0.3697  0.1625
 5020SOL    HW220897   4.195   2.836   3.144  0.1353 -1.1043 -0.7805
 5021SOL     OW20898   6.143   5.707   3.743  0.2238  0.4868  0.1916
 5021SOL    HW120899   6.149   5.793   3.701  0.0497  0.6027  0.4045
 5021SOL    HW220900   6.144   5.645   3.670  0.7115  0.6519  0.0570
 5022SOL     OW20901   1.819   0.477   0.525 -0.2305 -0.3345 -0.1693
 5022SOL    HW120902   1.789   0.565   0.549 -0.2107 -0.0845 -1.0291
 5022SOL    HW220903   1.814   0.475   0.430 -0.9665 -1.5438 -0.1173
 5023SOL     OW20904   9.538   2.767   5.584  0.0747 -0.5972  0.6916
 5023SOL    HW120905   9.481   2.714   5.639 -2.2720 -0.3023 -1.3042
 5023SOL    HW220906   9.522   2.737   5.495  2.9235 -0.3170 -0.0321
 5024SOL     OW20907   3.322   1.256   0.774  0.1871 -0.2394  0.2309
 5024SOL    HW120908   3.289   1.327   0.829 -0.9993  0.0484 -0.8292
 5024SOL    HW220909   3.249   1.195   0.766  0.1930 -0.0749 -1.3546
 5025SOL     OW20910   1.810   7.430   4.624  0.7913 -0.2909 -0.4434
 5025SOL    HW120911   1.733   7.487   4.628 -0.9655 -2.5310 -0.4097
 5025SOL    HW220912   1.806   7.378   4.704  3.9182  1.2911  0.9433
 5026SOL     OW20913   1.290   5.235   4.947 -0.9595 -0.0141  0.1059
 5026SOL    HW120914   1.356   5.182   4.992  1.2057  1.2427 -1.4119
 5026SOL    HW220915   1.262   5.180   4.873 -1.1340 -0.2816  0.3667
 5027SOL     OW20916   5.618   3.293   7.151  0.1171 -0.1951 -0.0478
 5027SOL    HW120917   5.706   3.280   7.114  0.1602  1.3686 -0.5833
 5027SOL    HW220918   5.567   3.329   7.079 -0.6299  0.0700  0.6007
 5028SOL     OW20919   5.061  10.543   0.027  0.5605  0.3148 -0.0780
 5028SOL    HW120920   5.104  10.545   0.113 -1.0333 -0.5733  0.7911
 5028SOL    HW220921   4.967  10.553   0.047 -0.0690 -1.9781 -1.5020
 5029SOL     OW20922   9.782   0.797   4.644  0.5609  0.0431 -0.1338
 5029SOL    HW120923   9.870   0.785   4.609  0.5992  0.4652 -0.1909
 5029SOL    HW220924   9.774   0.732   4.713 -0.0472 -1.8567 -1.8856
 5030SOL     OW20925   5.155   8.563   7.978  0.5606  0.4946 -0.2965
 5030SOL    HW120926   5.149   8.541   7.885  2.6857 -0.1523 -0.3237
 5030SOL    HW220927   5.087   8.509   8.019  0.2282  0.0748 -1.3546
 5031SOL     OW20928   5.970   4.339   2.473 -0.0072 -0.3853 -0.8736
 5031SOL    HW120929   6.047   4.368   2.424  0.7776 -0.2705  0.3785
 5031SOL    HW220930   5.955   4.249   2.442  1.6212 -0.9982 -0.0326
 5032SOL     OW20931   3.685   3.316   1.294 -0.2338  0.2646  0.7812
 5032SOL    HW120932   3.719   3.228   1.314 -0.0886  0.2167  0.3398
 5032SOL    HW220933   3.749   3.375   1.333 -0.4770  0.1801  1.3244
 5033SOL     OW20934   3.238   0.810   0.517 -0.1649  0.4050 -0.2277
 5033SOL    HW120935   3.286   0.840   0.439  0.5079  0.2553  0.1138
 5033SOL    HW220936   3.307   0.784   0.578 -0.6834 -2.9745 -0.8982
 5034SOL     OW20937   6.187   5.377   4.123  0.0911 -0.6478 -0.4350
 5034SOL    HW120938   6.126   5.450   4.138  0.3468 -0.0101 -2.1956
 5034SOL    HW220939   6.133   5.299   4.132  0.0685 -0.3710  2.7243
 5035SOL     OW20940   3.950   4.756   9.249 -0.4919  0.3396 -0.2590
 5035SOL    HW120941   4.039   4.772   9.217 -0.4871  2.2340  0.5630
 5035SOL    HW220942   3.935   4.826   9.313 -3.2943  1.3408 -1.8230
 5036SOL     OW20943   1.587   7.553   8.823 -0.3063 -0.5713 -0.2979
 5036SOL    HW120944   1.626   7.607   8.754  0.3537  0.6644  0.9870
 5036SOL    HW220945   1.523   7.611   8.865 -0.1324 -1.0345  0.6298
 5037SOL     OW20946   1.097   4.359   3.412 -0.8298 -0.3575  0.4073
 5037SOL    HW120947   1.187   4.378   3.441 -0.9001  1.2185 -0.2917
 5037SOL    HW220948   1.096   4.265   3.396  1.0264 -0.2579 -0.5938
 5038SOL     OW20949   0.060   1.007   4.038  0.4727 -0.6373  0.2133
 5038SOL    HW120950   0.011   1.082   4.073  1.2239  0.3926 -0.8655
 5038SOL    HW220951   0.108   0.973   4.113  0.9284  0.6258  0.5168
 5039SOL     OW20952   0.905   9.108  10.700  0.2110  0.3073 -0.4495
 5039SOL    HW120953   0.818   9.079  10.728  0.0759  1.0021 -0.1261
 5039SOL    HW220954   0.918   9.191  10.746  1.1654  0.0715 -0.2785
 5040SOL     OW20955   2.104   2.298   2.506  0.1046 -0.3036  0.1102
 5040SOL    HW120956   2.061   2.281   2.590  0.1233 -0.0518  0.1721
 5040SOL    HW220957   2.140   2.387   2.515  1.1971 -0.7481  0.3098
 5041SOL     OW20958   1.530  10.121   4.691  0.1196 -0.3610  0.5399
 5041SOL    HW120959   1.526  10.215   4.671  0.7291 -0.9636 -3.1862
 5041SOL    HW220960   1.601  10.112   4.753  2.2565  1.4410 -1.4690
 5042SOL     OW20961   3.051   2.700   7.791 -0.1937 -0.2015 -0.0528
 5042SOL    HW120962   3.018   2.613   7.814 -0.0686 -0.2357 -0.0029
 5042SOL    HW220963   3.000   2.759   7.846 -1.2729 -0.1251 -1.0821
 5043SOL     OW20964   8.314   0.922   2.888 -0.0567 -0.2043  0.1311
 5043SOL    HW120965   8.236   0.871   2.865  0.0656 -0.2598 -0.1638
 5043SOL    HW220966   8.283   1.012   2.893  0.1687 -0.0018 -1.5605
 5044SOL     OW20967   1.592   9.692   6.014 -0.1144  0.7743  0.4089
 5044SOL    HW120968   1.600   9.687   5.919 -0.9440  1.0915  0.3165
 5044SOL    HW220969   1.680   9.714   6.045  0.7045 -1.4691 -0.1034
 5045SOL     OW20970   8.040   7.466  10.047  0.5327 -0.0215 -0.4227
 5045SOL    HW120971   8.041   7.372  10.067  0.2589  0.0872  0.1286
 5045SOL    HW220972   8.038   7.471   9.952  0.1824 -0.5835 -0.4485
 5046SOL     OW20973   8.527   4.087  10.337 -0.0966  0.0179 -0.2008
 5046SOL    HW120974   8.524   4.025  10.264  1.0297  1.0411 -1.1385
 5046SOL    HW220975   8.560   4.168  10.299  0.6228  0.5479  1.4726
 5047SOL     OW20976   6.269   6.893   6.873 -0.1591  0.2375  0.3240
 5047SOL    HW120977   6.241   6.984   6.876  0.3485  0.4241 -0.3735
 5047SOL    HW220978   6.285   6.875   6.781 -0.9830 -0.7899  0.3514
 5048SOL     OW20979   2.031   8.976   7.119  0.0209  0.5685 -0.3025
 5048SOL    HW120980   1.957   9.034   7.133 -0.0450  0.1838  1.1399
 5048SOL    HW220981   2.017   8.939   7.032 -0.2551  2.2237 -0.9875
 5049SOL     OW20982   8.068   7.101   0.064  0.7954 -0.4398 -0.1975
 5049SOL    HW120983   8.034   7.011   0.071 -2.7400  0.7836  0.4353
 5049SOL    HW220984   8.059   7.122  -0.029  0.0667 -0.2328 -0.0859
 5050SOL     OW20985   7.957   4.851   2.923 -0.1458 -0.2220  0.3609
 5050SOL    HW120986   7.950   4.827   3.016  1.1538 -1.4559  0.1747
 5050SOL    HW220987   8.023   4.920   2.921  1.9736 -2.1483  0.1170
 5051SOL     OW20988   1.421   5.560   1.738  0.1963  0.4046  0.0071
 5051SOL    HW120989   1.339   5.609   1.734 -0.0398  0.2537  1.8638
 5051SOL    HW220990   1.479   5.614   1.791  1.1850  0.3251 -0.9653
 5052SOL     OW20991   7.111   9.835   9.487  0.0749  0.2969  0.3449
 5052SOL    HW120992   7.151   9.787   9.560  0.5948  0.9049  0.4744
 5052SOL    HW220993   7.135   9.927   9.504  2.7774  0.2055 -2.1146
 5053SOL     OW20994   0.440   9.004  10.444  0.1138  0.2519 -0.1530
 5053SOL    HW120995   0.494   8.928  10.423  0.8406 -0.0783  2.5931
 5053SOL    HW220996   0.369   9.002  10.380  0.0954 -2.7418 -0.1590
 5054SOL     OW20997   7.629   2.922   7.825  0.2430  0.3157 -0.0230
 5054SOL    HW120998   7.637   2.961   7.738  1.2304 -2.2281 -1.1716
 5054SOL    HW220999   7.711   2.945   7.869  1.7968 -2.0804 -1.4697
 5055SOL     OW21000   0.910   0.086  10.083 -0.2743  0.3315  0.1778
 5055SOL    HW121001   0.912   0.110  10.176 -1.3844 -1.3199  0.6605
 5055SOL    HW221002   0.861   0.156  10.041 -0.8727  0.4557  1.0574
 5056SOL     OW21003   3.902  10.324   6.442  0.3978 -0.7317  0.3436
 5056SOL    HW121004   3.877  10.256   6.504 -2.1165 -1.3260 -1.1663
 5056SOL    HW221005   3.925  10.399   6.496 -1.7051 -1.2145  2.0345
 5057SOL     OW21006   9.843  10.528   7.928  0.0274  0.4260 -0.7062
 5057SOL    HW121007   9.859  10.456   7.867 -0.2535 -0.5553  0.3442
 5057SOL    HW221008   9.810  10.599   7.873  0.0358 -0.3393 -1.7316
 5058SOL     OW21009   9.121  10.290   3.007 -0.2687  0.7951 -0.6509
 5058SOL    HW121010   9.139  10.198   2.990  0.2536  0.9232 -0.8066
 5058SOL    HW221011   9.050  10.311   2.945 -0.3081  0.5312 -0.6986
 5059SOL     OW21012   5.561   2.938   5.994  0.1631  0.4082  0.4472
 5059SOL    HW121013   5.565   3.008   5.929 -0.7556 -0.1615 -0.2377
 5059SOL    HW221014   5.618   2.969   6.065 -0.3937  1.9560  0.2619
 5060SOL     OW21015   7.702   2.287   0.327 -0.6268  0.1237 -0.1444
 5060SOL    HW121016   7.734   2.261   0.240 -1.0600 -2.3613  0.3582
 5060SOL    HW221017   7.781   2.302   0.378 -0.3656  1.8100 -0.9745
 5061SOL     OW21018   0.729   0.539   2.410  0.5158  0.1413 -0.4022
 5061SOL    HW121019   0.799   0.498   2.359 -0.1327 -2.5474  0.7224
 5061SOL    HW221020   0.762   0.542   2.499 -0.2063  0.3234 -0.1354
 5062SOL     OW21021   8.483   9.664  10.565  0.0308 -0.1295 -0.4114
 5062SOL    HW121022   8.461   9.712  10.645 -1.6069  0.2250 -1.0305
 5062SOL    HW221023   8.490   9.732  10.498 -3.3844 -0.6911 -1.5365
 5063SOL     OW21024   6.306   7.685   8.917  0.1766 -0.3945 -0.0409
 5063SOL    HW121025   6.339   7.678   9.006 -0.9703 -0.4520  0.4014
 5063SOL    HW221026   6.224   7.735   8.926 -0.3546 -1.0718 -0.9407
 5064SOL     OW21027   2.141   4.190  10.600  0.2459 -0.2963  0.0274
 5064SOL    HW121028   2.152   4.285  10.595  0.8921 -0.3415  0.4832
 5064SOL    HW221029   2.206   4.161  10.664  0.2494 -1.0826 -0.3164
 5065SOL     OW21030   4.384   8.512   2.042 -0.2484  0.8649 -0.6687
 5065SOL    HW121031   4.430   8.509   2.126 -1.9868  0.9427  0.3370
 5065SOL    HW221032   4.419   8.588   1.997  1.5511  0.1456 -0.5398
 5066SOL     OW21033   8.970   0.717   3.973  0.4826 -0.0096  0.3555
 5066SOL    HW121034   8.902   0.705   3.906  0.5343  0.0339  0.2945
 5066SOL    HW221035   8.947   0.799   4.016  0.5182  0.0254  0.3083
 5067SOL     OW21036   1.375   5.155   4.204 -0.5367 -0.3469 -0.1911
 5067SOL    HW121037   1.389   5.190   4.116  1.1858  1.7668  0.8197
 5067SOL    HW221038   1.296   5.200   4.234 -0.0954  0.3290 -0.0230
 5068SOL     OW21039   1.647   4.935   4.050 -0.4150 -0.0794 -0.1182
 5068SOL    HW121040   1.736   4.950   4.083 -0.6565 -0.7843  0.8913
 5068SOL    HW221041   1.656   4.861   3.991 -0.2901  0.0138 -0.2174
 5069SOL     OW21042   8.382   6.650   0.342 -0.5441  0.2010  0.1266
 5069SOL    HW121043   8.429   6.656   0.258 -1.2328  0.7119 -0.2309
 5069SOL    HW221044   8.446   6.677   0.407 -0.2286  0.5513 -0.3226
 5070SOL     OW21045   9.660   9.045   9.536 -0.0361  0.4051  0.2898
 5070SOL    HW121046   9.609   9.092   9.602  0.6699  0.6654  0.6475
 5070SOL    HW221047   9.659   8.954   9.565 -1.3022  0.1892 -0.3395
 5071SOL     OW21048   0.414   3.854   8.429  0.5590 -0.2419 -0.3853
 5071SOL    HW121049   0.418   3.774   8.481  0.2378  0.4306  0.7078
 5071SOL    HW221050   0.323   3.884   8.437  1.0700  1.1241  0.6301
 5072SOL     OW21051   2.340   2.761   7.556  0.4827  0.0879 -0.4495
 5072SOL    HW121052   2.280   2.805   7.616 -1.1908 -1.5601 -0.8049
 5072SOL    HW221053   2.390   2.702   7.612  0.3213 -0.0083 -0.4046
 5073SOL     OW21054   7.761   3.404   1.617 -0.0545 -0.1100  0.2945
 5073SOL    HW121055   7.698   3.476   1.610  0.0998 -0.0204 -0.1666
 5073SOL    HW221056   7.778   3.378   1.527  0.9592  0.1973  0.3956
 5074SOL     OW21057   1.336   4.536   1.689 -0.3332 -0.8403  0.7959
 5074SOL    HW121058   1.429   4.542   1.710 -0.6462 -1.2867  2.4951
 5074SOL    HW221059   1.294   4.595   1.752 -1.0384  1.5761 -1.7594
 5075SOL     OW21060   6.480   7.262   2.334  0.2141 -0.6247  0.9242
 5075SOL    HW121061   6.518   7.298   2.415  1.3598 -0.2670  0.2508
 5075SOL    HW221062   6.521   7.176   2.325  2.2899  0.4723 -0.7340
 5076SOL     OW21063   9.052   3.398   4.884  0.0258 -0.2693  0.3731
 5076SOL    HW121064   8.987   3.331   4.866 -1.5135  0.8505  1.5208
 5076SOL    HW221065   9.004   3.468   4.928  2.0258  0.5462  1.4304
 5077SOL     OW21066   4.389   4.277   9.279 -0.3478  0.4193  0.3807
 5077SOL    HW121067   4.479   4.250   9.262 -0.3251  0.1679  0.8666
 5077SOL    HW221068   4.381   4.274   9.375 -0.5915  1.3511  0.4015
 5078SOL     OW21069   8.868   6.070   2.457 -0.2269 -0.0062  0.1477
 5078SOL    HW121070   8.781   6.073   2.415  0.9525  0.9284 -2.4970
 5078SOL    HW221071   8.866   6.141   2.521 -2.2232 -1.6704  2.0625
 5079SOL     OW21072   8.782   1.283   0.683  0.5941  0.1125 -0.2883
 5079SOL    HW121073   8.835   1.319   0.612 -0.0745  0.0395 -0.8445
 5079SOL    HW221074   8.695   1.272   0.644 -0.0589  1.0578  0.8384
 5080SOL     OW21075   6.397   0.928   8.769 -0.6870  0.1484 -0.2779
 5080SOL    HW121076   6.463   0.861   8.749 -0.8894  0.0763 -0.7135
 5080SOL    HW221077   6.338   0.926   8.694 -1.6324 -0.3299  0.4572
 5081SOL     OW21078   5.528   9.495   8.211 -0.2723 -0.6311 -0.2697
 5081SOL    HW121079   5.496   9.583   8.193  1.4022 -0.0579 -0.6400
 5081SOL    HW221080   5.617   9.494   8.177 -0.4374 -2.6677 -0.8215
 5082SOL     OW21081   3.234   6.349   7.507 -0.7056  0.1567  0.1281
 5082SOL    HW121082   3.236   6.326   7.600 -3.0763  1.0943  0.4828
 5082SOL    HW221083   3.214   6.443   7.507  0.8655  0.5352 -1.3412
 5083SOL     OW21084   3.789   4.833   6.332  0.3166 -0.4549  0.1605
 5083SOL    HW121085   3.783   4.738   6.316  0.5032 -0.4090 -0.1760
 5083SOL    HW221086   3.857   4.841   6.399 -0.0152 -0.5943  0.5180
 5084SOL     OW21087   1.866   3.407   8.067  0.0690 -0.2729 -0.3401
 5084SOL    HW121088   1.777   3.441   8.056  0.1685  0.1061  0.0007
 5084SOL    HW221089   1.865   3.324   8.020  0.4851  1.2412 -3.2910
 5085SOL     OW21090   9.098   9.389   0.426  0.2795 -0.3914  0.0455
 5085SOL    HW121091   9.096   9.371   0.520  1.0214 -0.0730  0.1254
 5085SOL    HW221092   9.009   9.371   0.397 -0.4472  1.2123  1.1365
 5086SOL     OW21093   1.918   9.384   6.147  0.0740  0.5997 -0.2954
 5086SOL    HW121094   1.841   9.417   6.194 -0.1892  1.6919 -1.4520
 5086SOL    HW221095   1.993   9.413   6.199 -0.2646 -0.2522  0.7048
 5087SOL     OW21096   4.633   1.866   4.796  0.7947  0.1159  0.2685
 5087SOL    HW121097   4.724   1.843   4.813  0.4483  0.2682  2.6356
 5087SOL    HW221098   4.607   1.919   4.871 -0.5709  2.1289 -1.5250
 5088SOL     OW21099   0.893   3.463   8.935  0.2966 -0.0658 -0.5186
 5088SOL    HW121100   0.986   3.451   8.917  0.4137  0.4275 -0.2505
 5088SOL    HW221101   0.849   3.419   8.863  0.6382 -4.3712  1.5616
 5089SOL     OW21102   2.652   3.547   5.271  0.5002  0.4389 -0.4722
 5089SOL    HW121103   2.682   3.571   5.183  2.0699 -0.1087 -0.1205
 5089SOL    HW221104   2.649   3.452   5.270  0.6570  0.4240  0.0964
 5090SOL     OW21105   4.132   2.256   2.942  0.3966 -0.4478 -0.1840
 5090SOL    HW121106   4.056   2.207   2.973  0.9638 -1.4096 -0.2742
 5090SOL    HW221107   4.174   2.197   2.880  1.6433 -0.2532  0.4442
 5091SOL     OW21108   3.956   4.765   6.578  0.6144  0.1160 -0.2297
 5091SOL    HW121109   3.916   4.697   6.522  0.3871  1.7121 -2.1178
 5091SOL    HW221110   3.963   4.724   6.664 -1.5524 -1.5500 -0.7534
 5092SOL     OW21111   7.769   8.732   6.979  0.1480 -0.4259 -0.1083
 5092SOL    HW121112   7.778   8.757   7.071  2.2601 -0.4826 -0.2528
 5092SOL    HW221113   7.728   8.646   6.982 -0.0344 -0.3157  0.7767
 5093SOL     OW21114   6.539   5.944   0.668 -0.3420  0.4988 -0.4720
 5093SOL    HW121115   6.461   5.923   0.615 -0.1085  1.2909 -1.1520
 5093SOL    HW221116   6.612   5.937   0.606  0.4409 -2.3986  0.6425
 5094SOL     OW21117   1.759   2.208   9.848  0.0182 -0.3493 -0.2469
 5094SOL    HW121118   1.709   2.189   9.768  2.0401 -1.9155 -1.2559
 5094SOL    HW221119   1.796   2.295   9.834 -2.1562  0.7470  0.4334
 5095SOL     OW21120   4.796   0.142   2.893  0.0980  0.2350  0.5319
 5095SOL    HW121121   4.861   0.187   2.946 -0.0277  0.0505  0.8414
 5095SOL    HW221122   4.842   0.067   2.856 -0.0395 -0.1118  1.0590
 5096SOL     OW21123   4.436  10.574   0.440 -0.2274 -0.2143  0.1697
 5096SOL    HW121124   4.358  10.628   0.449  0.3118  0.8417 -1.0593
 5096SOL    HW221125   4.404  10.484   0.441 -1.1431  0.0860  2.3175
 5097SOL     OW21126   1.245   9.905   5.870 -0.3271  0.5944 -0.0494
 5097SOL    HW121127   1.242   9.861   5.955 -0.9218  0.7295  0.0035
 5097SOL    HW221128   1.242   9.834   5.806 -0.8002  0.5281  0.0402
 5098SOL     OW21129   1.902  10.100   2.053 -0.0570 -0.4830 -0.2359
 5098SOL    HW121130   1.851  10.037   2.001 -0.2716 -1.1033  0.7041
 5098SOL    HW221131   1.858  10.184   2.038  0.9784 -0.2684 -2.5188
 5099SOL     OW21132   8.190   3.116   2.930  0.0126 -0.1028 -0.1175
 5099SOL    HW121133   8.165   3.128   3.022 -1.2662 -0.0175 -0.4602
 5099SOL    HW221134   8.176   3.023   2.913  2.2139 -0.5657  0.3091
 5100SOL     OW21135   0.407   0.781   4.911  0.2046  0.2090 -0.0262
 5100SOL    HW121136   0.419   0.711   4.974  0.1729  0.3321  0.1164
 5100SOL    HW221137   0.490   0.784   4.863  0.9207  1.3111  1.2128
 5101SOL     OW21138   4.459   0.733   1.087  0.3245 -0.4165  0.1993
 5101SOL    HW121139   4.504   0.732   1.002 -0.4339 -1.0789 -0.2071
 5101SOL    HW221140   4.503   0.665   1.138  0.6745 -0.1267  0.2943
 5102SOL     OW21141   7.969   0.964   7.862 -0.8453  0.2149  0.0071
 5102SOL    HW121142   7.909   0.960   7.788 -1.1382  0.4212  0.2308
 5102SOL    HW221143   8.056   0.952   7.823 -0.8512  1.7945 -0.5779
 5103SOL     OW21144   9.563  10.342   5.915 -0.0811 -0.2443 -0.1458
 5103SOL    HW121145   9.517  10.391   5.847 -0.4075 -0.0333  0.2212
 5103SOL    HW221146   9.649  10.382   5.920 -0.2968  0.2010  0.0534
 5104SOL     OW21147   2.717   5.439   3.793 -0.6442 -0.2689  0.2060
 5104SOL    HW121148   2.749   5.356   3.756 -1.0152  0.0647 -0.8999
 5104SOL    HW221149   2.796   5.483   3.825 -0.5483 -1.4841  1.7912
 5105SOL     OW21150   0.270   3.219   2.807  0.7831 -0.1831  0.0244
 5105SOL    HW121151   0.210   3.192   2.738  0.1605 -0.3077  0.6063
 5105SOL    HW221152   0.250   3.161   2.881  1.3417  0.0399  0.3573
 5106SOL     OW21153   2.919   5.716   4.478  0.4229 -0.1825 -0.4063
 5106SOL    HW121154   2.976   5.792   4.484 -1.2695  1.0901  0.5052
 5106SOL    HW221155   2.898   5.709   4.385  3.0617 -1.5272 -0.9825
 5107SOL     OW21156   9.917   4.049   4.574 -0.0573 -0.0956 -0.1201
 5107SOL    HW121157   9.955   3.963   4.589  0.8786 -0.0271 -1.8572
 5107SOL    HW221158   9.827   4.030   4.545 -0.5861 -0.3629  1.6249
 5108SOL     OW21159   6.830   1.415  10.570 -0.1648 -0.4810  1.1104
 5108SOL    HW121160   6.901   1.403  10.633 -1.1213  0.7106  2.4868
 5108SOL    HW221161   6.814   1.510  10.570 -1.0834 -0.6190  0.0824
 5109SOL     OW21162   4.427   9.365   9.413 -0.2909  0.0092  0.0856
 5109SOL    HW121163   4.389   9.433   9.469  0.7447  1.4247 -0.8446
 5109SOL    HW221164   4.394   9.386   9.325  0.8942 -0.0011 -0.3859
 5110SOL     OW21165   5.728   8.397   2.914  0.3436 -0.0103  0.5338
 5110SOL    HW121166   5.759   8.381   3.003  0.9536  0.2996  0.3790
 5110SOL    HW221167   5.753   8.318   2.865 -0.9612 -0.6703  0.8663
 5111SOL     OW21168   0.641   0.513   4.695  0.4473 -0.0968  0.4992
 5111SOL    HW121169   0.669   0.540   4.783 -0.7336 -0.1698  0.9099
 5111SOL    HW221170   0.572   0.449   4.711 -0.0389  0.1713 -0.4878
 5112SOL     OW21171  10.420   5.434   2.703  0.5020  0.0758 -0.3081
 5112SOL    HW121172  10.423   5.473   2.790 -0.4236 -0.2558 -0.1239
 5112SOL    HW221173  10.508   5.449   2.668  1.2171 -0.7021  1.0678
 5113SOL     OW21174   8.928   2.972   6.515  0.7172  0.4231 -0.0614
 5113SOL    HW121175   9.016   3.007   6.529  0.3585  0.6385  1.8906
 5113SOL    HW221176   8.871   3.033   6.561 -0.3265 -0.3986 -0.2455
 5114SOL     OW21177   5.220   3.641   2.124  0.4301  0.1309 -0.1426
 5114SOL    HW121178   5.140   3.617   2.171 -0.4633  2.0187 -0.5816
 5114SOL    HW221179   5.285   3.656   2.192  0.1951 -0.6995  0.2705
 5115SOL     OW21180   0.167   3.866   7.812  0.4184  0.1168  0.3592
 5115SOL    HW121181   0.075   3.877   7.835  0.7032  1.0257  1.1604
 5115SOL    HW221182   0.177   3.914   7.729  0.6383  2.1310  1.4695
 5116SOL     OW21183   6.197  10.206   3.008  0.1673  0.5637 -0.1679
 5116SOL    HW121184   6.139  10.259   3.063  0.0917  1.4546 -1.0679
 5116SOL    HW221185   6.245  10.151   3.069 -0.4175  1.0289  0.7269
 5117SOL     OW21186   4.277   3.839   8.054  0.1577 -0.1128 -0.5014
 5117SOL    HW121187   4.289   3.915   8.111 -0.3438 -0.2978 -0.1398
 5117SOL    HW221188   4.288   3.763   8.112  1.2227 -0.3368 -0.9732
 5118SOL     OW21189   4.979   2.405   4.248 -0.3946 -0.1035  0.2449
 5118SOL    HW121190   4.984   2.356   4.166  1.4702  0.6338 -0.1324
 5118SOL    HW221191   5.045   2.474   4.239 -2.0970  1.7518  1.2431
 5119SOL     OW21192   6.116   2.957   4.049 -0.1318  0.0459 -0.1124
 5119SOL    HW121193   6.030   2.979   4.084  0.4828  1.4489  0.5802
 5119SOL    HW221194   6.178   2.996   4.110  0.9982  0.2941 -1.3657
 5120SOL     OW21195   0.275   3.658   2.289 -0.1436  0.3366 -0.6245
 5120SOL    HW121196   0.205   3.717   2.263 -0.0804 -0.2749 -2.3108
 5120SOL    HW221197   0.270   3.585   2.227  0.9367 -0.5259  0.2519
 5121SOL     OW21198   8.494  10.214   1.028 -0.7561 -0.0335  0.1085
 5121SOL    HW121199   8.576  10.171   1.050 -0.0219  0.2274 -1.8871
 5121SOL    HW221200   8.426  10.149   1.048  0.1303 -1.1747 -0.4889
 5122SOL     OW21201   0.551   4.551  10.086  0.1878 -0.0948  0.0111
 5122SOL    HW121202   0.594   4.577  10.004  0.8988 -0.4790  0.2517
 5122SOL    HW221203   0.594   4.469  10.110  0.2830  0.2249  0.9922
 5123SOL     OW21204   1.029   6.162   7.147  0.4993 -0.1508 -0.8389
 5123SOL    HW121205   1.066   6.216   7.217  1.9386 -2.4960  0.3354
 5123SOL    HW221206   1.105   6.120   7.106 -0.4538 -0.1504 -2.7038
 5124SOL     OW21207   8.470   6.741   7.056  0.2325 -0.0075  0.0843
 5124SOL    HW121208   8.385   6.783   7.072  0.6530  1.1360 -0.5945
 5124SOL    HW221209   8.462   6.655   7.098 -0.1604  1.2368  2.8222
 5125SOL     OW21210   5.786   3.657   3.749  0.0227  0.3092  0.0473
 5125SOL    HW121211   5.862   3.637   3.696 -1.0866 -0.8389 -1.1697
 5125SOL    HW221212   5.800   3.609   3.831  0.2144 -0.5997 -0.5046
 5126SOL     OW21213   5.892   4.235   8.765 -0.2347  0.4091 -0.0361
 5126SOL    HW121214   5.884   4.320   8.808 -0.3857 -0.0974  0.9514
 5126SOL    HW221215   5.896   4.257   8.672  0.9836  1.5799  0.2459
 5127SOL     OW21216   3.448   6.527   9.181 -0.2530  0.2123 -0.2497
 5127SOL    HW121217   3.462   6.621   9.167  1.2422  0.3997  1.9791
 5127SOL    HW221218   3.517   6.485   9.129 -0.0053  0.4253 -0.0963
 5128SOL     OW21219   4.860   1.693   8.199 -0.6277  0.2018 -0.5608
 5128SOL    HW121220   4.792   1.730   8.143 -0.2633  0.1194 -1.0637
 5128SOL    HW221221   4.909   1.769   8.231 -2.1402  0.4373  1.4036
 5129SOL     OW21222   5.433   1.914   0.255  0.3224 -0.0186  0.1977
 5129SOL    HW121223   5.382   1.921   0.174 -1.0442 -2.6718  0.7473
 5129SOL    HW221224   5.398   1.983   0.311  1.2827  1.8677 -1.3576
 5130SOL     OW21225   7.295   6.560   5.268  0.0239 -0.2679 -0.1398
 5130SOL    HW121226   7.322   6.499   5.200 -0.4902 -0.4479 -0.1916
 5130SOL    HW221227   7.199   6.559   5.264 -0.0811 -1.4200  1.5876
 5131SOL     OW21228   6.695   9.006   3.961  0.3207 -0.2959 -0.5010
 5131SOL    HW121229   6.651   8.939   4.013 -2.2463 -0.2675 -2.4508
 5131SOL    HW221230   6.773   9.029   4.013 -2.0195 -0.1620  3.3434
 5132SOL     OW21231   0.106   9.552   7.669  0.3153  0.0237 -0.5136
 5132SOL    HW121232   0.046   9.517   7.736  1.9590  1.3749  1.8084
 5132SOL    HW221233   0.153   9.475   7.637  1.2029 -0.4594  1.7405
 5133SOL     OW21234   0.132  10.053   8.843 -0.0822  0.3935 -0.0011
 5133SOL    HW121235   0.155  10.087   8.756 -0.0319 -2.7678 -1.3565
 5133SOL    HW221236   0.090   9.969   8.826  0.6307 -0.7280  3.0806
 5134SOL     OW21237   8.045   3.956   5.066 -0.1685 -0.3960  0.0542
 5134SOL    HW121238   8.117   3.893   5.055  1.3094  1.3645 -0.8959
 5134SOL    HW221239   8.007   3.965   4.979  1.2934  1.8217 -0.4425
 5135SOL     OW21240   1.730   0.648   1.550  0.0775  0.3636 -0.4436
 5135SOL    HW121241   1.753   0.736   1.582 -0.3121  0.3397 -0.0851
 5135SOL    HW221242   1.782   0.637   1.470 -0.1491  1.0701 -0.6958
 5136SOL     OW21243   7.819   1.470   6.247 -0.0751  0.2293 -0.6222
 5136SOL    HW121244   7.859   1.509   6.324 -1.1859  2.0829 -0.9323
 5136SOL    HW221245   7.849   1.379   6.249  0.2122  0.2900  1.7948
 5137SOL     OW21246   3.563   4.267   6.022  0.4616 -0.3709 -0.0817
 5137SOL    HW121247   3.534   4.273   5.930 -0.9914  1.0532  0.4232
 5137SOL    HW221248   3.499   4.209   6.063  0.0587  0.3952  0.3953
 5138SOL     OW21249   2.547   9.087   1.696  0.0110 -0.2514 -0.0156
 5138SOL    HW121250   2.584   9.046   1.773 -0.7442 -0.9470 -0.0184
 5138SOL    HW221251   2.453   9.067   1.700 -0.2838  0.9773 -0.3166
 5139SOL     OW21252   9.409   7.713   2.637  0.0201 -0.4124  0.2585
 5139SOL    HW121253   9.502   7.730   2.654 -0.1080 -0.8984  1.5197
 5139SOL    HW221254   9.366   7.797   2.656  0.0990 -0.4269  0.5033
 5140SOL     OW21255   7.148   3.723   5.469  0.4899 -0.3555  0.3830
 5140SOL    HW121256   7.056   3.699   5.478  0.4717 -1.1639 -1.4349
 5140SOL    HW221257   7.147   3.800   5.413  0.9008  0.0002  0.8586
 5141SOL     OW21258   5.929   2.360   6.447 -0.3545 -0.5272 -0.2097
 5141SOL    HW121259   5.841   2.324   6.434 -0.2823 -0.3583 -1.2238
 5141SOL    HW221260   5.950   2.402   6.364  0.6072 -0.3944  0.0951
 5142SOL     OW21261   6.313   0.090   8.794 -0.2224  0.7609  0.6922
 5142SOL    HW121262   6.233   0.137   8.819 -1.7741 -0.4227 -1.7711
 5142SOL    HW221263   6.382   0.137   8.841 -2.0510  3.3223  1.0810
 5143SOL     OW21264   3.665   3.450   5.576 -0.3506 -0.0147  0.3412
 5143SOL    HW121265   3.750   3.422   5.609 -0.5322 -0.2337  0.6363
 5143SOL    HW221266   3.679   3.469   5.484 -0.3738 -1.7886 -0.0644
 5144SOL     OW21267   1.080   0.042   4.010  0.5827  0.6411 -0.3401
 5144SOL    HW121268   1.109  -0.041   4.047  0.1468  0.9434  0.7061
 5144SOL    HW221269   1.149   0.104   4.033  0.2283  0.8661  0.1245
 5145SOL     OW21270   3.622   5.831   9.232 -0.1209  0.0051 -0.4113
 5145SOL    HW121271   3.565   5.897   9.192  0.0015  0.3383 -0.0454
 5145SOL    HW221272   3.568   5.792   9.301  0.9884  2.3965  1.9907
 5146SOL     OW21273   2.937   9.516   5.960 -0.2187  0.6315  0.3273
 5146SOL    HW121274   2.995   9.566   6.017  0.9394  0.9178 -1.0345
 5146SOL    HW221275   2.872   9.579   5.930  0.0423  0.8348  0.1868
 5147SOL     OW21276   9.165   9.013   4.278 -0.0175  0.1808  0.0617
 5147SOL    HW121277   9.217   9.029   4.200 -0.3335  0.9028 -0.0095
 5147SOL    HW221278   9.203   8.934   4.317  0.8293  0.4379 -0.2339
 5148SOL     OW21279   7.790   1.867   4.816  0.2413  0.5316  0.5201
 5148SOL    HW121280   7.846   1.853   4.740 -1.6133 -2.4420 -0.4393
 5148SOL    HW221281   7.711   1.907   4.781 -1.0516 -1.7952  0.6026
 5149SOL     OW21282   9.553   3.146   1.675 -0.5467 -0.3860  0.5977
 5149SOL    HW121283   9.587   3.225   1.634 -0.4918 -0.5765  0.2704
 5149SOL    HW221284   9.518   3.095   1.602  1.2620 -1.6090  0.5192
 5150SOL     OW21285   7.314   8.910   6.216  0.2307 -0.5475  0.0590
 5150SOL    HW121286   7.245   8.852   6.249 -0.7432  0.9195  0.7104
 5150SOL    HW221287   7.388   8.895   6.275 -0.6640  0.2288  1.4374
 5151SOL     OW21288   7.279   6.357   4.105  0.1418 -0.0732 -0.4160
 5151SOL    HW121289   7.356   6.372   4.160  0.1444 -0.0527 -0.4256
 5151SOL    HW221290   7.260   6.264   4.116 -0.8748  0.2540  0.9700
 5152SOL     OW21291   5.407   8.906   5.569  0.4777  0.4743 -0.4716
 5152SOL    HW121292   5.457   8.938   5.644  0.6377  0.5194 -0.5973
 5152SOL    HW221293   5.441   8.817   5.553 -0.2688  0.0668  0.1526
 5153SOL     OW21294   2.665   5.939   2.893  0.0895 -0.5758  0.1031
 5153SOL    HW121295   2.692   5.893   2.814  0.5923 -1.5170  0.7871
 5153SOL    HW221296   2.573   5.914   2.906  0.2339 -1.0610  0.2311
 5154SOL     OW21297   7.179   3.914  10.686 -0.1065  0.9939  0.5576
 5154SOL    HW121298   7.192   3.914  10.591  0.7827  1.8721  0.6532
 5154SOL    HW221299   7.252   3.863  10.720 -1.3283 -0.7421  0.7105
 5155SOL     OW21300  10.563   8.001   8.041 -0.0045  0.4843  0.6071
 5155SOL    HW121301  10.558   7.918   8.089 -0.4442  0.2441  0.1553
 5155SOL    HW221302  10.578   7.976   7.950  4.7725  1.0049  1.0061
 5156SOL     OW21303   4.006   4.579   8.111 -0.0869  0.2235 -0.4034
 5156SOL    HW121304   3.956   4.555   8.189 -0.3875 -1.0313 -0.9632
 5156SOL    HW221305   4.093   4.601   8.145 -0.8613  2.1059  0.5423
 5157SOL     OW21306   0.721   5.839   4.146  0.3910 -0.4398 -0.6184
 5157SOL    HW121307   0.703   5.767   4.086 -1.5543 -0.2277 -0.3336
 5157SOL    HW221308   0.637   5.883   4.157  0.5917 -0.6252  2.4560
 5158SOL     OW21309   1.078   1.408   9.498 -0.2448  0.1481 -0.6503
 5158SOL    HW121310   1.137   1.401   9.574 -0.0443  1.3671 -0.6723
 5158SOL    HW221311   1.094   1.496   9.463 -0.8925 -0.1147 -1.6530
 5159SOL     OW21312  10.462   6.944   9.217 -0.0743  0.0604  0.2026
 5159SOL    HW121313  10.391   6.965   9.278 -0.3627  0.1643 -0.1641
 5159SOL    HW221314  10.514   7.024   9.213 -0.1707  0.1209  0.1553
 5160SOL     OW21315   8.669   0.766   3.549  0.2864  0.2614  0.1926
 5160SOL    HW121316   8.763   0.765   3.529  0.9705  0.7400  2.9314
 5160SOL    HW221317   8.665   0.745   3.643 -2.1754  2.1969  0.6113
 5161SOL     OW21318   6.761   2.498  10.518 -0.6274  0.0404  0.6265
 5161SOL    HW121319   6.740   2.589  10.542  0.6052  1.3337 -2.6258
 5161SOL    HW221320   6.689   2.472  10.460 -0.2099 -0.5079  0.3488
 5162SOL     OW21321   4.191   5.511   5.568 -0.4162 -0.4446  0.1388
 5162SOL    HW121322   4.167   5.591   5.520  0.5026  0.9815  1.9118
 5162SOL    HW221323   4.108   5.479   5.603 -0.9174 -0.7944 -1.3098
 5163SOL     OW21324   2.098   2.541  10.177  0.3732  0.3309  0.6067
 5163SOL    HW121325   2.125   2.459  10.219 -1.2615 -0.3225  0.4291
 5163SOL    HW221326   2.164   2.605  10.206  3.1751 -1.4977 -1.2269
 5164SOL     OW21327   9.427   5.675   5.189 -0.2102 -0.3963 -0.8064
 5164SOL    HW121328   9.443   5.581   5.199  0.1606 -0.3895 -1.2732
 5164SOL    HW221329   9.338   5.688   5.223  0.3190 -0.6420  0.7191
 5165SOL     OW21330   8.284   2.728   8.684  0.5079 -0.0047 -0.3257
 5165SOL    HW121331   8.190   2.709   8.687  0.5448 -0.0665  1.2825
 5165SOL    HW221332   8.325   2.649   8.718  1.1141  0.2535 -0.4525
 5166SOL     OW21333   1.714   2.348   7.765  0.5287 -0.4781  0.2306
 5166SOL    HW121334   1.702   2.439   7.793  0.7628 -0.5688  0.6232
 5166SOL    HW221335   1.637   2.330   7.711  0.3214 -0.1496  0.4111
 5167SOL     OW21336   5.631   4.939   5.269  0.4539 -0.5019  0.4553
 5167SOL    HW121337   5.577   5.007   5.308 -1.0807 -0.9063 -0.8533
 5167SOL    HW221338   5.721   4.969   5.282 -0.1554  1.3811  0.5800
 5168SOL     OW21339  10.720   2.427   8.619 -0.3819 -0.5199 -0.4585
 5168SOL    HW121340  10.773   2.422   8.539  0.8836 -1.1196  0.3732
 5168SOL    HW221341  10.630   2.437   8.588  0.1040 -0.4766 -1.9434
 5169SOL     OW21342   7.196   2.433   4.085  0.0797  0.2861  0.4492
 5169SOL    HW121343   7.219   2.516   4.043 -1.0838  0.1108 -0.5759
 5169SOL    HW221344   7.271   2.376   4.068 -0.2294  0.3269 -1.1126
 5170SOL     OW21345   1.345   4.906   9.202 -0.3180  0.3005  0.8011
 5170SOL    HW121346   1.251   4.884   9.200 -0.0808 -0.8060  1.0168
 5170SOL    HW221347   1.387   4.835   9.154  0.5449 -0.0013  1.9493
 5171SOL     OW21348   8.651   0.012  10.052  0.3566 -0.4966  0.1488
 5171SOL    HW121349   8.708  -0.006  10.127 -1.7039  1.7291  2.4569
 5171SOL    HW221350   8.700   0.076  10.000  1.8214 -2.0819 -0.5285
 5172SOL     OW21351   5.556   8.087   3.251  0.1034  0.7553 -0.1151
 5172SOL    HW121352   5.572   8.113   3.342  0.6565  3.3977 -0.8770
 5172SOL    HW221353   5.576   7.993   3.249  0.8641  0.7938  2.2993
 5173SOL     OW21354   9.954   7.502  10.429 -0.2063  0.4060  0.2945
 5173SOL    HW121355   9.957   7.468  10.340  0.0573  1.3328 -0.0671
 5173SOL    HW221356   9.872   7.551  10.434  0.1162  0.9647  0.3119
 5174SOL     OW21357   7.380   3.865   2.888 -0.1408 -0.4822  0.2618
 5174SOL    HW121358   7.330   3.911   2.821  0.3220 -1.2890 -0.6719
 5174SOL    HW221359   7.414   3.934   2.945 -3.1309  0.0377  1.5693
 5175SOL     OW21360   3.317   3.193   3.797 -0.0201 -0.0748 -0.1976
 5175SOL    HW121361   3.256   3.241   3.853 -0.4307  0.9495 -1.4728
 5175SOL    HW221362   3.403   3.227   3.819 -0.1826  0.3325 -0.1909
 5176SOL     OW21363   4.476   0.200   1.594  0.5230 -0.2006  0.0424
 5176SOL    HW121364   4.411   0.167   1.657  0.6453 -0.0344  0.2559
 5176SOL    HW221365   4.424   0.239   1.524  0.3911  0.0578  0.2810
 5177SOL     OW21366   8.060   3.109   8.103 -0.0052 -0.0152  0.4428
 5177SOL    HW121367   8.093   3.175   8.042  0.5367 -1.4485 -0.8993
 5177SOL    HW221368   8.111   3.122   8.183 -1.0180  2.1781  0.8080
 5178SOL     OW21369   4.908   2.951   5.686 -0.3063  0.2300  0.2865
 5178SOL    HW121370   4.851   2.968   5.761 -1.3292 -1.2787 -0.0999
 5178SOL    HW221371   4.908   2.856   5.677  0.1373  0.3575 -1.3617
 5179SOL     OW21372   2.618   9.981   8.137 -0.0482  0.1998 -0.4846
 5179SOL    HW121373   2.688  10.043   8.119 -0.6969  1.1974  0.2813
 5179SOL    HW221374   2.548  10.035   8.174 -0.8503 -0.9124 -0.3424
 5180SOL     OW21375   2.885   0.841  10.349  0.0634  0.2127  0.8016
 5180SOL    HW121376   2.817   0.787  10.390 -0.8555  1.1691  0.5915
 5180SOL    HW221377   2.920   0.787  10.278 -0.0904 -0.5008  1.2556
 5181SOL     OW21378   2.878   7.936   4.257 -0.1038  0.7552  0.2534
 5181SOL    HW121379   2.915   7.906   4.174  0.6541 -0.4869  1.0069
 5181SOL    HW221380   2.920   8.021   4.273  0.0822  0.7876 -0.4091
 5182SOL     OW21381   4.812  10.483   4.631 -0.5530 -0.5920  0.1562
 5182SOL    HW121382   4.904  10.471   4.607 -0.4208 -0.2973  0.4979
 5182SOL    HW221383   4.789  10.402   4.677 -0.3878 -0.5637  0.2913
 5183SOL     OW21384   8.954   4.678   2.169  0.3391  0.2756 -0.0974
 5183SOL    HW121385   9.008   4.657   2.245  1.4250  2.9962  0.0251
 5183SOL    HW221386   8.933   4.771   2.181 -1.6564  0.1074 -1.8359
 5184SOL     OW21387   6.546   7.368   5.879 -0.3171 -0.4600 -0.6473
 5184SOL    HW121388   6.515   7.420   5.953 -1.0858 -0.8221 -0.6992
 5184SOL    HW221389   6.600   7.300   5.919  2.0687  1.2913 -0.7083
 5185SOL     OW21390   9.328   8.868   8.545 -0.3638 -0.0460 -0.3559
 5185SOL    HW121391   9.407   8.833   8.585 -0.1924 -0.1626 -0.7909
 5185SOL    HW221392   9.359   8.942   8.492 -0.8033  1.2718  1.1470
 5186SOL     OW21393   8.193   4.452   0.657 -0.1095  0.2129 -0.3937
 5186SOL    HW121394   8.148   4.536   0.667  1.0860  0.6372  2.3880
 5186SOL    HW221395   8.244   4.442   0.737 -0.0650 -3.1360 -0.6856
 5187SOL     OW21396   2.218   4.443   7.526  0.2822  0.1677  0.1888
 5187SOL    HW121397   2.265   4.429   7.608 -1.3613  2.3365  1.6411
 5187SOL    HW221398   2.172   4.361   7.510 -0.4380  0.0892  2.2539
 5188SOL     OW21399  10.698   1.508   5.625 -0.7047 -0.2660  0.2758
 5188SOL    HW121400  10.678   1.415   5.614 -0.3419 -0.4820  1.3719
 5188SOL    HW221401  10.729   1.536   5.538  0.6801 -1.5612  0.3081
 5189SOL     OW21402   4.862   3.042   0.139  0.1399  0.9129 -0.2198
 5189SOL    HW121403   4.830   3.131   0.155 -1.8669  0.4539 -1.3310
 5189SOL    HW221404   4.854   3.031   0.044  1.1606 -0.1750 -0.1998
 5190SOL     OW21405   9.787  10.379   1.922  0.8689  0.2492 -0.0376
 5190SOL    HW121406   9.841  10.369   1.843  2.2169 -0.1004  0.9054
 5190SOL    HW221407   9.808  10.304   1.976 -0.4931  0.1758  0.4390
 5191SOL     OW21408   6.863  10.224   6.139  0.0416 -0.2101  0.0862
 5191SOL    HW121409   6.918  10.254   6.067 -1.6181  0.3698 -0.9743
 5191SOL    HW221410   6.830  10.139   6.110 -0.2852 -0.1781  0.3605
 5192SOL     OW21411   8.970   6.644   4.398 -0.4516  0.3825 -0.2482
 5192SOL    HW121412   8.892   6.697   4.411  0.0680  0.9057  0.8829
 5192SOL    HW221413   9.039   6.706   4.377 -0.2402 -0.0364 -0.8296
 5193SOL     OW21414   5.426   4.565  10.594 -0.3779  0.1563  0.1516
 5193SOL    HW121415   5.339   4.603  10.606 -0.7201 -0.8846  1.1324
 5193SOL    HW221416   5.457   4.603  10.512 -1.0079  1.9409  0.6882
 5194SOL     OW21417   2.183   0.490   0.388 -0.1360 -0.3356 -0.1840
 5194SOL    HW121418   2.239   0.556   0.429 -1.0102  0.7172 -0.6471
 5194SOL    HW221419   2.126   0.540   0.330 -0.7564 -1.5193 -0.6119
 5195SOL     OW21420   1.386   5.208   8.372 -0.2601  0.3541  0.7139
 5195SOL    HW121421   1.409   5.131   8.320 -0.3749  0.9369 -0.2307
 5195SOL    HW221422   1.306   5.184   8.418 -0.4305 -0.0154  0.2322
 5196SOL     OW21423   2.566   7.879   7.776 -0.3618 -0.0339  0.2967
 5196SOL    HW121424   2.651   7.878   7.821 -0.1340  0.3549 -0.1150
 5196SOL    HW221425   2.588   7.897   7.684 -0.7610 -1.4186 -0.0936
 5197SOL     OW21426   7.205  10.130   9.329  0.1161 -0.4934  0.6800
 5197SOL    HW121427   7.247  10.206   9.371  0.7791 -0.4632 -0.0265
 5197SOL    HW221428   7.277  10.079   9.293 -0.4278 -0.6061 -0.2796
 5198SOL     OW21429   3.301   4.624   3.687  0.0545 -0.1718 -0.7627
 5198SOL    HW121430   3.327   4.652   3.599 -0.9972 -0.0369 -1.0470
 5198SOL    HW221431   3.269   4.703   3.729  0.2272 -0.3058 -0.3688
 5199SOL     OW21432   1.437   2.122   6.243  0.2320  0.6827 -0.7994
 5199SOL    HW121433   1.529   2.105   6.223  0.2841  0.5749 -0.4618
 5199SOL    HW221434   1.422   2.212   6.214  0.7133  1.0594  0.0920
 5200SOL     OW21435   4.954   1.992   7.812 -0.0023  0.2761  0.3029
 5200SOL    HW121436   4.970   2.046   7.889 -1.7599  0.3850  0.6454
 5200SOL    HW221437   4.955   1.902   7.845  3.2813 -0.0284 -0.3305
 5201SOL     OW21438   8.979   1.944  10.672 -0.4748  0.5360 -0.2803
 5201SOL    HW121439   8.954   1.861  10.713  0.1893  0.2423 -0.4451
 5201SOL    HW221440   9.072   1.953  10.692 -0.4633  1.0685 -0.5594
 5202SOL     OW21441   6.187   2.406   0.051  0.2103 -0.2687 -0.2548
 5202SOL    HW121442   6.157   2.340  -0.012 -0.0238 -1.5326  1.1199
 5202SOL    HW221443   6.243   2.464  -0.000  0.9416 -1.9044 -1.3882
 5203SOL     OW21444   5.966   9.243   3.539 -0.3623 -0.4795  0.4819
 5203SOL    HW121445   5.904   9.213   3.472  0.6049 -0.8601 -0.2759
 5203SOL    HW221446   6.052   9.221   3.503  0.1751 -0.8890  1.9586
 5204SOL     OW21447   2.318   1.984   1.917  0.0697 -0.2808  0.3671
 5204SOL    HW121448   2.407   1.950   1.927  0.3688  0.5050  0.4509
 5204SOL    HW221449   2.327   2.058   1.857 -0.4718 -0.0121  0.6104
 5205SOL     OW21450   7.446   1.378   9.825  0.2376 -0.2093  0.4894
 5205SOL    HW121451   7.477   1.287   9.826  0.1740 -0.2972 -1.5136
 5205SOL    HW221452   7.484   1.417   9.904  1.6667 -1.5311  0.5033
 5206SOL     OW21453   1.062   9.166   3.652  0.5191  0.5312  0.1212
 5206SOL    HW121454   0.984   9.176   3.598  1.4570  0.2479 -1.3314
 5206SOL    HW221455   1.108   9.249   3.644  0.2004  0.8396  1.2856
 5207SOL     OW21456   7.051   6.345   5.899  0.1681  0.4448 -0.5090
 5207SOL    HW121457   7.134   6.392   5.887 -0.5158  1.8051 -0.0495
 5207SOL    HW221458   7.059   6.268   5.843  1.3553  1.0652 -1.2235
 5208SOL     OW21459   6.460   2.329   3.306 -0.0899  0.1620  0.1883
 5208SOL    HW121460   6.531   2.266   3.319  1.0335  1.2360 -0.4530
 5208SOL    HW221461   6.475   2.396   3.373  1.5328  2.0870 -1.9356
 5209SOL     OW21462   3.301   5.876   0.324  0.3721  0.6897 -0.0568
 5209SOL    HW121463   3.345   5.852   0.405 -0.1788  1.1636  0.3889
 5209SOL    HW221464   3.365   5.930   0.277  0.7262  0.3362  0.0092
 5210SOL     OW21465   4.676   6.108   3.014 -0.3480 -0.2699  0.1607
 5210SOL    HW121466   4.707   6.113   3.104 -1.8966 -0.0772  0.6980
 5210SOL    HW221467   4.728   6.174   2.967  0.4289 -0.3356  0.8983
 5211SOL     OW21468   3.752   7.393   4.661 -0.5817  0.8186  0.8807
 5211SOL    HW121469   3.713   7.451   4.595 -0.8080  0.2770  0.5310
 5211SOL    HW221470   3.845   7.388   4.638 -0.7329  0.3200  0.3625
 5212SOL     OW21471   7.464   0.048   0.292 -0.1719  0.3157  0.0375
 5212SOL    HW121472   7.471   0.141   0.315 -1.2904  0.2792  0.6160
 5212SOL    HW221473   7.381   0.041   0.245  0.4971 -0.1954 -1.1191
 5213SOL     OW21474   5.849   8.608   8.113  0.1877 -1.0917 -0.1000
 5213SOL    HW121475   5.757   8.600   8.140  0.2095 -1.5257 -0.1508
 5213SOL    HW221476   5.898   8.596   8.194  0.2351 -1.9052 -0.2429
 5214SOL     OW21477   2.744  10.265   5.992 -0.8751 -0.0235  0.2512
 5214SOL    HW121478   2.664  10.214   6.006 -0.2544 -1.3630 -0.7924
 5214SOL    HW221479   2.743  10.330   6.062 -1.8813 -1.2782  1.4808
 5215SOL     OW21480   6.511   1.495   2.316 -1.1876  0.1561 -0.2353
 5215SOL    HW121481   6.521   1.467   2.225  0.9539  0.6846 -0.1973
 5215SOL    HW221482   6.589   1.546   2.335 -1.9893  0.7671  1.6645
 5216SOL     OW21483   5.886   8.494   0.465  0.1045  0.4043  0.0193
 5216SOL    HW121484   5.869   8.466   0.375  1.0652  3.0879 -1.1182
 5216SOL    HW221485   5.886   8.590   0.460  2.9700  0.6663  2.2719
 5217SOL     OW21486   4.212   3.372   2.189 -0.0890  0.2702 -0.6986
 5217SOL    HW121487   4.241   3.457   2.221  0.2359 -0.5227  1.2644
 5217SOL    HW221488   4.288   3.336   2.144  1.3164 -0.7173  2.2012
 5218SOL     OW21489   0.146   4.356   1.948  0.0393 -0.3325  0.4121
 5218SOL    HW121490   0.143   4.332   2.041  1.6884  0.5294  0.7316
 5218SOL    HW221491   0.229   4.319   1.917 -0.8892 -1.3348 -0.9537
 5219SOL     OW21492   3.526   3.049   3.953  0.3357 -0.3025  0.2651
 5219SOL    HW121493   3.489   3.046   4.042  0.3146 -1.5197  0.2210
 5219SOL    HW221494   3.450   3.037   3.896  0.3572  0.4344  0.0736
 5220SOL     OW21495   5.026   0.963   4.283 -0.4661 -0.0573 -0.8490
 5220SOL    HW121496   5.112   0.921   4.271  0.8031  2.0334  0.2511
 5220SOL    HW221497   5.041   1.055   4.262 -2.0428  0.6486  0.8573
 5221SOL     OW21498   5.935   9.747   0.630  0.0667 -0.0637 -0.1935
 5221SOL    HW121499   5.854   9.751   0.681  1.2181 -1.0454  1.9011
 5221SOL    HW221500   5.907   9.725   0.541 -1.9425 -0.8077  0.5533
 5222SOL     OW21501   5.895   9.465   6.075 -0.1714  0.1249 -0.6914
 5222SOL    HW121502   5.893   9.533   6.008 -0.3104 -0.1716 -0.9918
 5222SOL    HW221503   5.903   9.513   6.157  0.9737  0.4484 -0.9762
 5223SOL     OW21504   7.169   5.682   6.108 -0.3558  0.7479  0.3311
 5223SOL    HW121505   7.208   5.626   6.175  2.7530  2.7108  0.3625
 5223SOL    HW221506   7.102   5.732   6.155  0.6772  0.9619  1.6533
 5224SOL     OW21507   1.785   0.371   9.424  0.1347  0.0098 -0.2569
 5224SOL    HW121508   1.817   0.292   9.467 -0.4356 -0.5194 -0.8068
 5224SOL    HW221509   1.862   0.429   9.421 -0.0737  0.6340  2.6840
 5225SOL     OW21510   6.607   0.586   1.124 -0.6333 -0.2410 -0.5520
 5225SOL    HW121511   6.617   0.661   1.066 -1.5941  0.0497 -0.3608
 5225SOL    HW221512   6.682   0.591   1.183 -1.0158  0.9530 -0.1277
 5226SOL     OW21513   9.450   1.272   6.945 -0.3750 -0.0606 -0.4821
 5226SOL    HW121514   9.518   1.212   6.915  0.7159  2.2080 -3.0523
 5226SOL    HW221515   9.496   1.339   6.996 -1.5787 -1.2937  2.4467
 5227SOL     OW21516   7.243   2.871   9.094 -0.2969 -0.5493 -0.0217
 5227SOL    HW121517   7.275   2.902   9.179  0.8911  0.7808 -0.9292
 5227SOL    HW221518   7.194   2.945   9.058 -0.6292 -1.0356 -0.5815
 5228SOL     OW21519   0.165   3.041   1.853  0.2406 -0.4442 -0.2623
 5228SOL    HW121520   0.201   3.037   1.764 -0.5315 -0.8692 -0.5731
 5228SOL    HW221521   0.106   2.965   1.857  0.2223 -0.3889  0.5939
 5229SOL     OW21522   4.425   8.625   0.103  0.6939  0.2168 -0.3735
 5229SOL    HW121523   4.501   8.629   0.161 -1.7295  0.1089  3.1598
 5229SOL    HW221524   4.413   8.531   0.087  0.1846  0.0719  0.7719
 5230SOL     OW21525   7.132   4.283   3.977 -0.4414  0.5090  0.4185
 5230SOL    HW121526   7.055   4.247   4.021 -0.0320  0.2772  0.9646
 5230SOL    HW221527   7.134   4.240   3.892 -0.2193 -0.4237  0.8880
 5231SOL     OW21528   2.910   3.838   4.149 -0.1924 -0.1161 -0.3174
 5231SOL    HW121529   2.861   3.917   4.170 -0.4607 -0.5909  0.9437
 5231SOL    HW221530   2.843   3.775   4.123 -0.0385 -0.1240 -0.6967
 5232SOL     OW21531   6.899   6.581  10.554 -0.4292  0.1723  0.7897
 5232SOL    HW121532   6.843   6.658  10.547  0.1080  0.5442  0.6076
 5232SOL    HW221533   6.944   6.575  10.470 -1.2909 -0.9908  0.3737
 5233SOL     OW21534   9.914   1.387   6.753 -0.7167  0.0616  0.2094
 5233SOL    HW121535   9.878   1.378   6.841 -0.5671  0.1457  0.2789
 5233SOL    HW221536   9.910   1.298   6.717 -0.5481 -0.0190  0.3902
 5234SOL     OW21537   1.227   6.148   0.405 -0.3614 -0.1814  0.1995
 5234SOL    HW121538   1.242   6.149   0.500 -0.2650  0.4840  0.1828
 5234SOL    HW221539   1.256   6.061   0.377  0.1950 -0.1621  0.6930
 5235SOL     OW21540   9.441   5.929   2.840 -0.6225 -0.9180 -0.6111
 5235SOL    HW121541   9.376   5.902   2.905  0.4942  0.4050  1.1398
 5235SOL    HW221542   9.404   6.008   2.801 -1.0835 -1.4520 -1.2708
 5236SOL     OW21543   0.584   2.087   0.551  0.6518  0.1594 -0.5155
 5236SOL    HW121544   0.636   2.121   0.624 -0.1695 -1.3158  0.8113
 5236SOL    HW221545   0.593   2.153   0.482  2.2735  1.1002  0.5506
 5237SOL     OW21546   3.351   7.306  10.684  0.4152 -0.0778 -0.0056
 5237SOL    HW121547   3.311   7.356  10.613  1.5517 -0.1531 -0.7238
 5237SOL    HW221548   3.284   7.304  10.752  0.3683  2.6034  0.1425
 5238SOL     OW21549   9.319   8.040   1.667  0.1852  0.1985  0.1960
 5238SOL    HW121550   9.290   7.965   1.719  1.0459 -1.2580 -1.3432
 5238SOL    HW221551   9.241   8.067   1.619  0.2016 -0.6101 -0.2932
 5239SOL     OW21552   3.877   2.920   3.595  0.4654  0.6281  0.5539
 5239SOL    HW121553   3.911   2.982   3.660  1.3785  0.5896  0.1325
 5239SOL    HW221554   3.954   2.870   3.568 -0.0968 -0.0589  0.2086
 5240SOL     OW21555   8.896   7.871   0.187  0.7297 -0.1615  0.0649
 5240SOL    HW121556   8.802   7.855   0.175  0.7305 -0.3575  0.3065
 5240SOL    HW221557   8.921   7.926   0.113  0.0506  1.3939  0.9637
 5241SOL     OW21558   6.461   8.980   6.520  0.4508  0.5696  0.2344
 5241SOL    HW121559   6.499   8.967   6.433  0.9097  3.2528 -0.0615
 5241SOL    HW221560   6.530   9.024   6.569 -0.4167  0.6715  1.3968
 5242SOL     OW21561   8.761   8.780   7.202 -0.7404  0.5296  0.0713
 5242SOL    HW121562   8.769   8.846   7.133 -0.1117 -1.9458 -2.4372
 5242SOL    HW221563   8.851   8.763   7.229 -1.0002  1.6649  1.7921
 5243SOL     OW21564   6.130   9.615   4.985  0.1938  0.0069 -0.2626
 5243SOL    HW121565   6.131   9.705   4.951 -0.1025  0.0548 -0.1421
 5243SOL    HW221566   6.087   9.622   5.070  1.2328 -0.0634  0.2835
 5244SOL     OW21567   3.439   6.072   3.086  0.1831 -0.6855  0.4239
 5244SOL    HW121568   3.376   6.048   3.154  1.8514 -2.7423  1.3937
 5244SOL    HW221569   3.467   6.161   3.108 -2.2597  0.2643 -0.0297
 5245SOL     OW21570   0.720   0.854   1.533 -0.1985  0.2372  0.9595
 5245SOL    HW121571   0.633   0.814   1.545  0.0586 -0.5196  0.3795
 5245SOL    HW221572   0.746   0.828   1.444  0.8164  0.0710  1.2923
 5246SOL     OW21573   1.821   3.954   6.948  0.3613  0.0778 -0.0999
 5246SOL    HW121574   1.814   3.861   6.973  0.8795  0.3511  1.1759
 5246SOL    HW221575   1.822   3.953   6.852 -0.1743 -1.1906 -0.1169
 5247SOL     OW21576   3.975   5.214   1.821  0.0924 -0.6840  0.5405
 5247SOL    HW121577   4.004   5.249   1.905 -4.6029  3.7605  0.7633
 5247SOL    HW221578   4.042   5.241   1.759 -0.1926  3.5830  1.7997
 5248SOL     OW21579   9.239   3.569   9.364 -0.3283 -0.7069 -0.3206
 5248SOL    HW121580   9.280   3.501   9.311 -0.0387 -0.3646 -0.5363
 5248SOL    HW221581   9.306   3.636   9.374 -0.9294 -0.0009 -0.9355
 5249SOL     OW21582   4.203   9.986   8.807  0.8329  0.3869  0.1410
 5249SOL    HW121583   4.266  10.057   8.819  0.8299  0.1381  1.9117
 5249SOL    HW221584   4.118  10.027   8.821  0.6735  0.4228 -0.8324
 5250SOL     OW21585   6.251   8.269   1.820 -0.4327 -0.0268 -0.3311
 5250SOL    HW121586   6.193   8.193   1.807 -0.3236 -0.0589 -0.6336
 5250SOL    HW221587   6.326   8.252   1.763 -1.1020  1.0392 -1.6078
 5251SOL     OW21588   7.350   6.858   9.546  0.4424  0.4913  0.1644
 5251SOL    HW121589   7.270   6.900   9.577  1.0675  1.6616  0.2568
 5251SOL    HW221590   7.350   6.773   9.588 -1.0831  0.1886 -0.3547
 5252SOL     OW21591   6.673   5.293   7.771 -0.3776 -0.8035  0.0258
 5252SOL    HW121592   6.643   5.289   7.680 -0.3733 -1.6403  0.0467
 5252SOL    HW221593   6.604   5.247   7.820  0.9129 -2.8461  0.0608
 5253SOL     OW21594   4.760   0.279   9.413  0.1906 -0.5274 -0.1091
 5253SOL    HW121595   4.717   0.332   9.480  1.2162 -1.3099  1.2219
 5253SOL    HW221596   4.711   0.196   9.414  0.7704 -0.8789  0.3689
 5254SOL     OW21597   1.146   9.446   4.644 -0.0740  0.1042 -0.0071
 5254SOL    HW121598   1.118   9.536   4.663 -0.2267  0.2985 -1.1117
 5254SOL    HW221599   1.141   9.438   4.549  1.8389 -0.4495 -0.1136
 5255SOL     OW21600   7.165   2.858   9.382  0.0619 -0.4873  0.0009
 5255SOL    HW121601   7.195   2.818   9.464 -1.1500  0.1541  0.7786
 5255SOL    HW221602   7.139   2.783   9.328  0.6635 -0.9042  0.2765
 5256SOL     OW21603   1.441   3.339   3.727 -0.5076 -0.4384 -0.3083
 5256SOL    HW121604   1.495   3.270   3.689  2.1230 -0.3834  2.8059
 5256SOL    HW221605   1.364   3.294   3.760 -0.4232 -1.2971 -1.2662
 5257SOL     OW21606   5.118   6.880   9.233  0.0097 -0.2404  0.1019
 5257SOL    HW121607   5.142   6.788   9.243 -2.1647 -0.8675 -0.0419
 5257SOL    HW221608   5.075   6.884   9.147 -1.6423  0.4969  0.9274
 5258SOL     OW21609   2.141   4.757   5.957  0.2070 -0.0113  0.3308
 5258SOL    HW121610   2.089   4.832   5.930  0.4445 -0.3252 -1.1126
 5258SOL    HW221611   2.079   4.696   5.996 -0.2216  0.3324  0.1845
 5259SOL     OW21612   4.069   3.715   8.636  0.4625  0.1080  0.3533
 5259SOL    HW121613   3.992   3.752   8.680 -0.7076 -0.4425 -1.1596
 5259SOL    HW221614   4.142   3.770   8.666 -0.3414  0.1059  2.5170
 5260SOL     OW21615   1.859   4.998   7.693  0.9335 -1.3531 -0.5822
 5260SOL    HW121616   1.775   5.030   7.661  1.0618  2.5313  2.2711
 5260SOL    HW221617   1.923   5.030   7.628  0.6836  1.5163  0.4334
 5261SOL     OW21618   2.982   3.992  10.319 -0.1594  0.0224 -0.1701
 5261SOL    HW121619   2.888   4.007  10.324 -0.4738 -1.6455 -0.4660
 5261SOL    HW221620   2.990   3.898  10.301  1.5279  0.3129 -1.1586
 5262SOL     OW21621   4.683   5.847   4.497  0.2640 -0.2991  0.4804
 5262SOL    HW121622   4.610   5.826   4.556  1.0421 -4.7536  0.1723
 5262SOL    HW221623   4.643   5.851   4.410  0.1264 -1.3350  0.4788
 5263SOL     OW21624   6.421   6.596   3.138  0.2206  0.5601 -0.0135
 5263SOL    HW121625   6.398   6.670   3.081 -0.0535  0.0397 -0.6061
 5263SOL    HW221626   6.361   6.526   3.110 -1.8207  1.0387  2.6996
 5264SOL     OW21627   0.365   1.067   7.790  0.1725 -0.1103  0.2269
 5264SOL    HW121628   0.305   1.140   7.794  0.3446  0.0324  0.2154
 5264SOL    HW221629   0.345   1.023   7.707  0.6788  0.4498 -0.1951
 5265SOL     OW21630   8.112   6.968   3.938 -0.0018  0.4458  0.4782
 5265SOL    HW121631   8.173   6.934   3.872  0.2014  0.8770  0.4461
 5265SOL    HW221632   8.028   6.971   3.893 -0.3139 -1.2492  0.8507
 5266SOL     OW21633   2.245   9.152   6.058 -0.4335 -0.1624 -0.1332
 5266SOL    HW121634   2.266   9.060   6.078  2.3718  0.5403  0.5396
 5266SOL    HW221635   2.310   9.202   6.106 -1.2044  2.1704 -1.4007
 5267SOL     OW21636   7.064   5.199   5.983  0.3795 -0.3048 -0.3683
 5267SOL    HW121637   7.008   5.125   6.008 -1.1303  0.9955  0.2773
 5267SOL    HW221638   7.152   5.173   6.010 -0.4688 -0.9123  2.0450
 5268SOL     OW21639   7.178   5.858   4.237  0.0005 -0.7193  0.1598
 5268SOL    HW121640   7.092   5.847   4.276 -0.1383  0.4931  0.2188
 5268SOL    HW221641   7.234   5.798   4.286 -0.7664 -1.4192  0.2135
 5269SOL     OW21642   0.167   7.258   3.974 -0.0313 -0.2288  0.5090
 5269SOL    HW121643   0.226   7.185   3.959  2.5600  1.6292  0.9262
 5269SOL    HW221644   0.159   7.301   3.889 -1.2962 -0.7719  0.3307
 5270SOL     OW21645   1.669   3.771   3.109  0.1078  0.2335 -0.0787
 5270SOL    HW121646   1.720   3.798   3.032  0.8113  3.1394  1.2750
 5270SOL    HW221647   1.713   3.692   3.141  1.5259  0.6065 -1.0318
 5271SOL     OW21648   2.312   4.045   2.355 -0.6583 -0.0738 -0.3206
 5271SOL    HW121649   2.219   4.033   2.335 -0.6486  1.3266 -1.3061
 5271SOL    HW221650   2.342   4.113   2.295  0.5053  1.0231  1.3885
 5272SOL     OW21651   2.090  10.481   7.353  0.4943  0.3917 -0.2666
 5272SOL    HW121652   2.053  10.561   7.390  0.8176  0.1972  0.5058
 5272SOL    HW221653   2.077  10.414   7.421  0.4102 -0.1597 -0.8182
 5273SOL     OW21654   3.360   0.432   1.928 -0.5495  0.1610 -0.2020
 5273SOL    HW121655   3.393   0.521   1.939 -0.5389  0.4527 -2.2569
 5273SOL    HW221656   3.291   0.439   1.863  0.2312 -1.4677 -1.2902
 5274SOL     OW21657   3.861   0.220   6.823 -0.0792  0.5849  0.0396
 5274SOL    HW121658   3.827   0.272   6.896 -0.4522  2.3798 -1.3302
 5274SOL    HW221659   3.816   0.256   6.746 -0.2013 -1.6756 -1.0197
 5275SOL     OW21660   7.598   1.013   8.700  0.7519  0.0897 -0.0833
 5275SOL    HW121661   7.675   0.970   8.736 -0.7900 -1.4790  1.5925
 5275SOL    HW221662   7.620   1.030   8.609  3.8841  1.8549  0.8775
 5276SOL     OW21663   3.946   1.330   5.091 -0.4765  0.4260  0.1110
 5276SOL    HW121664   3.852   1.333   5.073 -0.0129  1.2570 -2.6916
 5276SOL    HW221665   3.981   1.270   5.025  0.9923  0.1728  1.0748
 5277SOL     OW21666   5.314   2.110   7.810 -0.4283 -0.0655 -0.2564
 5277SOL    HW121667   5.376   2.083   7.742 -0.1446 -1.3954  0.4876
 5277SOL    HW221668   5.367   2.164   7.869 -0.4289  0.2920 -0.5847
 5278SOL     OW21669   4.620   6.239   0.160  0.6641 -0.1628 -0.0558
 5278SOL    HW121670   4.603   6.181   0.086  0.8235 -0.9928  0.5429
 5278SOL    HW221671   4.712   6.262   0.153  1.0459 -1.3807  0.6526
 5279SOL     OW21672   7.031   4.839   8.361 -0.2418  0.5777 -0.0800
 5279SOL    HW121673   7.057   4.829   8.269 -1.1733 -0.5135 -0.2372
 5279SOL    HW221674   6.938   4.858   8.358 -0.4863 -0.4218  0.6658
 5280SOL     OW21675   1.417   6.765   9.596 -0.0996  0.0002 -0.2085
 5280SOL    HW121676   1.334   6.795   9.559 -1.1769 -0.7230  1.4688
 5280SOL    HW221677   1.449   6.699   9.535  0.0287  1.3322 -1.6361
 5281SOL     OW21678   3.934   5.666   4.772  0.4305  0.1494  0.3266
 5281SOL    HW121679   3.906   5.733   4.835 -0.2386  0.6760 -0.5076
 5281SOL    HW221680   3.930   5.584   4.821  0.7134  0.6374  1.2046
 5282SOL     OW21681   4.392   9.140   4.970 -0.2815 -0.0449 -0.5968
 5282SOL    HW121682   4.355   9.174   4.888  0.8644 -1.1093 -1.5844
 5282SOL    HW221683   4.482   9.172   4.971  0.2887 -1.5594 -0.7008
 5283SOL     OW21684   1.941   7.455   6.153  0.0463  0.1850 -0.6086
 5283SOL    HW121685   1.891   7.416   6.226 -0.4213  1.8452  0.0002
 5283SOL    HW221686   2.032   7.430   6.171 -0.1070  0.2624  0.3490
 5284SOL     OW21687   3.615  10.534   3.205 -0.1175  0.2100 -0.0756
 5284SOL    HW121688   3.586  10.574   3.287  1.6984  2.9516 -0.6318
 5284SOL    HW221689   3.549  10.467   3.187 -2.8882  2.2828  1.4851
 5285SOL     OW21690   4.663   0.453   5.163  0.8726 -0.7179 -0.6003
 5285SOL    HW121691   4.660   0.358   5.177  0.5878 -0.5716  0.4462
 5285SOL    HW221692   4.689   0.463   5.072 -0.5762 -1.8185 -1.1794
 5286SOL     OW21693   3.846   7.434   7.113 -0.3557  0.6500  0.0158
 5286SOL    HW121694   3.826   7.519   7.152  0.9157  0.6537  0.7422
 5286SOL    HW221695   3.775   7.417   7.052 -0.4161  2.4377 -0.4483
 5287SOL     OW21696   0.912   6.241   9.496  0.2690  1.1274 -0.2136
 5287SOL    HW121697   0.926   6.259   9.404  0.8813  0.9418 -0.1585
 5287SOL    HW221698   0.982   6.288   9.541  0.5313  0.4515  0.0887
 5288SOL     OW21699   3.457   7.909   8.233 -0.1653  0.1917 -0.0356
 5288SOL    HW121700   3.434   7.905   8.141 -0.0094  0.0758 -0.0708
 5288SOL    HW221701   3.524   7.977   8.239  1.3697 -1.2163 -0.3557
 5289SOL     OW21702   7.080   1.002   2.853  0.4720  0.3799  0.7419
 5289SOL    HW121703   7.110   1.059   2.782  0.5368 -0.5630 -0.0108
 5289SOL    HW221704   7.089   1.055   2.932  1.9180  0.9180  0.2482
 5290SOL     OW21705   6.713   2.868   8.321  0.2272 -0.2431  0.6249
 5290SOL    HW121706   6.660   2.793   8.347 -1.8218  0.9440  0.1285
 5290SOL    HW221707   6.755   2.841   8.239  0.6479 -1.3136  1.1766
 5291SOL     OW21708   8.354   9.858  10.371  0.4154  0.2119 -0.4864
 5291SOL    HW121709   8.384   9.872  10.281  0.2285 -0.3877 -0.6489
 5291SOL    HW221710   8.389   9.932  10.420 -1.7955  2.1264 -1.5752
 5292SOL     OW21711   4.428   9.092   4.588 -0.1931 -0.0772 -0.4586
 5292SOL    HW121712   4.432   9.006   4.631 -0.6927  0.6217  1.0369
 5292SOL    HW221713   4.454   9.074   4.497 -1.0711 -1.9584 -0.3973
 5293SOL     OW21714   7.928   3.577   8.073 -0.0101 -0.1396 -0.1573
 5293SOL    HW121715   7.840   3.542   8.089  0.2613 -0.5156  0.5631
 5293SOL    HW221716   7.959   3.530   7.996 -0.6203  0.3458 -0.7199
 5294SOL     OW21717   4.868   9.052   8.437  0.2192 -0.3751 -0.3580
 5294SOL    HW121718   4.926   9.093   8.373  0.2801 -0.1799 -0.1794
 5294SOL    HW221719   4.784   9.047   8.393  0.0932  0.3659 -0.2232
 5295SOL     OW21720   9.933   2.031   9.442 -0.1230  0.5861  0.7223
 5295SOL    HW121721   9.980   2.108   9.473  0.9185 -0.2562  1.3151
 5295SOL    HW221722   9.887   1.998   9.519  1.0261 -0.4850  0.9840
 5296SOL     OW21723   3.509   2.860   4.889  0.6404  0.3456 -0.3001
 5296SOL    HW121724   3.565   2.905   4.826  0.6823 -0.6489 -0.9923
 5296SOL    HW221725   3.511   2.768   4.862 -1.2020  0.2571 -0.2496
 5297SOL     OW21726  10.020  10.473  10.354 -0.2372  0.3403 -0.3031
 5297SOL    HW121727  10.063  10.558  10.363  1.5154 -0.5290 -0.0151
 5297SOL    HW221728  10.068  10.429  10.283  0.0972 -1.0909  0.7638
 5298SOL     OW21729   0.843   0.034   3.466 -0.9682  0.0723 -0.3801
 5298SOL    HW121730   0.892   0.024   3.548 -1.1003  0.1189 -0.2949
 5298SOL    HW221731   0.772  -0.030   3.473  1.4223 -3.1366 -2.2961
 5299SOL     OW21732   5.844   0.524   8.039 -0.4595 -0.6969 -0.1912
 5299SOL    HW121733   5.789   0.563   7.971 -0.9999  0.0750  0.6661
 5299SOL    HW221734   5.866   0.437   8.005 -2.0361 -0.9460 -0.6443
 5300SOL     OW21735   3.348   9.241   6.413 -0.4319  0.2195  0.5199
 5300SOL    HW121736   3.307   9.163   6.376 -0.6753  0.7790 -0.4177
 5300SOL    HW221737   3.415   9.266   6.350 -0.3847  0.7964  0.7895
 5301SOL     OW21738   2.430   6.569   3.867 -0.6319 -0.4771 -0.0248
 5301SOL    HW121739   2.511   6.614   3.841  0.8790 -0.9200  3.3989
 5301SOL    HW221740   2.368   6.591   3.798  1.7083  1.8948 -1.5882
 5302SOL     OW21741   2.481   4.216   6.268  0.0139 -0.2081  0.7166
 5302SOL    HW121742   2.458   4.225   6.175  1.8188 -3.0684 -0.1156
 5302SOL    HW221743   2.453   4.128   6.291  1.7375 -0.4221  2.2166
 5303SOL     OW21744   6.293   0.928   4.417 -0.8667 -0.6305 -0.3389
 5303SOL    HW121745   6.325   0.987   4.486  1.3830  0.0658 -1.8315
 5303SOL    HW221746   6.233   0.982   4.366 -0.7934 -0.4250 -0.2109
 5304SOL     OW21747   3.378   5.086   8.990  0.2557 -0.2356  0.0685
 5304SOL    HW121748   3.292   5.125   8.973  0.1834 -0.5342 -0.2634
 5304SOL    HW221749   3.413   5.066   8.903  0.5890 -0.2686  0.2081
 5305SOL     OW21750   8.717   2.764   6.552  0.2143 -0.1113 -0.1753
 5305SOL    HW121751   8.680   2.779   6.639 -0.0172  1.7009 -0.5447
 5305SOL    HW221752   8.797   2.816   6.551  0.1000  0.0620 -1.1241
 5306SOL     OW21753   4.088   9.025  10.667  0.6004 -0.1478  0.1895
 5306SOL    HW121754   4.152   9.031  10.595 -0.6509 -1.5083 -1.1215
 5306SOL    HW221755   4.134   9.061  10.743  1.7643  1.9911 -1.4068
 5307SOL     OW21756   5.174   2.310   7.301 -0.4068  0.5623 -0.4086
 5307SOL    HW121757   5.268   2.323   7.288 -0.3471  0.5809  0.0281
 5307SOL    HW221758   5.135   2.330   7.216 -0.2085  2.5041 -0.0680
 5308SOL     OW21759   7.938  10.311   6.877 -0.2882  0.4809  0.7635
 5308SOL    HW121760   7.992  10.256   6.820 -0.6092 -0.4357  1.3194
 5308SOL    HW221761   7.944  10.399   6.839  1.5831  0.4077  0.8140
 5309SOL     OW21762   7.988   9.059   9.059 -0.4241  0.3049  0.0256
 5309SOL    HW121763   8.083   9.067   9.060 -0.2165 -1.5537 -1.0008
 5309SOL    HW221764   7.959   9.119   8.990  0.1451 -0.1369 -0.6091
 5310SOL     OW21765   3.072   0.423   8.658  0.4653  0.1103 -0.0244
 5310SOL    HW121766   3.150   0.417   8.713 -0.7556 -1.5001  1.6578
 5310SOL    HW221767   3.091   0.368   8.582  0.9483 -0.3245  0.4032
 5311SOL     OW21768   8.416   2.166   5.375 -0.2600 -0.3053  0.1573
 5311SOL    HW121769   8.406   2.088   5.321 -2.0632 -0.5494  0.7973
 5311SOL    HW221770   8.495   2.150   5.426 -0.0052 -1.2171 -0.5054
 5312SOL     OW21771   9.468   6.225   2.170  0.0408  0.1915 -0.5920
 5312SOL    HW121772   9.441   6.316   2.182 -0.7509  0.0228 -1.0083
 5312SOL    HW221773   9.463   6.210   2.076  0.7305 -0.1220 -0.5866
 5313SOL     OW21774   9.343   0.365   5.002  0.1321  0.2902 -0.5358
 5313SOL    HW121775   9.336   0.300   5.071 -1.2216  1.2611  0.2952
 5313SOL    HW221776   9.256   0.368   4.962 -0.4705  2.8589  0.7105
 5314SOL     OW21777   2.001   9.368   4.677  0.1468 -0.3070 -0.1650
 5314SOL    HW121778   2.090   9.341   4.700  1.0815  1.2036 -1.7577
 5314SOL    HW221779   1.971   9.302   4.614  0.6067 -0.1921 -0.5073
 5315SOL     OW21780   2.001   2.097   6.803 -0.3507  0.0628 -0.0946
 5315SOL    HW121781   2.010   2.124   6.895 -1.5169  0.4454 -0.0822
 5315SOL    HW221782   1.968   2.008   6.807  3.1558 -1.4201 -0.1418
 5316SOL     OW21783   2.376  10.210   7.429  0.3638  0.1471  0.0898
 5316SOL    HW121784   2.399  10.162   7.509 -0.7163 -1.4425 -0.5071
 5316SOL    HW221785   2.284  10.233   7.441  0.0124 -0.6537 -0.9368
 5317SOL     OW21786   8.398   4.632   4.472  0.3953  0.0281  0.4752
 5317SOL    HW121787   8.468   4.654   4.535  0.9461 -1.1299  0.2946
 5317SOL    HW221788   8.427   4.550   4.433 -1.4384 -0.8705  0.9261
 5318SOL     OW21789   1.589   2.770   1.633  0.4556 -0.2821 -0.5871
 5318SOL    HW121790   1.503   2.757   1.672 -0.3238 -0.0917 -2.1505
 5318SOL    HW221791   1.646   2.707   1.677 -0.5353 -0.5855  0.2920
 5319SOL     OW21792   7.232   0.012   2.992 -0.3355 -0.2652 -0.6106
 5319SOL    HW121793   7.291  -0.061   3.011 -0.0510  0.1868  0.2992
 5319SOL    HW221794   7.291   0.084   2.967 -0.4822  0.1773  0.2608
 5320SOL     OW21795   8.238  10.016   4.785  0.2048 -0.4803 -0.5928
 5320SOL    HW121796   8.282  10.084   4.735  0.6201 -0.5741 -0.3606
 5320SOL    HW221797   8.214  10.058   4.868 -1.4936 -0.0037 -1.2918
 5321SOL     OW21798   0.753   3.710   6.023 -0.2749  0.0700  0.2305
 5321SOL    HW121799   0.814   3.782   6.042  0.0078 -0.0871 -0.0766
 5321SOL    HW221800   0.773   3.684   5.934  0.2753 -1.0118  0.6473
 5322SOL     OW21801   6.291   3.034   7.231  0.2845 -0.2320  0.3785
 5322SOL    HW121802   6.217   3.065   7.284 -1.0386 -3.1253  0.3928
 5322SOL    HW221803   6.294   3.095   7.157 -3.8224 -1.3957 -0.9677
 5323SOL     OW21804   6.174   9.287   0.899  0.0995 -0.6210  0.0743
 5323SOL    HW121805   6.252   9.337   0.874  0.1841 -1.0781 -0.5888
 5323SOL    HW221806   6.120   9.351   0.946  0.2606  0.0744 -0.6498
 5324SOL     OW21807   0.578  10.316   3.767  0.6126  0.0537 -0.4481
 5324SOL    HW121808   0.568  10.369   3.846 -1.2058 -0.0371 -0.5805
 5324SOL    HW221809   0.533  10.233   3.788  1.4987 -0.5863 -1.0246
 5325SOL     OW21810   3.456   2.195   8.224  0.2888  0.1491  0.2624
 5325SOL    HW121811   3.483   2.287   8.227 -1.4486  0.6908  0.0432
 5325SOL    HW221812   3.399   2.184   8.300 -0.6892 -0.3452 -0.5149
 5326SOL     OW21813   2.378   8.936   6.176  0.0629  0.6156 -0.2264
 5326SOL    HW121814   2.456   8.881   6.183 -0.0057  0.4995 -0.3741
 5326SOL    HW221815   2.351   8.951   6.267 -1.0778 -1.2347 -0.2034
 5327SOL     OW21816   7.467   5.632   9.234  0.1119 -0.1949 -0.2007
 5327SOL    HW121817   7.459   5.609   9.142  0.6905 -0.6877 -0.1302
 5327SOL    HW221818   7.495   5.724   9.234  1.9618 -0.7235 -0.5608
 5328SOL     OW21819   1.026  10.272   2.490 -0.2105 -0.4634  0.4506
 5328SOL    HW121820   1.106  10.219   2.483  0.2659  0.2376  0.5340
 5328SOL    HW221821   1.006  10.298   2.400  0.7433  0.9377  0.6138
 5329SOL     OW21822   2.580   6.355   2.867 -0.2762  0.3816  0.2379
 5329SOL    HW121823   2.536   6.300   2.803 -0.6160  2.7593 -1.7218
 5329SOL    HW221824   2.523   6.354   2.944  0.8083 -3.6228  1.2399
 5330SOL     OW21825   2.833   3.640   9.551  0.6601 -0.1637 -0.6939
 5330SOL    HW121826   2.744   3.634   9.516 -0.3794  0.6756  1.6238
 5330SOL    HW221827   2.876   3.560   9.521 -1.5252 -1.6330 -0.1559
 5331SOL     OW21828   9.726   1.847   5.970  0.4276  0.0525 -0.0894
 5331SOL    HW121829   9.635   1.828   5.991  0.6055 -2.1654 -0.9815
 5331SOL    HW221830   9.770   1.850   6.054 -0.5565  1.9212  0.4069
 5332SOL     OW21831   0.353   3.208   7.826 -0.3044 -0.0313 -0.0089
 5332SOL    HW121832   0.324   3.265   7.755 -0.9583 -1.2313 -0.7372
 5332SOL    HW221833   0.274   3.164   7.856 -0.6310  2.4791  3.4692
 5333SOL     OW21834   8.271   5.248   4.467 -0.4191 -0.8430 -0.7324
 5333SOL    HW121835   8.341   5.313   4.475 -2.1327  1.1160 -0.7448
 5333SOL    HW221836   8.314   5.164   4.482  1.8598  0.2956 -0.4770
 5334SOL     OW21837   6.558   8.374   5.246  0.5917 -0.4425  0.1066
 5334SOL    HW121838   6.624   8.309   5.221 -2.6406 -3.0806 -2.6186
 5334SOL    HW221839   6.522   8.406   5.163 -1.7795  0.5360  1.4030
 5335SOL     OW21840   3.170   1.362   6.388 -0.2980 -0.7357  0.0360
 5335SOL    HW121841   3.230   1.363   6.314 -2.5137 -2.9625 -1.9681
 5335SOL    HW221842   3.201   1.432   6.445  1.9206  0.6476 -2.6496
 5336SOL     OW21843   7.343   0.436  10.351 -0.0600  0.4138 -0.2902
 5336SOL    HW121844   7.289   0.430  10.273  0.2564  0.1445 -0.4886
 5336SOL    HW221845   7.337   0.350  10.392 -1.0212  0.8462  0.5153
 5337SOL     OW21846   2.295   5.680   3.374  0.3768 -0.4834  0.1781
 5337SOL    HW121847   2.210   5.722   3.379  0.7162  0.0290  2.7841
 5337SOL    HW221848   2.279   5.589   3.399  0.7110 -0.1402  1.7243
 5338SOL     OW21849   6.639   4.427   8.841  0.0382 -0.1068  0.4569
 5338SOL    HW121850   6.696   4.448   8.915  0.2455 -0.6049  0.4388
 5338SOL    HW221851   6.618   4.334   8.852 -1.8390  0.3654  1.1985
 5339SOL     OW21852   5.996   9.349   6.362 -0.3037 -0.1698 -0.3335
 5339SOL    HW121853   5.982   9.442   6.346  1.8487  0.4103  0.7831
 5339SOL    HW221854   6.024   9.344   6.453 -1.5746 -2.0855  0.0092
 5340SOL     OW21855   2.502   4.784   5.597 -0.6884 -0.6540  0.3555
 5340SOL    HW121856   2.577   4.792   5.657  1.1378 -2.1741 -1.5674
 5340SOL    HW221857   2.450   4.712   5.634  1.0182 -2.3535 -0.3547
 5341SOL     OW21858   3.391   2.663   8.474 -0.0044  0.4754  0.1151
 5341SOL    HW121859   3.414   2.625   8.559 -0.4617  0.4451  0.2283
 5341SOL    HW221860   3.434   2.749   8.474 -0.8074  0.8906  0.7908
 5342SOL     OW21861   2.316   9.865   5.048 -0.3673  0.1952 -0.2384
 5342SOL    HW121862   2.272   9.854   5.132 -1.2222 -1.3327 -0.8290
 5342SOL    HW221863   2.308   9.779   5.006  0.5660  0.7505 -1.6240
 5343SOL     OW21864   7.032   9.007   9.659  0.5178  0.5507  0.1918
 5343SOL    HW121865   6.965   9.064   9.622 -0.3959  0.9139  2.2643
 5343SOL    HW221866   7.003   8.991   9.749  1.6403 -1.7984  0.2081
 5344SOL     OW21867   9.414   2.366   6.124 -0.4830 -0.3844  0.2855
 5344SOL    HW121868   9.470   2.374   6.201 -1.4039  0.4760  0.8966
 5344SOL    HW221869   9.462   2.412   6.055 -0.4281  0.3529  0.8042
 5345SOL     OW21870   6.274   8.950   2.406  0.6032 -0.6045  0.1790
 5345SOL    HW121871   6.298   9.029   2.358  0.0889 -0.3243  0.3834
 5345SOL    HW221872   6.285   8.879   2.342  1.1380 -0.3790  0.0207
 5346SOL     OW21873  10.421   5.167   0.266  0.1780  0.1677 -0.2754
 5346SOL    HW121874  10.474   5.246   0.273  1.0394 -0.3814 -0.4661
 5346SOL    HW221875  10.465   5.103   0.321 -0.2662 -0.3117 -0.4642
 5347SOL     OW21876   9.111   0.475   0.907 -0.0840 -0.3069 -0.0405
 5347SOL    HW121877   9.038   0.533   0.886 -0.2498 -0.1761  0.8702
 5347SOL    HW221878   9.102   0.458   1.000  1.3150  0.0898  0.1895
 5348SOL     OW21879   5.158   4.309   7.674 -0.0450  0.3108 -0.1621
 5348SOL    HW121880   5.179   4.251   7.746  1.4420  0.4482 -0.4335
 5348SOL    HW221881   5.135   4.251   7.601  1.1339  0.0346 -0.3441
 5349SOL     OW21882   5.339   3.998   1.441 -0.1249 -0.0834 -0.4903
 5349SOL    HW121883   5.392   3.976   1.517 -1.3130  0.8921  0.6738
 5349SOL    HW221884   5.264   3.940   1.446  1.3597 -2.4319 -2.8937
 5350SOL     OW21885   6.921   7.696   6.167 -0.4803  0.2205 -0.7241
 5350SOL    HW121886   6.870   7.637   6.112 -1.0457 -0.3035  0.3346
 5350SOL    HW221887   6.993   7.642   6.199  0.0615  0.6279 -1.2444
 5351SOL     OW21888   8.620   1.749   8.390  0.3977  0.2428  0.0055
 5351SOL    HW121889   8.579   1.807   8.326  0.1548 -0.8539 -0.8627
 5351SOL    HW221890   8.630   1.803   8.468  2.1602  2.1072 -1.4139
 5352SOL     OW21891   8.286   8.222   5.840  0.3434  0.1959 -0.5972
 5352SOL    HW121892   8.367   8.181   5.870  0.3470  0.9250  0.4480
 5352SOL    HW221893   8.217   8.166   5.877  0.3412  1.3016  1.1670
 5353SOL     OW21894   4.255   7.480   4.669  0.3236 -0.3186  0.3465
 5353SOL    HW121895   4.305   7.414   4.621 -2.1619 -1.4017 -0.9271
 5353SOL    HW221896   4.217   7.432   4.743 -1.1217 -0.2927 -0.3308
 5354SOL     OW21897  10.182   3.682   6.173 -0.1130  0.2063  0.7265
 5354SOL    HW121898  10.229   3.632   6.106 -0.3717 -1.0560  1.4576
 5354SOL    HW221899  10.230   3.664   6.254  0.2667  1.8086  0.8846
 5355SOL     OW21900   4.527   2.516   5.335 -0.3916 -0.2773 -0.2472
 5355SOL    HW121901   4.569   2.464   5.403  2.6309  2.0813 -0.1085
 5355SOL    HW221902   4.446   2.547   5.375 -1.1989 -2.9448  0.3993
 5356SOL     OW21903   4.398   2.228   9.996  0.4277  0.0753  0.2859
 5356SOL    HW121904   4.367   2.305   9.949 -1.1836 -1.1558 -0.7465
 5356SOL    HW221905   4.385   2.250  10.089 -1.2615  0.5566 -0.0387
 5357SOL     OW21906   8.823   1.201   9.250 -0.3101 -0.1671  0.0570
 5357SOL    HW121907   8.914   1.170   9.251 -0.7329 -1.4611  0.4457
 5357SOL    HW221908   8.771   1.122   9.241 -1.4096  0.5773 -0.3187
 5358SOL     OW21909   1.007   8.539   5.931  1.0109  0.6547 -0.0732
 5358SOL    HW121910   0.930   8.501   5.890  1.2366  2.3740 -2.2885
 5358SOL    HW221911   0.974   8.618   5.975  0.9273 -0.6809  2.4131
 5359SOL     OW21912   4.522  10.265   8.616  0.8907  0.4407 -0.0408
 5359SOL    HW121913   4.574  10.187   8.636 -0.2179 -0.1611  0.6138
 5359SOL    HW221914   4.528  10.273   8.521 -1.2298 -2.1725 -0.5392
 5360SOL     OW21915  10.204  10.218   4.493 -0.0460 -0.2126 -0.0196
 5360SOL    HW121916  10.110  10.219   4.515 -0.3035 -1.0724 -0.9651
 5360SOL    HW221917  10.226  10.310   4.478 -0.4421  0.1276  1.3677
 5361SOL     OW21918   7.943   7.578   0.912 -0.3273 -0.4217  0.5775
 5361SOL    HW121919   7.899   7.498   0.939  0.1826 -0.6448  0.7444
 5361SOL    HW221920   8.025   7.578   0.960 -0.1552  0.0111  0.2869
 5362SOL     OW21921  10.034   3.376   2.704  0.4019  0.5125 -0.4742
 5362SOL    HW121922  10.016   3.341   2.791  1.7263  0.4663 -0.2015
 5362SOL    HW221923  10.092   3.451   2.720 -0.6963  1.5602 -1.2035
 5363SOL     OW21924   9.489   4.608   1.666 -0.1503 -0.0868  0.3137
 5363SOL    HW121925   9.575   4.599   1.707 -0.0319  1.8356  0.6196
 5363SOL    HW221926   9.436   4.653   1.732 -0.7276  0.7561 -0.6876
 5364SOL     OW21927   1.162   9.848   9.181 -0.1441  0.3192 -0.4559
 5364SOL    HW121928   1.182   9.828   9.089 -1.1660  1.0139 -0.8482
 5364SOL    HW221929   1.199   9.775   9.230 -0.9305 -0.8787 -1.5607
 5365SOL     OW21930   6.316   2.209   5.582  0.4258 -0.4433  0.5424
 5365SOL    HW121931   6.233   2.164   5.599 -0.0434  0.4496  0.6834
 5365SOL    HW221932   6.352   2.165   5.506 -0.9341  0.1334 -0.4843
 5366SOL     OW21933   2.993   1.534   4.940 -0.2985  0.1937 -0.1231
 5366SOL    HW121934   3.019   1.615   4.982 -0.3725  0.6303 -0.8988
 5366SOL    HW221935   3.069   1.476   4.950  0.0540  0.6281 -0.2493
 5367SOL     OW21936   8.734   4.586   6.211 -0.2671  0.1978 -0.3766
 5367SOL    HW121937   8.707   4.525   6.142 -0.5414 -0.8058  0.5965
 5367SOL    HW221938   8.655   4.636   6.231 -0.7774 -0.9890  0.6876
 5368SOL     OW21939   7.914   0.152   7.343 -0.2306  0.5575 -0.2304
 5368SOL    HW121940   7.980   0.093   7.378 -0.5875  0.4306  0.2431
 5368SOL    HW221941   7.956   0.193   7.267  0.2799  0.2550 -0.1166
 5369SOL     OW21942   8.699   9.345   2.797  0.0281 -0.1738  0.1787
 5369SOL    HW121943   8.668   9.293   2.872 -1.5488  3.1453  2.0275
 5369SOL    HW221944   8.757   9.410   2.836  0.8111  0.3911 -1.8390
 5370SOL     OW21945   4.120  10.661  10.086  0.1526  0.1235  0.1653
 5370SOL    HW121946   4.190  10.598  10.066 -0.0306 -0.2361  0.6298
 5370SOL    HW221947   4.164  10.745  10.092  0.6075 -0.1575  0.8297
 5371SOL     OW21948   0.297   1.884   6.110 -0.1674  0.6401 -0.2458
 5371SOL    HW121949   0.347   1.819   6.158  0.4991  1.5000  0.2621
 5371SOL    HW221950   0.207   1.873   6.140 -0.0009  0.1789  0.0851
 5372SOL     OW21951   2.412   3.288   0.752 -0.3022 -0.1091  0.2923
 5372SOL    HW121952   2.481   3.328   0.700  0.8615 -0.6024  1.3839
 5372SOL    HW221953   2.375   3.360   0.803 -1.3688  0.3524 -1.0679
 5373SOL     OW21954   6.311   4.651   4.576 -0.1738  0.1406  0.5500
 5373SOL    HW121955   6.241   4.716   4.584 -1.0335 -0.6944  0.0729
 5373SOL    HW221956   6.357   4.675   4.496 -0.9061 -0.1981  0.0104
 5374SOL     OW21957   9.621   0.415   1.764 -0.0267  0.1052 -0.4016
 5374SOL    HW121958   9.666   0.390   1.845  0.1987 -1.0380 -0.8549
 5374SOL    HW221959   9.689   0.454   1.709  0.2651 -0.9258 -0.7919
 5375SOL     OW21960   8.125   2.398   4.325 -0.2333 -0.0675  0.4578
 5375SOL    HW121961   8.216   2.405   4.295 -0.4093  1.1701  0.1400
 5375SOL    HW221962   8.121   2.456   4.402 -0.8341  0.1809  0.2479
 5376SOL     OW21963   1.415   4.373   2.065 -0.1064 -0.1954  0.0244
 5376SOL    HW121964   1.327   4.411   2.062 -1.0136 -2.2143 -0.6438
 5376SOL    HW221965   1.415   4.318   2.143  0.0729 -1.2122 -0.6592
 5377SOL     OW21966   3.935   3.345   4.314 -0.0143  0.8884  0.4883
 5377SOL    HW121967   3.994   3.352   4.239 -0.2985  0.1509  0.1849
 5377SOL    HW221968   3.849   3.330   4.275  0.1506 -1.8555  0.9291
 5378SOL     OW21969   4.830   5.299   0.799 -0.1987 -0.1699  0.6800
 5378SOL    HW121970   4.762   5.251   0.751 -0.3736 -0.3264  1.0778
 5378SOL    HW221971   4.891   5.327   0.732 -2.7773  3.6974 -0.3916
 5379SOL     OW21972   8.323   6.162   4.781  0.5205 -0.5100 -0.4125
 5379SOL    HW121973   8.277   6.228   4.833 -0.8842 -1.4749 -0.3723
 5379SOL    HW221974   8.371   6.110   4.846  0.6007 -0.3222 -0.3196
 5380SOL     OW21975   2.795   0.299   4.915  0.2904 -0.0101  0.5617
 5380SOL    HW121976   2.817   0.392   4.909  1.0191  0.0170  2.9163
 5380SOL    HW221977   2.755   0.289   5.001  1.0693 -2.0431  0.7360
 5381SOL     OW21978   0.025  10.408   0.134  0.0149  0.1391  0.1124
 5381SOL    HW121979  -0.066  10.419   0.164  0.4800 -0.2109  1.7370
 5381SOL    HW221980   0.078  10.418   0.213  1.5045  1.5445 -1.0000
 5382SOL     OW21981   3.783   1.317   0.389  0.0739  0.5756  0.4376
 5382SOL    HW121982   3.735   1.361   0.459  1.1426  0.1052  1.5149
 5382SOL    HW221983   3.824   1.241   0.431 -0.1164 -0.3376 -0.9409
 5383SOL     OW21984   4.300   1.546   3.343 -0.3385  0.1545  0.3304
 5383SOL    HW121985   4.277   1.469   3.291  1.8309  1.4584 -2.8208
 5383SOL    HW221986   4.219   1.596   3.347 -0.6308 -0.0329 -1.8493
 5384SOL     OW21987   9.272   5.186   0.889 -0.3611 -0.4087  0.9703
 5384SOL    HW121988   9.312   5.272   0.900 -1.0515 -0.0789  0.9909
 5384SOL    HW221989   9.335   5.125   0.927  0.5368 -0.0121  0.1419
 5385SOL     OW21990   9.868  10.533   4.395  0.0507 -0.6600 -0.0941
 5385SOL    HW121991   9.815  10.601   4.353  0.3811 -0.4119 -0.1128
 5385SOL    HW221992   9.877  10.465   4.329  0.7191 -0.1924 -0.5019
 5386SOL     OW21993   7.734   7.273   8.369  0.2636  0.3052  0.1297
 5386SOL    HW121994   7.757   7.208   8.302 -0.6499 -0.8757  0.9241
 5386SOL    HW221995   7.639   7.269   8.374 -0.2124  3.9520 -1.9628
 5387SOL     OW21996   3.725   2.646   5.505  0.0002  0.0964  0.1118
 5387SOL    HW121997   3.765   2.625   5.421 -0.9147  1.6013 -0.7474
 5387SOL    HW221998   3.654   2.583   5.514  1.7002 -1.7849  1.0653
 5388SOL     OW21999   4.420   7.590   7.902 -0.6542  0.1930 -0.3062
 5388SOL    HW122000   4.385   7.520   7.957  0.1618 -0.2361 -0.3221
 5388SOL    HW222001   4.432   7.550   7.816 -1.7525  0.8131 -0.7744
 5389SOL     OW22002   4.073   3.160   5.387  0.3883 -0.8833 -0.0725
 5389SOL    HW122003   4.150   3.204   5.351  0.8940 -1.3048  0.4851
 5389SOL    HW222004   4.000   3.190   5.332  0.4123  1.9798  1.2893
 5390SOL     OW22005   8.122   4.502   2.313  0.0256  0.0732 -0.6291
 5390SOL    HW122006   8.164   4.498   2.399 -2.1626  2.1333  0.6553
 5390SOL    HW222007   8.118   4.595   2.292 -4.4591  0.1834 -0.2158
 5391SOL     OW22008  10.601   4.933   9.264 -0.2062  0.2112  0.7962
 5391SOL    HW122009  10.544   5.010   9.257 -0.2735  0.0855 -0.3451
 5391SOL    HW222010  10.550   4.862   9.225  0.4740 -0.0479  0.3522
 5392SOL     OW22011   7.893   0.617   9.541  0.1839 -0.1545  0.3695
 5392SOL    HW122012   7.873   0.524   9.552  0.8806 -0.7404 -2.5092
 5392SOL    HW222013   7.963   0.634   9.604  0.3820 -1.7112  0.6129
 5393SOL     OW22014   3.962  10.400   0.763  0.1431 -0.1921  0.1820
 5393SOL    HW122015   4.025  10.472   0.768  0.0177 -0.0553 -0.1916
 5393SOL    HW222016   3.992  10.347   0.689  1.3538 -1.6030  1.5933
 5394SOL     OW22017   2.431   5.779   1.927  0.5760  0.4436  0.4019
 5394SOL    HW122018   2.471   5.847   1.981  1.4197  0.3914 -0.1326
 5394SOL    HW222019   2.468   5.793   1.840  0.4691 -0.4584  0.1965
 5395SOL     OW22020  10.029   4.661  10.715  0.3452  0.4143 -0.3303
 5395SOL    HW122021   9.997   4.740  10.671 -1.2821 -0.3151 -0.5285
 5395SOL    HW222022  10.125   4.668  10.712  0.3223  0.6598 -3.5342
 5396SOL     OW22023   4.528  10.123   1.922 -0.1294 -0.5316  0.1163
 5396SOL    HW122024   4.602  10.104   1.979 -0.3762 -1.8019  0.0410
 5396SOL    HW222025   4.568  10.156   1.842  0.2422  0.7900  0.8086
 5397SOL     OW22026   0.262   1.531   7.404  0.0918  0.7570 -0.2345
 5397SOL    HW122027   0.305   1.472   7.466 -0.2346  1.1992  0.4233
 5397SOL    HW222028   0.290   1.499   7.318  0.9307  0.4249  0.1447
 5398SOL     OW22029   0.512   0.521   8.214 -0.3641 -0.4889  0.5419
 5398SOL    HW122030   0.580   0.497   8.150 -0.0728  1.0272  0.2513
 5398SOL    HW222031   0.496   0.614   8.199 -1.5108 -0.4956  1.5598
 5399SOL     OW22032   3.123   8.237   3.782  0.1429  0.1495 -0.6403
 5399SOL    HW122033   3.175   8.282   3.717 -0.1885  1.9324  0.2579
 5399SOL    HW222034   3.118   8.298   3.856 -1.4124 -0.8346  0.1368
 5400SOL     OW22035   0.550   4.608   0.482 -0.0631  0.0792 -0.3182
 5400SOL    HW122036   0.564   4.531   0.427 -1.7894 -1.0632  0.7467
 5400SOL    HW222037   0.560   4.577   0.571  2.6611  1.9151  0.1420
 5401SOL     OW22038   3.659   1.880   1.001  0.3043  1.0977 -0.4234
 5401SOL    HW122039   3.718   1.830   0.945  0.1615  0.0321  0.3409
 5401SOL    HW222040   3.582   1.823   1.013  0.8560  0.7041  1.8316
 5402SOL     OW22041   9.840   2.621   0.464  0.4334  0.2895  0.1781
 5402SOL    HW122042   9.802   2.706   0.486  2.9841  1.5760 -0.0352
 5402SOL    HW222043   9.876   2.589   0.547  0.6705  0.0337 -0.0229
 5403SOL     OW22044   3.368   3.936   7.093  0.1464 -0.0721 -0.1768
 5403SOL    HW122045   3.284   3.980   7.100  0.4278  0.5052 -0.4100
 5403SOL    HW222046   3.428   4.002   7.058  0.8467 -0.2880  0.5835
 5404SOL     OW22047   2.684   4.328   2.301  0.0275 -0.0176  0.1778
 5404SOL    HW122048   2.771   4.310   2.264  0.3932 -0.5465  1.2558
 5404SOL    HW222049   2.648   4.241   2.321  0.1848  0.2587  1.7961
 5405SOL     OW22050   9.062   2.159   9.432  0.6223  0.0190 -0.2373
 5405SOL    HW122051   9.140   2.198   9.472 -0.0328  0.1749  0.9053
 5405SOL    HW222052   9.010   2.128   9.506 -1.4056  1.7780 -0.8502
 5406SOL     OW22053   6.654   7.478   2.635 -0.1352  0.3989  0.0112
 5406SOL    HW122054   6.711   7.532   2.581 -1.1686  2.3590  0.7762
 5406SOL    HW222055   6.628   7.535   2.708 -0.1404 -1.6062  1.6730
 5407SOL     OW22056   3.433   4.386   2.652 -0.5544 -0.0094  0.1374
 5407SOL    HW122057   3.462   4.380   2.743  2.2616 -1.1597 -0.6870
 5407SOL    HW222058   3.407   4.296   2.630 -0.6486  0.1360 -0.3512
 5408SOL     OW22059   6.445   7.425   2.113 -0.0763 -0.4480 -0.0828
 5408SOL    HW122060   6.365   7.470   2.138  2.2441  1.9367  4.2252
 5408SOL    HW222061   6.470   7.375   2.191  2.4659 -1.3846 -1.3722
 5409SOL     OW22062   3.047   1.482   7.617 -0.4849 -0.0701 -0.1136
 5409SOL    HW122063   3.036   1.498   7.711  0.8821  0.8647 -0.0791
 5409SOL    HW222064   3.073   1.390   7.611 -0.2809 -0.0534  0.4502
 5410SOL     OW22065  10.341   1.939   6.054  0.3507  0.1592  1.0239
 5410SOL    HW122066  10.350   1.951   5.960  1.2828  0.0870  1.0981
 5410SOL    HW222067  10.269   1.877   6.064  0.7846 -0.4726  0.3223
 5411SOL     OW22068   7.869   7.786   7.861  0.3017 -0.1981 -0.3688
 5411SOL    HW122069   7.824   7.864   7.893 -1.5716 -1.0179 -0.8757
 5411SOL    HW222070   7.931   7.763   7.931 -1.7761 -0.4054  1.5243
 5412SOL     OW22071   3.384   3.400   2.480  0.1989 -0.2640 -0.0857
 5412SOL    HW122072   3.362   3.434   2.567 -0.6180  0.5358 -0.5952
 5412SOL    HW222073   3.425   3.473   2.435  0.0103 -0.4707 -0.6041
 5413SOL     OW22074  10.007   5.081   5.260  0.0917  0.0505 -0.1963
 5413SOL    HW122075   9.957   5.038   5.190 -0.4876  1.5507 -0.7517
 5413SOL    HW222076  10.047   5.157   5.217 -0.2808  1.0034  1.0731
 5414SOL     OW22077   9.888   1.100   2.683 -0.5987  0.4065  0.1777
 5414SOL    HW122078   9.884   1.097   2.778 -1.6983  0.9718  0.1570
 5414SOL    HW222079   9.975   1.137   2.664 -0.6736  1.0015  0.9725
 5415SOL     OW22080   9.239   6.683   8.922  0.3984  0.5815  0.2627
 5415SOL    HW122081   9.149   6.689   8.954  0.3251  0.0306  0.1758
 5415SOL    HW222082   9.245   6.595   8.884  0.2877  1.3922 -1.7614
 5416SOL     OW22083   2.965   8.169   1.227  0.2991 -0.0217  0.1871
 5416SOL    HW122084   3.010   8.239   1.180  0.3881 -1.8669 -2.7116
 5416SOL    HW222085   3.032   8.101   1.237 -0.3103 -0.4960  1.1489
 5417SOL     OW22086   4.665   7.803   3.170  0.0599  0.2667  0.3751
 5417SOL    HW122087   4.739   7.822   3.112 -0.3090  1.2895  0.2227
 5417SOL    HW222088   4.660   7.879   3.228  0.0909 -0.4995  1.4104
 5418SOL     OW22089   3.974   9.944   8.323  0.5287 -0.1480 -0.3182
 5418SOL    HW122090   4.014   9.857   8.318  2.2615  0.3664  2.4769
 5418SOL    HW222091   3.881   9.928   8.310  0.7765 -2.4710  0.3227
 5419SOL     OW22092   9.156   0.593   7.419 -0.2655 -0.0957 -0.6288
 5419SOL    HW122093   9.162   0.532   7.345  1.0035 -0.4350 -0.2678
 5419SOL    HW222094   9.148   0.679   7.379 -0.8082 -0.3799 -1.1468
 5420SOL     OW22095   3.466   8.813   0.383  0.3263 -0.1988 -0.3706
 5420SOL    HW122096   3.541   8.849   0.432  0.6996 -1.1545 -0.2149
 5420SOL    HW222097   3.453   8.875   0.311 -0.0012  1.0427  0.7117
 5421SOL     OW22098   5.346   6.689   9.426 -0.9288  0.1446 -0.3295
 5421SOL    HW122099   5.262   6.660   9.390 -0.8607  1.2767 -1.4599
 5421SOL    HW222100   5.383   6.745   9.358  0.8946 -0.5635  0.0195
 5422SOL     OW22101   4.631  10.578   8.323  0.0820  0.6695  0.4706
 5422SOL    HW122102   4.667  10.580   8.412  0.7346 -1.6615  0.3512
 5422SOL    HW222103   4.538  10.594   8.334  0.2791  1.2227  1.4708
 5423SOL     OW22104   4.087   3.940   5.567  0.7136 -0.1566  0.0882
 5423SOL    HW122105   4.036   3.953   5.487 -0.5476 -0.1799  0.8684
 5423SOL    HW222106   4.124   3.852   5.558 -0.0837 -0.4756 -0.1153
 5424SOL     OW22107   3.986  10.358   7.708 -0.0748  0.1064 -0.4512
 5424SOL    HW122108   4.029  10.432   7.751 -0.4140 -0.6877  1.3039
 5424SOL    HW222109   3.895  10.362   7.739  0.2621 -1.9524  0.9682
 5425SOL     OW22110   5.997   8.757   5.528  0.4632  0.8358 -0.2593
 5425SOL    HW122111   5.924   8.798   5.483  0.3188 -0.0369 -0.8201
 5425SOL    HW222112   5.982   8.663   5.521  1.9117  0.6202 -0.8602
 5426SOL     OW22113   4.639   1.390   5.474 -0.4043 -0.7847 -0.0514
 5426SOL    HW122114   4.614   1.391   5.381  0.9930 -0.2192 -0.4382
 5426SOL    HW222115   4.732   1.411   5.475 -0.0843 -2.0617  1.4111
 5427SOL     OW22116   4.269   0.483   8.962  0.0596  0.2418  0.5113
 5427SOL    HW122117   4.258   0.542   8.887 -0.5024 -0.0744  0.3343
 5427SOL    HW222118   4.294   0.399   8.923  0.0919  0.1635  0.7007
 5428SOL     OW22119   3.341   7.880   7.739 -0.2972  0.0551  0.4663
 5428SOL    HW122120   3.424   7.920   7.712 -0.2405 -0.4283 -0.0931
 5428SOL    HW222121   3.356   7.786   7.729 -1.5236  0.0163 -1.4984
 5429SOL     OW22122   5.402   9.568   9.141  0.2335  0.0098  0.3329
 5429SOL    HW122123   5.322   9.524   9.112 -0.1749  0.2175  1.1385
 5429SOL    HW222124   5.389   9.659   9.117  0.8414 -0.1718 -0.8153
 5430SOL     OW22125   4.874   5.534   7.412 -0.0407  0.2926  0.1294
 5430SOL    HW122126   4.937   5.603   7.396 -0.7190  0.5848 -1.4593
 5430SOL    HW222127   4.919   5.453   7.387  0.8169  0.0816  2.1642
 5431SOL     OW22128   7.280   7.098   2.886  0.0909  0.3946 -0.4779
 5431SOL    HW122129   7.329   7.156   2.829  0.6394  1.2066  0.7798
 5431SOL    HW222130   7.331   7.017   2.888  0.7182  0.7919 -0.1748
 5432SOL     OW22131   6.003   6.431   4.460 -0.2144 -0.3836  0.4720
 5432SOL    HW122132   6.045   6.510   4.495 -0.3480  0.1170 -0.4460
 5432SOL    HW222133   5.909   6.450   4.464 -0.3355 -1.1061  1.6104
 5433SOL     OW22134   8.281   5.669   0.091  0.5892  0.2693 -0.2512
 5433SOL    HW122135   8.325   5.727   0.029  0.6279 -0.1196 -0.5928
 5433SOL    HW222136   8.187   5.683   0.075  0.5798  1.2865  0.6545
 5434SOL     OW22137   4.217   3.621   0.788  0.0890  0.5785 -0.5162
 5434SOL    HW122138   4.276   3.678   0.741 -0.3955  0.4271 -1.3237
 5434SOL    HW222139   4.158   3.680   0.835  1.5876  0.7391  1.2450
 5435SOL     OW22140   1.063   9.512   2.833  0.0704 -0.3643  0.0295
 5435SOL    HW122141   1.041   9.506   2.740 -0.9977  0.4632  0.2049
 5435SOL    HW222142   1.155   9.485   2.837  0.0799 -0.6146 -1.2340
 5436SOL     OW22143   9.152   1.469   7.022 -0.0262  0.2715  0.6396
 5436SOL    HW122144   9.108   1.553   7.032 -0.4076 -0.0431  1.7273
 5436SOL    HW222145   9.245   1.489   7.021 -0.1345  0.9056 -1.2605
 5437SOL     OW22146   1.675   6.769   2.366  0.0673 -0.0735  0.3024
 5437SOL    HW122147   1.646   6.761   2.456 -0.4824  1.9915  0.3523
 5437SOL    HW222148   1.600   6.806   2.319 -0.3805 -2.9160 -1.4804
 5438SOL     OW22149  10.535   9.416   4.261 -0.4086  0.2955  0.5484
 5438SOL    HW122150  10.598   9.436   4.330 -0.7906 -0.1857  1.0453
 5438SOL    HW222151  10.589   9.399   4.184  0.1056 -0.5729  1.0830
 5439SOL     OW22152   3.016  10.277   6.639 -0.2187 -0.5163 -0.3446
 5439SOL    HW122153   3.061  10.307   6.560  2.0005 -0.3571  0.9198
 5439SOL    HW222154   3.025  10.348   6.701  0.0964 -1.5359  0.8160
 5440SOL     OW22155   8.950   1.080   4.887 -0.5525  0.2778 -0.5595
 5440SOL    HW122156   8.940   1.151   4.823 -2.2496 -0.1386 -0.8123
 5440SOL    HW222157   9.009   1.017   4.845  0.0887  1.0171 -0.7879
 5441SOL     OW22158   8.300  10.676   5.611 -0.8699 -0.0789 -0.7447
 5441SOL    HW122159   8.389  10.647   5.592  0.0262  1.8831  0.1346
 5441SOL    HW222160   8.250  10.653   5.533  0.2503 -1.7359 -1.0242
 5442SOL     OW22161   4.216   7.825   5.498  0.8401 -0.0127 -0.4165
 5442SOL    HW122162   4.156   7.894   5.470  0.0370 -0.6373 -0.2593
 5442SOL    HW222163   4.268   7.866   5.567 -0.5266  0.0533  0.6105
 5443SOL     OW22164   9.233   4.176   4.170 -0.0078  0.6322  0.3332
 5443SOL    HW122165   9.145   4.175   4.133 -0.6390  0.4298  1.7997
 5443SOL    HW222166   9.261   4.268   4.162 -0.3139  0.6811 -0.2121
 5444SOL     OW22167  10.006   4.527   5.592  0.2856  0.5777 -0.3061
 5444SOL    HW122168  10.098   4.545   5.573  0.2400  1.6202  0.4158
 5444SOL    HW222169  10.002   4.522   5.687  0.2745 -3.3249 -0.3759
 5445SOL     OW22170   4.642   2.082   7.499  0.3189 -0.6420 -0.0138
 5445SOL    HW122171   4.685   2.167   7.512 -0.9848  0.0514 -0.1099
 5445SOL    HW222172   4.656   2.061   7.407  1.1260 -0.8189  0.1388
 5446SOL     OW22173   8.309   0.090   8.725  0.5025 -0.0874  0.3763
 5446SOL    HW122174   8.287  -0.003   8.727 -0.3819  0.1039 -0.0542
 5446SOL    HW222175   8.265   0.127   8.802 -0.8404  0.3243 -0.5672
 5447SOL     OW22176   5.459  10.091   9.219 -0.2522 -0.3733  0.1646
 5447SOL    HW122177   5.515  10.095   9.141 -2.2246 -1.2239 -1.3687
 5447SOL    HW222178   5.378  10.051   9.188 -1.5011  0.2596  2.4443
 5448SOL     OW22179   5.612   6.244  10.322  0.1414  0.0991  0.4738
 5448SOL    HW122180   5.704   6.219  10.314  0.1884  0.4844 -0.3158
 5448SOL    HW222181   5.563   6.170  10.287  0.0946 -0.4902  1.7277
 5449SOL     OW22182   2.024   2.709   8.324 -0.1725  0.3900 -0.1031
 5449SOL    HW122183   2.016   2.688   8.418 -0.4527  3.0609  0.5576
 5449SOL    HW222184   2.099   2.767   8.320 -0.0861  0.1950 -1.5894
 5450SOL     OW22185   1.798   5.155   8.336  0.1283  0.5981  1.1875
 5450SOL    HW122186   1.744   5.094   8.285  0.8521  0.0045  1.1288
 5450SOL    HW222187   1.770   5.141   8.427 -0.2231  0.7063  1.0987
 5451SOL     OW22188   2.494  10.551   6.068  0.2793 -0.1395  0.2099
 5451SOL    HW122189   2.406  10.586   6.058 -0.6802 -2.3603  0.2767
 5451SOL    HW222190   2.487  10.460   6.039  2.4080 -0.5672  0.8340
 5452SOL     OW22191   6.881   1.247   0.132 -0.7288 -0.1056 -0.2358
 5452SOL    HW122192   6.926   1.166   0.156  1.1873  1.0196  0.1676
 5452SOL    HW222193   6.951   1.311   0.121 -2.2472  1.8488  0.7802
 5453SOL     OW22194   3.263   8.833   5.702 -0.5443  0.3728 -0.5085
 5453SOL    HW122195   3.290   8.914   5.659 -0.6739  0.9089  0.3987
 5453SOL    HW222196   3.200   8.793   5.641  0.3172  0.4042 -1.4477
 5454SOL     OW22197   7.011   9.301   7.569 -0.3975  0.2652  0.2563
 5454SOL    HW122198   7.078   9.254   7.520 -0.7544  0.3486 -0.3244
 5454SOL    HW222199   6.967   9.355   7.504 -0.7481  0.5312  0.7078
 5455SOL     OW22200   2.866   7.448   5.719 -0.3032  0.1225 -0.3807
 5455SOL    HW122201   2.871   7.385   5.648  2.2963 -0.4855  0.2437
 5455SOL    HW222202   2.945   7.433   5.771 -1.6420  1.1257  2.1657
 5456SOL     OW22203   9.171   6.959   9.794  0.2886 -0.1706  0.0617
 5456SOL    HW122204   9.099   6.963   9.731 -0.7776  0.1378  1.2794
 5456SOL    HW222205   9.242   7.008   9.752 -0.4708  0.2173 -0.7996
 5457SOL     OW22206   8.114   7.239   4.584 -0.3144 -0.1570 -0.3870
 5457SOL    HW122207   8.074   7.226   4.670 -1.2493 -0.0774 -0.8009
 5457SOL    HW222208   8.050   7.203   4.522  0.6360 -0.8049 -1.0151
 5458SOL     OW22209   5.887   1.785   0.519 -0.1510 -0.3366 -0.1834
 5458SOL    HW122210   5.968   1.829   0.493 -0.1493  0.7255  1.4488
 5458SOL    HW222211   5.819   1.827   0.466  0.3378 -1.2497 -1.5783
 5459SOL     OW22212   4.118   5.257   8.608  0.3106 -0.2567  0.7238
 5459SOL    HW122213   4.154   5.182   8.562 -1.0087 -0.0932 -0.6643
 5459SOL    HW222214   4.073   5.220   8.684 -2.9106 -1.3145 -1.4999
 5460SOL     OW22215   6.937   3.750  10.707 -0.0880  0.3755  0.1042
 5460SOL    HW122216   6.845   3.773  10.717 -0.2729  1.6819 -3.3292
 5460SOL    HW222217   6.984   3.832  10.722  0.7835 -0.5122  3.0454
 5461SOL     OW22218   5.971   4.905   8.521  0.0705 -0.4747  0.4547
 5461SOL    HW122219   6.036   4.880   8.456  1.1322 -0.7772  1.5798
 5461SOL    HW222220   5.988   4.997   8.538 -0.6184 -0.2369 -0.1552
 5462SOL     OW22221   2.430   7.353   3.496  0.0770 -0.0008 -0.4265
 5462SOL    HW122222   2.437   7.340   3.590 -0.0475  1.0210 -0.2609
 5462SOL    HW222223   2.512   7.318   3.461  0.8563  1.0853  0.2451
 5463SOL     OW22224   5.814   1.453   1.142 -0.8448 -0.0000 -0.2296
 5463SOL    HW122225   5.798   1.454   1.048 -0.7071 -1.7356 -0.3029
 5463SOL    HW222226   5.730   1.479   1.181 -0.4559  2.4342 -0.7970
 5464SOL     OW22227   6.209   6.896   2.039 -0.2610  0.1320 -0.3814
 5464SOL    HW122228   6.151   6.884   2.114  0.8582 -2.0914  0.2257
 5464SOL    HW222229   6.290   6.931   2.076  0.3330 -1.0744 -0.4929
 5465SOL     OW22230   5.980   3.675   8.394  0.1948 -0.0868 -0.1448
 5465SOL    HW122231   5.925   3.741   8.437 -0.5480 -1.3893  0.9761
 5465SOL    HW222232   6.053   3.662   8.454 -0.6364 -1.6187  0.5736
 5466SOL     OW22233   6.804   2.888   8.072  0.2881  0.1645 -0.1441
 5466SOL    HW122234   6.872   2.947   8.039  1.1028 -1.1498 -0.8715
 5466SOL    HW222235   6.822   2.804   8.030 -1.1768 -0.4820  0.4510
 5467SOL     OW22236   3.155   4.998   2.960 -0.5855 -0.1814  0.0040
 5467SOL    HW122237   3.142   4.909   2.928 -0.2556 -0.2551  0.0691
 5467SOL    HW222238   3.227   5.032   2.907  0.4039 -0.5281  1.0831
 5468SOL     OW22239   2.532  10.276   3.363 -0.3190 -0.7709  0.0381
 5468SOL    HW122240   2.531  10.366   3.330 -0.5396 -0.5890  0.5303
 5468SOL    HW222241   2.543  10.222   3.285 -1.1892 -0.3668 -0.3767
 5469SOL     OW22242   4.412   7.624   0.152  0.7384  0.4517  0.4656
 5469SOL    HW122243   4.372   7.655   0.234 -0.2481  1.1120 -0.2367
 5469SOL    HW222244   4.343   7.573   0.110  0.3862  2.0609 -1.0307
 5470SOL     OW22245   0.856   4.108   9.956  0.4992  0.0999 -0.2777
 5470SOL    HW122246   0.923   4.176   9.967  0.2340  0.4493 -0.7830
 5470SOL    HW222247   0.798   4.143   9.888  0.9300 -1.0720 -1.2735
 5471SOL     OW22248   1.600   7.153   4.051 -0.6676  0.2198  0.0303
 5471SOL    HW122249   1.579   7.181   4.140 -0.7500  3.1086 -0.7876
 5471SOL    HW222250   1.526   7.185   3.999 -0.9506 -2.0148 -1.0421
 5472SOL     OW22251   6.471   7.483   8.787 -0.3704 -0.3526 -0.5279
 5472SOL    HW122252   6.510   7.427   8.854  0.4958 -0.0443 -0.7680
 5472SOL    HW222253   6.446   7.562   8.835  0.0664 -0.2127 -0.5259
 5473SOL     OW22254   9.423  10.151   1.452  0.3107 -0.3113  0.2010
 5473SOL    HW122255   9.391  10.212   1.519 -0.6088 -0.0604 -0.4376
 5473SOL    HW222256   9.484  10.095   1.498 -0.2565 -0.1081  1.2432
 5474SOL     OW22257   1.422   9.896  10.153  0.2904  0.2478 -0.7736
 5474SOL    HW122258   1.466   9.947  10.221 -0.1756 -2.3737  1.6416
 5474SOL    HW222259   1.329   9.917  10.163  0.2441  0.0416 -0.7744
 5475SOL     OW22260   5.707   5.834   4.328 -0.4780 -0.6083  0.4335
 5475SOL    HW122261   5.782   5.854   4.385  0.2284  1.4852 -1.0763
 5475SOL    HW222262   5.733   5.754   4.282  0.1001 -0.8325  1.1222
 5476SOL     OW22263   6.537   2.510  10.116  0.2866  0.1483 -0.0681
 5476SOL    HW122264   6.527   2.601  10.090  1.4783 -0.0312 -1.2774
 5476SOL    HW222265   6.529   2.461  10.034  0.2757 -0.7875  0.4727
 5477SOL     OW22266   8.583   1.373   4.088 -0.2256  0.1051  0.2208
 5477SOL    HW122267   8.583   1.467   4.108 -0.4837  0.1524  0.0077
 5477SOL    HW222268   8.562   1.331   4.171  1.2170  0.1560  0.6517
 5478SOL     OW22269   5.818   8.317   1.790 -0.0138 -0.9815  0.0415
 5478SOL    HW122270   5.908   8.348   1.784  0.2397 -1.7011  0.0270
 5478SOL    HW222271   5.780   8.369   1.861 -0.0026  0.2828 -0.8273
 5479SOL     OW22272  10.589   6.699   2.573 -0.0156 -0.3133 -0.2456
 5479SOL    HW122273  10.589   6.624   2.514 -2.6771 -1.0301  0.5001
 5479SOL    HW222274  10.631   6.667   2.653 -2.8315 -1.8141  0.7938
 5480SOL     OW22275   2.443   3.360   0.428 -0.3327  0.2695 -0.8680
 5480SOL    HW122276   2.457   3.268   0.447 -1.4903  0.4779  1.2436
 5480SOL    HW222277   2.494   3.407   0.495  0.2708  1.1905 -1.9290
 5481SOL     OW22278   8.171   2.214   5.508  0.0432 -0.3094  0.1233
 5481SOL    HW122279   8.260   2.228   5.476 -0.0916 -0.3843 -0.2897
 5481SOL    HW222280   8.147   2.296   5.550 -0.4390  0.4549 -1.5547
 5482SOL     OW22281   8.450   4.822   3.816 -0.2067 -0.3469  0.2868
 5482SOL    HW122282   8.472   4.730   3.823  0.6608 -0.1034  0.9956
 5482SOL    HW222283   8.519   4.860   3.760  0.9623  0.3236  2.0911
 5483SOL     OW22284   4.149   2.982   6.228 -0.3504  0.2231 -0.1351
 5483SOL    HW122285   4.139   2.890   6.253  0.5813  0.0100 -0.5418
 5483SOL    HW222286   4.243   2.995   6.219 -0.4887  1.1583 -0.3276
 5484SOL     OW22287   9.902   6.440   7.703  0.1563  0.2297 -0.0310
 5484SOL    HW122288   9.848   6.391   7.766  0.6664  0.0171  0.2477
 5484SOL    HW222289   9.875   6.531   7.715 -1.2886 -0.0334 -1.0367
 5485SOL     OW22290   8.687   4.398  10.031  0.2507  0.5331  0.2338
 5485SOL    HW122291   8.747   4.468  10.003  0.4129  0.1003 -0.5192
 5485SOL    HW222292   8.727   4.364  10.112  2.0919 -1.0066 -1.2168
 5486SOL     OW22293   3.994   3.551   5.858  0.3064 -1.1657 -0.3569
 5486SOL    HW122294   3.926   3.614   5.882 -1.1630 -2.6307 -0.4752
 5486SOL    HW222295   3.973   3.526   5.768  1.1144 -1.5043 -0.4624
 5487SOL     OW22296  10.421   3.720   0.842  0.3224  0.2406 -0.4751
 5487SOL    HW122297  10.453   3.786   0.779  0.0530 -0.6550 -1.5921
 5487SOL    HW222298  10.326   3.736   0.846  0.3342  0.2687 -0.3255
 5488SOL     OW22299   8.259   3.689   0.724  0.3438  0.2298  0.3804
 5488SOL    HW122300   8.175   3.663   0.761  0.2095  1.0715  0.6944
 5488SOL    HW222301   8.307   3.607   0.713 -0.5896 -0.2776  0.0121
 5489SOL     OW22302   2.292   0.173   0.686 -0.1482  0.6458 -0.0612
 5489SOL    HW122303   2.219   0.116   0.662  0.0036  0.8517 -1.0475
 5489SOL    HW222304   2.253   0.240   0.743 -0.9784  1.3972 -1.4553
 5490SOL     OW22305   5.078   8.495   2.488 -0.2239 -0.0362 -0.9414
 5490SOL    HW122306   5.144   8.535   2.431  0.2778  1.6148  0.7217
 5490SOL    HW222307   4.995   8.531   2.457 -0.0039  0.4760 -0.9513
 5491SOL     OW22308   6.352   2.590  10.688 -0.0152 -0.3076  0.1373
 5491SOL    HW122309   6.426   2.616  10.634  0.1179 -1.1652 -0.1032
 5491SOL    HW222310   6.365   2.636  10.771  0.0667  0.5901 -0.3608
 5492SOL     OW22311   7.423   9.761   6.243  0.3307 -0.0004  0.2592
 5492SOL    HW122312   7.496   9.816   6.270 -0.2171  1.0668 -0.3720
 5492SOL    HW222313   7.455   9.714   6.165  0.4617  0.1826  0.2033
 5493SOL     OW22314   3.651   6.025   4.442 -0.8793  0.2843  0.5796
 5493SOL    HW122315   3.707   5.989   4.511 -0.3662 -0.5882 -0.2773
 5493SOL    HW222316   3.710   6.075   4.386 -0.7601 -1.3548 -0.8177
 5494SOL     OW22317   9.228   6.809   8.481  0.3152  0.1694 -0.3086
 5494SOL    HW122318   9.232   6.887   8.537  1.2510 -1.7171  2.4783
 5494SOL    HW222319   9.319   6.779   8.476 -0.0622 -0.9060 -1.0745
 5495SOL     OW22320   2.508   4.214   0.251  0.1736  0.1323  0.1340
 5495SOL    HW122321   2.595   4.245   0.277  0.7817 -2.4497  1.5290
 5495SOL    HW222322   2.451   4.237   0.325  0.3281 -0.6649  0.5223
 5496SOL     OW22323   4.819   4.585   5.063  0.1209  0.5074 -0.7349
 5496SOL    HW122324   4.885   4.600   5.131 -0.4783 -0.4843  0.1047
 5496SOL    HW222325   4.809   4.489   5.061 -2.3682  0.6756  0.2720
 5497SOL     OW22326   7.494   0.927  10.234  0.0947  0.7676  0.2852
 5497SOL    HW122327   7.439   1.005  10.229 -0.0569  0.6624  0.3050
 5497SOL    HW222328   7.580   0.956  10.204 -0.6700  0.2515 -2.7057
 5498SOL     OW22329   4.373   9.339   9.875  0.0361 -0.3656 -0.2104
 5498SOL    HW122330   4.394   9.245   9.870 -0.8563 -0.6423  0.8632
 5498SOL    HW222331   4.351   9.353   9.967 -0.9411  0.6715 -0.5915
 5499SOL     OW22332   9.462   8.824   0.490 -0.4942 -0.0452  0.5155
 5499SOL    HW122333   9.456   8.845   0.584  1.4537 -2.1090  1.1933
 5499SOL    HW222334   9.425   8.736   0.483  0.3985 -0.3536 -0.4472
 5500SOL     OW22335  10.591   1.187   3.502 -0.7167  0.7801  0.1910
 5500SOL    HW122336  10.597   1.123   3.573 -0.4036  0.7967  0.1802
 5500SOL    HW222337  10.603   1.135   3.423 -3.4293  0.3569 -0.0272
 5501SOL     OW22338   9.705   5.973   2.928  0.1009 -0.4548 -0.3727
 5501SOL    HW122339   9.663   5.946   2.846  0.2137 -0.0535 -0.5625
 5501SOL    HW222340   9.795   5.994   2.902  0.5948 -1.8184  0.1111
 5502SOL     OW22341   2.088   6.071   2.025 -0.5696 -0.0334 -1.1278
 5502SOL    HW122342   2.050   5.989   1.992 -1.5496 -0.2331  0.4226
 5502SOL    HW222343   2.014   6.119   2.062  0.2363  0.9234 -0.7046
 5503SOL     OW22344  10.426   3.951   2.777  0.1852  0.3056  0.1809
 5503SOL    HW122345  10.366   3.877   2.774 -0.4823  0.8689 -1.2491
 5503SOL    HW222346  10.373   4.026   2.752  1.6754  0.6581 -2.2354
 5504SOL     OW22347   1.079   9.203   9.244 -0.1154 -0.4661 -0.6674
 5504SOL    HW122348   1.162   9.232   9.206  0.6261  0.3581  1.4260
 5504SOL    HW222349   1.104   9.134   9.306 -0.7011  1.0975  1.4051
 5505SOL     OW22350   4.192   1.514   4.318  0.8875  0.2494  0.1545
 5505SOL    HW122351   4.128   1.568   4.365  0.7194 -0.0717  0.3025
 5505SOL    HW222352   4.145   1.432   4.299  0.9147  0.4231 -0.6970
 5506SOL     OW22353   4.843   2.428   9.006  0.3818 -0.1218 -0.7699
 5506SOL    HW122354   4.762   2.414   8.957  0.3998 -0.4516 -0.7056
 5506SOL    HW222355   4.840   2.364   9.077  0.5483  0.0809 -0.5757
 5507SOL     OW22356   6.863   6.287   4.646 -0.2224 -0.2306  0.2777
 5507SOL    HW122357   6.894   6.310   4.734  0.3189 -0.2088  0.0833
 5507SOL    HW222358   6.919   6.214   4.620 -0.2545 -0.1101 -0.1279
 5508SOL     OW22359   2.349   7.513   5.183  0.6362 -0.1325 -0.3295
 5508SOL    HW122360   2.320   7.421   5.183  0.2803 -0.0326 -1.3088
 5508SOL    HW222361   2.427   7.514   5.238  0.8691 -1.1000 -0.6284
 5509SOL     OW22362   7.144   9.384   2.333 -0.3585 -0.1692  0.3066
 5509SOL    HW122363   7.126   9.350   2.421 -1.2661  0.9245  0.5745
 5509SOL    HW222364   7.057   9.396   2.294 -0.0111  0.4943 -0.2847
 5510SOL     OW22365   7.412   2.353   6.397 -0.5752 -0.0750 -0.1480
 5510SOL    HW122366   7.416   2.264   6.362 -1.6138 -0.4481  0.6165
 5510SOL    HW222367   7.503   2.379   6.408 -0.2064 -0.1059 -2.6379
 5511SOL     OW22368   0.213   4.200   8.207  0.3851  0.4668  0.2040
 5511SOL    HW122369   0.250   4.269   8.262  0.0961  1.3376 -0.6790
 5511SOL    HW222370   0.288   4.162   8.162  0.4940  0.4984  0.3576
 5512SOL     OW22371   0.565   7.311   0.397  0.6295  0.1917 -0.0007
 5512SOL    HW122372   0.599   7.307   0.487  1.8520 -0.0826 -0.4609
 5512SOL    HW222373   0.637   7.348   0.346 -0.0977  0.4459 -0.8577
 5513SOL     OW22374   5.833   5.995   1.737 -0.9697  0.2244  0.4387
 5513SOL    HW122375   5.747   6.001   1.777 -1.5417 -2.3810 -0.1929
 5513SOL    HW222376   5.843   5.902   1.715  1.6040  0.6070 -0.3852
 5514SOL     OW22377   4.121   5.036   9.416 -0.1909 -0.1328  0.0712
 5514SOL    HW122378   4.170   4.955   9.402  0.1957 -0.1320  1.2654
 5514SOL    HW222379   4.030   5.011   9.405  0.0117 -0.3496 -1.2377
 5515SOL     OW22380   4.757   4.869   3.600  0.3003  0.0093 -0.1795
 5515SOL    HW122381   4.804   4.824   3.671 -0.6171 -0.3262  0.2364
 5515SOL    HW222382   4.677   4.817   3.588 -0.3994  1.0843 -0.2331
 5516SOL     OW22383   7.846   6.742   0.821  0.3424 -0.3350  0.2671
 5516SOL    HW122384   7.810   6.799   0.889 -1.6243  0.3437 -1.2502
 5516SOL    HW222385   7.797   6.661   0.829  2.1095 -1.3564  1.4525
 5517SOL     OW22386  10.496   1.757   5.547 -0.3193  0.2381  1.0305
 5517SOL    HW122387  10.405   1.788   5.548 -0.1746  0.7148  0.0707
 5517SOL    HW222388  10.499   1.693   5.476  0.2438  0.7228  0.6072
 5518SOL     OW22389  10.051   5.325   3.073  0.0887 -0.7176  0.1896
 5518SOL    HW122390  10.067   5.406   3.024  1.1885 -0.7205  0.5260
 5518SOL    HW222391   9.962   5.299   3.047 -0.3236  0.6453  0.1547
 5519SOL     OW22392   5.367   8.658   4.582 -0.0247 -0.4680  0.1517
 5519SOL    HW122393   5.324   8.615   4.655  1.6680 -0.1847  1.3739
 5519SOL    HW222394   5.454   8.618   4.578  0.8903  1.3946  0.0786
 5520SOL     OW22395   1.871   0.073   1.119  0.2547 -0.0269 -0.2986
 5520SOL    HW122396   1.786   0.038   1.091 -0.9656  0.9681  1.8664
 5520SOL    HW222397   1.921  -0.004   1.145 -1.0501 -0.4924  0.9800
 5521SOL     OW22398   3.659   1.612   2.385  0.1505  0.3203 -0.3554
 5521SOL    HW122399   3.601   1.565   2.446 -0.3187  0.4016 -0.7295
 5521SOL    HW222400   3.732   1.552   2.370 -0.1008 -0.0062 -0.2898
 5522SOL     OW22401   4.034   7.717   2.432  0.4149 -0.1827  0.5508
 5522SOL    HW122402   4.082   7.773   2.492  2.0253 -0.0165 -0.8079
 5522SOL    HW222403   4.013   7.773   2.358 -1.2994 -0.4440  0.8082
 5523SOL     OW22404  10.235   6.012   3.980  0.3403 -0.1003 -0.3795
 5523SOL    HW122405  10.196   5.969   4.056  0.5981  0.1859 -0.0875
 5523SOL    HW222406  10.270   5.939   3.927  1.1505 -0.2367  0.3192
 5524SOL     OW22407   6.195   4.639   2.741  0.3512 -0.2804 -0.5722
 5524SOL    HW122408   6.117   4.585   2.732 -0.4719  1.0840 -2.3355
 5524SOL    HW222409   6.237   4.636   2.655  3.1439 -2.1496  0.6954
 5525SOL     OW22410   4.959  10.161   8.062  0.8342  0.4042  0.0677
 5525SOL    HW122411   4.977  10.241   8.112  0.4741  0.6961 -0.2649
 5525SOL    HW222412   5.029  10.158   7.996  0.4916  0.7821 -0.3192
 5526SOL     OW22413   3.781   2.480   2.830  0.5547 -0.0599  0.0312
 5526SOL    HW122414   3.874   2.502   2.823  0.7121 -0.8271 -0.3969
 5526SOL    HW222415   3.763   2.428   2.752  0.3604 -1.9397  1.2521
 5527SOL     OW22416   9.779  10.074   7.148 -0.4131  0.2010  0.1878
 5527SOL    HW122417   9.744   9.999   7.099  2.1923 -0.1047 -1.4106
 5527SOL    HW222418   9.869  10.049   7.168  0.0318  2.2903  0.9873
 5528SOL     OW22419   8.788   1.036   0.180  0.1748  0.0449 -0.4292
 5528SOL    HW122420   8.873   1.057   0.140 -0.1300  0.5221 -0.8517
 5528SOL    HW222421   8.810   0.990   0.261  0.8768  1.2310  0.0833
 5529SOL     OW22422   6.991   0.098   3.030  0.1380  0.3486 -0.0057
 5529SOL    HW122423   6.976   0.064   2.942  0.0440  0.9385 -0.2217
 5529SOL    HW222424   7.080   0.070   3.051  0.3259  0.5783 -0.4683
 5530SOL     OW22425   9.355   2.246   1.371  0.5314 -0.3965  0.3254
 5530SOL    HW122426   9.437   2.292   1.351 -0.6046  1.4870 -0.2121
 5530SOL    HW222427   9.351   2.244   1.466  0.6526  0.5583  0.3597
 5531SOL     OW22428   0.851   5.831   1.096 -0.1456  0.4890  0.2850
 5531SOL    HW122429   0.904   5.858   1.021 -0.7028  1.1730  0.1329
 5531SOL    HW222430   0.772   5.794   1.057 -0.5574  1.0975  0.5415
 5532SOL     OW22431   6.343   6.259   8.803 -0.0560  0.1066 -0.8382
 5532SOL    HW122432   6.435   6.237   8.788  0.2546  1.0637 -0.4434
 5532SOL    HW222433   6.340   6.284   8.896 -0.3963  1.5498 -1.2164
 5533SOL     OW22434   2.479   8.028   6.615 -0.4058  0.5736  0.3071
 5533SOL    HW122435   2.427   8.099   6.651 -1.2759  0.5576 -0.8874
 5533SOL    HW222436   2.534   8.069   6.548  0.6094  0.4588  1.0360
 5534SOL     OW22437   6.269   7.749   1.582 -0.0809  0.6549  0.1386
 5534SOL    HW122438   6.318   7.823   1.618  1.6295  0.2967 -1.3131
 5534SOL    HW222439   6.293   7.675   1.638 -2.1310  1.1864  1.8633
 5535SOL     OW22440   4.971   6.098   7.838 -0.0162  0.1278 -0.7010
 5535SOL    HW122441   4.897   6.158   7.848 -1.1133 -1.3843  0.8196
 5535SOL    HW222442   5.040   6.133   7.894 -1.0022 -0.4944  0.9671
 5536SOL     OW22443   3.458  10.257   3.757 -0.0120 -0.1301 -0.2394
 5536SOL    HW122444   3.549  10.274   3.734  0.5114 -1.0476  1.0518
 5536SOL    HW222445   3.441  10.315   3.831 -0.7844  0.6802 -1.0109
 5537SOL     OW22446   5.878   7.639   5.023  0.0005 -0.1710  0.4066
 5537SOL    HW122447   5.835   7.612   4.941  0.8159 -0.0319 -0.0802
 5537SOL    HW222448   5.905   7.729   5.007 -1.2686  0.4309  1.4385
 5538SOL     OW22449   4.066   4.962   4.149 -0.5950  0.0878 -0.5003
 5538SOL    HW122450   4.112   4.882   4.177 -1.1491  0.0865  0.4511
 5538SOL    HW222451   4.133   5.030   4.153 -0.4380 -0.0880 -0.0145
 5539SOL     OW22452   2.425   4.760   1.110 -0.2079  0.5223  0.1066
 5539SOL    HW122453   2.362   4.721   1.050  1.3990 -0.5704 -0.9407
 5539SOL    HW222454   2.503   4.704   1.105  1.1204  2.1878  0.8134
 5540SOL     OW22455  10.509   7.681   3.219 -0.1185 -0.1322 -0.0019
 5540SOL    HW122456  10.591   7.656   3.262 -0.0361 -1.7289 -0.9938
 5540SOL    HW222457  10.502   7.620   3.146 -0.1683  2.5335 -2.3751
 5541SOL     OW22458   9.867   1.328   6.074 -0.3188  0.0969  0.4165
 5541SOL    HW122459   9.851   1.243   6.032  0.2520 -0.2536  0.8774
 5541SOL    HW222460   9.867   1.308   6.168  1.0494  0.3600  0.4964
 5542SOL     OW22461   3.789  10.364   2.128  0.9359 -0.1288 -0.4177
 5542SOL    HW122462   3.768  10.284   2.078  0.9257 -0.0940 -0.4704
 5542SOL    HW222463   3.711  10.379   2.181  1.4158 -0.8487  0.5180
 5543SOL     OW22464   9.641   9.220   5.157  0.2310 -0.8340 -0.4922
 5543SOL    HW122465   9.573   9.224   5.225 -1.0779  2.2485 -1.7757
 5543SOL    HW222466   9.648   9.127   5.135 -2.2135 -1.4783  1.0305
 5544SOL     OW22467   5.474   9.129   6.747 -0.5396  0.6025 -0.5131
 5544SOL    HW122468   5.430   9.045   6.731  0.4498 -0.2625  1.0693
 5544SOL    HW222469   5.514   9.119   6.834  2.0213  1.6665 -1.4807
 5545SOL     OW22470  10.618  10.537   2.514  0.0141 -0.6755 -0.3031
 5545SOL    HW122471  10.647  10.446   2.511  1.1689 -0.3956  1.1010
 5545SOL    HW222472  10.684  10.586   2.467  1.3877 -0.1737  1.9704
 5546SOL     OW22473   1.258   6.624   0.578  0.8211 -0.1476 -0.2580
 5546SOL    HW122474   1.318   6.554   0.603 -0.0652 -1.6855 -2.1472
 5546SOL    HW222475   1.264   6.627   0.482 -0.0229  1.6085 -0.2895
 5547SOL     OW22476   9.184   0.796   4.611  0.4153 -0.1705 -0.1458
 5547SOL    HW122477   9.169   0.870   4.551 -0.0336 -1.1073 -1.2341
 5547SOL    HW222478   9.278   0.797   4.628  0.4820  0.3668 -0.5199
 5548SOL     OW22479   9.712  10.566   9.743  0.4665  0.2517  0.1566
 5548SOL    HW122480   9.652  10.545   9.671  1.7739  0.9681 -1.1847
 5548SOL    HW222481   9.656  10.611   9.807 -0.4323  1.0191 -1.1160
 5549SOL     OW22482   9.582   0.478   5.027 -0.1963  0.0158 -0.2114
 5549SOL    HW122483   9.562   0.571   5.017  0.2148  0.0269 -1.0174
 5549SOL    HW222484   9.496   0.436   5.034 -0.4194  0.3588 -0.7822
 5550SOL     OW22485   4.756   4.817   2.399  0.0988  0.0987  0.3329
 5550SOL    HW122486   4.731   4.906   2.375  1.1180 -0.0039 -1.2609
 5550SOL    HW222487   4.846   4.808   2.366 -0.1479 -1.6643  0.0424
 5551SOL     OW22488   3.191   7.201   1.679  0.1877 -0.6179  0.0187
 5551SOL    HW122489   3.282   7.180   1.695  0.6932  1.4624  0.2454
 5551SOL    HW222490   3.158   7.231   1.764 -0.6057 -1.0273 -0.1352
 5552SOL     OW22491   4.761   6.072   2.356  0.2537  0.0951  0.5543
 5552SOL    HW122492   4.682   6.119   2.330 -0.6417 -1.6129 -0.0189
 5552SOL    HW222493   4.815   6.070   2.276  1.0576  1.5435  1.0346
 5553SOL     OW22494   6.332   6.618   8.262  0.1012 -0.7095 -0.5460
 5553SOL    HW122495   6.301   6.659   8.182  1.1194 -0.6097 -0.8996
 5553SOL    HW222496   6.414   6.576   8.238  1.0689  0.3591  0.7134
 5554SOL     OW22497   5.548   6.629   2.236  0.0107  0.2644  0.3970
 5554SOL    HW122498   5.577   6.697   2.175 -0.6508  0.0365 -0.1783
 5554SOL    HW222499   5.621   6.568   2.240 -0.0217  0.1646 -0.3503
 5555SOL     OW22500   4.769   9.365   8.932  0.2177 -0.2043  0.2337
 5555SOL    HW122501   4.847   9.313   8.949 -1.1845 -2.0737  1.3236
 5555SOL    HW222502   4.737   9.334   8.847 -0.3623 -0.8234  0.6681
 5556SOL     OW22503   0.454   3.413   9.299 -0.5640  0.0454 -0.1658
 5556SOL    HW122504   0.397   3.367   9.236 -1.2711  0.3415  0.2418
 5556SOL    HW222505   0.456   3.356   9.376  1.3210 -0.9321 -0.8722
 5557SOL     OW22506   4.230   4.201   0.379  0.0034 -0.2164 -0.0160
 5557SOL    HW122507   4.197   4.112   0.361  2.3926 -1.4643  1.2521
 5557SOL    HW222508   4.169   4.259   0.333 -0.7037 -2.5846 -2.3232
 5558SOL     OW22509   6.893   7.544   4.057  0.8669  0.2406 -0.3112
 5558SOL    HW122510   6.900   7.550   4.153  2.6101 -0.1102 -0.3769
 5558SOL    HW222511   6.809   7.502   4.042  0.9140 -0.4390  1.1113
 5559SOL     OW22512   5.112   0.916   6.520  0.6420 -0.4800  0.3091
 5559SOL    HW122513   5.095   0.827   6.488 -2.6316 -0.4535  1.5467
 5559SOL    HW222514   5.120   0.905   6.615  0.2646  0.5310  0.4654
 5560SOL     OW22515   5.474   0.683   7.607 -0.2127  0.5342 -0.5259
 5560SOL    HW122516   5.537   0.723   7.547 -0.3093  0.5356 -0.6275
 5560SOL    HW222517   5.389   0.708   7.572 -0.2683  1.2239  0.0774
 5561SOL     OW22518   9.490   7.688   9.349 -0.4473 -0.1884  0.3133
 5561SOL    HW122519   9.407   7.668   9.307  0.3510 -2.1915 -0.4361
 5561SOL    HW222520   9.473   7.766   9.400 -2.4296  0.2102 -0.8636
 5562SOL     OW22521   4.394   2.937   9.311  0.0678  0.2271 -0.3483
 5562SOL    HW122522   4.389   3.015   9.257 -1.0750  0.8035  0.5393
 5562SOL    HW222523   4.315   2.940   9.365 -0.7431 -2.2838 -1.2490
 5563SOL     OW22524  10.511   8.697   2.915 -0.0065 -0.3838 -0.0810
 5563SOL    HW122525  10.539   8.735   2.831 -2.0545  0.9514 -0.2215
 5563SOL    HW222526  10.438   8.640   2.892 -1.8192  1.4016  0.8933
 5564SOL     OW22527   0.311   8.913   3.870  0.2363 -0.2519  0.9350
 5564SOL    HW122528   0.321   8.846   3.802 -0.6489 -0.3018  0.8391
 5564SOL    HW222529   0.230   8.888   3.915 -1.0757  1.7033 -0.1997
 5565SOL     OW22530   9.925   8.941  10.367 -0.0026  0.2984 -1.2603
 5565SOL    HW122531   9.963   8.961  10.453 -1.2831 -0.8281 -0.3889
 5565SOL    HW222532   9.931   9.024  10.318 -0.1066  1.2399  0.2480
 5566SOL     OW22533   7.574   8.758   9.787 -0.2910  0.1910 -0.7665
 5566SOL    HW122534   7.620   8.725   9.710  0.9482 -0.8088  0.3572
 5566SOL    HW222535   7.545   8.680   9.834  1.5788  0.6229  1.2840
 5567SOL     OW22536  10.633   3.620   2.378  0.6005  0.1713 -0.0886
 5567SOL    HW122537  10.714   3.671   2.382 -0.3806  1.6943  2.1629
 5567SOL    HW222538  10.582   3.649   2.454 -2.1617 -0.5644 -1.5214
 5568SOL     OW22539   0.171   3.478   9.666 -0.0999 -0.1999  0.0073
 5568SOL    HW122540   0.207   3.450   9.750  0.4722  0.5105  0.0100
 5568SOL    HW222541   0.157   3.572   9.676 -0.5187 -0.1990 -0.5218
 5569SOL     OW22542   0.568   2.196   6.569 -0.3832  0.6674 -0.9262
 5569SOL    HW122543   0.529   2.175   6.484  0.8482 -1.3348 -1.0904
 5569SOL    HW222544   0.649   2.242   6.547  0.3782 -0.6066 -0.9577
 5570SOL     OW22545   9.209   9.895   0.878 -0.3966  0.7642 -0.1747
 5570SOL    HW122546   9.146   9.966   0.890 -0.7012  0.4912 -0.1159
 5570SOL    HW222547   9.164   9.834   0.819 -0.0375  0.7435 -0.4249
 5571SOL     OW22548   8.533   1.463   5.219  0.0689  0.6938 -0.3094
 5571SOL    HW122549   8.552   1.448   5.312 -3.1324 -0.8849  0.2305
 5571SOL    HW222550   8.454   1.516   5.219  0.4003  1.2583 -2.1691
 5572SOL     OW22551   6.640   6.996   5.737 -0.4999 -0.1424 -0.2468
 5572SOL    HW122552   6.613   7.049   5.662 -0.2751  1.5304  0.8164
 5572SOL    HW222553   6.718   6.949   5.706 -1.2580 -0.6199 -1.5049
 5573SOL     OW22554   1.277   1.441   7.667 -0.3317 -0.1382  0.0316
 5573SOL    HW122555   1.331   1.386   7.610 -1.6235 -0.0543 -1.3344
 5573SOL    HW222556   1.194   1.395   7.673 -1.7651  1.9745 -1.8396
 5574SOL     OW22557   9.755   1.437   7.566 -0.1835 -0.2098 -0.1196
 5574SOL    HW122558   9.669   1.397   7.572 -0.3183 -0.1502 -1.4143
 5574SOL    HW222559   9.740   1.530   7.585 -0.6424  0.0451 -1.6058
 5575SOL     OW22560   6.107   5.436   0.339  0.7325 -0.4152  0.5254
 5575SOL    HW122561   6.114   5.434   0.434  0.2233 -1.1993  0.5541
 5575SOL    HW222562   6.113   5.345   0.312 -2.1446 -0.5522  0.0606
 5576SOL     OW22563   4.594   1.947   0.117 -0.0087  0.4926 -0.3329
 5576SOL    HW122564   4.633   1.881   0.174 -2.1996 -0.5717  0.0143
 5576SOL    HW222565   4.547   2.006   0.176 -0.6914  0.5107 -0.8850
 5577SOL     OW22566   3.396   1.826  10.682 -0.3468  0.4784 -0.2961
 5577SOL    HW122567   3.459   1.882  10.727  2.4997 -0.2532 -2.9825
 5577SOL    HW222568   3.373   1.874  10.603  1.0404 -1.4082 -1.9367
 5578SOL     OW22569   9.140   9.548   1.658 -0.1548  0.3906 -0.0918
 5578SOL    HW122570   9.233   9.528   1.649 -0.3725 -0.5881 -0.3981
 5578SOL    HW222571   9.103   9.469   1.700 -0.7335  1.0372  0.6444
 5579SOL     OW22572   7.764   9.576   4.755 -0.1305  0.1310 -0.2025
 5579SOL    HW122573   7.752   9.508   4.820 -0.5153 -1.5377 -1.9322
 5579SOL    HW222574   7.777   9.656   4.806 -2.5958 -0.6740  1.9323
 5580SOL     OW22575   7.932   3.814   7.898 -0.7264  0.2823 -0.2923
 5580SOL    HW122576   7.938   3.720   7.919  1.6137  0.3637 -0.3958
 5580SOL    HW222577   7.846   3.840   7.932 -0.1045 -1.1855  2.7629
 5581SOL     OW22578  10.440  10.274   8.592  0.1346 -0.3224  0.5252
 5581SOL    HW122579  10.376  10.326   8.543  1.0698  1.4117  1.0559
 5581SOL    HW222580  10.509  10.336   8.615  0.3993 -1.3798  2.8475
 5582SOL     OW22581   5.696  10.299  10.202  0.3878 -0.0108 -0.2941
 5582SOL    HW122582   5.751  10.363  10.248 -0.5623  0.6297 -0.0216
 5582SOL    HW222583   5.655  10.349  10.132 -3.1653  0.6837  2.0345
 5583SOL     OW22584   8.559   2.068  10.161  0.4441 -0.3220 -0.2816
 5583SOL    HW122585   8.618   2.107  10.096  1.3594 -0.0492  0.6819
 5583SOL    HW222586   8.588   1.976  10.167 -1.2992 -1.0515 -2.0871
 5584SOL     OW22587   5.295   8.468   4.240  0.2804 -0.1660 -0.9644
 5584SOL    HW122588   5.281   8.562   4.248  2.3016  0.1862 -1.2140
 5584SOL    HW222589   5.380   8.452   4.280 -1.1574 -2.3505  1.6106
 5585SOL     OW22590   6.644   9.140   7.511  0.2412 -0.3430  0.0681
 5585SOL    HW122591   6.554   9.127   7.542  0.3012 -1.2083 -0.1050
 5585SOL    HW222592   6.696   9.150   7.591  0.1462 -0.8825  0.1977
 5586SOL     OW22593   0.253   6.690   0.795  0.0866  0.8608  0.4561
 5586SOL    HW122594   0.229   6.749   0.724  1.6018 -0.4301 -1.2398
 5586SOL    HW222595   0.340   6.719   0.822  0.6680 -0.2858 -0.1120
 5587SOL     OW22596   3.353   9.930   5.625 -0.6476  0.2516  0.4201
 5587SOL    HW122597   3.318   9.960   5.541  0.9075 -0.7199 -0.6251
 5587SOL    HW222598   3.275   9.918   5.680 -1.5989  2.1854 -0.4094
 5588SOL     OW22599   7.259   8.835   4.240 -0.7281  0.5371 -0.5732
 5588SOL    HW122600   7.270   8.781   4.162  1.1476 -1.6869  1.1094
 5588SOL    HW222601   7.192   8.791   4.291 -2.3949  2.3172 -1.1126
 5589SOL     OW22602   9.929   4.943   0.611  0.5018 -0.2034 -0.1271
 5589SOL    HW122603   9.907   4.950   0.518 -0.0650  1.7460  0.1086
 5589SOL    HW222604   9.858   4.890   0.647  0.1921 -0.1568 -0.6430
 5590SOL     OW22605   9.122   0.887   4.348 -0.2637  0.0821  0.1410
 5590SOL    HW122606   9.167   0.916   4.268  2.6344 -0.0941  1.5536
 5590SOL    HW222607   9.112   0.792   4.337  1.0063 -0.0917  0.3324
 5591SOL     OW22608   4.842   0.964   9.992 -0.5049 -0.0059  0.1431
 5591SOL    HW122609   4.838   0.975   9.897 -1.9119 -1.0750  0.0401
 5591SOL    HW222610   4.827   0.870  10.006  1.6204 -0.2301  1.3409
 5592SOL     OW22611   8.975   1.609   9.800  0.3443 -0.1786  0.1378
 5592SOL    HW122612   9.047   1.602   9.863  1.2661 -0.3707 -0.9115
 5592SOL    HW222613   9.017   1.640   9.720 -0.7973 -0.0242 -0.4060
 5593SOL     OW22614   9.088   1.810   9.104  0.3374 -0.3324 -0.4373
 5593SOL    HW122615   9.000   1.776   9.091  0.9847 -1.7010 -1.4818
 5593SOL    HW222616   9.075   1.898   9.140 -1.4430 -0.4299 -0.7714
 5594SOL     OW22617   1.948   6.615   6.866 -0.2419 -0.3092 -0.1024
 5594SOL    HW122618   1.961   6.710   6.873 -1.4015 -0.1355 -0.0340
 5594SOL    HW222619   1.920   6.601   6.776 -1.9753 -0.2994  0.3868
 5595SOL     OW22620   0.237   1.666   7.130  0.4837  0.0848 -0.3972
 5595SOL    HW122621   0.144   1.689   7.123  0.4261  0.4241  1.0914
 5595SOL    HW222622   0.250   1.601   7.060 -0.6086  0.7737 -1.2877
 5596SOL     OW22623   7.512   1.028   2.218  0.1707 -0.5556  0.0096
 5596SOL    HW122624   7.531   1.105   2.164 -1.7786  0.3635  0.5403
 5596SOL    HW222625   7.469   0.967   2.158  0.1698 -0.5299 -0.0156
 5597SOL     OW22626   4.721   7.855   9.993  0.6587  0.3010  0.0818
 5597SOL    HW122627   4.681   7.868   9.907  0.4070  1.3925  0.3426
 5597SOL    HW222628   4.738   7.944  10.025  0.2600 -0.0615  1.3838
 5598SOL     OW22629   3.609   4.409   0.965 -0.0723  0.4449 -0.2210
 5598SOL    HW122630   3.591   4.362   0.884 -0.5591 -0.2119  0.2634
 5598SOL    HW222631   3.650   4.344   1.022 -0.5375  0.6680  0.3739
 5599SOL     OW22632   4.999   4.830   4.422 -0.0330  0.2122  0.8907
 5599SOL    HW122633   4.952   4.747   4.429 -0.0920  0.0605 -0.9120
 5599SOL    HW222634   5.091   4.805   4.414 -0.0988  0.2620 -0.2098
 5600SOL     OW22635   5.315   1.751   6.311  0.0356 -0.0457  0.0330
 5600SOL    HW122636   5.321   1.759   6.406  1.6251  1.7286 -0.1570
 5600SOL    HW222637   5.303   1.840   6.279  1.1299 -0.3952 -1.4943
 5601SOL     OW22638   6.292   2.995   1.749 -0.6406 -0.0905 -0.1759
 5601SOL    HW122639   6.383   2.982   1.777  0.0035  0.4781 -1.8748
 5601SOL    HW222640   6.240   2.956   1.819  0.9307 -1.2499  0.4152
 5602SOL     OW22641  10.081   6.088  10.697 -0.2204 -0.8835  0.2190
 5602SOL    HW122642  10.071   6.000  10.663 -1.1762 -1.5109  1.9554
 5602SOL    HW222643   9.992   6.115  10.720 -0.0586  0.8834 -1.0123
 5603SOL     OW22644   0.207   0.453   4.522  0.3320 -0.0336  0.2421
 5603SOL    HW122645   0.297   0.478   4.500  1.2362 -1.5309  1.9680
 5603SOL    HW222646   0.191   0.373   4.471  0.9668 -1.2273  1.8445
 5604SOL     OW22647   9.607   0.721   3.982 -1.0065  0.2003  0.4157
 5604SOL    HW122648   9.616   0.665   4.060 -1.1195 -0.3690  0.0248
 5604SOL    HW222649   9.577   0.805   4.017 -1.5959 -0.2179  0.9355
 5605SOL     OW22650   8.555  10.625   0.314 -0.1406 -0.3459 -0.3194
 5605SOL    HW122651   8.511  10.545   0.343 -0.7377 -0.3597 -1.2101
 5605SOL    HW222652   8.642  10.596   0.288 -0.3029 -0.6952 -0.4963
 5606SOL     OW22653   1.880   7.803   1.567 -0.3284 -0.4566 -0.0573
 5606SOL    HW122654   1.950   7.811   1.632 -0.5395 -3.5334  0.6896
 5606SOL    HW222655   1.800   7.796   1.618 -0.7436 -0.8547 -0.7514
 5607SOL     OW22656   3.389   7.355   7.700 -0.1685  0.2260 -0.5361
 5607SOL    HW122657   3.409   7.285   7.637 -1.7435  0.8204 -1.7609
 5607SOL    HW222658   3.304   7.331   7.736 -0.1236  0.8501 -0.0088
 5608SOL     OW22659   7.426  10.356   1.635  0.6929  0.1681  0.1141
 5608SOL    HW122660   7.354  10.309   1.677 -0.8106  2.6381  0.5590
 5608SOL    HW222661   7.405  10.356   1.542  1.3954 -1.1191 -0.0526
 5609SOL     OW22662   3.716   3.841   2.997  0.7443 -0.0678  0.1659
 5609SOL    HW122663   3.715   3.778   3.069  1.1640 -2.0797 -1.5102
 5609SOL    HW222664   3.635   3.890   3.008 -0.7447 -2.3945  0.3210
 5610SOL     OW22665   5.894   6.521   7.311 -0.2974 -0.7566 -0.4595
 5610SOL    HW122666   5.817   6.504   7.258 -1.3323  1.4511  0.2348
 5610SOL    HW222667   5.947   6.581   7.259 -1.1209  1.0917  0.7635
 5611SOL     OW22668   6.476   1.002   6.565 -0.5419  0.2172 -0.0159
 5611SOL    HW122669   6.390   1.005   6.522 -0.5580 -1.8410 -0.2397
 5611SOL    HW222670   6.463   0.943   6.639  0.7361 -0.2843 -0.1694
 5612SOL     OW22671   1.014   5.908   5.324  0.3212  0.5127  0.2251
 5612SOL    HW122672   1.023   5.937   5.233  2.8225  1.4128  0.6565
 5612SOL    HW222673   0.924   5.879   5.332 -1.1138  3.8884 -1.5748
 5613SOL     OW22674   8.223   7.993   7.515  0.5128 -0.5517  0.2660
 5613SOL    HW122675   8.305   8.015   7.472  0.7078 -1.0558  0.3745
 5613SOL    HW222676   8.248   7.940   7.591  0.3268  2.0143  2.2384
 5614SOL     OW22677   3.819   0.675   0.853  0.1502 -0.4677  0.5686
 5614SOL    HW122678   3.781   0.756   0.886 -0.6883 -0.4138 -0.4783
 5614SOL    HW222679   3.910   0.698   0.834 -0.0401  0.2005  0.4159
 5615SOL     OW22680   9.141   7.944   5.335 -0.4350  0.6376  0.5290
 5615SOL    HW122681   9.150   7.867   5.279 -3.0263  0.7218 -0.1640
 5615SOL    HW222682   9.230   7.979   5.343  0.2612 -0.1849 -2.4031
 5616SOL     OW22683   3.288   7.736   7.421  0.0372 -0.0163  0.7156
 5616SOL    HW122684   3.251   7.693   7.497  0.0931 -0.6760  0.3784
 5616SOL    HW222685   3.378   7.757   7.447  0.3298 -1.0068  0.5495
 5617SOL     OW22686  10.505   5.474   9.565 -0.8261  0.1915 -0.3869
 5617SOL    HW122687  10.481   5.469   9.472 -1.7943 -0.2103 -0.1302
 5617SOL    HW222688  10.579   5.534   9.567 -0.7870  0.2034 -1.4211
 5618SOL     OW22689   3.285   5.808   0.767  0.0247 -0.0562 -0.0879
 5618SOL    HW122690   3.204   5.772   0.730 -1.1251  0.7349  1.5465
 5618SOL    HW222691   3.344   5.815   0.692 -2.1266  1.3082 -1.7847
 5619SOL     OW22692   9.170   5.319   0.653  0.1240  0.5389  0.3535
 5619SOL    HW122693   9.215   5.257   0.711  2.7023  1.3458 -0.6196
 5619SOL    HW222694   9.231   5.333   0.581 -1.0940  2.8882 -0.3410
 5620SOL     OW22695   8.129   5.879   6.479  0.1084 -0.6166 -0.1313
 5620SOL    HW122696   8.156   5.796   6.439 -1.6404 -1.4015  0.2400
 5620SOL    HW222697   8.149   5.868   6.572  3.1710  0.8024 -0.4844
 5621SOL     OW22698   2.034   5.294   2.702  0.6302 -0.2684 -0.5892
 5621SOL    HW122699   2.082   5.262   2.626  0.2033 -2.0499 -0.1650
 5621SOL    HW222700   2.035   5.389   2.694 -0.3616 -0.4238 -3.4190
 5622SOL     OW22701   1.212   1.736   0.048 -0.4431  0.0438 -0.5205
 5622SOL    HW122702   1.243   1.703   0.132  0.3018 -0.0782 -0.8388
 5622SOL    HW222703   1.250   1.824   0.041 -0.5275  0.0659 -0.7190
 5623SOL     OW22704   1.608   4.966   1.550 -0.3903  0.0447  0.3957
 5623SOL    HW122705   1.644   5.036   1.605 -0.5776 -0.6024  1.3634
 5623SOL    HW222706   1.559   4.911   1.610 -0.7268 -0.6090 -0.4555
 5624SOL     OW22707   3.355   2.189  10.668 -0.4308  0.0825 -0.0831
 5624SOL    HW122708   3.380   2.248  10.597 -0.9905  0.7283  0.2345
 5624SOL    HW222709   3.287   2.133  10.629 -0.4649  0.1802 -0.1666
 5625SOL     OW22710   4.026   1.115   1.972  0.0879  0.3557  0.5350
 5625SOL    HW122711   3.972   1.102   2.050  0.4989  1.8042  1.0864
 5625SOL    HW222712   4.113   1.089   1.999  0.0189 -0.2245  0.2054
 5626SOL     OW22713   7.750   2.361   9.962 -0.1401 -0.0531 -0.0493
 5626SOL    HW122714   7.793   2.331  10.042  0.3270  1.7183  0.4203
 5626SOL    HW222715   7.823   2.389   9.906 -0.4648 -1.2382 -1.0889
 5627SOL     OW22716  10.275   9.468   7.575 -0.0920 -0.0267 -0.1009
 5627SOL    HW122717  10.368   9.448   7.563 -0.1609  0.7455 -2.3663
 5627SOL    HW222718  10.230   9.408   7.515 -0.9798  0.4433  0.0795
 5628SOL     OW22719   4.039   7.518   9.754 -0.0887 -0.1237 -0.2265
 5628SOL    HW122720   4.041   7.606   9.793 -1.5144 -0.2576  0.1844
 5628SOL    HW222721   4.132   7.493   9.748  0.3090  1.1692  0.1889
 5629SOL     OW22722   0.202   9.850   5.581 -0.2012  0.0270 -0.0757
 5629SOL    HW122723   0.228   9.763   5.608  0.0743  0.0048 -0.4091
 5629SOL    HW222724   0.220   9.853   5.487 -0.1685  0.4559 -0.0608
 5630SOL     OW22725   2.469   1.075   1.475 -0.3311  0.5590  0.5157
 5630SOL    HW122726   2.469   1.148   1.537  0.1429 -0.4894  1.8035
 5630SOL    HW222727   2.508   1.003   1.524 -0.9936 -0.6240 -0.6478
 5631SOL     OW22728   3.297   8.446   2.356 -0.1168  0.2735  0.4916
 5631SOL    HW122729   3.208   8.480   2.368  0.1931  1.0296  0.6645
 5631SOL    HW222730   3.319   8.468   2.266 -0.0856  0.1167  0.4600
 5632SOL     OW22731   6.001   2.148   4.460  0.0247 -0.0966 -0.2253
 5632SOL    HW122732   6.008   2.064   4.505  0.0160  1.1892  2.4035
 5632SOL    HW222733   5.957   2.205   4.523 -0.8630  1.6531 -2.2861
 5633SOL     OW22734   4.610   4.616   4.654  0.5660  0.6312 -1.0038
 5633SOL    HW122735   4.665   4.553   4.701  0.9974  1.0482 -0.9446
 5633SOL    HW222736   4.668   4.654   4.588 -0.0672 -0.0414 -1.9776
 5634SOL     OW22737   0.494   8.223   9.803 -0.1124  0.2825  0.9116
 5634SOL    HW122738   0.411   8.227   9.756  0.9218  2.0051 -0.8770
 5634SOL    HW222739   0.502   8.308   9.846 -0.0860 -0.5371  2.6281
 5635SOL     OW22740   2.143   7.291   3.450  0.0949  0.0094  0.1029
 5635SOL    HW122741   2.147   7.213   3.395 -1.7607 -0.0721  0.0276
 5635SOL    HW222742   2.234   7.321   3.456  0.5349 -0.8536 -1.7101
 5636SOL     OW22743   8.371  10.253   4.240  0.2793  0.3196 -0.0521
 5636SOL    HW122744   8.301  10.261   4.305  0.6602  0.3965  0.3532
 5636SOL    HW222745   8.354  10.324   4.178 -1.0835 -0.7735 -1.0184
 5637SOL     OW22746   0.700   2.521   0.587 -0.2724 -0.0957  0.3394
 5637SOL    HW122747   0.770   2.512   0.651  2.1557  0.5735 -2.0031
 5637SOL    HW222748   0.680   2.432   0.559 -0.9191 -0.3400  1.5065
 5638SOL     OW22749   3.768   8.931   9.170 -0.0183  0.5763 -0.8336
 5638SOL    HW122750   3.812   9.016   9.168  1.4061 -0.0091  1.8092
 5638SOL    HW222751   3.704   8.940   9.241  0.6420 -0.7545 -0.0445
 5639SOL     OW22752   8.398   3.888   7.644  0.1756  0.1235  0.3015
 5639SOL    HW122753   8.325   3.837   7.677 -0.0312 -0.7741 -1.4324
 5639SOL    HW222754   8.367   3.979   7.647 -1.7042 -0.3429 -1.8689
 5640SOL     OW22755  10.049   1.332   7.494 -0.5502 -0.0569 -0.1087
 5640SOL    HW122756  10.084   1.415   7.527 -0.8452 -0.6303  1.7577
 5640SOL    HW222757   9.959   1.330   7.525 -0.5845 -1.0156 -0.2515
 5641SOL     OW22758   3.791   2.467   3.430 -0.4001  0.8994  0.5352
 5641SOL    HW122759   3.720   2.531   3.437 -1.5251 -0.4140  1.7761
 5641SOL    HW222760   3.746   2.382   3.430  1.1526  0.0532  0.6915
 5642SOL     OW22761   3.911   1.382   1.914 -0.3633  0.5610  0.1847
 5642SOL    HW122762   3.828   1.369   1.868 -0.2982  1.4647 -0.2139
 5642SOL    HW222763   3.939   1.294   1.938 -1.2122  0.2060 -0.0749
 5643SOL     OW22764   1.127   2.987   2.221  0.4572 -0.3922 -0.1488
 5643SOL    HW122765   1.080   3.002   2.139 -0.9596  0.5196  0.7826
 5643SOL    HW222766   1.213   3.026   2.207 -0.5440  1.8853 -0.4606
 5644SOL     OW22767   7.718   3.762   3.050 -0.4772 -0.3323 -0.0275
 5644SOL    HW122768   7.774   3.709   2.993  1.0770  1.2498 -0.0623
 5644SOL    HW222769   7.660   3.698   3.092  3.1714 -2.6135  2.1878
 5645SOL     OW22770   6.555   4.973   8.105 -0.5327 -0.2827  0.5649
 5645SOL    HW122771   6.566   4.885   8.068 -1.3707 -0.7126  1.3123
 5645SOL    HW222772   6.528   5.027   8.031  0.4512 -0.5400  0.0013
 5646SOL     OW22773   4.718   2.293   7.863 -0.0520  0.0876 -0.2837
 5646SOL    HW122774   4.683   2.215   7.907  0.4448 -0.5047 -0.9143
 5646SOL    HW222775   4.779   2.331   7.927 -0.7188  0.2935  0.2467
 5647SOL     OW22776  10.338   0.458  10.713  0.5149 -0.1344 -0.5798
 5647SOL    HW122777  10.246   0.457  10.686  0.2130 -0.5877  0.4413
 5647SOL    HW222778  10.371   0.543  10.682 -0.8461  1.0258  1.0200
 5648SOL     OW22779   8.698   3.450   1.624  0.3455 -0.3534 -0.5033
 5648SOL    HW122780   8.739   3.364   1.620  1.0042 -0.0222 -1.2462
 5648SOL    HW222781   8.728   3.494   1.544 -0.3986  0.3756 -0.3937
 5649SOL     OW22782   2.614   4.155   1.238 -0.0409  0.3804  0.3691
 5649SOL    HW122783   2.573   4.173   1.154  0.7322 -1.0830 -0.3656
 5649SOL    HW222784   2.565   4.081   1.274  1.6161 -1.1495 -0.3537
 5650SOL     OW22785   4.676   3.921  10.501  0.2210  0.1714 -0.4274
 5650SOL    HW122786   4.642   3.937  10.413 -0.5117  0.2391 -0.1339
 5650SOL    HW222787   4.604   3.881  10.548 -0.3273  2.5773  0.9313
 5651SOL     OW22788   5.241   1.514   4.865 -0.5037 -0.1295  0.4726
 5651SOL    HW122789   5.337   1.506   4.861 -0.4077  1.2098 -0.4299
 5651SOL    HW222790   5.209   1.425   4.853  0.6099 -0.4523 -0.2703
 5652SOL     OW22791   1.193   2.736   6.435  0.1498  0.0599 -0.4567
 5652SOL    HW122792   1.120   2.696   6.386  0.8291 -1.0824 -0.5685
 5652SOL    HW222793   1.271   2.708   6.388  0.6456  2.1621 -0.9714
 5653SOL     OW22794   4.951   2.754   6.232  0.2017 -0.0718  0.1443
 5653SOL    HW122795   5.028   2.803   6.203  1.0369 -1.4082  0.0533
 5653SOL    HW222796   4.968   2.735   6.324 -0.7661  0.9933  0.5616
 5654SOL     OW22797   2.373   8.715   3.921  0.1048 -0.4274  0.1704
 5654SOL    HW122798   2.454   8.705   3.972 -0.1869  0.4995  0.8366
 5654SOL    HW222799   2.379   8.803   3.883 -1.1719  0.1889  1.3192
 5655SOL     OW22800   9.114  10.655   4.185  0.6019  0.6194  0.2953
 5655SOL    HW122801   9.101  10.586   4.120  1.6029  1.4794 -0.8809
 5655SOL    HW222802   9.063  10.628   4.261  0.9662 -1.4012 -0.1315
 5656SOL     OW22803   4.713   1.719   4.472 -0.0648 -0.4364  0.2707
 5656SOL    HW122804   4.790   1.745   4.523 -0.2578  0.9001 -0.0783
 5656SOL    HW222805   4.711   1.780   4.399 -1.3173 -0.6141  0.1402
 5657SOL     OW22806   6.439   0.812   6.736  0.1832 -0.0057  0.6145
 5657SOL    HW122807   6.359   0.763   6.717  1.3442 -2.0193  0.6142
 5657SOL    HW222808   6.509   0.748   6.727  1.8584  1.7677  0.2593
 5658SOL     OW22809   6.626   5.702   6.485 -0.1949  0.0922 -0.5021
 5658SOL    HW122810   6.627   5.703   6.581 -1.1817  0.9510 -0.4879
 5658SOL    HW222811   6.689   5.770   6.460 -1.7741  1.6422 -0.4142
 5659SOL     OW22812   4.201   9.562  10.494  0.1613  0.2792 -0.0469
 5659SOL    HW122813   4.116   9.539  10.459  0.2337  0.8760 -0.6360
 5659SOL    HW222814   4.197   9.536  10.586 -0.0046 -1.3897 -0.4843
 5660SOL     OW22815   0.306   9.392   1.073 -0.5266 -0.3702 -0.1739
 5660SOL    HW122816   0.347   9.431   0.996  1.5497  0.1218  1.1008
 5660SOL    HW222817   0.292   9.466   1.132 -1.3670 -0.8565  0.2497
 5661SOL     OW22818   8.353   9.744   5.366  0.2863 -0.0485 -0.1525
 5661SOL    HW122819   8.303   9.677   5.413 -0.3839  0.3971 -0.2157
 5661SOL    HW222820   8.360   9.817   5.427  2.9165 -0.9281  0.7651
 5662SOL     OW22821  10.670   1.007   2.075 -0.3049 -0.4466 -0.5414
 5662SOL    HW122822  10.577   1.003   2.095 -0.1384  1.9105  1.1764
 5662SOL    HW222823  10.713   0.989   2.159  0.8234 -1.4609 -1.2965
 5663SOL     OW22824   4.906   3.406   6.977  0.3887  0.2324 -0.1558
 5663SOL    HW122825   4.925   3.399   6.884 -0.7867  2.5431 -0.6302
 5663SOL    HW222826   4.918   3.499   6.998  0.1907 -0.1517  1.9063
 5664SOL     OW22827   9.255   4.534   1.979  0.3665 -0.1262  0.5632
 5664SOL    HW122828   9.171   4.522   1.935  0.5752 -0.1851  0.1844
 5664SOL    HW222829   9.282   4.445   2.003  0.4299 -0.1272  0.4865
 5665SOL     OW22830   1.444   0.337   6.492 -0.6484  0.3154  0.3248
 5665SOL    HW122831   1.398   0.327   6.408 -0.5911 -2.4245  0.5355
 5665SOL    HW222832   1.510   0.268   6.491  0.0921  0.9447  2.1942
 5666SOL     OW22833   4.141   0.641   6.419  0.3893  0.4995 -0.0112
 5666SOL    HW122834   4.069   0.588   6.453  0.2092 -0.2906 -1.5062
 5666SOL    HW222835   4.203   0.576   6.385  0.0718  1.2009 -2.0845
 5667SOL     OW22836   6.172   6.298   2.002  0.2946 -0.0171 -0.1442
 5667SOL    HW122837   6.134   6.307   1.915  0.9305 -1.4794 -0.6128
 5667SOL    HW222838   6.217   6.213   1.999  0.5348  0.0259  1.5266
 5668SOL     OW22839   6.471   4.493   3.874 -0.4697  0.4822  0.1584
 5668SOL    HW122840   6.557   4.452   3.871 -1.5611 -1.9649 -0.2859
 5668SOL    HW222841   6.476   4.564   3.810  1.3912  0.8297  0.6429
 5669SOL     OW22842   5.611   9.987   9.605  0.3676  0.0481 -0.4475
 5669SOL    HW122843   5.574   9.921   9.546 -0.1631  0.2934 -0.3881
 5669SOL    HW222844   5.622  10.064   9.549  0.4320  0.0937 -0.3713
 5670SOL     OW22845   8.613   6.423   9.647  0.9946  0.4205  0.2935
 5670SOL    HW122846   8.642   6.343   9.692 -2.1526 -0.4325  1.0265
 5670SOL    HW222847   8.585   6.481   9.718  1.2794  1.3643 -0.3509
 5671SOL     OW22848   9.762   9.378   1.289 -0.0215  0.0328 -0.1609
 5671SOL    HW122849   9.809   9.352   1.368  1.6526  1.2799 -0.6828
 5671SOL    HW222850   9.679   9.329   1.293  1.2704 -2.2334  0.8182
 5672SOL     OW22851   9.768   6.976   3.076  0.0340  0.1223  0.0429
 5672SOL    HW122852   9.841   7.037   3.061  0.5666 -0.6723 -0.6980
 5672SOL    HW222853   9.781   6.908   3.010 -0.6916 -0.6639  0.7040
 5673SOL     OW22854   8.378   4.404   2.371 -0.2975  0.1875  0.2108
 5673SOL    HW122855   8.295   4.364   2.344 -0.1420 -1.0889  1.4892
 5673SOL    HW222856   8.432   4.330   2.398  0.7444  1.1256  0.7567
 5674SOL     OW22857   2.829   7.856   0.272  0.5120 -0.0905  0.2056
 5674SOL    HW122858   2.895   7.873   0.205 -0.2421  2.0537 -0.0471
 5674SOL    HW222859   2.879   7.827   0.348  1.6209  0.2416 -0.3796
 5675SOL     OW22860   7.860   2.893   8.621 -0.7991 -0.2783 -0.5510
 5675SOL    HW122861   7.921   2.926   8.688 -1.5035  0.8510 -0.4340
 5675SOL    HW222862   7.904   2.816   8.585 -0.6355 -1.2603  1.5699
 5676SOL     OW22863   8.826   0.718   2.291 -0.1395 -0.6042  0.5423
 5676SOL    HW122864   8.768   0.776   2.341 -0.0428  0.3176 -0.3877
 5676SOL    HW222865   8.832   0.639   2.345  0.7363  0.6973  2.4831
 5677SOL     OW22866   1.548   0.948   2.925 -0.0226 -0.2212 -0.2863
 5677SOL    HW122867   1.632   0.966   2.882  0.0082 -0.8555 -0.5024
 5677SOL    HW222868   1.527   1.029   2.971  0.6720 -0.0314 -0.2916
 5678SOL     OW22869   3.802   1.467   9.117 -0.1191  0.3846 -0.3669
 5678SOL    HW122870   3.809   1.378   9.084 -0.2642  0.5195 -0.7702
 5678SOL    HW222871   3.893   1.494   9.132 -0.0962  0.0090  0.2060
 5679SOL     OW22872   4.571   5.699   8.182  0.4763 -0.1804 -0.6467
 5679SOL    HW122873   4.522   5.673   8.104  0.1362  1.2934 -0.9522
 5679SOL    HW222874   4.526   5.777   8.214  1.4324  0.0309  0.2353
 5680SOL     OW22875  10.593   1.522   1.159  0.0738  0.5083  0.9934
 5680SOL    HW122876  10.631   1.539   1.073 -1.4810  1.0812  0.3867
 5680SOL    HW222877  10.627   1.435   1.184 -1.3084 -0.7703 -1.2857
 5681SOL     OW22878   8.138   1.462   2.991 -0.4567  0.2206 -0.1940
 5681SOL    HW122879   8.129   1.555   2.968  0.4806  0.7189  1.3173
 5681SOL    HW222880   8.231   1.444   2.983 -0.4573 -0.2456  0.7024
 5682SOL     OW22881   0.015   1.496   6.803 -0.0858  0.1137  0.4567
 5682SOL    HW122882  -0.080   1.506   6.811  0.1157  1.1329  1.7470
 5682SOL    HW222883   0.045   1.577   6.762  0.3394  0.2555  1.0297
 5683SOL     OW22884   0.740   3.765   4.442  0.1564  0.5281  0.0304
 5683SOL    HW122885   0.644   3.766   4.448 -0.0411 -0.0476 -1.9668
 5683SOL    HW222886   0.762   3.845   4.395  0.4541 -0.1627 -1.0700
 5684SOL     OW22887   2.205   8.233   9.753 -0.1343  0.0087 -0.6319
 5684SOL    HW122888   2.145   8.175   9.705  1.6248 -0.6837 -2.1342
 5684SOL    HW222889   2.214   8.192   9.839 -2.9079  0.9530  0.2153
 5685SOL     OW22890   7.685   2.403   6.463  0.2985  0.0044 -0.3059
 5685SOL    HW122891   7.687   2.483   6.515 -0.3241  0.2786 -0.6922
 5685SOL    HW222892   7.699   2.333   6.527 -1.8958  0.2307  0.4842
 5686SOL     OW22893   4.301   4.267   0.781 -0.3102 -0.3742  0.5354
 5686SOL    HW122894   4.265   4.178   0.782 -0.2950 -0.3799  1.2930
 5686SOL    HW222895   4.338   4.276   0.693  0.5977 -1.4828  0.7748
 5687SOL     OW22896   5.870   1.073   1.497 -0.4468  0.0598  0.2458
 5687SOL    HW122897   5.779   1.047   1.508 -0.2111 -0.3328  1.4436
 5687SOL    HW222898   5.920   1.004   1.541  0.5803 -0.8949 -2.2047
 5688SOL     OW22899   3.259   1.583   0.796  0.8482 -0.0586  0.1946
 5688SOL    HW122900   3.258   1.676   0.773 -0.4351 -0.1100 -0.0072
 5688SOL    HW222901   3.176   1.549   0.763  1.3247 -1.2957  0.2154
 5689SOL     OW22902   2.554   2.448   4.842  0.1250  0.0220  0.0535
 5689SOL    HW122903   2.587   2.423   4.756  1.8497 -0.2837  0.7542
 5689SOL    HW222904   2.589   2.536   4.856 -1.0119  0.4935  0.0378
 5690SOL     OW22905   6.378   5.187   9.295 -0.8367 -0.9645  0.3398
 5690SOL    HW122906   6.376   5.210   9.203  1.4327 -1.1963  0.1723
 5690SOL    HW222907   6.354   5.095   9.298  0.4207 -1.3264 -0.2074
 5691SOL     OW22908   3.716   9.230   9.190  0.3126  0.3061 -0.2385
 5691SOL    HW122909   3.772   9.222   9.267 -0.4927 -1.8162  0.1893
 5691SOL    HW222910   3.755   9.302   9.140  3.3838 -0.9892  0.0508
 5692SOL     OW22911   9.721   3.239   7.801  0.3928  0.5647  0.0022
 5692SOL    HW122912   9.695   3.302   7.869  0.6995  0.9227 -0.2141
 5692SOL    HW222913   9.649   3.176   7.799 -0.6256  1.7068 -0.7917
 5693SOL     OW22914   6.952   5.352   6.648 -0.3002  0.8305  0.1878
 5693SOL    HW122915   6.917   5.427   6.601  0.8333  0.8463 -0.6697
 5693SOL    HW222916   7.041   5.377   6.672  0.7830 -0.8290 -1.7029
 5694SOL     OW22917   5.100   0.693   6.074  0.1918  0.2075  0.1513
 5694SOL    HW122918   5.147   0.670   6.154 -1.1082 -0.5064  0.7434
 5694SOL    HW222919   5.156   0.756   6.030  0.3640  1.6100  2.2528
 5695SOL     OW22920   6.711   3.194  10.553  0.2720  0.2489  0.3654
 5695SOL    HW122921   6.675   3.283  10.553  0.5604  0.3982 -1.0520
 5695SOL    HW222922   6.769   3.192  10.629  2.7889  2.3868 -1.2913
 5696SOL     OW22923   2.366   0.401   9.007 -0.3809 -0.4986  0.1157
 5696SOL    HW122924   2.355   0.495   9.019  0.6752 -0.4016  0.4282
 5696SOL    HW222925   2.292   0.375   8.952 -0.9256  0.4317  0.3877
 5697SOL     OW22926   1.117   4.593  10.607  0.1310  0.2536  0.2840
 5697SOL    HW122927   1.123   4.532  10.534  1.2374  0.0604  0.5232
 5697SOL    HW222928   1.055   4.660  10.577 -0.2128 -0.3678 -0.4232
 5698SOL     OW22929   6.670   9.183   9.106 -0.1613  0.0282 -0.2340
 5698SOL    HW122930   6.714   9.246   9.049  2.4356 -0.5982  0.9441
 5698SOL    HW222931   6.690   9.212   9.195 -0.7720 -1.2451  0.3471
 5699SOL     OW22932   4.746   7.014   0.965  0.0100 -0.6143  1.2207
 5699SOL    HW122933   4.736   6.938   0.907  0.0746  0.1143  0.2243
 5699SOL    HW222934   4.700   7.085   0.919  0.9506  0.2360  1.5637
 5700SOL     OW22935   5.928   7.437   6.513 -0.1272  0.0842 -0.0925
 5700SOL    HW122936   5.852   7.388   6.482 -0.8746  2.1658 -1.8934
 5700SOL    HW222937   6.001   7.403   6.461 -0.3076 -0.2755 -0.1123
 5701SOL     OW22938   3.159   2.800   4.624  0.3665  0.8162  0.1970
 5701SOL    HW122939   3.139   2.751   4.704 -0.5341  2.2461  0.8702
 5701SOL    HW222940   3.114   2.752   4.555  0.1789  0.2336  0.7127
 5702SOL     OW22941  10.198   7.620  10.653  0.6290  0.2895  0.1872
 5702SOL    HW122942  10.263   7.611  10.722 -0.9541  0.7068  1.7867
 5702SOL    HW222943  10.127   7.561  10.678  0.3232 -0.1153 -1.4874
 5703SOL     OW22944   5.576   7.430   3.189  0.4110 -0.0607  0.3287
 5703SOL    HW122945   5.502   7.467   3.238 -0.0031  1.1044 -1.1060
 5703SOL    HW222946   5.553   7.338   3.175 -1.0997  0.4324 -0.6492
 5704SOL     OW22947   8.647   9.161   6.889 -0.1281 -0.2089  0.2619
 5704SOL    HW122948   8.709   9.112   6.835  1.2787  1.1186  0.5853
 5704SOL    HW222949   8.578   9.187   6.828  0.9562  0.4694 -0.7377
 5705SOL     OW22950   3.985   7.836   8.048  0.2184 -0.2555  0.4409
 5705SOL    HW122951   4.026   7.901   7.992  0.7720  0.7342  1.9130
 5705SOL    HW222952   3.993   7.753   8.000  2.0370  0.2761 -0.2505
 5706SOL     OW22953   2.263   3.197   5.092  0.1960  0.3138 -0.2807
 5706SOL    HW122954   2.212   3.122   5.121  2.1635 -1.2777 -0.6966
 5706SOL    HW222955   2.293   3.239   5.173 -2.6402  2.0277  0.0082
 5707SOL     OW22956   1.326   1.779   7.398 -0.2367  0.1611  0.1779
 5707SOL    HW122957   1.342   1.740   7.484  0.9924  0.2714  0.0259
 5707SOL    HW222958   1.393   1.847   7.390  0.7172 -0.9176 -1.5070
 5708SOL     OW22959   3.644   4.879   4.816 -0.6827  0.0051 -0.2407
 5708SOL    HW122960   3.560   4.922   4.832 -0.1979  1.2680 -0.9617
 5708SOL    HW222961   3.653   4.879   4.720  0.2058  0.0211 -0.1651
 5709SOL     OW22962   9.385   9.005  10.707 -0.0874 -0.1052 -0.0193
 5709SOL    HW122963   9.300   8.961  10.696 -0.0447 -0.6455  1.6486
 5709SOL    HW222964   9.377   9.084  10.653 -2.3360  0.7913  1.4584
 5710SOL     OW22965   0.080   9.668   6.303  0.4896 -0.2108  0.0959
 5710SOL    HW122966   0.161   9.697   6.260  0.5345  2.4363  1.7868
 5710SOL    HW222967   0.108   9.597   6.361  1.2738 -0.4761 -0.5844
 5711SOL     OW22968   0.248   5.061   5.420 -0.0713 -0.2913  0.0108
 5711SOL    HW122969   0.193   5.131   5.456 -2.4878 -0.9758 -2.0512
 5711SOL    HW222970   0.290   5.101   5.344  1.1349 -0.2072  0.7051
 5712SOL     OW22971   0.518   4.722   6.344 -0.7107 -0.3879  0.5999
 5712SOL    HW122972   0.598   4.698   6.296 -2.1919 -0.2997 -2.0755
 5712SOL    HW222973   0.511   4.655   6.413  0.8936 -1.2262  0.0209
 5713SOL     OW22974   9.102   1.079   8.452  0.0613  0.2197  0.0969
 5713SOL    HW122975   9.108   1.019   8.526 -0.9054  1.2599  1.0776
 5713SOL    HW222976   9.188   1.075   8.410  1.0454  0.4560  1.9861
 5714SOL     OW22977   6.833   5.846  10.130  0.0733  0.0680  1.1014
 5714SOL    HW122978   6.782   5.891  10.197  2.6357  1.9017  1.9641
 5714SOL    HW222979   6.863   5.765  10.172 -2.2104 -1.2041  0.4769
 5715SOL     OW22980   2.002   3.146   4.441  0.3467 -0.2098 -0.1117
 5715SOL    HW122981   1.999   3.063   4.394  3.1622 -1.9788  2.4995
 5715SOL    HW222982   1.917   3.151   4.485  0.6962 -2.6617  1.0304
 5716SOL     OW22983   4.736   9.648   6.453 -0.1714 -0.2841  0.0800
 5716SOL    HW122984   4.675   9.714   6.485 -0.7880 -1.5529  1.6586
 5716SOL    HW222985   4.807   9.647   6.518 -1.2517 -2.6376  1.3875
 5717SOL     OW22986   8.805   0.013   6.727  0.0367  0.3485 -0.2288
 5717SOL    HW122987   8.899   0.019   6.708 -0.0117  0.6292 -0.3872
 5717SOL    HW222988   8.763   0.039   6.645 -0.1803  0.0280 -0.2207
 5718SOL     OW22989   7.634   3.384   3.991 -0.1302  0.0966 -0.2804
 5718SOL    HW122990   7.669   3.416   4.074 -0.6183 -0.4636  0.1464
 5718SOL    HW222991   7.704   3.327   3.957 -0.4114 -0.6338  0.3359
 5719SOL     OW22992   5.729   4.370   7.355 -0.1327  0.2385 -0.2279
 5719SOL    HW122993   5.724   4.286   7.401  1.1270  0.8713  1.1321
 5719SOL    HW222994   5.639   4.403   7.356 -0.1869  0.1426  1.6665
 5720SOL     OW22995   2.033   2.524   0.051  0.0044 -0.4688  0.0311
 5720SOL    HW122996   1.994   2.563  -0.027 -0.0447 -0.8557 -0.1402
 5720SOL    HW222997   2.070   2.441   0.021 -1.8235 -1.6284  0.7949
 5721SOL     OW22998   9.222   7.949   9.171  0.4974 -0.0176 -0.1229
 5721SOL    HW122999   9.316   7.935   9.154  0.4764 -1.2168  0.6353
 5721SOL    HW223000   9.189   7.987   9.090  1.4703 -0.4121 -0.7333
 5722SOL     OW23001   7.644   0.248   8.467  0.6508 -0.2416  0.5800
 5722SOL    HW123002   7.687   0.163   8.470  0.7296 -0.2058  0.4606
 5722SOL    HW223003   7.595   0.253   8.550 -0.8011 -1.1449 -0.1816
 5723SOL     OW23004   8.067   7.071   7.201 -0.2527  0.1139 -0.1823
 5723SOL    HW123005   8.016   7.092   7.123 -1.5803  0.0707  0.6395
 5723SOL    HW223006   8.158   7.081   7.174 -0.6781 -0.0901 -1.7785
 5724SOL     OW23007   3.461   0.904   2.741  0.3140  0.4070 -0.4096
 5724SOL    HW123008   3.427   0.893   2.653  1.0433 -0.3466 -0.6116
 5724SOL    HW223009   3.435   0.992   2.767 -1.5042 -0.0185 -0.6585
 5725SOL     OW23010   4.396   8.641   6.706  0.7986 -0.1270  0.2635
 5725SOL    HW123011   4.408   8.724   6.659 -0.7417 -0.5237 -0.9409
 5725SOL    HW223012   4.342   8.589   6.647  0.6160 -1.4904  1.5882
 5726SOL     OW23013   3.724   0.350   3.375 -0.3836 -0.2566 -0.0246
 5726SOL    HW123014   3.718   0.436   3.335  0.7849 -0.5018 -0.7938
 5726SOL    HW223015   3.801   0.355   3.432  0.2297 -1.0482 -0.7672
 5727SOL     OW23016  10.182   2.250   1.909 -0.0676  0.0256 -0.0144
 5727SOL    HW123017  10.230   2.327   1.939  0.2148 -0.2330  0.2043
 5727SOL    HW223018  10.215   2.179   1.964 -0.2358 -0.2730 -0.2997
 5728SOL     OW23019   5.353   2.561   0.889  0.0618 -0.1418 -0.7745
 5728SOL    HW123020   5.274   2.545   0.837 -0.7632 -0.1754  0.4443
 5728SOL    HW223021   5.365   2.480   0.940  0.3274  0.2215 -0.2536
 5729SOL     OW23022   6.390   8.859   7.792  0.3952  1.1698  0.0981
 5729SOL    HW123023   6.485   8.844   7.791  0.2664  0.3200  0.2743
 5729SOL    HW223024   6.373   8.908   7.711  0.9929  1.3827  0.0968
 5730SOL     OW23025   1.980   4.299   6.856 -0.5220  0.2138 -0.5733
 5730SOL    HW123026   1.952   4.311   6.947 -0.4659  1.6982 -0.7265
 5730SOL    HW223027   1.899   4.287   6.807 -0.5588 -0.5016 -0.3478
 5731SOL     OW23028   6.453   0.790   1.565  0.1937  0.2946 -0.1432
 5731SOL    HW123029   6.449   0.703   1.606  0.7478  0.3232 -0.0196
 5731SOL    HW223030   6.383   0.789   1.500  0.3641 -0.3371 -0.3223
 5732SOL     OW23031   4.747   8.553   6.119 -0.3015  0.0759  0.0570
 5732SOL    HW123032   4.733   8.546   6.214  0.1582 -1.9884  0.0226
 5732SOL    HW223033   4.707   8.636   6.095  0.3443  1.0798  2.1918
 5733SOL     OW23034   2.746   4.731   0.762  0.1685  0.3355  0.0525
 5733SOL    HW123035   2.786   4.754   0.677  0.0746  0.0122 -0.0829
 5733SOL    HW223036   2.821   4.719   0.821  0.2821 -0.2682 -0.2015
 5734SOL     OW23037   6.546   9.669   2.538 -0.0722  0.3790  0.3174
 5734SOL    HW123038   6.571   9.759   2.519  0.4412 -0.1096 -1.5471
 5734SOL    HW223039   6.508   9.637   2.456 -1.4195 -0.7240  1.3128
 5735SOL     OW23040   9.967   7.036   9.957 -0.5178  0.0979 -0.6724
 5735SOL    HW123041  10.041   6.976   9.969 -0.0929  0.1208 -2.7926
 5735SOL    HW223042  10.007   7.122   9.946 -0.7789 -0.0031 -2.6073
 5736SOL     OW23043   8.569   2.901   7.826  0.3496 -0.0484 -0.5773
 5736SOL    HW123044   8.629   2.974   7.844  0.9978 -0.5270 -0.7823
 5736SOL    HW223045   8.622   2.823   7.840 -0.5072 -0.5029  0.2383
 5737SOL     OW23046   9.943   9.966   3.187 -0.0198 -0.3261  0.1384
 5737SOL    HW123047   9.880   9.979   3.116  0.1366  1.4774  0.2671
 5737SOL    HW223048   9.899   9.909   3.249 -0.0079 -2.2893 -1.5687
 5738SOL     OW23049   8.100   0.991   9.225 -0.0976  0.0846 -0.0219
 5738SOL    HW123050   8.185   1.021   9.258 -0.5785  0.0684  1.2725
 5738SOL    HW223051   8.100   0.897   9.242 -0.3305  0.0653 -0.1239
 5739SOL     OW23052   6.029   3.118   0.055 -0.7418  0.3496 -0.3650
 5739SOL    HW123053   6.032   3.081  -0.033 -3.3852  0.5477 -0.6438
 5739SOL    HW223054   5.955   3.073   0.097 -0.9285  1.8152  0.9658
 5740SOL     OW23055   0.952   4.088   8.335  0.7203 -0.3233  0.0591
 5740SOL    HW123056   0.965   3.993   8.328  0.1506 -0.3067 -2.3374
 5740SOL    HW223057   0.867   4.103   8.294  1.8008  1.4259 -1.7340
 5741SOL     OW23058  10.213   1.933   7.997  0.1637 -0.0819  0.4554
 5741SOL    HW123059  10.177   1.965   8.079  0.6432 -1.2097  1.1274
 5741SOL    HW223060  10.140   1.889   7.954  0.1384 -0.2834  0.7035
 5742SOL     OW23061   3.040   9.044   2.735 -0.0980 -0.0823 -0.2098
 5742SOL    HW123062   3.055   9.109   2.666 -2.4110 -0.5964 -1.2966
 5742SOL    HW223063   2.954   9.066   2.769  0.4059 -0.7317  1.5737
 5743SOL     OW23064   9.613   0.282   1.193  0.9133  0.0533  0.5862
 5743SOL    HW123065   9.568   0.199   1.178 -0.2706  0.7046  0.3154
 5743SOL    HW223066   9.704   0.259   1.208  0.7953 -1.2005 -0.5184
 5744SOL     OW23067   5.205   9.980   4.567 -0.0180 -0.0752  0.1550
 5744SOL    HW123068   5.252  10.056   4.602 -2.3897  1.9084 -0.7293
 5744SOL    HW223069   5.252   9.958   4.486  1.2144 -0.1700  0.8653
 5745SOL     OW23070   9.319  10.348   9.032 -0.5839  0.3111  0.1257
 5745SOL    HW123071   9.241  10.376   8.982  0.5397  0.0547 -1.8725
 5745SOL    HW223072   9.344  10.265   8.993  2.1123  1.5390 -1.0299
 5746SOL     OW23073  10.440   9.229  10.354 -0.2926 -0.7516 -0.0274
 5746SOL    HW123074  10.362   9.278  10.328  1.2865  0.5844 -2.6447
 5746SOL    HW223075  10.465   9.267  10.438 -0.0395  1.9381 -1.2150
 5747SOL     OW23076   6.555   4.257   1.505 -0.0417  0.4394 -0.3262
 5747SOL    HW123077   6.498   4.311   1.560 -0.9171 -0.1277 -0.6508
 5747SOL    HW223078   6.495   4.198   1.460  0.8035 -0.0909 -0.7751
 5748SOL     OW23079   8.853   7.790   2.294 -0.0723 -0.1859  0.0835
 5748SOL    HW123080   8.834   7.876   2.331 -0.1654  0.9241 -2.3457
 5748SOL    HW223081   8.933   7.802   2.244 -0.3318 -1.3814 -0.6657
 5749SOL     OW23082   3.221   5.790   8.186  0.6015 -0.4316 -0.7424
 5749SOL    HW123083   3.213   5.882   8.211  1.2765 -0.0085 -1.9914
 5749SOL    HW223084   3.241   5.745   8.268 -0.5361  0.4015  0.0263
 5750SOL     OW23085   5.443   8.302   4.988  0.2575  0.1204 -0.2166
 5750SOL    HW123086   5.405   8.245   5.055 -1.7586  1.7318  0.1166
 5750SOL    HW223087   5.509   8.353   5.035  0.5780 -0.4766 -0.0228
 5751SOL     OW23088   9.927   0.752   4.283 -0.4918  0.8332  0.6029
 5751SOL    HW123089   9.851   0.811   4.281 -2.3787 -1.4577 -0.5690
 5751SOL    HW223090   9.994   0.799   4.234 -1.7054  2.2588  0.2020
 5752SOL     OW23091   7.149   9.740   7.694  0.3066 -0.0166 -0.2661
 5752SOL    HW123092   7.077   9.762   7.753  1.8141 -0.9687  2.0524
 5752SOL    HW223093   7.226   9.778   7.735  1.3981 -0.4099 -1.8431
 5753SOL     OW23094   9.019   1.831   0.663  0.5683 -0.3488 -0.2425
 5753SOL    HW123095   8.973   1.851   0.744  0.0485 -2.4107  0.0254
 5753SOL    HW223096   9.100   1.788   0.691  1.2772  0.6130 -0.7831
 5754SOL     OW23097   7.244   3.301   6.366 -0.1841 -0.1956  0.6398
 5754SOL    HW123098   7.226   3.231   6.429 -1.9033  0.8937  1.4344
 5754SOL    HW223099   7.181   3.287   6.296  0.1413 -0.0304  0.3109
 5755SOL     OW23100   8.897   0.080   1.768 -0.0858  0.2427  0.2125
 5755SOL    HW123101   8.907   0.084   1.864  0.6025 -1.0257  0.2144
 5755SOL    HW223102   8.949   0.154   1.736  0.0589  0.4061  0.8002
 5756SOL     OW23103   1.338   2.587   9.428 -0.5818  0.7350  0.0211
 5756SOL    HW123104   1.284   2.510   9.410 -1.4876  1.3310  0.0687
 5756SOL    HW223105   1.363   2.578   9.520  0.9479 -0.4544 -0.4719
 5757SOL     OW23106   6.714   8.673   6.632 -0.3539  0.2999  0.2356
 5757SOL    HW123107   6.619   8.674   6.645 -0.0433 -2.1796  5.1473
 5757SOL    HW223108   6.733   8.583   6.605  0.6399  0.9991 -1.5643
 5758SOL     OW23109   7.043   4.650   2.131  0.1090  0.1700  0.3447
 5758SOL    HW123110   7.034   4.743   2.115 -2.3036 -0.0928 -0.1578
 5758SOL    HW223111   7.071   4.613   2.047 -0.4531  0.2661  0.1137
 5759SOL     OW23112   2.127   9.132   9.798 -0.4212 -0.3351 -0.1601
 5759SOL    HW123113   2.056   9.131   9.862 -0.1467  0.7478  0.1864
 5759SOL    HW223114   2.167   9.219   9.808 -0.1608 -0.2662 -1.5700
 5760SOL     OW23115   5.989   6.756   0.503 -0.3483 -0.0204 -0.0475
 5760SOL    HW123116   6.072   6.803   0.496 -0.8704  1.0871  0.9468
 5760SOL    HW223117   5.954   6.757   0.414  0.0317  0.7786 -0.1965
 5761SOL     OW23118   7.796   8.761   2.137  0.3178 -0.2744  0.6678
 5761SOL    HW123119   7.882   8.720   2.141  0.2869 -0.2974  1.2102
 5761SOL    HW223120   7.764   8.741   2.049  0.2969 -1.4448  0.9221
 5762SOL     OW23121   8.910   7.890   3.563 -0.5143  0.0235 -0.1351
 5762SOL    HW123122   8.858   7.855   3.491  1.1388 -0.4351 -1.1651
 5762SOL    HW223123   8.992   7.841   3.559  0.0815  0.8586  1.2858
 5763SOL     OW23124   9.937   6.114   2.206  0.0470 -0.0284 -0.0787
 5763SOL    HW123125   9.981   6.042   2.251 -1.0771 -0.2137  0.7685
 5763SOL    HW223126   9.851   6.079   2.182 -0.0267  0.6293 -0.8306
 5764SOL     OW23127   0.827   4.189   1.553 -1.1905 -0.2691 -0.1822
 5764SOL    HW123128   0.834   4.231   1.639  0.4277  1.3934 -1.0682
 5764SOL    HW223129   0.861   4.101   1.567 -0.6476  0.0798  0.8213
 5765SOL     OW23130   3.545   2.582   4.794 -0.1391  0.2278  0.1415
 5765SOL    HW123131   3.624   2.604   4.844 -0.1289  0.1756  0.1485
 5765SOL    HW223132   3.497   2.523   4.851  1.3201 -2.3395 -1.0843
 5766SOL     OW23133   1.252   6.393  10.377  0.5690 -0.6134 -0.3868
 5766SOL    HW123134   1.232   6.300  10.388  0.7226 -0.4159  2.3636
 5766SOL    HW223135   1.318   6.411  10.444 -1.6015  2.0569  1.2692
 5767SOL     OW23136   7.346   4.105   2.399 -0.5106 -0.0969 -0.2596
 5767SOL    HW123137   7.262   4.123   2.441  0.0225 -0.7385  1.1582
 5767SOL    HW223138   7.323   4.060   2.318 -1.6053  2.0148 -1.1831
 5768SOL     OW23139   6.248   8.610   1.010  1.0727  0.1010 -0.4703
 5768SOL    HW123140   6.263   8.556   0.933  0.7752 -1.7613  0.7182
 5768SOL    HW223141   6.152   8.619   1.014  1.1132  0.5874 -0.5713
 5769SOL     OW23142   9.665   3.255   4.361 -0.0900  0.4464 -0.0329
 5769SOL    HW123143   9.750   3.293   4.385 -0.2135 -0.0149  1.2101
 5769SOL    HW223144   9.686   3.191   4.292  0.7541 -0.4669  1.0222
 5770SOL     OW23145   1.044   4.780   0.751  0.3784  0.3484  0.5621
 5770SOL    HW123146   1.106   4.811   0.816  0.4054 -0.4701  0.9442
 5770SOL    HW223147   0.969   4.839   0.760  0.3052  0.1387  1.4698
 5771SOL     OW23148   8.180   7.365   9.036 -0.3392  0.1235 -0.5640
 5771SOL    HW123149   8.236   7.380   9.112 -0.3313 -0.5181 -0.4313
 5771SOL    HW223150   8.165   7.270   9.037 -3.3753  0.5154  0.7953
 5772SOL     OW23151   4.292   9.282   2.842 -0.7051 -0.2379 -0.1378
 5772SOL    HW123152   4.384   9.257   2.839 -0.6982 -0.1246 -1.7408
 5772SOL    HW223153   4.252   9.220   2.904 -0.0386 -2.0455 -1.4269
 5773SOL     OW23154   9.707  10.660   9.018  0.2427  0.1199  0.2838
 5773SOL    HW123155   9.777  10.613   9.063 -0.0738  0.7483  1.4783
 5773SOL    HW223156   9.636  10.662   9.082 -0.6849 -0.0590 -0.7214
 5774SOL     OW23157   8.822   8.327   8.027  0.0233 -0.4427 -0.2879
 5774SOL    HW123158   8.900   8.366   7.987 -0.8651  1.1189 -0.5917
 5774SOL    HW223159   8.856   8.264   8.090  1.5539  0.6640  0.0527
 5775SOL     OW23160  10.174   0.011   0.912 -0.2173  0.3186  0.0159
 5775SOL    HW123161  10.193  -0.078   0.881  1.3364  0.1448  1.3210
 5775SOL    HW223162  10.090   0.032   0.873 -1.7890 -2.6074  1.4965
 5776SOL     OW23163   0.152   5.091   2.056  0.0170 -0.0684 -0.3177
 5776SOL    HW123164   0.155   5.063   1.964  1.2473  0.0564 -0.3397
 5776SOL    HW223165   0.133   5.011   2.105 -0.7197 -0.1219 -0.6852
 5777SOL     OW23166   7.963   6.063   6.397  0.4188  0.8701 -0.6838
 5777SOL    HW123167   8.032   6.011   6.437 -1.6822 -0.1499  1.9425
 5777SOL    HW223168   7.945   6.133   6.459 -1.0527  0.9597 -1.1578
 5778SOL     OW23169   0.746   0.122   3.208  0.3939 -0.1817 -0.1652
 5778SOL    HW123170   0.697   0.176   3.270  0.3321  1.5168 -1.6211
 5778SOL    HW223171   0.819   0.086   3.259  1.2448  2.4141  0.5737
 5779SOL     OW23172   1.067   3.158   5.396  0.1620  0.0074  0.2508
 5779SOL    HW123173   0.981   3.117   5.405  0.4278 -0.7203 -0.3828
 5779SOL    HW223174   1.060   3.211   5.317  0.0713  0.5717  0.6247
 5780SOL     OW23175   8.062   8.109   5.370 -0.4346 -0.1589 -0.1330
 5780SOL    HW123176   7.979   8.149   5.346  0.4159  1.5927 -0.3185
 5780SOL    HW223177   8.110   8.178   5.415  1.9363 -0.2467 -2.3019
 5781SOL     OW23178   2.856  10.242   8.833  0.0953  0.0613 -0.1555
 5781SOL    HW123179   2.876  10.194   8.913  0.1882 -0.0792 -0.2631
 5781SOL    HW223180   2.862  10.334   8.859 -1.7746  0.0431  0.4814
 5782SOL     OW23181   5.570   4.370   8.317 -0.2876 -0.6771 -0.1368
 5782SOL    HW123182   5.539   4.429   8.386 -0.2682 -0.2524 -0.4829
 5782SOL    HW223183   5.492   4.321   8.291 -0.1624 -1.2979  0.6211
 5783SOL     OW23184   0.310   0.999   9.299 -0.3552  0.1894  0.1279
 5783SOL    HW123185   0.397   1.038   9.290  0.1373 -1.1794 -1.4801
 5783SOL    HW223186   0.257   1.043   9.233 -0.3142 -0.4619 -0.3452
 5784SOL     OW23187   7.755   4.790   7.125 -0.4464 -0.1555  0.3265
 5784SOL    HW123188   7.709   4.707   7.112 -0.3048 -0.0234 -1.2260
 5784SOL    HW223189   7.848   4.766   7.129 -0.3974 -0.0653 -0.2335
 5785SOL     OW23190   5.080   8.933   8.908  0.3613 -0.6889  0.5079
 5785SOL    HW123191   4.994   8.967   8.931  0.9836  0.0946  1.8493
 5785SOL    HW223192   5.082   8.932   8.812 -0.5539  0.8200  0.4491
 5786SOL     OW23193   1.956   7.724   9.085 -0.2654 -0.2421  0.4983
 5786SOL    HW123194   2.020   7.734   9.155 -1.6192  0.2894  1.6874
 5786SOL    HW223195   1.924   7.634   9.094  0.1752 -0.4609 -0.0106
 5787SOL     OW23196   4.596   1.624   7.758 -0.0148 -0.1980 -0.4027
 5787SOL    HW123197   4.618   1.715   7.740  1.9139 -0.2572  1.2798
 5787SOL    HW223198   4.570   1.588   7.673 -0.3120  1.7666 -1.1882
 5788SOL     OW23199   7.313   3.014   1.231 -0.6073 -0.3288 -0.6410
 5788SOL    HW123200   7.383   3.002   1.166  1.7507  0.0539  1.6677
 5788SOL    HW223201   7.309   2.930   1.277 -0.3539  0.2401  0.4359
 5789SOL     OW23202  10.686  10.435   5.809 -0.1978 -0.8189 -0.5765
 5789SOL    HW123203  10.713  10.352   5.850 -0.2123 -0.3166  0.4834
 5789SOL    HW223204  10.714  10.426   5.718  1.5404 -1.2375 -0.0501
 5790SOL     OW23205   5.586   2.822   6.403  0.3465  1.1087 -0.1734
 5790SOL    HW123206   5.631   2.777   6.332  0.6160 -1.4849  1.4863
 5790SOL    HW223207   5.651   2.828   6.473 -0.3684  2.1365  0.4293
 5791SOL     OW23208   8.875   4.876   5.572  0.2563  0.4760 -0.2279
 5791SOL    HW123209   8.799   4.927   5.542 -0.6981 -1.2375 -0.8943
 5791SOL    HW223210   8.926   4.938   5.625 -0.1683  2.4628 -1.9849
 5792SOL     OW23211   7.419   9.340   7.864 -0.5640  0.3497 -0.2085
 5792SOL    HW123212   7.336   9.337   7.911  0.0187  2.2980  1.0801
 5792SOL    HW223213   7.433   9.433   7.845  1.8521  0.2467  0.6480
 5793SOL     OW23214   5.220   2.078   8.215  0.1544 -0.0501  0.2734
 5793SOL    HW123215   5.237   2.092   8.308  0.4049  0.9697  0.0792
 5793SOL    HW223216   5.283   2.134   8.169 -2.1193  2.1175 -0.4627
 5794SOL     OW23217   2.860   8.104   5.021  0.3483 -0.5390 -0.1561
 5794SOL    HW123218   2.770   8.073   5.028  1.0029 -2.3196  1.3520
 5794SOL    HW223219   2.881   8.136   5.109  0.7053  1.4152 -0.9068
 5795SOL     OW23220   4.389   2.202   3.191 -0.7882  0.3673  0.2398
 5795SOL    HW123221   4.449   2.231   3.260  1.1693 -2.1305 -0.2449
 5795SOL    HW223222   4.328   2.143   3.236 -0.8641  0.3956  0.1745
 5796SOL     OW23223   0.739   3.216   6.236  0.3630 -0.1242  0.0959
 5796SOL    HW123224   0.770   3.306   6.239  1.4725 -0.4892 -0.1171
 5796SOL    HW223225   0.647   3.224   6.210  0.8234  0.8789 -1.3844
 5797SOL     OW23226   3.136   2.774   1.895 -0.5289 -0.4701 -0.1603
 5797SOL    HW123227   3.088   2.783   1.977  0.8224 -0.4395  0.6479
 5797SOL    HW223228   3.155   2.864   1.869  0.5244 -0.5168  0.4051
 5798SOL     OW23229  10.223   4.792   4.001  0.1282  0.6425 -0.1878
 5798SOL    HW123230  10.197   4.733   3.930 -0.7952  1.0120 -0.1765
 5798SOL    HW223231  10.282   4.855   3.961  1.3681 -0.4419 -0.1412
 5799SOL     OW23232   3.854   1.135   0.560 -0.9510 -0.5469 -0.6654
 5799SOL    HW123233   3.825   1.047   0.538 -0.6748 -0.9312  0.4321
 5799SOL    HW223234   3.806   1.157   0.640  0.8062 -0.7322  0.5151
 5800SOL     OW23235   7.191   8.803   4.563  0.7734  0.3576  0.0135
 5800SOL    HW123236   7.268   8.747   4.574 -1.1275 -2.3887  0.4593
 5800SOL    HW223237   7.137   8.757   4.498 -0.5782  2.1109 -0.1860
 5801SOL     OW23238   1.637   9.474   8.417  0.1719 -0.2528 -0.1893
 5801SOL    HW123239   1.642   9.398   8.475  1.3426  0.5981  0.8885
 5801SOL    HW223240   1.712   9.528   8.442  0.7446  0.1393 -2.5684
 5802SOL     OW23241   5.928   4.013   5.413 -0.1568 -0.5041  0.3660
 5802SOL    HW123242   5.914   3.977   5.501 -0.1565 -1.3482  0.0286
 5802SOL    HW223243   5.894   3.946   5.354 -1.4962  0.6805 -0.2544
 5803SOL     OW23244   1.950   5.694   2.993 -0.6469 -0.3792 -0.3693
 5803SOL    HW123245   1.905   5.696   2.909  0.2726  1.2489 -0.8716
 5803SOL    HW223246   1.897   5.749   3.051 -0.3953 -0.1029 -0.3938
 5804SOL     OW23247   3.547  10.316   6.782  0.2375  0.1092  0.0840
 5804SOL    HW123248   3.482  10.384   6.763  0.4126  0.4269  0.6225
 5804SOL    HW223249   3.580  10.290   6.695 -0.1877  0.3579 -0.1532
 5805SOL     OW23250   9.856   7.836   1.487  0.3903  0.9733 -0.3992
 5805SOL    HW123251   9.874   7.926   1.460  2.3947  0.8284  0.3394
 5805SOL    HW223252   9.797   7.845   1.562  1.2587  1.7188  0.2061
 5806SOL     OW23253   8.324   5.944   1.776 -0.1026 -0.1712 -0.0386
 5806SOL    HW123254   8.308   5.896   1.857  1.4016  0.3005  0.5793
 5806SOL    HW223255   8.419   5.940   1.764 -0.2040  0.5828 -1.2722
 5807SOL     OW23256   7.245  10.178   3.285 -0.2776 -0.4442 -0.1817
 5807SOL    HW123257   7.188  10.244   3.245 -1.8129 -0.5169  1.7262
 5807SOL    HW223258   7.327  10.224   3.302 -0.7141  0.4774 -0.5012
 5808SOL     OW23259   3.071   1.463   4.230 -0.6995 -0.1944 -0.0565
 5808SOL    HW123260   3.127   1.513   4.290 -0.1895 -0.5507 -0.2236
 5808SOL    HW223261   3.115   1.472   4.145 -0.1844 -1.5318  0.0466
 5809SOL     OW23262   4.654   9.661   8.069  0.0384  0.9487  0.2175
 5809SOL    HW123263   4.637   9.653   8.163 -2.7579 -0.1851 -0.2919
 5809SOL    HW223264   4.665   9.570   8.039  0.2005  1.2571 -0.6763
 5810SOL     OW23265   7.004   2.502   8.163  0.3330 -0.0721  0.2088
 5810SOL    HW123266   6.911   2.511   8.142  0.7370  0.3710 -1.5746
 5810SOL    HW223267   7.020   2.408   8.161 -0.1658 -0.1830  1.0182
 5811SOL     OW23268   3.017   6.397   9.012  0.1316 -0.1226 -0.1344
 5811SOL    HW123269   2.944   6.336   9.003 -1.5802  1.6282  1.0281
 5811SOL    HW223270   3.039   6.396   9.105 -1.2772  2.3565  0.3290
 5812SOL     OW23271   3.080   9.637   5.387 -0.1418  0.0555 -0.6152
 5812SOL    HW123272   3.083   9.570   5.319 -2.6552 -1.8538  0.9954
 5812SOL    HW223273   2.991   9.672   5.384  0.4832  1.8605  0.0091
 5813SOL     OW23274   5.418   1.344   2.622 -0.3552  0.4096  0.1728
 5813SOL    HW123275   5.413   1.255   2.587 -0.7045  0.2079  0.7230
 5813SOL    HW223276   5.488   1.340   2.688  0.7463  0.9418 -0.9133
 5814SOL     OW23277   0.005   4.885   7.527 -0.1649 -0.4617  0.0285
 5814SOL    HW123278   0.049   4.821   7.582 -1.1644 -0.7432  0.5147
 5814SOL    HW223279   0.076   4.942   7.496  0.8735 -2.2379 -1.0543
 5815SOL     OW23280   3.993   8.445   9.335  0.3331 -0.2845 -0.1470
 5815SOL    HW123281   4.028   8.529   9.305 -1.9401  0.4824 -0.9068
 5815SOL    HW223282   3.954   8.465   9.420 -0.1297 -0.5821 -0.2859
 5816SOL     OW23283  10.441   5.442   5.439 -0.0539 -0.3516 -0.3161
 5816SOL    HW123284  10.485   5.414   5.360  2.2044 -0.6205  0.9606
 5816SOL    HW223285  10.498   5.508   5.478 -0.5644 -0.9459  1.5919
 5817SOL     OW23286   7.519   1.926   2.091 -0.1811  0.4924 -0.1078
 5817SOL    HW123287   7.526   1.831   2.080  1.4231  0.7201 -1.5104
 5817SOL    HW223288   7.481   1.938   2.178  0.1628 -1.4265  0.3481
 5818SOL     OW23289   1.959  10.238   4.050  0.0660 -0.9697 -0.0941
 5818SOL    HW123290   2.036  10.260   3.998 -0.8229 -2.2446 -2.0419
 5818SOL    HW223291   1.885  10.261   3.995 -1.0473  0.9012  2.0095
 5819SOL     OW23292   9.172   3.948   8.160 -0.4651  0.3156 -0.3122
 5819SOL    HW123293   9.132   4.035   8.148 -1.5456 -0.2465 -0.9583
 5819SOL    HW223294   9.135   3.896   8.088 -0.1451 -0.7905  0.3187
 5820SOL     OW23295   3.164   9.056   1.128  0.1906  0.0357  0.0065
 5820SOL    HW123296   3.135   8.983   1.073  0.2344 -0.1380  0.2137
 5820SOL    HW223297   3.156   9.133   1.071  2.3913 -0.4102 -1.0268
 5821SOL     OW23298   6.376   0.994   5.179 -0.7761  0.4507  0.2087
 5821SOL    HW123299   6.369   0.928   5.247  2.5804 -0.0043  0.2935
 5821SOL    HW223300   6.457   1.041   5.200 -1.0316  2.0518 -2.0196
 5822SOL     OW23301   9.088   3.291   3.071 -0.6639 -0.2023 -0.5211
 5822SOL    HW123302   9.125   3.282   2.983  1.0751  1.0314  0.0210
 5822SOL    HW223303   9.130   3.221   3.121  0.1439  0.5016 -0.1744
 5823SOL     OW23304   6.896   8.944   9.909 -0.1488  0.7703 -0.5441
 5823SOL    HW123305   6.911   9.034   9.936  1.2026  0.2634  0.5106
 5823SOL    HW223306   6.828   8.912   9.968  1.6805  0.1506  1.3586
 5824SOL     OW23307   1.849   3.906   4.274 -0.0089  0.1495 -0.0863
 5824SOL    HW123308   1.763   3.938   4.247  0.0119  0.3514  0.0770
 5824SOL    HW223309   1.900   3.902   4.194  0.4773  2.0584  0.0886
 5825SOL     OW23310   0.882   2.015   6.748 -0.4009 -0.0131  0.4371
 5825SOL    HW123311   0.915   1.957   6.816  2.2203  1.3508  0.4524
 5825SOL    HW223312   0.927   1.986   6.668 -1.7980 -0.2128 -0.3209
 5826SOL     OW23313   0.882   5.168   4.544  0.3137 -0.2679  0.2118
 5826SOL    HW123314   0.882   5.118   4.625  0.4099 -0.4560  0.0955
 5826SOL    HW223315   0.879   5.102   4.475  0.5132 -0.1155  0.0566
 5827SOL     OW23316   0.919   2.562   3.939 -0.5413 -0.5786  0.0967
 5827SOL    HW123317   0.919   2.474   3.901  0.9934 -0.0601 -1.2289
 5827SOL    HW223318   0.948   2.619   3.867  0.0134  0.7957  1.3625
 5828SOL     OW23319   0.878   4.065   4.991 -0.6773  0.3647  0.0313
 5828SOL    HW123320   0.787   4.035   4.983 -0.1937 -1.0296 -0.6350
 5828SOL    HW223321   0.898   4.054   5.084 -0.8969 -0.2601  0.0118
 5829SOL     OW23322   2.576   2.794   3.309 -0.0821 -0.6137  0.2395
 5829SOL    HW123323   2.582   2.700   3.324  1.2538 -0.5374  0.2999
 5829SOL    HW223324   2.482   2.812   3.303 -0.4077 -1.7478  1.4986
 5830SOL     OW23325   6.430   7.700   4.353 -0.0090 -0.0825  0.3414
 5830SOL    HW123326   6.510   7.680   4.402 -0.3308 -0.1609  0.8335
 5830SOL    HW223327   6.462   7.738   4.271  0.5766 -1.5153 -0.1212
 5831SOL     OW23328   9.230   3.225   2.401  0.1364 -0.2255  0.6189
 5831SOL    HW123329   9.194   3.172   2.472 -0.4638  0.0898  0.5528
 5831SOL    HW223330   9.316   3.253   2.433  0.6404 -1.5608  0.4952
 5832SOL     OW23331   8.998   0.321   7.166  0.0797  0.2853 -0.0632
 5832SOL    HW123332   9.003   0.417   7.163 -1.3327  0.3906  0.1277
 5832SOL    HW223333   8.906   0.302   7.146  0.9025 -1.1834 -2.8768
 5833SOL     OW23334   7.703  10.376   2.887 -0.3231 -0.1339 -0.3876
 5833SOL    HW123335   7.775  10.316   2.908  0.7577  1.7740  1.8461
 5833SOL    HW223336   7.624  10.328   2.914  0.4869 -0.6621  1.2118
 5834SOL     OW23337   1.687   3.450   5.492 -0.1162  0.2049 -0.5678
 5834SOL    HW123338   1.734   3.485   5.416  2.1014 -3.1162 -0.9629
 5834SOL    HW223339   1.757   3.418   5.550 -1.7866 -2.8541 -0.0374
 5835SOL     OW23340   4.043   5.287   5.179  0.2997 -0.2238  0.7090
 5835SOL    HW123341   4.118   5.268   5.237  0.6818 -0.1918  0.2323
 5835SOL    HW223342   4.015   5.201   5.147  0.2767 -0.2178  0.7132
 5836SOL     OW23343   7.302   1.849   4.671  0.4885 -0.0048  0.7637
 5836SOL    HW123344   7.334   1.916   4.611  0.8741 -1.4480 -0.7041
 5836SOL    HW223345   7.242   1.796   4.618 -1.1151  0.1351  2.3310
 5837SOL     OW23346   8.590   1.808   1.294 -0.0752 -0.3502  0.3973
 5837SOL    HW123347   8.575   1.759   1.213  0.3002  0.3998 -0.1402
 5837SOL    HW223348   8.561   1.897   1.273  0.3886 -0.0604  0.9687
 5838SOL     OW23349   1.455   8.645   3.825 -1.1178 -0.0982 -0.0031
 5838SOL    HW123350   1.385   8.637   3.890 -0.2420  2.4453  1.3826
 5838SOL    HW223351   1.481   8.555   3.807 -1.4396 -0.9376  3.1584
 5839SOL     OW23352   1.072   2.129   8.444 -0.0998  0.8333  0.2149
 5839SOL    HW123353   1.086   2.211   8.492  0.0449  0.4820  0.7697
 5839SOL    HW223354   1.023   2.074   8.504 -0.0902  0.4627 -0.1159
 5840SOL     OW23355   8.409   2.513   8.934 -0.2790 -0.0018 -0.0588
 5840SOL    HW123356   8.344   2.446   8.912  1.0377 -1.5018  0.3732
 5840SOL    HW223357   8.459   2.525   8.853  0.6785 -0.9721  0.3660
 5841SOL     OW23358   4.450   3.637   4.529  0.1611 -0.2385  0.1737
 5841SOL    HW123359   4.545   3.630   4.513 -0.0695 -1.5155 -0.8266
 5841SOL    HW223360   4.410   3.595   4.453 -1.1662 -1.2695  1.3953
 5842SOL     OW23361   5.938   4.911   3.264 -0.0964 -0.3690  0.3034
 5842SOL    HW123362   6.022   4.887   3.224  0.2298  1.8535 -0.5043
 5842SOL    HW223363   5.961   4.939   3.353  0.0260  0.1524  0.1125
 5843SOL     OW23364  10.500   6.166   0.013 -0.2032 -0.2908 -0.1320
 5843SOL    HW123365  10.497   6.075   0.041 -0.3626 -0.7374 -1.5315
 5843SOL    HW223366  10.429   6.174  -0.051  0.3410  0.5969 -0.6458
 5844SOL     OW23367   6.330   7.103   8.836 -0.2530  0.0094 -0.1181
 5844SOL    HW123368   6.400   7.125   8.897  0.7136  0.5667 -1.3760
 5844SOL    HW223369   6.334   7.172   8.769 -0.0610 -1.5142 -1.7694
 5845SOL     OW23370   3.236  10.353   7.004  0.1932 -0.0742 -0.2313
 5845SOL    HW123371   3.187  10.271   6.999  3.7856 -2.4137 -0.4306
 5845SOL    HW223372   3.247  10.380   6.913 -1.0047  0.7428 -0.1655
 5846SOL     OW23373   6.627   1.217   0.074  0.0317  0.1573  0.2196
 5846SOL    HW123374   6.604   1.307   0.097  0.2269  0.0077  1.0505
 5846SOL    HW223375   6.722   1.217   0.072  0.0210  0.1465 -0.5623
 5847SOL     OW23376   3.379   1.333   0.529  0.1523 -0.5382  0.5320
 5847SOL    HW123377   3.295   1.300   0.496  0.5729 -1.8526  0.7217
 5847SOL    HW223378   3.364   1.343   0.624 -0.6866  2.1137  0.2147
 5848SOL     OW23379   2.973   6.059   0.070 -0.7155  0.5000  0.0415
 5848SOL    HW123380   2.996   5.967   0.086 -0.0933  0.6908  0.2945
 5848SOL    HW223381   2.950   6.062  -0.023  0.4378  0.3050 -0.2710
 5849SOL     OW23382  10.695   3.387   6.332  0.0430 -0.0826 -0.3185
 5849SOL    HW123383  10.743   3.414   6.254 -0.2430  1.6373  0.0606
 5849SOL    HW223384  10.757   3.332   6.380  0.5752 -0.3259 -1.2506
 5850SOL     OW23385   6.268   8.622   8.708  0.1979  0.4181  0.0241
 5850SOL    HW123386   6.215   8.591   8.782  1.4893  1.0341  1.2574
 5850SOL    HW223387   6.264   8.718   8.714  2.0679  0.4963  0.6556
 5851SOL     OW23388   9.671   9.787   2.297  0.3180 -0.1865  0.2048
 5851SOL    HW123389   9.730   9.725   2.255  0.8391  0.9738 -0.8407
 5851SOL    HW223390   9.718   9.871   2.295 -0.2250  0.1840  1.8828
 5852SOL     OW23391   6.709   4.422   8.558 -0.0096 -0.1541 -0.4974
 5852SOL    HW123392   6.773   4.492   8.571  0.7855 -0.7637 -1.0364
 5852SOL    HW223393   6.699   4.382   8.644 -1.5081  1.4496  0.1487
 5853SOL     OW23394   3.792   5.014   3.244  0.4403 -0.3964 -0.4928
 5853SOL    HW123395   3.798   4.945   3.310  1.7944  1.1052  1.0650
 5853SOL    HW223396   3.806   4.970   3.161  0.9369 -2.0318  0.4190
 5854SOL     OW23397   5.789   3.443   3.392  0.2385  0.3370  0.4596
 5854SOL    HW123398   5.810   3.385   3.320 -1.0625  0.2251  0.1507
 5854SOL    HW223399   5.872   3.456   3.438  0.5251 -1.8929  0.6478
 5855SOL     OW23400   5.414   2.140   9.009 -0.3744  0.0100  0.7476
 5855SOL    HW123401   5.457   2.056   8.998 -1.2259 -0.2422 -0.9361
 5855SOL    HW223402   5.383   2.163   8.922  0.4105  2.4057  1.0149
 5856SOL     OW23403   9.452   5.151  10.489  0.0851 -0.6532 -0.0013
 5856SOL    HW123404   9.539   5.129  10.523  1.0516  1.4518 -0.8816
 5856SOL    HW223405   9.420   5.218  10.549 -0.5917 -0.8484 -0.1416
 5857SOL     OW23406   7.631   2.386   4.801  0.0601  0.4780  0.0491
 5857SOL    HW123407   7.695   2.404   4.732  0.1916 -0.9345 -0.2161
 5857SOL    HW223408   7.563   2.452   4.788  1.1074  1.5706 -0.1010
 5858SOL     OW23409   5.012   7.361   6.484 -0.4661  0.0427 -0.0159
 5858SOL    HW123410   5.060   7.444   6.485  0.4520 -0.4711 -0.3858
 5858SOL    HW223411   4.936   7.378   6.427 -0.7385  0.8616  0.5728
 5859SOL     OW23412   2.053   1.749   5.462 -0.1709  0.2748  0.4148
 5859SOL    HW123413   1.959   1.764   5.452 -0.3142 -0.7279  0.1825
 5859SOL    HW223414   2.060   1.692   5.539  0.1355 -0.7048 -0.3215
 5860SOL     OW23415   2.294   8.981   2.657 -0.2202 -0.5200  0.2550
 5860SOL    HW123416   2.320   8.944   2.572  0.1220 -3.6611  1.5867
 5860SOL    HW223417   2.376   8.983   2.708 -0.4911  0.9726  0.6738
 5861SOL     OW23418   3.506   6.063   7.495 -0.4285  0.0784 -0.1163
 5861SOL    HW123419   3.481   6.048   7.404  0.4697  0.1631 -0.3923
 5861SOL    HW223420   3.601   6.053   7.495 -0.3681  0.5826  0.7121
 5862SOL     OW23421   0.100   9.721   3.789 -0.1253 -0.8082 -0.1167
 5862SOL    HW123422   0.080   9.730   3.696 -0.9258  2.1104  0.2228
 5862SOL    HW223423   0.020   9.685   3.827  0.1133 -1.7676 -0.5072
 5863SOL     OW23424   2.342   1.088  10.665  0.6904  0.3537 -0.4611
 5863SOL    HW123425   2.268   1.145  10.685  1.4322  1.2724 -0.2694
 5863SOL    HW223426   2.402   1.100  10.739  0.9976 -0.4287 -0.5776
 5864SOL     OW23427   4.012   9.032   9.788  0.2539  0.2318  0.9355
 5864SOL    HW123428   4.079   8.989   9.735 -1.6484 -1.1115 -0.5484
 5864SOL    HW223429   3.954   9.074   9.724 -1.0852  0.1717  2.0503
 5865SOL     OW23430   2.212   6.609  10.704  0.1746 -0.7376 -0.2384
 5865SOL    HW123431   2.140   6.603  10.641 -0.2075 -0.7213  0.1852
 5865SOL    HW223432   2.181   6.674  10.768  0.6975 -0.5033 -0.2176
 5866SOL     OW23433   3.866   8.370   0.941  0.1988 -0.8371  0.0097
 5866SOL    HW123434   3.783   8.342   0.980 -0.9660 -0.8460 -2.3067
 5866SOL    HW223435   3.927   8.298   0.960  0.1858 -0.1397  3.0926
 5867SOL     OW23436   4.036   0.414   9.063  0.2179  0.3655 -0.5481
 5867SOL    HW123437   3.978   0.410   8.987  1.7443 -0.5760 -1.7310
 5867SOL    HW223438   4.114   0.458   9.032  0.0977  1.8432  1.0881
 5868SOL     OW23439   4.899   1.472   0.968 -0.0677 -0.0974 -0.7967
 5868SOL    HW123440   4.930   1.556   0.934  0.3763 -0.5590 -1.5674
 5868SOL    HW223441   4.818   1.494   1.014 -0.6896  0.5822 -2.1319
 5869SOL     OW23442   0.842  10.279   3.926  0.3244 -0.2187  0.2452
 5869SOL    HW123443   0.867  10.191   3.897 -0.2827  0.3332 -2.1911
 5869SOL    HW223444   0.755  10.268   3.963  0.5764 -0.7487  0.7058
 5870SOL     OW23445   2.118   7.588   4.440 -0.2596  0.1648  0.2393
 5870SOL    HW123446   2.151   7.621   4.523  0.0902  0.3528  0.0256
 5870SOL    HW223447   2.186   7.608   4.376 -0.5505  0.0758 -0.1063
 5871SOL     OW23448   2.358   6.590   8.339 -0.0740  0.0325  0.1672
 5871SOL    HW123449   2.344   6.672   8.291  2.6052  0.7867  0.5259
 5871SOL    HW223450   2.403   6.533   8.277 -0.8444 -0.7574  0.3128
 5872SOL     OW23451   7.456   0.213   7.251 -0.0760  0.4336  0.5521
 5872SOL    HW123452   7.409   0.155   7.311 -0.1119  0.4157  0.5068
 5872SOL    HW223453   7.450   0.299   7.292  0.0307  0.3932  0.6505
 5873SOL     OW23454   7.325  10.629   8.064 -0.1904  0.3034  0.8099
 5873SOL    HW123455   7.344  10.681   8.142  0.4907 -0.4303  1.1381
 5873SOL    HW223456   7.237  10.658   8.038  0.1155  1.5208  1.0517
 5874SOL     OW23457   6.108   2.025   5.599  0.6091  0.0193  0.2240
 5874SOL    HW123458   6.083   1.984   5.516  2.2489  3.0251 -1.9480
 5874SOL    HW223459   6.172   1.965   5.637 -1.2161 -2.1177  0.1305
 5875SOL     OW23460   9.703   5.924   2.464  0.5866 -0.0530 -0.1063
 5875SOL    HW123461   9.678   5.894   2.377  1.4538  1.6619 -0.9969
 5875SOL    HW223462   9.646   6.000   2.480  0.9741  0.1184  0.4897
 5876SOL     OW23463   9.298   1.216   5.446 -0.0279 -0.1534 -0.2942
 5876SOL    HW123464   9.326   1.303   5.420 -0.0267  0.1848  0.8035
 5876SOL    HW223465   9.370   1.182   5.499  0.0729 -0.9229 -0.9047
 5877SOL     OW23466   5.694   7.121   4.441  0.4423 -0.1000 -0.4739
 5877SOL    HW123467   5.724   7.045   4.491  1.9936  1.1809  0.6932
 5877SOL    HW223468   5.599   7.116   4.443  0.5106 -2.0656 -0.5671
 5878SOL     OW23469   7.261   6.453   0.263 -0.5103 -0.2920 -0.2455
 5878SOL    HW123470   7.235   6.362   0.277 -0.9224 -0.3022 -1.0513
 5878SOL    HW223471   7.278   6.486   0.351  1.2143 -1.5936 -0.0454
 5879SOL     OW23472   6.860   9.900   1.547 -0.3928 -0.0689  1.0199
 5879SOL    HW123473   6.765   9.898   1.540 -0.3477  0.7145  0.0205
 5879SOL    HW223474   6.877   9.934   1.635 -1.0204 -0.9266  1.4891
 5880SOL     OW23475   6.597   6.847   2.489 -0.2677 -0.0060 -0.1051
 5880SOL    HW123476   6.516   6.797   2.488  0.2565 -0.9911  1.7085
 5880SOL    HW223477   6.644   6.815   2.567  0.9614  1.9433  0.0216
 5881SOL     OW23478   1.840   1.338   7.004  0.1640 -0.4145 -0.0884
 5881SOL    HW123479   1.923   1.375   6.973 -0.3880  1.5117  0.6359
 5881SOL    HW223480   1.837   1.359   7.097 -1.3962  0.0836 -0.2198
 5882SOL     OW23481   2.453   6.741   5.309 -0.1276  0.7774  0.1062
 5882SOL    HW123482   2.382   6.679   5.324 -0.0078  0.4894 -0.4816
 5882SOL    HW223483   2.445   6.765   5.216  0.1035  1.2916  0.2141
 5883SOL     OW23484   3.784   1.842   2.353 -0.2114  0.2773 -0.4544
 5883SOL    HW123485   3.851   1.803   2.410 -1.0943  1.1752  1.2855
 5883SOL    HW223486   3.714   1.777   2.350 -0.0854  0.1496 -0.6965
 5884SOL     OW23487   4.765   8.579   7.940 -0.2759  0.3251  0.0841
 5884SOL    HW123488   4.767   8.517   7.867  2.8822 -1.9701  1.8444
 5884SOL    HW223489   4.704   8.540   8.003  0.3698 -0.1066  0.4568
 5885SOL     OW23490   7.576   0.519   2.563 -0.1581  0.1782 -0.3524
 5885SOL    HW123491   7.486   0.532   2.536 -1.8497 -4.9421  1.5904
 5885SOL    HW223492   7.614   0.465   2.493  0.5493  0.1690  0.0280
 5886SOL     OW23493   5.256  10.621   7.830 -0.0373  0.0808  0.2783
 5886SOL    HW123494   5.266  10.673   7.750 -0.7446  0.4498  0.4189
 5886SOL    HW223495   5.225  10.684   7.895 -1.5849 -0.6381  0.2811
 5887SOL     OW23496   5.405  10.103   2.985 -0.1910  0.3745 -0.0128
 5887SOL    HW123497   5.358  10.041   2.929 -3.2951  1.7160  0.9160
 5887SOL    HW223498   5.400  10.065   3.072  0.5186  0.5317  0.1003
 5888SOL     OW23499   3.653  10.256   0.651  0.2522 -0.6512 -0.5118
 5888SOL    HW123500   3.744  10.253   0.678  0.3788 -0.8712 -0.9454
 5888SOL    HW223501   3.636  10.348   0.631  0.4518 -0.6516 -0.6797
 5889SOL     OW23502   4.645   4.586   0.718 -0.3162  0.0966 -0.1986
 5889SOL    HW123503   4.710   4.517   0.704 -2.3914 -1.3943 -3.9003
 5889SOL    HW223504   4.689   4.667   0.690  0.9245 -0.3324  0.4610
 5890SOL     OW23505  10.025   3.099   7.546 -0.4717 -0.2377  0.1709
 5890SOL    HW123506   9.994   3.011   7.566 -1.6370  0.2793  0.7621
 5890SOL    HW223507   9.966   3.131   7.478 -0.6882  0.4273  0.6537
 5891SOL     OW23508   5.991   6.764   5.412 -0.3961 -0.3623 -0.1414
 5891SOL    HW123509   5.949   6.849   5.403 -1.7969 -1.0081 -0.0063
 5891SOL    HW223510   5.931   6.713   5.466  1.4694 -0.7645  1.7142
 5892SOL     OW23511   5.319   1.481   1.124 -0.3671  0.3903  0.3776
 5892SOL    HW123512   5.342   1.487   1.032 -0.5587  0.6068  0.3429
 5892SOL    HW223513   5.291   1.390   1.136  0.8240  0.0315  0.5011
 5893SOL     OW23514   4.632   8.694   4.741  0.0410 -0.3240  0.4093
 5893SOL    HW123515   4.590   8.624   4.791 -0.3266 -0.0727  0.4562
 5893SOL    HW223516   4.656   8.760   4.806 -0.2267 -0.1027  0.2874
 5894SOL     OW23517   1.972   3.882   9.441 -0.0048 -0.6019 -0.2689
 5894SOL    HW123518   1.923   3.964   9.454 -0.2237 -0.7487 -0.1580
 5894SOL    HW223519   2.029   3.877   9.517 -0.1714 -0.6775 -0.1480
 5895SOL     OW23520   5.873   2.122   0.986  0.2833 -0.3280  0.0296
 5895SOL    HW123521   5.825   2.146   0.907 -2.2857 -1.6785  1.0416
 5895SOL    HW223522   5.896   2.205   1.028  0.0514  0.3654 -1.1947
 5896SOL     OW23523  10.282   7.252   3.722  0.0981 -0.1573  0.1380
 5896SOL    HW123524  10.296   7.159   3.736  0.9979  0.1793  1.8367
 5896SOL    HW223525  10.187   7.264   3.727 -0.0145 -0.9697 -0.0443
 5897SOL     OW23526   7.117   1.598   5.995  0.2277 -0.0967 -0.3064
 5897SOL    HW123527   7.062   1.539   6.048 -0.0033  0.5430  0.1700
 5897SOL    HW223528   7.206   1.571   6.014  0.1004 -0.8801 -0.7733
 5898SOL     OW23529   4.227  10.554   6.357 -0.1707  0.0579 -0.1655
 5898SOL    HW123530   4.266  10.534   6.442 -1.2439 -1.8695 -0.0613
 5898SOL    HW223531   4.179  10.635   6.371 -0.5081 -0.3455  1.1400
 5899SOL     OW23532   4.626   5.004   3.911 -0.4443 -0.2761  0.2695
 5899SOL    HW123533   4.591   4.961   3.989  0.2736  0.1767  0.8501
 5899SOL    HW223534   4.678   4.936   3.868 -1.4519 -0.7557 -0.2486
 5900SOL     OW23535   7.891   9.083   9.736 -0.4227  0.0499  0.1999
 5900SOL    HW123536   7.886   9.069   9.642 -1.0345 -1.3904  0.4129
 5900SOL    HW223537   7.976   9.126   9.750  0.5043 -1.3517 -0.8512
 5901SOL     OW23538   8.293   3.020   0.281 -0.0410  0.0050  0.4193
 5901SOL    HW123539   8.334   3.060   0.358 -0.6586  0.2580  0.6230
 5901SOL    HW223540   8.200   3.015   0.303 -0.7660  2.7885 -1.3806
 5902SOL     OW23541   2.963   0.362   3.359  0.0915 -0.2814 -0.2379
 5902SOL    HW123542   3.000   0.450   3.365 -0.0680 -0.1457 -1.0712
 5902SOL    HW223543   3.039   0.305   3.344  0.1402 -0.2200 -0.2267
 5903SOL     OW23544  10.236   3.629   3.076 -0.1785 -0.2099 -0.2544
 5903SOL    HW123545  10.317   3.583   3.097  0.0523 -1.0408 -2.6585
 5903SOL    HW223546  10.170   3.589   3.132  0.9335  0.1299  1.3713
 5904SOL     OW23547   8.784   1.665   8.980 -0.3515  0.3849  0.3468
 5904SOL    HW123548   8.833   1.613   9.044  2.6986  2.2238 -0.2869
 5904SOL    HW223549   8.802   1.622   8.896 -1.6507 -0.1459  0.3223
 5905SOL     OW23550   7.166   2.068   5.612  0.4178  0.2674  0.4325
 5905SOL    HW123551   7.173   2.057   5.517 -0.1014  0.1754  0.4047
 5905SOL    HW223552   7.145   1.981   5.646 -0.3980  0.4888  0.5275
 5906SOL     OW23553   7.505   9.036  10.606  0.5518 -0.0932 -0.0238
 5906SOL    HW123554   7.451   9.106  10.570  1.2235  1.5678  2.0086
 5906SOL    HW223555   7.535   8.987  10.530 -1.0393  0.9886 -1.4181
 5907SOL     OW23556   7.779   6.212   1.121  0.5773 -0.1304 -0.1217
 5907SOL    HW123557   7.855   6.186   1.173  0.0059 -0.3390  0.6311
 5907SOL    HW223558   7.744   6.288   1.167 -0.2936 -0.6904  0.1552
 5908SOL     OW23559   9.912   0.801   3.604 -0.5166  0.1781  0.2124
 5908SOL    HW123560   9.923   0.708   3.624 -3.5899 -0.2022  0.6563
 5908SOL    HW223561   9.887   0.840   3.688 -0.4157  1.1865 -0.2205
 5909SOL     OW23562   7.153   1.735   7.036  1.1168 -0.6151  0.5615
 5909SOL    HW123563   7.069   1.694   7.061  0.2444  0.2893 -0.7975
 5909SOL    HW223564   7.145   1.826   7.065  1.2787 -0.3078 -0.3298
 5910SOL     OW23565   9.399  10.549   8.163  0.2819  0.5433  0.8620
 5910SOL    HW123566   9.361  10.632   8.192 -0.4220  1.0965 -1.4326
 5910SOL    HW223567   9.471  10.574   8.106 -0.4739 -0.3468 -0.5555
 5911SOL     OW23568   6.072   6.850   3.089  0.2530  1.1286 -0.0058
 5911SOL    HW123569   6.025   6.859   3.006  2.0341  1.9589 -0.9916
 5911SOL    HW223570   6.019   6.789   3.140 -0.8078  0.4276 -1.8270
 5912SOL     OW23571   0.502   8.599   3.455 -0.8229  0.2996 -0.1377
 5912SOL    HW123572   0.548   8.680   3.477  1.8201 -1.3978  1.0329
 5912SOL    HW223573   0.522   8.583   3.363 -0.1421  0.2595  0.0134
 5913SOL     OW23574   2.827   1.234   4.694 -0.2809  0.1169  0.3366
 5913SOL    HW123575   2.825   1.140   4.672 -0.9516 -0.0200  0.9645
 5913SOL    HW223576   2.882   1.238   4.773  2.4428  0.6486 -1.4463
 5914SOL     OW23577   4.635   3.052   8.718 -0.1328 -0.5050  0.2226
 5914SOL    HW123578   4.645   3.090   8.631  1.2528  0.7953  0.8969
 5914SOL    HW223579   4.575   3.112   8.763 -1.6306 -1.7026 -0.0863
 5915SOL     OW23580   8.211   4.627   6.221 -0.4029  0.2558  0.2733
 5915SOL    HW123581   8.127   4.670   6.235  0.1260  1.8254 -1.1619
 5915SOL    HW223582   8.209   4.598   6.130  0.4348 -0.0940  0.3533
 5916SOL     OW23583   8.101   7.507   7.547 -0.9376 -0.4831 -0.3617
 5916SOL    HW123584   8.149   7.474   7.624  0.3073  0.4044 -0.7185
 5916SOL    HW223585   8.016   7.464   7.552  0.0583 -2.5773  0.0201
 5917SOL     OW23586   5.544   5.110   8.171  0.5755  0.1759 -0.0149
 5917SOL    HW123587   5.580   5.168   8.105 -0.9726  0.4834 -0.6396
 5917SOL    HW223588   5.459   5.082   8.135 -1.1739  1.7301  2.5157
 5918SOL     OW23589   2.276   9.030   2.977  0.8393  0.1488 -0.5451
 5918SOL    HW123590   2.223   8.977   2.918  0.6664  0.1088 -0.3561
 5918SOL    HW223591   2.235   9.019   3.063  1.3428 -0.1433 -0.3357
 5919SOL     OW23592   9.785   5.771   4.468  0.6410  0.5503  0.2116
 5919SOL    HW123593   9.815   5.850   4.422  0.2121  0.4650 -0.2266
 5919SOL    HW223594   9.753   5.714   4.398  2.4733 -0.7238  0.3473
 5920SOL     OW23595   1.481   9.776  10.587 -0.5317  0.2397  0.0545
 5920SOL    HW123596   1.499   9.828  10.509 -1.5141  1.5860  0.6830
 5920SOL    HW223597   1.508   9.832  10.660 -1.2213 -0.2908  0.7343
 5921SOL     OW23598   7.438   0.378   6.304  0.2472  0.0984  0.5695
 5921SOL    HW123599   7.505   0.422   6.357  1.1899 -1.4593  0.7438
 5921SOL    HW223600   7.488   0.319   6.247 -0.8569  0.5318 -0.9155
 5922SOL     OW23601   4.078   4.610  10.290  0.1446 -0.2104  0.6849
 5922SOL    HW123602   4.127   4.534  10.322  0.2187 -0.2082  0.5749
 5922SOL    HW223603   4.043   4.650  10.370  1.9865  0.9393  0.9608
 5923SOL     OW23604   2.477   0.175   8.165  0.1267 -0.3816  0.8498
 5923SOL    HW123605   2.543   0.114   8.198 -0.7654 -1.4258  0.7689
 5923SOL    HW223606   2.454   0.229   8.241 -1.3136 -2.2209  1.8101
 5924SOL     OW23607   3.931   4.524   8.660 -0.1480 -0.8025  0.3333
 5924SOL    HW123608   3.959   4.435   8.681 -0.7218 -1.0785 -0.0286
 5924SOL    HW223609   4.012   4.571   8.642  0.1056 -1.5823 -0.6995
 5925SOL     OW23610   4.303   3.535   1.061  0.2388  0.0038 -0.0652
 5925SOL    HW123611   4.281   3.580   0.979 -0.8308 -0.8192 -0.2559
 5925SOL    HW223612   4.393   3.561   1.079 -0.6364  3.0588  0.4035
 5926SOL     OW23613   0.939   2.183   3.960 -0.0227  0.2691 -0.3344
 5926SOL    HW123614   0.937   2.089   3.976 -1.1525  0.3071 -0.2190
 5926SOL    HW223615   0.973   2.191   3.871  2.0937 -0.1249  0.3638
 5927SOL     OW23616   2.767   1.719   3.341 -0.1469  0.0395  0.0455
 5927SOL    HW123617   2.818   1.789   3.380  0.5970 -0.0232 -0.7919
 5927SOL    HW223618   2.714   1.685   3.413 -1.5395  2.3228  0.1908
 5928SOL     OW23619   0.721   1.376   7.618 -0.2341  0.2820  0.1655
 5928SOL    HW123620   0.725   1.389   7.524 -0.6741  0.9018  0.2297
 5928SOL    HW223621   0.689   1.286   7.628 -0.4922  0.3209 -0.2788
 5929SOL     OW23622   3.382   9.081   9.735 -0.4404  0.1224 -0.0109
 5929SOL    HW123623   3.304   9.103   9.785 -1.1944 -1.5283 -0.3965
 5929SOL    HW223624   3.444   9.047   9.799 -1.5535 -2.3758 -0.1781
 5930SOL     OW23625   2.098   5.395   9.522 -0.4553 -0.2809  0.3176
 5930SOL    HW123626   2.093   5.359   9.433  1.6618 -0.2845  0.1479
 5930SOL    HW223627   2.152   5.473   9.513  1.7750 -1.5386  1.9104
 5931SOL     OW23628   5.381   4.484   4.493 -0.1306  0.0874 -0.4039
 5931SOL    HW123629   5.457   4.432   4.466  0.5285  0.7034  0.1967
 5931SOL    HW223630   5.361   4.452   4.581 -1.1504 -0.6984 -0.9059
 5932SOL     OW23631   6.461   4.864   6.950  0.0762 -0.3661  0.0367
 5932SOL    HW123632   6.396   4.866   7.019  0.8347  0.2112  0.7540
 5932SOL    HW223633   6.544   4.881   6.994  0.6731 -0.7161 -0.9086
 5933SOL     OW23634   9.488  10.525   0.726  0.1455  0.5283 -0.0729
 5933SOL    HW123635   9.429  10.525   0.801 -1.2255  1.1983 -1.0934
 5933SOL    HW223636   9.457  10.597   0.671  1.7723  0.7331 -0.7953
 5934SOL     OW23637   1.648   3.830   7.187 -0.6579  0.2146  0.0286
 5934SOL    HW123638   1.678   3.767   7.120 -2.9974 -0.4965 -0.4457
 5934SOL    HW223639   1.722   3.837   7.247  0.9900 -0.2783 -1.8119
 5935SOL     OW23640   1.210   1.022   7.065  0.4238  0.2669 -0.1301
 5935SOL    HW123641   1.138   1.078   7.094 -0.0402 -1.0585  1.3895
 5935SOL    HW223642   1.289   1.065   7.100  0.4627  1.7567 -1.8551
 5936SOL     OW23643   7.789   5.345   6.110  0.0399  0.0905  0.6259
 5936SOL    HW123644   7.818   5.255   6.124 -0.1249 -0.3233 -1.2844
 5936SOL    HW223645   7.737   5.340   6.029  0.1919  1.9332  0.3779
 5937SOL     OW23646   5.516   0.711   0.945 -0.4323  0.4719  0.0692
 5937SOL    HW123647   5.516   0.715   1.041 -3.2885 -0.7606  0.2404
 5937SOL    HW223648   5.510   0.802   0.917  0.8362  0.8734  1.0104
 5938SOL     OW23649   7.293   8.965   9.369 -0.3317  0.0235  0.1234
 5938SOL    HW123650   7.232   9.025   9.411  0.6388  0.5679  0.8021
 5938SOL    HW223651   7.291   8.989   9.276 -0.9438  0.2049  0.1806
 5939SOL     OW23652   7.529   5.090   1.000  0.0443 -0.0483  0.6559
 5939SOL    HW123653   7.492   5.176   1.021  1.7764  1.3184 -1.5227
 5939SOL    HW223654   7.452   5.034   0.989 -1.3545  2.0190 -1.0091
 5940SOL     OW23655   0.423   5.729   0.717 -0.1409 -0.2216  0.3507
 5940SOL    HW123656   0.393   5.657   0.661 -0.0715  1.0567 -1.4315
 5940SOL    HW223657   0.441   5.800   0.656  2.5353  0.4356  1.7578
 5941SOL     OW23658   4.655   4.076   0.275  0.6830  0.3921 -0.2267
 5941SOL    HW123659   4.742   4.040   0.288  0.7599  0.6184 -0.1066
 5941SOL    HW223660   4.604   4.046   0.350  0.4790 -0.2752 -0.6239
 5942SOL     OW23661   9.811   9.293   1.003  0.5103 -0.3035  0.6985
 5942SOL    HW123662   9.782   9.202   0.991 -1.4637  0.6336 -3.1046
 5942SOL    HW223663   9.769   9.321   1.084  0.0044 -2.3563  1.2007
 5943SOL     OW23664   5.329   0.311   8.845  0.1194  0.1702  0.2050
 5943SOL    HW123665   5.281   0.243   8.798  0.1546  1.4573 -1.8485
 5943SOL    HW223666   5.263   0.355   8.899 -0.3908 -0.0096 -0.2645
 5944SOL     OW23667   1.027   1.507   4.687 -0.4175  0.3597 -0.1725
 5944SOL    HW123668   1.089   1.567   4.730  0.2345 -1.9543  2.4223
 5944SOL    HW223669   0.941   1.542   4.709 -0.1038 -0.5600  3.0375
 5945SOL     OW23670   0.075   3.053   3.289  0.5351  0.4354 -0.1678
 5945SOL    HW123671   0.024   3.069   3.369  0.4613 -0.5836  0.0097
 5945SOL    HW223672   0.079   3.138   3.245  1.2191  1.1987  1.2899
 5946SOL     OW23673  10.359   0.095   0.136  0.0112 -0.3158  0.0482
 5946SOL    HW123674  10.369   0.002   0.119  0.4617 -0.3462  0.4608
 5946SOL    HW223675  10.405   0.138   0.064  0.5703 -0.4274  0.3289
 5947SOL     OW23676   7.494   1.757   2.825 -0.1308  0.5387 -0.0012
 5947SOL    HW123677   7.494   1.666   2.797 -0.4190  0.7534 -0.7205
 5947SOL    HW223678   7.413   1.794   2.790 -0.5460  0.8120  1.1810
 5948SOL     OW23679   6.434   2.817   1.926  0.6253 -0.2336 -0.4061
 5948SOL    HW123680   6.478   2.901   1.914  3.2540 -0.9427  2.7852
 5948SOL    HW223681   6.352   2.838   1.970  0.8727  0.6966 -0.3738
 5949SOL     OW23682   1.409   6.479   0.995 -0.3864  0.3718 -0.1072
 5949SOL    HW123683   1.354   6.521   1.061 -0.4414 -0.6354  0.5229
 5949SOL    HW223684   1.357   6.405   0.964  1.0734 -1.4389  1.4957
 5950SOL     OW23685   2.908   9.870   2.067  0.1465 -0.5536  0.1635
 5950SOL    HW123686   2.875   9.791   2.111 -1.5243  0.7142  1.3320
 5950SOL    HW223687   2.984   9.896   2.119  0.7273 -1.3897 -0.2496
 5951SOL     OW23688   2.808   1.475   4.127  0.0998 -0.5578  1.3960
 5951SOL    HW123689   2.896   1.457   4.159  1.1342 -3.3906 -2.3041
 5951SOL    HW223690   2.755   1.402   4.161  0.2253 -1.2056  0.2475
 5952SOL     OW23691   8.082   8.309   8.269  0.6132  0.1298  0.5308
 5952SOL    HW123692   8.118   8.313   8.358 -1.9972 -0.3375  1.6939
 5952SOL    HW223693   8.135   8.243   8.225  2.7535  1.2204  1.2810
 5953SOL     OW23694   8.068   8.082   5.989 -0.3134  0.0141  0.3055
 5953SOL    HW123695   7.989   8.073   6.041 -0.5923  1.5521  0.1973
 5953SOL    HW223696   8.036   8.097   5.899  0.0250  1.8603  0.4538
 5954SOL     OW23697   3.678   3.556   7.174  0.0452  0.4065 -0.0143
 5954SOL    HW123698   3.736   3.512   7.112  0.1613 -0.1033  0.4483
 5954SOL    HW223699   3.626   3.615   7.121 -1.0506 -1.2547 -0.8371
 5955SOL     OW23700   1.673   3.575   4.838 -0.3038 -0.1101  0.5232
 5955SOL    HW123701   1.744   3.547   4.897  2.5718  1.2009 -2.0290
 5955SOL    HW223702   1.675   3.670   4.841 -3.1539 -0.0002  1.5607
 5956SOL     OW23703   7.947  10.132   9.190 -0.2405 -0.0067  0.0556
 5956SOL    HW123704   7.920  10.073   9.119 -0.4396 -1.0537  0.9877
 5956SOL    HW223705   7.866  10.168   9.224 -0.2051 -0.2167  0.3611
 5957SOL     OW23706   2.055   9.279   9.406 -0.0630  0.4541 -0.4640
 5957SOL    HW123707   1.988   9.274   9.338  0.1319  3.1768 -0.9901
 5957SOL    HW223708   2.006   9.291   9.488 -0.2721 -2.1389 -0.1177
 5958SOL     OW23709   6.734   3.951   4.245 -0.3878  0.2382  0.0968
 5958SOL    HW123710   6.708   3.958   4.337 -0.0765  1.7523  0.1079
 5958SOL    HW223711   6.672   4.007   4.198  0.1401  0.3737 -0.4588
 5959SOL     OW23712   5.887   5.505   9.729 -0.8029  0.4845 -0.1438
 5959SOL    HW123713   5.812   5.557   9.699 -0.1058  1.3566 -0.4269
 5959SOL    HW223714   5.905   5.444   9.658 -2.7444 -1.4577  0.8989
 5960SOL     OW23715   4.626   0.204   8.680  0.1282  0.1956 -0.3490
 5960SOL    HW123716   4.608   0.290   8.716  1.7778  0.0798  0.8533
 5960SOL    HW223717   4.553   0.187   8.620 -0.4641  2.2020 -0.2555
 5961SOL     OW23718   7.690   3.913   6.446 -0.0426 -0.2166  0.4089
 5961SOL    HW123719   7.738   3.830   6.455  0.0783 -0.7650 -3.5196
 5961SOL    HW223720   7.755   3.981   6.463  1.8765 -0.9717 -3.0111
 5962SOL     OW23721   0.321   9.787   7.240  0.7429 -0.8254 -0.7079
 5962SOL    HW123722   0.341   9.851   7.171  2.9656 -2.0336 -1.2959
 5962SOL    HW223723   0.388   9.803   7.306 -0.3400 -0.8000  0.4109
 5963SOL     OW23724   9.839  10.108   1.779 -0.2695 -0.1040 -0.1313
 5963SOL    HW123725   9.843  10.098   1.874  0.0298 -0.5320 -0.1864
 5963SOL    HW223726   9.868  10.023   1.745 -0.6294 -0.0403 -0.6025
 5964SOL     OW23727   2.740   4.874   1.111  0.3282  0.8011  0.1889
 5964SOL    HW123728   2.672   4.842   1.051  0.3750  0.9882  0.0329
 5964SOL    HW223729   2.823   4.851   1.068  0.3706  0.0002  0.6876
 5965SOL     OW23730   6.077   6.570   9.213  0.5636  0.2070  0.2202
 5965SOL    HW123731   6.097   6.654   9.173  0.8546 -1.2166 -2.9447
 5965SOL    HW223732   6.081   6.586   9.307 -0.4789  3.9260 -0.2332
 5966SOL     OW23733   7.787   1.860   3.651 -0.4631  0.7358  0.1440
 5966SOL    HW123734   7.821   1.948   3.633 -0.1751  0.6768  0.3829
 5966SOL    HW223735   7.851   1.822   3.712  0.1955 -0.1634 -1.0544
 5967SOL     OW23736   6.523   0.987   1.738  0.4171  0.1329  0.0586
 5967SOL    HW123737   6.592   0.972   1.802  1.3898 -0.1493 -1.0243
 5967SOL    HW223738   6.529   0.913   1.678  1.8537  2.0703 -2.3778
 5968SOL     OW23739   2.340  10.287   3.101  0.0371  0.4727  0.0746
 5968SOL    HW123740   2.291  10.366   3.126 -0.8721 -0.3604  0.9738
 5968SOL    HW223741   2.293  10.215   3.142 -0.0816 -0.7289 -2.0214
 5969SOL     OW23742   4.091   1.580   2.732 -0.0666  0.3918  0.5340
 5969SOL    HW123743   4.067   1.656   2.784 -1.0473  0.3147  0.2232
 5969SOL    HW223744   4.010   1.529   2.726 -0.5773  1.3613 -2.6879
 5970SOL     OW23745   6.920   9.482   3.281  0.3164  0.6365  0.1247
 5970SOL    HW123746   6.869   9.401   3.269  1.7426 -0.1622 -0.7627
 5970SOL    HW223747   6.952   9.476   3.371 -0.8661  1.0151  0.6028
 5971SOL     OW23748   1.588   2.243   5.734 -0.0666 -0.3626  0.1177
 5971SOL    HW123749   1.554   2.166   5.688 -0.9050 -0.6882  1.2263
 5971SOL    HW223750   1.667   2.267   5.686  0.0679 -1.7615 -0.4143
 5972SOL     OW23751   7.730   5.762   4.957 -0.8402 -0.2251  0.0983
 5972SOL    HW123752   7.787   5.708   4.902  0.9345  1.3260  0.2994
 5972SOL    HW223753   7.706   5.705   5.030 -0.8635 -1.4080 -0.8113
 5973SOL     OW23754   3.938   0.109   2.338 -0.3667  0.3756 -0.3202
 5973SOL    HW123755   3.917   0.202   2.344  0.9761  0.6123  1.3083
 5973SOL    HW223756   3.858   0.069   2.304 -1.4869  1.9250  0.3612
 5974SOL     OW23757   1.051   9.485  10.155  0.3293  0.2056 -0.0597
 5974SOL    HW123758   1.028   9.459  10.244  0.7505 -0.0296 -0.0195
 5974SOL    HW223759   0.978   9.540  10.126 -0.2451 -0.4715  0.0952
 5975SOL     OW23760   4.790   3.825   0.462  0.2224  0.3968  0.4546
 5975SOL    HW123761   4.699   3.797   0.474  0.7098 -2.6724 -1.8256
 5975SOL    HW223762   4.828   3.822   0.549 -1.3013 -0.6409  1.1225
 5976SOL     OW23763   2.678   2.282   2.407  0.0224  0.4577  0.1108
 5976SOL    HW123764   2.589   2.270   2.375 -0.8206 -0.5193  2.5730
 5976SOL    HW223765   2.669   2.338   2.484  1.4551  0.0136  0.6482
 5977SOL     OW23766   4.983   9.878   4.705  0.5736 -0.9559  1.1133
 5977SOL    HW123767   5.067   9.911   4.672  0.0892 -0.3583  0.4318
 5977SOL    HW223768   4.917   9.926   4.654 -0.1771 -2.8005  0.2662
 5978SOL     OW23769   5.648   0.793   3.827 -0.1294  0.1507  0.0985
 5978SOL    HW123770   5.595   0.866   3.793  1.1725  0.3963 -1.5119
 5978SOL    HW223771   5.676   0.745   3.749  0.4372 -1.0939  1.0404
 5979SOL     OW23772   3.955   2.100   9.979  0.0052  0.0086 -0.1560
 5979SOL    HW123773   3.890   2.035   9.954  1.5630 -0.5404 -3.2156
 5979SOL    HW223774   3.917   2.183   9.950 -0.9636  0.2367  1.6376
 5980SOL     OW23775   5.627   8.932   8.018  0.3274  0.4792  0.0119
 5980SOL    HW123776   5.719   8.956   8.012  0.7480 -1.1086 -0.5149
 5980SOL    HW223777   5.607   8.933   8.112  0.8125  1.0636  0.1077
 5981SOL     OW23778   9.131   8.461   5.391 -0.2692  0.2925  0.2912
 5981SOL    HW123779   9.212   8.416   5.368 -0.7203  0.0601 -0.8639
 5981SOL    HW223780   9.065   8.392   5.399 -0.3128  0.4427  1.5453
 5982SOL     OW23781   7.231   9.756   0.030  0.5173  0.3064  0.5377
 5982SOL    HW123782   7.227   9.839  -0.019  2.0939 -1.0449 -2.1199
 5982SOL    HW223783   7.141   9.722   0.026  0.1222  1.3166  0.5892
 5983SOL     OW23784   3.162   3.600   1.455 -0.2729  0.3546 -0.4975
 5983SOL    HW123785   3.187   3.552   1.376 -0.5360  1.5730 -1.3453
 5983SOL    HW223786   3.163   3.533   1.525 -0.2227 -0.7755 -1.5451
 5984SOL     OW23787   8.352   0.453   0.470  0.3477 -0.1710  0.6143
 5984SOL    HW123788   8.416   0.430   0.537  2.6997  1.8357 -0.7967
 5984SOL    HW223789   8.321   0.369   0.437  1.5502 -1.2043  1.9962
 5985SOL     OW23790   5.298   4.139   2.201 -0.5821  0.1075  0.1033
 5985SOL    HW123791   5.367   4.129   2.135 -1.7452  2.8251 -1.6972
 5985SOL    HW223792   5.257   4.053   2.205  0.9119 -0.7203 -1.1144
 5986SOL     OW23793   6.718   6.405   1.930  0.3826  0.5649  0.2720
 5986SOL    HW123794   6.665   6.484   1.937 -1.4440 -0.5075 -0.7458
 5986SOL    HW223795   6.719   6.367   2.018 -2.4352 -0.5040 -0.0602
 5987SOL     OW23796   4.410   2.501   8.206 -0.3151  0.0142  0.1717
 5987SOL    HW123797   4.392   2.456   8.123 -2.6088  1.0260  0.0255
 5987SOL    HW223798   4.451   2.583   8.180 -0.0847 -0.1162  0.1211
 5988SOL     OW23799   2.070   1.432   6.880  0.2595 -0.2268 -0.5203
 5988SOL    HW123800   2.149   1.486   6.873  0.8673 -1.2750 -2.6157
 5988SOL    HW223801   2.081   1.365   6.812 -2.4233 -0.4321 -0.8502
 5989SOL     OW23802   2.772   4.228   0.971  0.5410 -0.2462  0.1517
 5989SOL    HW123803   2.845   4.171   0.995  1.0291 -1.3409 -3.2961
 5989SOL    HW223804   2.811   4.314   0.960  0.9434 -0.4278  0.1325
 5990SOL     OW23805   4.528   2.764   6.937 -0.3704  0.3946 -0.1892
 5990SOL    HW123806   4.539   2.842   6.883 -1.0697  0.5888 -0.0600
 5990SOL    HW223807   4.604   2.709   6.917 -1.7979 -0.6549 -3.2316
 5991SOL     OW23808   6.829   7.567   1.782  0.9896 -0.5919 -0.2441
 5991SOL    HW123809   6.860   7.597   1.867 -0.3707  0.9326 -0.2402
 5991SOL    HW223810   6.764   7.500   1.803  1.0477 -0.6058 -0.1051
 5992SOL     OW23811   8.675   3.154   7.213 -0.0220 -0.3303 -0.2791
 5992SOL    HW123812   8.751   3.145   7.155 -0.9810 -0.3025 -1.5899
 5992SOL    HW223813   8.698   3.225   7.272  2.2216 -2.2940  1.4253
 5993SOL     OW23814  10.225   0.915   8.746 -0.0890  0.5281  0.1697
 5993SOL    HW123815  10.143   0.923   8.699 -0.0173  1.1132  0.1358
 5993SOL    HW223816  10.292   0.940   8.683  0.1942 -0.7303 -0.0491
 5994SOL     OW23817  10.476   4.583   4.065  0.4148  0.2345  0.4070
 5994SOL    HW123818  10.523   4.599   3.983  2.0989  2.2821  1.6542
 5994SOL    HW223819  10.384   4.586   4.041  0.8158 -1.8113 -1.7988
 5995SOL     OW23820  10.337   3.012   6.684 -0.1056 -0.1063 -0.7376
 5995SOL    HW123821  10.347   2.919   6.705  0.9198  0.2343  0.4302
 5995SOL    HW223822  10.415   3.035   6.634  2.0343  1.0849  2.8078
 5996SOL     OW23823   9.590   3.557   1.456 -0.5131  0.3783 -0.6583
 5996SOL    HW123824   9.624   3.485   1.509 -1.7540 -0.9702 -1.5991
 5996SOL    HW223825   9.579   3.629   1.518 -1.2680 -0.9246  0.8025
 5997SOL     OW23826   5.598   1.849  10.496  0.5428 -0.2260  0.2577
 5997SOL    HW123827   5.599   1.884  10.407  1.1019  0.9712  0.7111
 5997SOL    HW223828   5.534   1.903  10.543  0.8075 -0.3400  0.7642
 5998SOL     OW23829   8.723   4.073   1.077  0.2844 -0.4170  0.1942
 5998SOL    HW123830   8.667   4.098   1.004  0.8553  1.7618  0.4213
 5998SOL    HW223831   8.692   3.987   1.103 -1.1124 -0.4578 -1.4463
 5999SOL     OW23832   4.036   3.524   5.389 -0.3453  0.1373 -0.0872
 5999SOL    HW123833   4.126   3.520   5.423 -0.8981 -0.7882  1.3216
 5999SOL    HW223834   4.048   3.537   5.294  1.3118 -1.2514 -0.1274
 6000SOL     OW23835   4.326   2.693   2.537 -0.6324 -0.3369 -0.2610
 6000SOL    HW123836   4.351   2.696   2.630  0.5553 -1.0080 -0.5366
 6000SOL    HW223837   4.290   2.605   2.524 -1.5498  0.0326 -0.2641
 6001SOL     OW23838   1.349   3.355   5.039  0.4086 -0.7027 -0.4359
 6001SOL    HW123839   1.258   3.344   5.068  0.8903 -0.3735  1.3217
 6001SOL    HW223840   1.342   3.387   4.949 -1.2513  0.6236  0.1102
 6002SOL     OW23841   2.056   7.671   5.477  0.0931 -0.0525 -0.0318
 6002SOL    HW123842   2.031   7.579   5.489  0.7811 -0.4925 -1.7029
 6002SOL    HW223843   1.980   7.721   5.509 -1.7104 -1.2721 -2.1717
 6003SOL     OW23844   5.159   4.798   2.175  0.0653 -0.0043 -0.6644
 6003SOL    HW123845   5.202   4.872   2.132 -0.0908  1.0224  0.8652
 6003SOL    HW223846   5.077   4.786   2.127 -0.3441  1.4473 -0.3748
 6004SOL     OW23847   3.840   8.421   9.085  0.3807  0.2103 -0.1397
 6004SOL    HW123848   3.821   8.515   9.083  0.1096  0.1492 -0.7168
 6004SOL    HW223849   3.862   8.402   9.176 -2.5537  0.2311  0.6569
 6005SOL     OW23850   7.607   4.785   7.374 -0.0150 -0.6096  0.2416
 6005SOL    HW123851   7.514   4.761   7.376  0.2895 -1.8631  0.6124
 6005SOL    HW223852   7.626   4.801   7.281 -0.9905  1.3985  0.3471
 6006SOL     OW23853   5.409   6.134   6.453 -0.3614  0.4799 -0.7288
 6006SOL    HW123854   5.366   6.093   6.528  0.3008 -0.0106 -0.6083
 6006SOL    HW223855   5.342   6.191   6.416 -1.2722 -0.5948 -0.8155
 6007SOL     OW23856   9.369   0.008   8.844 -0.3484 -0.5789 -0.0424
 6007SOL    HW123857   9.455  -0.033   8.848  1.3221  2.4954 -0.9653
 6007SOL    HW223858   9.336  -0.013   8.756 -1.0223 -2.4727  0.6078
 6008SOL     OW23859   1.035   4.782   3.751 -0.0848  0.2265  0.2925
 6008SOL    HW123860   0.989   4.829   3.821 -1.0545  0.9133 -0.7680
 6008SOL    HW223861   0.987   4.700   3.742  0.8606 -0.4614  1.3147
 6009SOL     OW23862  10.595   7.855   2.468 -0.5231  0.1708 -0.1141
 6009SOL    HW123863  10.562   7.855   2.558 -1.2331 -0.0159 -0.3699
 6009SOL    HW223864  10.564   7.772   2.432  0.5923 -0.2069 -0.2354
 6010SOL     OW23865   0.527   4.903  10.271 -0.0671 -0.1694  0.6181
 6010SOL    HW123866   0.447   4.900  10.324 -0.3876 -1.2289  0.0931
 6010SOL    HW223867   0.584   4.838  10.312  0.8756  1.1665  1.5055
 6011SOL     OW23868   2.533   3.341   1.890 -0.0055 -0.6465  0.0113
 6011SOL    HW123869   2.455   3.300   1.852  0.0078  0.4775 -1.3237
 6011SOL    HW223870   2.508   3.363   1.980 -1.3538  0.0055 -0.5009
 6012SOL     OW23871   1.317   2.291   5.274 -0.3405  0.4805 -0.5347
 6012SOL    HW123872   1.250   2.237   5.232 -1.2907  1.0589  0.2077
 6012SOL    HW223873   1.276   2.325   5.353  1.2673 -0.2081  0.6497
 6013SOL     OW23874   2.335   1.911   7.390  0.3845  0.2074 -0.0394
 6013SOL    HW123875   2.299   1.998   7.376 -1.8614 -0.6621 -0.1045
 6013SOL    HW223876   2.268   1.865   7.440  1.7158 -1.3550  0.3870
 6014SOL     OW23877   1.882   1.965   6.611 -0.3747  0.2220  0.5079
 6014SOL    HW123878   1.953   2.010   6.656 -0.6081  0.1636  0.9444
 6014SOL    HW223879   1.923   1.888   6.571 -0.3904 -0.4655  1.7487
 6015SOL     OW23880   3.724   4.366  10.680  0.6481  0.2929  0.0240
 6015SOL    HW123881   3.728   4.411  10.596 -0.0044 -0.6248 -0.5145
 6015SOL    HW223882   3.804   4.392  10.725  1.8992 -0.5509 -1.5955
 6016SOL     OW23883   9.464   5.449   1.205  0.2959  0.3973  0.1331
 6016SOL    HW123884   9.535   5.410   1.257 -0.4360 -2.0231 -0.5558
 6016SOL    HW223885   9.435   5.524   1.257  1.3314 -0.3750  1.9230
 6017SOL     OW23886   4.640  10.502   4.982  0.2289 -0.1392 -0.3182
 6017SOL    HW123887   4.710  10.557   5.018 -0.2942  1.0644 -1.0439
 6017SOL    HW223888   4.682  10.419   4.961  0.9876 -0.1292  1.0897
 6018SOL     OW23889   8.568   4.933   0.129  0.1979  0.2478 -0.5848
 6018SOL    HW123890   8.590   4.873   0.201  0.7482 -0.0775 -1.0132
 6018SOL    HW223891   8.595   4.886   0.050 -0.4585  0.5734 -1.0116
 6019SOL     OW23892   2.744   3.935   5.149 -0.4965 -0.0292  0.2569
 6019SOL    HW123893   2.838   3.948   5.137 -0.6814  2.5947  0.9911
 6019SOL    HW223894   2.709   3.922   5.061  0.5069 -0.9007 -0.0314
 6020SOL     OW23895   0.186   3.840   1.465  0.6032 -0.5128 -0.5389
 6020SOL    HW123896   0.111   3.890   1.434  0.7419 -0.6538 -1.1143
 6020SOL    HW223897   0.230   3.898   1.527 -0.5875 -0.8301  0.6675
 6021SOL     OW23898   2.824   0.133   8.515  0.7137 -0.1798 -0.0812
 6021SOL    HW123899   2.903   0.092   8.550  0.7970 -0.4408 -0.5514
 6021SOL    HW223900   2.758   0.120   8.583  1.0904  0.0969  0.3401
 6022SOL     OW23901   2.063   4.994   1.373 -0.1841  0.3609  0.3126
 6022SOL    HW123902   2.147   4.950   1.358 -1.3317 -1.4272 -1.2871
 6022SOL    HW223903   2.006   4.926   1.407 -1.3005  1.2641  0.3045
 6023SOL     OW23904   0.187   5.074   3.774 -0.0367  0.1472 -0.3263
 6023SOL    HW123905   0.143   5.084   3.690 -1.1859 -1.2220  0.0687
 6023SOL    HW223906   0.209   4.980   3.777  1.7992  0.5464  0.0532
 6024SOL     OW23907   8.557   3.852   3.398 -0.1893 -0.7304 -0.1546
 6024SOL    HW123908   8.464   3.871   3.405 -0.2650 -1.2450  0.2864
 6024SOL    HW223909   8.573   3.785   3.464  0.1177 -2.0497 -1.5158
 6025SOL     OW23910   8.727   7.790   8.253  0.3630  0.7071 -0.1069
 6025SOL    HW123911   8.770   7.869   8.285  0.3126  0.2758  1.0723
 6025SOL    HW223912   8.794   7.745   8.202  0.8911  0.7137  0.5751
 6026SOL     OW23913   6.042   4.183   5.683  0.0260  0.3509 -0.1118
 6026SOL    HW123914   5.966   4.125   5.674 -0.9051  1.3402  0.9930
 6026SOL    HW223915   6.065   4.206   5.593 -0.3774 -0.7103 -0.5117
 6027SOL     OW23916   2.981   5.291   9.557 -0.9008 -0.2353 -0.3529
 6027SOL    HW123917   3.033   5.217   9.526 -0.1979  0.0377  0.1693
 6027SOL    HW223918   2.960   5.340   9.477  0.1665 -0.0054 -0.4975
 6028SOL     OW23919   7.014   1.869   6.144 -0.1222  0.4823 -0.6168
 6028SOL    HW123920   6.929   1.839   6.177  0.0373  1.2039  0.5100
 6028SOL    HW223921   7.041   1.801   6.082 -0.3770 -1.0458  0.8642
 6029SOL     OW23922   7.634   2.259   1.595  0.5135 -0.4031  0.2153
 6029SOL    HW123923   7.563   2.205   1.561 -0.7357  0.0628  1.9163
 6029SOL    HW223924   7.697   2.198   1.632  1.1093 -0.8267 -1.4109
 6030SOL     OW23925   0.331   5.381   4.513  0.1317  0.2123  0.2446
 6030SOL    HW123926   0.304   5.464   4.473 -1.7560  0.1213  1.2308
 6030SOL    HW223927   0.272   5.316   4.477 -1.5863  0.1070  2.9713
 6031SOL     OW23928   5.674   4.435   5.319  0.0401 -0.3203 -0.0955
 6031SOL    HW123929   5.628   4.397   5.394 -0.3653  0.0605 -0.1449
 6031SOL    HW223930   5.604   4.474   5.266  0.1129 -1.9476 -1.4999
 6032SOL     OW23931   9.320  10.172   1.200 -0.5462  0.7368 -0.5275
 6032SOL    HW123932   9.353  10.190   1.288  1.5132  0.4481 -1.1704
 6032SOL    HW223933   9.334  10.078   1.188 -0.8338  0.7667 -1.1410
 6033SOL     OW23934   1.334   5.938  10.715  0.0204  0.3022  0.6440
 6033SOL    HW123935   1.360   5.971  10.800  0.2186  0.1911  0.6285
 6033SOL    HW223936   1.395   5.865  10.698 -1.0911 -0.7834  1.1673
 6034SOL     OW23937   4.485   9.261   7.723  0.5773  0.0194 -0.0801
 6034SOL    HW123938   4.534   9.192   7.678  2.0918  1.1193 -0.2008
 6034SOL    HW223939   4.400   9.262   7.680  1.0011 -0.8559 -0.9851
 6035SOL     OW23940   0.547   4.840   3.379  0.3165  0.3534 -0.4907
 6035SOL    HW123941   0.618   4.897   3.407 -0.5653  0.8942  0.7086
 6035SOL    HW223942   0.467   4.886   3.404 -0.4810 -0.2328 -1.8215
 6036SOL     OW23943   9.782   7.936   2.454 -0.0108 -0.2916  0.1292
 6036SOL    HW123944   9.777   8.008   2.516 -0.4408 -0.4252  0.2558
 6036SOL    HW223945   9.736   7.864   2.497 -1.9936  0.1622 -1.1086
 6037SOL     OW23946   5.478   1.388   0.837 -0.0489  0.3642  0.1774
 6037SOL    HW123947   5.509   1.317   0.892  0.0948  0.5094  0.2845
 6037SOL    HW223948   5.526   1.377   0.755  1.8334  1.7704  1.0142
 6038SOL     OW23949   4.616   1.928   0.986  0.3402  0.0297 -0.6607
 6038SOL    HW123950   4.684   1.935   1.052 -1.4751 -2.8273  1.7664
 6038SOL    HW223951   4.557   2.002   1.003  0.8324  0.3353 -0.2760
 6039SOL     OW23952   1.215   0.226   4.626 -0.4166 -0.0508  0.4881
 6039SOL    HW123953   1.263   0.286   4.569  0.1425  1.7048  2.6745
 6039SOL    HW223954   1.138   0.275   4.654 -0.6515 -0.8441  1.2859
 6040SOL     OW23955  10.186   3.486   5.556  0.1641 -0.0759  0.2850
 6040SOL    HW123956  10.261   3.523   5.510 -0.2864  0.0437 -0.3756
 6040SOL    HW223957  10.162   3.551   5.621 -0.9574  1.0849 -1.2215
 6041SOL     OW23958   2.776   7.607   6.100  0.5207  0.2144 -0.1853
 6041SOL    HW123959   2.764   7.527   6.049  0.4174  0.5779 -0.7429
 6041SOL    HW223960   2.862   7.640   6.074  1.2851 -0.5591  1.2502
 6042SOL     OW23961   4.626   7.758   7.167 -0.6024 -0.0603 -0.0690
 6042SOL    HW123962   4.646   7.828   7.229  0.1375  0.0217 -0.3947
 6042SOL    HW223963   4.539   7.781   7.134 -0.2120  0.9187 -0.4562
 6043SOL     OW23964   3.898   8.668   5.703 -0.4601 -0.1475  0.6091
 6043SOL    HW123965   3.852   8.733   5.757 -1.6667 -0.5454  0.0976
 6043SOL    HW223966   3.974   8.715   5.670 -1.4370  1.1139  0.0524
 6044SOL     OW23967   4.934   7.687   5.278  0.6411  0.5197 -0.2509
 6044SOL    HW123968   4.993   7.678   5.353 -0.5290 -1.5009  0.5319
 6044SOL    HW223969   4.977   7.639   5.207  0.6790  0.4113 -0.1552
 6045SOL     OW23970   5.736   0.461   5.919 -0.4700 -0.3054 -0.6712
 6045SOL    HW123971   5.675   0.533   5.902 -2.4583 -1.8173 -0.3384
 6045SOL    HW223972   5.730   0.405   5.842  0.3069 -0.6364 -0.5029
 6046SOL     OW23973   8.105   9.823   2.499  0.3018 -0.2617  0.2674
 6046SOL    HW123974   8.137   9.820   2.409  0.1896 -0.8923  0.2476
 6046SOL    HW223975   8.053   9.904   2.503  2.1066  0.9463  0.3848
 6047SOL     OW23976   6.242   8.125   2.954  0.0606  0.1743 -0.0811
 6047SOL    HW123977   6.231   8.220   2.958  0.4605  0.1916  0.8479
 6047SOL    HW223978   6.327   8.112   2.912  0.2413  0.2406  0.2635
 6048SOL     OW23979   1.633   4.525   1.732 -0.2099  0.1690 -0.1291
 6048SOL    HW123980   1.646   4.431   1.747  0.8759 -0.0323 -2.1449
 6048SOL    HW223981   1.721   4.561   1.723 -0.4330  1.8946  2.9043
 6049SOL     OW23982  10.245   3.387   8.989 -0.6344 -0.4606  0.0649
 6049SOL    HW123983  10.337   3.405   9.008 -1.0099  0.6655  0.9794
 6049SOL    HW223984  10.226   3.438   8.910 -0.6633 -0.0243  0.3464
 6050SOL     OW23985   4.179   2.723   3.976 -0.4883  0.1920  0.8869
 6050SOL    HW123986   4.116   2.761   4.038 -2.1566 -0.3146 -0.4096
 6050SOL    HW223987   4.125   2.691   3.904  1.1185 -1.7919  0.4625
 6051SOL     OW23988   4.283   7.057   9.504 -0.3513 -0.1937 -0.3323
 6051SOL    HW123989   4.371   7.046   9.467  0.3142  0.2405  1.0625
 6051SOL    HW223990   4.256   7.144   9.475  0.2016  0.1791  0.2318
 6052SOL     OW23991   7.526   9.746   5.287 -0.2741  0.1296 -0.1302
 6052SOL    HW123992   7.432   9.737   5.304 -0.1057 -1.3671  0.1445
 6052SOL    HW223993   7.567   9.742   5.373  0.0087  1.9047 -0.1359
 6053SOL     OW23994   6.850   4.186   6.096 -0.0434 -0.3643 -0.5228
 6053SOL    HW123995   6.898   4.164   6.176  0.4202 -1.2001 -1.0107
 6053SOL    HW223996   6.910   4.242   6.047  0.2456 -0.9753 -0.8911
 6054SOL     OW23997   9.040   0.674   2.140 -0.5132 -0.3646  0.3631
 6054SOL    HW123998   9.049   0.748   2.080 -3.0771 -0.7731 -0.6481
 6054SOL    HW223999   8.968   0.698   2.197 -0.5286 -1.5457  0.8633
 6055SOL     OW24000   1.679   2.562   2.579 -0.3112 -0.1820 -0.2146
 6055SOL    HW124001   1.725   2.540   2.661  0.8186 -0.0016 -0.7773
 6055SOL    HW224002   1.749   2.574   2.515 -1.0701  1.5296 -0.7822
 6056SOL     OW24003   2.487   7.507  10.096 -0.2104  0.4277 -0.0724
 6056SOL    HW124004   2.497   7.548  10.010  1.4273  0.1679 -0.0355
 6056SOL    HW224005   2.458   7.418  10.077 -1.6297  0.9153 -0.2546
 6057SOL     OW24006   6.167   3.788   2.437 -0.1156 -0.2478  0.2437
 6057SOL    HW124007   6.142   3.873   2.473 -2.7188 -1.0444  0.5175
 6057SOL    HW224008   6.144   3.795   2.344  1.5531 -0.0313 -0.1916
 6058SOL     OW24009  10.372   3.638   7.536 -0.1926  0.1866  0.1814
 6058SOL    HW124010  10.368   3.720   7.586  1.1207  0.8642 -0.7727
 6058SOL    HW224011  10.314   3.653   7.461  2.1214  1.3842 -1.5023
 6059SOL     OW24012   7.244   1.531   3.421 -0.0545 -1.2341 -0.3921
 6059SOL    HW124013   7.283   1.522   3.508  1.8574  1.4829 -0.8378
 6059SOL    HW224014   7.181   1.603   3.430 -0.7972 -1.7956 -0.9853
 6060SOL     OW24015   4.307   9.510   1.882  0.6203 -0.3484  0.3309
 6060SOL    HW124016   4.326   9.460   1.802 -0.5425 -0.4371  0.0993
 6060SOL    HW224017   4.355   9.592   1.871  1.0731 -0.6627 -0.1125
 6061SOL     OW24018   4.233   5.965   0.367 -0.3985 -0.3265  0.0343
 6061SOL    HW124019   4.287   6.041   0.343 -1.1310 -0.4456 -2.2621
 6061SOL    HW224020   4.144   5.999   0.365 -0.7133 -1.1756 -0.7896
 6062SOL     OW24021  10.200  10.532   5.207  0.1640  0.2938  0.3070
 6062SOL    HW124022  10.165  10.582   5.134  0.1461  0.1378  0.2078
 6062SOL    HW224023  10.294  10.552   5.206  0.7275 -1.9342 -1.5842
 6063SOL     OW24024   7.594   7.123   9.215  0.2787 -0.4540  0.5564
 6063SOL    HW124025   7.640   7.193   9.168 -0.3854 -0.2307  0.2386
 6063SOL    HW224026   7.633   7.043   9.181 -1.3982 -0.3888 -1.7490
 6064SOL     OW24027   1.405   2.321   5.913 -0.2779 -0.4916  0.0665
 6064SOL    HW124028   1.327   2.313   5.858 -0.4045  1.3983 -0.0761
 6064SOL    HW224029   1.474   2.276   5.864 -0.5094  0.6929 -1.4142
 6065SOL     OW24030   8.571   8.313   4.676 -0.1137 -0.1029 -0.4909
 6065SOL    HW124031   8.627   8.361   4.738 -1.3804  0.1177  0.5253
 6065SOL    HW224032   8.485   8.354   4.685 -1.1109 -2.1395 -0.0380
 6066SOL     OW24033   6.203   0.132   6.481 -0.1462 -0.1127  0.8669
 6066SOL    HW124034   6.220   0.185   6.403 -0.6197  1.1089  1.5482
 6066SOL    HW224035   6.152   0.190   6.538 -0.1382 -1.1032  1.9230
 6067SOL     OW24036   1.965   6.435   0.219 -0.0915 -0.3445  0.0269
 6067SOL    HW124037   1.894   6.455   0.280 -1.2153 -0.0686 -1.3341
 6067SOL    HW224038   1.946   6.488   0.142  0.8921 -1.2554 -0.8632
 6068SOL     OW24039   6.707   2.398   1.993  0.2876  0.0475 -0.5528
 6068SOL    HW124040   6.645   2.465   2.021  1.0198  0.5019  0.0349
 6068SOL    HW224041   6.684   2.380   1.902 -0.5712  0.3470 -0.3997
 6069SOL     OW24042   0.459   9.513  10.060  0.1200 -0.0744  0.4898
 6069SOL    HW124043   0.452   9.602  10.027 -2.5921 -0.1767  0.5703
 6069SOL    HW224044   0.520   9.470   9.999  0.9597  1.6319  0.0638
 6070SOL     OW24045   4.242   7.719   4.534  0.2041 -0.4453 -0.3578
 6070SOL    HW124046   4.256   7.637   4.581  0.5480 -0.5124 -0.5759
 6070SOL    HW224047   4.301   7.781   4.577  0.9822 -0.6604 -1.0983
 6071SOL     OW24048   8.100   2.821   9.926 -0.1331  0.5251 -0.0802
 6071SOL    HW124049   8.040   2.753   9.895  1.1414 -0.6378 -0.0434
 6071SOL    HW224050   8.124   2.869   9.847  0.9826 -0.7198 -0.5213
 6072SOL     OW24051  10.192   7.240   2.491  0.1182 -0.6335  0.8266
 6072SOL    HW124052  10.135   7.186   2.438  1.8396 -1.4777 -0.2482
 6072SOL    HW224053  10.155   7.235   2.579 -1.4620 -1.0919  0.1632
 6073SOL     OW24054   9.960   2.180   2.179 -0.1157  0.0062  0.1140
 6073SOL    HW124055   9.991   2.103   2.227  0.7302  1.1432  1.4721
 6073SOL    HW224056   9.918   2.235   2.245 -0.5464  0.8070 -0.7966
 6074SOL     OW24057  10.325   5.188   3.526  0.3999 -0.3665 -0.5967
 6074SOL    HW124058  10.389   5.259   3.530 -0.1378  0.2124 -1.7297
 6074SOL    HW224059  10.265   5.214   3.456  0.5783 -2.2363 -1.5065
 6075SOL     OW24060   7.420   9.430   5.073  0.4197 -0.0789  0.0470
 6075SOL    HW124061   7.329   9.423   5.102  0.3895  1.1356  0.2979
 6075SOL    HW224062   7.415   9.480   4.991  0.9820  1.7027  1.0334
 6076SOL     OW24063   8.100   3.859   4.691 -0.3245 -0.6495  0.1597
 6076SOL    HW124064   8.014   3.901   4.686  0.1409  0.3509  0.1616
 6076SOL    HW224065   8.089   3.774   4.648 -1.5359 -0.9291  0.9878
 6077SOL     OW24066   0.721   0.994   1.766 -0.8192  0.2917  0.4746
 6077SOL    HW124067   0.738   0.944   1.687 -2.8869 -0.3009  0.3408
 6077SOL    HW224068   0.747   1.084   1.744  1.8512 -0.4434  0.3383
 6078SOL     OW24069   6.829   7.352   1.136  0.1562 -0.2162 -0.0712
 6078SOL    HW124070   6.793   7.418   1.195  1.8267  0.5617  0.1313
 6078SOL    HW224071   6.819   7.389   1.049  0.1374 -0.1691 -0.0490
 6079SOL     OW24072   0.007   7.709   3.395 -0.3676  0.2189 -0.5663
 6079SOL    HW124073   0.004   7.777   3.463  0.2341 -0.9386  0.6687
 6079SOL    HW224074   0.094   7.670   3.404  0.0870  0.6564 -2.6649
 6080SOL     OW24075   7.638   4.819   8.189  0.6954 -0.5712  0.1015
 6080SOL    HW124076   7.697   4.861   8.252 -0.2222 -0.6430  1.0334
 6080SOL    HW224077   7.696   4.790   8.118  1.3997  2.3873 -0.7086
 6081SOL     OW24078   1.944   5.684   0.301  0.5404 -0.1992  0.0035
 6081SOL    HW124079   1.991   5.602   0.313 -1.1321 -0.9773  1.6947
 6081SOL    HW224080   1.857   5.668   0.338  0.0103  2.1854 -0.0260
 6082SOL     OW24081   4.784   7.399   7.665 -0.2790 -0.2199 -0.0126
 6082SOL    HW124082   4.810   7.420   7.575 -1.0950 -0.6236 -0.3493
 6082SOL    HW224083   4.829   7.316   7.684 -0.2879 -0.2515 -0.1295
 6083SOL     OW24084   9.925   8.670   9.522  0.6729  0.2516 -0.2713
 6083SOL    HW124085   9.930   8.579   9.491 -1.4314 -0.8927  2.3517
 6083SOL    HW224086   9.996   8.715   9.475  2.3146 -2.8958 -1.0984
 6084SOL     OW24087  10.700   9.843   0.238  1.0839 -0.1608 -0.1463
 6084SOL    HW124088  10.685   9.811   0.327 -2.0354 -1.5440 -1.0393
 6084SOL    HW224089  10.699   9.939   0.247  3.3255 -0.2093  1.5525
 6085SOL     OW24090   7.917   1.921   1.497  0.0898  0.6120 -0.3170
 6085SOL    HW124091   7.839   1.904   1.443 -1.3014  0.3691  1.6854
 6085SOL    HW224092   7.966   1.839   1.495 -0.4916  0.2637 -0.3592
 6086SOL     OW24093   8.224   7.747   1.433  0.5141 -0.4523 -0.7327
 6086SOL    HW124094   8.147   7.782   1.388 -1.2738 -3.3372 -0.2263
 6086SOL    HW224095   8.188   7.681   1.493  3.1393  0.4431  2.0594
 6087SOL     OW24096   4.351   4.150   5.501  0.1667 -0.3822  0.0935
 6087SOL    HW124097   4.384   4.209   5.433 -0.7397  0.7922  0.6537
 6087SOL    HW224098   4.305   4.081   5.452 -1.4624  1.0482 -0.4893
 6088SOL     OW24099   2.242   2.724   4.093 -0.0543  0.3380 -0.4465
 6088SOL    HW124100   2.194   2.796   4.134  0.8132  0.5456  0.2344
 6088SOL    HW224101   2.325   2.721   4.140 -0.1394 -1.2291 -0.3491
 6089SOL     OW24102   2.466   5.409   9.824  0.0819 -0.4150 -0.1330
 6089SOL    HW124103   2.487   5.321   9.855  0.1616 -0.5425 -0.5409
 6089SOL    HW224104   2.547   5.458   9.832  0.5737 -0.9075 -1.7107
 6090SOL     OW24105   1.798   9.109   6.891 -0.4952  0.5841  0.3368
 6090SOL    HW124106   1.830   9.189   6.850  0.6249  0.2494  0.5212
 6090SOL    HW224107   1.815   9.121   6.984 -0.1468  0.0733  0.3492
 6091SOL     OW24108   4.068   5.106   6.427  0.4302  0.8632  0.4162
 6091SOL    HW124109   4.069   5.091   6.333 -0.0613  1.6395  0.2791
 6091SOL    HW224110   3.996   5.168   6.441 -0.4944 -0.3892  1.4793
 6092SOL     OW24111   9.160   9.409   3.811 -0.1641 -0.5320 -0.2173
 6092SOL    HW124112   9.120   9.355   3.743  1.6964  1.4685 -3.1320
 6092SOL    HW224113   9.108   9.489   3.812  1.4680  0.6024 -1.4244
 6093SOL     OW24114   5.378   5.125   0.417  0.1655  0.3519 -0.6266
 6093SOL    HW124115   5.366   5.030   0.423 -2.1112  0.6574  0.6924
 6093SOL    HW224116   5.381   5.142   0.323  1.2473 -1.0642 -0.8898
 6094SOL     OW24117   6.897   3.825   9.462  0.1572  0.2780  0.0820
 6094SOL    HW124118   6.828   3.853   9.522  0.2177 -1.4956  1.0638
 6094SOL    HW224119   6.978   3.840   9.511  0.3176  0.2162 -0.1636
 6095SOL     OW24120   9.163   5.161   9.565  0.5527 -0.0318  0.0200
 6095SOL    HW124121   9.228   5.163   9.635  1.6513  0.8129 -0.9907
 6095SOL    HW224122   9.142   5.253   9.549  0.8566 -0.1588 -1.2310
 6096SOL     OW24123   5.583   1.298   3.193 -0.0129  0.1451 -0.1500
 6096SOL    HW124124   5.502   1.300   3.142 -0.8974  1.9905  1.2109
 6096SOL    HW224125   5.588   1.208   3.227 -1.9478  0.1971  0.4002
 6097SOL     OW24126   0.656   0.119   0.127 -0.2817 -0.3685  0.0055
 6097SOL    HW124127   0.691   0.045   0.178  0.2465  0.1553  0.4176
 6097SOL    HW224128   0.705   0.195   0.159  0.1557 -0.0497 -1.3771
 6098SOL     OW24129   7.337   7.118   8.022  0.0131  0.0501  0.2659
 6098SOL    HW124130   7.372   7.192   8.071  1.8401 -0.3829 -0.2826
 6098SOL    HW224131   7.412   7.086   7.971 -0.5417 -2.5299  0.9304
 6099SOL     OW24132   3.215  10.218   5.007  0.0176 -0.5967  0.4057
 6099SOL    HW124133   3.198  10.296   4.954  0.7537  0.8255  2.1477
 6099SOL    HW224134   3.129  10.180   5.022 -0.4228  0.2041 -0.0171
 6100SOL     OW24135   1.702   6.906   3.836  0.3285 -0.0627 -0.1997
 6100SOL    HW124136   1.728   6.983   3.787  2.7441  0.9206  2.3482
 6100SOL    HW224137   1.641   6.940   3.902 -0.8883 -0.9157 -0.8363
 6101SOL     OW24138   3.563  10.188   4.526 -0.6178 -0.3659  0.1838
 6101SOL    HW124139   3.497  10.216   4.462  0.5053  2.7882  0.2237
 6101SOL    HW224140   3.631  10.146   4.474  0.3630  2.3154 -0.8550
 6102SOL     OW24141   8.703   4.402   6.009 -0.3915 -0.3802 -0.1221
 6102SOL    HW124142   8.785   4.371   5.969  0.0277 -0.0095  0.4286
 6102SOL    HW224143   8.645   4.327   6.006  0.5158 -1.1651  0.9626
 6103SOL     OW24144   5.955   6.367   6.063  0.2661  0.0290  0.5569
 6103SOL    HW124145   5.874   6.418   6.057  0.1529 -0.0597  1.2159
 6103SOL    HW224146   5.983   6.377   6.154  0.0854 -1.2906  0.7860
 6104SOL     OW24147   6.690   9.814   0.075 -0.2507 -0.4340 -0.1471
 6104SOL    HW124148   6.602   9.778   0.087 -0.2913 -0.1155  0.5475
 6104SOL    HW224149   6.677   9.893   0.022 -0.1682 -1.3729 -1.6374
 6105SOL     OW24150   0.985   6.127   3.687 -0.4028  0.1470  0.1364
 6105SOL    HW124151   1.045   6.108   3.614 -0.8991 -0.8153 -0.0527
 6105SOL    HW224152   0.938   6.205   3.659 -0.8920 -0.4520 -0.7998
 6106SOL     OW24153  10.569   1.443   1.447 -0.0056 -0.9478 -0.1472
 6106SOL    HW124154  10.542   1.484   1.365 -1.1797 -0.3418  0.5155
 6106SOL    HW224155  10.488   1.413   1.487  0.6955 -2.6656  0.0772
 6107SOL     OW24156   5.766   4.702   6.047  0.0060 -0.3886 -0.0808
 6107SOL    HW124157   5.719   4.771   6.002  0.5938 -0.0561 -0.2024
 6107SOL    HW224158   5.729   4.620   6.014  0.2945 -0.1465 -1.0146
 6108SOL     OW24159   5.938   6.451   6.887  0.3706  0.3086 -0.0772
 6108SOL    HW124160   5.937   6.543   6.863  0.9647 -0.4915 -3.7185
 6108SOL    HW224161   5.852   6.418   6.862  1.2864 -0.7369 -2.1370
 6109SOL     OW24162   3.120   5.386   3.353 -0.2490  0.2326  0.5602
 6109SOL    HW124163   3.135   5.464   3.300  0.2181 -0.7760 -0.8731
 6109SOL    HW224164   3.103   5.419   3.441 -0.8398  1.9743 -0.1588
 6110SOL     OW24165   1.357  10.146  10.593  0.1866 -0.1042 -0.6148
 6110SOL    HW124166   1.354  10.241  10.598  2.0298  0.1331 -2.7696
 6110SOL    HW224167   1.386  10.118  10.680 -1.4241  1.1694  0.3866
 6111SOL     OW24168   1.075   9.598   1.902  0.0784 -0.5149 -0.6429
 6111SOL    HW124169   1.088   9.528   1.966  0.6228  1.5407  1.6601
 6111SOL    HW224170   1.161   9.610   1.862  1.1901  1.5742  2.0859
 6112SOL     OW24171  10.505   7.590  10.559 -0.4863 -0.2035  0.4386
 6112SOL    HW124172  10.554   7.619  10.636 -0.8726 -0.6869  0.8662
 6112SOL    HW224173  10.572   7.579  10.491  0.0029 -0.8406  1.0093
 6113SOL     OW24174   6.405   2.790   2.757 -0.0364 -0.3987 -0.1571
 6113SOL    HW124175   6.437   2.854   2.821 -1.7020 -0.8309  1.1729
 6113SOL    HW224176   6.365   2.843   2.688 -0.9355  0.0264  0.6736
 6114SOL     OW24177   1.389   5.884   6.684 -0.3479 -0.0668  0.2358
 6114SOL    HW124178   1.413   5.796   6.714 -1.6392 -0.0095  1.5880
 6114SOL    HW224179   1.413   5.941   6.757 -1.8843  0.3346  0.4619
 6115SOL     OW24180   4.199   7.629   1.594  0.2212 -0.2733 -0.3197
 6115SOL    HW124181   4.130   7.596   1.651 -0.4649 -1.2067 -1.6595
 6115SOL    HW224182   4.266   7.661   1.654 -0.0014 -2.1941  1.0246
 6116SOL     OW24183   8.739   6.134   1.229 -0.6548  0.2119 -0.1889
 6116SOL    HW124184   8.762   6.216   1.272  1.1205 -0.2746 -0.1286
 6116SOL    HW224185   8.687   6.086   1.293  0.6129  0.1673  0.8540
 6117SOL     OW24186   9.208   9.397   6.752 -0.2783 -0.7096  0.1313
 6117SOL    HW124187   9.140   9.398   6.819 -2.2898  0.3069 -1.7988
 6117SOL    HW224188   9.200   9.482   6.709  2.3265 -0.5141 -0.1332
 6118SOL     OW24189   1.391   2.209   3.224 -0.0877  0.0166 -0.2434
 6118SOL    HW124190   1.396   2.301   3.197  0.7625 -0.1714 -0.7383
 6118SOL    HW224191   1.312   2.177   3.181 -1.6408  1.0633  1.6737
 6119SOL     OW24192   5.059   0.080   8.353  0.1071  0.0708 -0.2077
 6119SOL    HW124193   5.074   0.170   8.382 -1.3211 -0.1578  1.4029
 6119SOL    HW224194   4.980   0.084   8.300  0.2273 -0.2043 -0.4138
 6120SOL     OW24195   2.666   5.065   3.588  0.1772 -0.3603 -0.5310
 6120SOL    HW124196   2.600   5.134   3.592  0.7645  0.1738 -0.0971
 6120SOL    HW224197   2.748   5.110   3.569  0.5509 -0.9488 -0.3468
 6121SOL     OW24198  10.717   4.096   6.621 -0.0049  0.4456 -0.1750
 6121SOL    HW124199  10.728   4.161   6.691 -0.9831  1.0789 -0.5887
 6121SOL    HW224200  10.731   4.145   6.540 -0.6961  0.1370 -0.4886
 6122SOL     OW24201   8.874   4.209   2.863  0.5141  0.2681 -0.5936
 6122SOL    HW124202   8.791   4.170   2.890  1.3933  0.1551  2.2123
 6122SOL    HW224203   8.917   4.140   2.812 -0.5904 -0.1001 -1.0538
 6123SOL     OW24204   0.604   0.011   0.860 -0.5845  0.0656 -0.7908
 6123SOL    HW124205   0.599  -0.077   0.899 -0.5845  1.4202  2.6621
 6123SOL    HW224206   0.525   0.055   0.890 -0.1860  1.5081 -1.7563
 6124SOL     OW24207   7.979   9.976   8.484  0.4682 -0.1872  0.2814
 6124SOL    HW124208   7.999  10.020   8.401  1.5160 -1.4342 -0.1685
 6124SOL    HW224209   7.953   9.888   8.458  1.1601 -0.7075  1.2912
 6125SOL     OW24210   8.870   2.341   8.788 -0.1940 -0.0206 -0.2003
 6125SOL    HW124211   8.862   2.365   8.696  1.2663 -1.0151 -0.6232
 6125SOL    HW224212   8.944   2.392   8.821 -1.0129  0.6972  0.5686
 6126SOL     OW24213   4.791   2.938   5.376 -0.0160  0.0333  0.6072
 6126SOL    HW124214   4.789   2.899   5.464  1.0003 -0.3533  0.4725
 6126SOL    HW224215   4.872   2.989   5.375 -0.9404  1.5694  0.5151
 6127SOL     OW24216   5.057   0.480   8.702 -0.0614  0.1831 -0.7820
 6127SOL    HW124217   5.024   0.390   8.695 -0.9953  0.4639 -0.2132
 6127SOL    HW224218   5.073   0.492   8.795 -0.9631  0.9386 -0.7063
 6128SOL     OW24219   7.102   6.431   0.821 -0.8200 -0.0095  0.2566
 6128SOL    HW124220   7.174   6.489   0.846  0.0432 -1.2955  0.8369
 6128SOL    HW224221   7.143   6.366   0.764 -1.8475  0.1446 -0.6887
 6129SOL     OW24222  10.092  10.313   7.238  0.2505 -0.1587  0.4763
 6129SOL    HW124223  10.089  10.268   7.323  0.3974 -1.3941 -0.1440
 6129SOL    HW224224  10.184  10.340   7.230  0.2112  0.0705  0.7604
 6130SOL     OW24225  10.606   4.866   6.163  0.2476 -0.2849 -0.4179
 6130SOL    HW124226  10.529   4.900   6.208 -0.1243  0.3503 -1.5043
 6130SOL    HW224227  10.671   4.854   6.233 -0.6608 -0.3711  0.4416
 6131SOL     OW24228   8.429  10.523   0.006  0.0153  0.1624  1.0883
 6131SOL    HW124229   8.359  10.564   0.056  0.1473  1.1333  0.5247
 6131SOL    HW224230   8.394  10.438  -0.021 -1.0712  0.7570  0.5491
 6132SOL     OW24231   1.439   7.205  10.092 -1.2913 -0.5857  0.3250
 6132SOL    HW124232   1.371   7.158  10.044 -1.3446 -0.3051  0.1201
 6132SOL    HW224233   1.521   7.162  10.066 -1.2075  0.2934 -0.9194
 6133SOL     OW24234   6.357   2.418   8.510 -0.2954  0.6043  0.2853
 6133SOL    HW124235   6.300   2.452   8.442 -1.6069  1.6118  1.8155
 6133SOL    HW224236   6.298   2.380   8.574  0.9380 -0.8575  0.6117
 6134SOL     OW24237   0.882   3.123   0.837 -0.6867  0.0997 -0.6098
 6134SOL    HW124238   0.826   3.083   0.771 -0.9218 -1.1160  0.2843
 6134SOL    HW224239   0.971   3.114   0.803 -0.9155  0.8670 -1.4419
 6135SOL     OW24240   9.365   4.013   3.974  0.3456  0.0523  0.0896
 6135SOL    HW124241   9.401   4.081   3.917  1.4146 -0.1981  0.4280
 6135SOL    HW224242   9.340   4.059   4.054 -0.2271  0.2518 -0.2018
 6136SOL     OW24243   3.869  10.128   7.061  0.4622 -0.1720 -0.0118
 6136SOL    HW124244   3.924  10.063   7.018  0.7156  0.6630 -0.9950
 6136SOL    HW224245   3.927  10.202   7.079 -0.0989  0.3316 -0.1860
 6137SOL     OW24246   0.858   1.238   6.250  0.2123 -0.2581 -0.3552
 6137SOL    HW124247   0.869   1.203   6.338  0.8508 -0.5059 -0.5260
 6137SOL    HW224248   0.767   1.268   6.247 -0.0450 -0.9743  0.1238
 6138SOL     OW24249   7.791   9.089   5.353 -0.3870  0.2107  0.0894
 6138SOL    HW124250   7.744   9.076   5.435  0.0997 -0.5671  0.2524
 6138SOL    HW224251   7.737   9.152   5.304 -0.5372  0.8999  1.1156
 6139SOL     OW24252   4.541   3.549   1.940 -0.1688 -0.8553 -0.4023
 6139SOL    HW124253   4.615   3.501   1.977  0.9151  0.0640 -1.2812
 6139SOL    HW224254   4.581   3.625   1.896 -1.7203  0.2091 -0.0620
 6140SOL     OW24255   1.615   6.576   8.231  0.0130  0.4751 -0.1835
 6140SOL    HW124256   1.708   6.596   8.238 -0.2403  1.6095  0.3248
 6140SOL    HW224257   1.572   6.645   8.282 -1.0226 -0.9510  0.9689
 6141SOL     OW24258   4.402   3.987   3.647 -0.4811 -0.5870 -0.6863
 6141SOL    HW124259   4.332   3.973   3.583 -1.5322 -0.2276  0.3438
 6141SOL    HW224260   4.361   3.968   3.732  0.7972 -0.7877 -0.0825
 6142SOL     OW24261   7.248   5.253   9.927 -0.6344 -0.1089  0.0645
 6142SOL    HW124262   7.252   5.300  10.010  0.0440 -0.9133  0.4999
 6142SOL    HW224263   7.295   5.309   9.865  0.6079 -0.4377  0.6944
 6143SOL     OW24264   5.843   1.569   7.910 -0.7288 -0.2929 -0.0323
 6143SOL    HW124265   5.931   1.564   7.873 -0.5529  0.7678  0.2302
 6143SOL    HW224266   5.832   1.486   7.956  0.2010 -0.3577  0.0816
 6144SOL     OW24267   8.278   2.536   2.290 -0.7671  0.4613  0.0506
 6144SOL    HW124268   8.276   2.484   2.209 -1.9720  1.0487 -0.3228
 6144SOL    HW224269   8.340   2.490   2.346 -0.8106 -0.6391 -0.7559
 6145SOL     OW24270   7.407   9.049   5.291  0.0374  0.2250 -0.4383
 6145SOL    HW124271   7.454   9.018   5.368  0.4136 -1.8573 -1.4239
 6145SOL    HW224272   7.456   9.014   5.217 -2.4765 -1.2669 -1.5336
 6146SOL     OW24273   6.284   9.556   8.445  0.1674  0.5197 -0.0625
 6146SOL    HW124274   6.367   9.603   8.448  1.2529 -1.3649  1.5038
 6146SOL    HW224275   6.246   9.570   8.532  0.6659 -1.6484  0.5657
 6147SOL     OW24276   1.243   8.410   4.848  0.7072  0.1190 -0.3295
 6147SOL    HW124277   1.319   8.418   4.790  0.8660  0.1832 -0.1128
 6147SOL    HW224278   1.214   8.319   4.836  0.0818  0.4238 -1.3145
 6148SOL     OW24279   2.541   9.104   5.523 -0.4903 -0.3998 -0.1491
 6148SOL    HW124280   2.587   9.020   5.517  1.3200  0.5681 -0.3680
 6148SOL    HW224281   2.587   9.152   5.591  0.6324  1.6445 -2.2203
 6149SOL     OW24282   6.954   5.039   5.587  0.3747  0.1580  0.2772
 6149SOL    HW124283   6.953   5.119   5.639 -0.9545  1.3446 -1.4672
 6149SOL    HW224284   6.869   4.998   5.603 -0.2743  0.8085 -1.2657
 6150SOL     OW24285   8.026   6.349   2.056  0.7550  0.7486  0.4722
 6150SOL    HW124286   8.118   6.331   2.034  0.5368  1.3325 -1.0234
 6150SOL    HW224287   7.995   6.269   2.099  1.6614  0.1488  0.0293
 6151SOL     OW24288   9.558   6.816   9.722  0.1336  0.4136 -0.4921
 6151SOL    HW124289   9.609   6.858   9.791 -0.5428  0.9907 -0.3264
 6151SOL    HW224290   9.496   6.759   9.770 -0.2377  0.7023 -0.6247
 6152SOL     OW24291   6.751   5.734   2.003 -0.0762 -0.1380  0.2915
 6152SOL    HW124292   6.785   5.751   2.091 -0.8708 -0.4431  0.6703
 6152SOL    HW224293   6.828   5.714   1.951  0.2488 -1.8302  1.3619
 6153SOL     OW24294   6.141   0.129   6.110 -0.8303 -0.4768  0.4837
 6153SOL    HW124295   6.070   0.075   6.145 -0.9733  1.3021  3.2165
 6153SOL    HW224296   6.221   0.087   6.140 -0.8513 -0.4327  0.5996
 6154SOL     OW24297   1.443   2.079   4.262  0.4197  0.3132  0.2859
 6154SOL    HW124298   1.378   2.010   4.252  0.1325  0.8161 -1.6120
 6154SOL    HW224299   1.475   2.068   4.352 -0.8995 -1.1320  0.6291
 6155SOL     OW24300   4.618   1.039   1.214  0.0401 -0.5693  0.2773
 6155SOL    HW124301   4.636   0.968   1.275  2.2166 -1.1985 -1.0216
 6155SOL    HW224302   4.551   1.004   1.155 -1.6231 -0.1679  1.8089
 6156SOL     OW24303   0.198   6.527   0.485 -0.7512 -0.4557  0.1569
 6156SOL    HW124304   0.187   6.622   0.486  1.1755 -0.1037 -1.9184
 6156SOL    HW224305   0.283   6.512   0.527 -1.4142 -1.3639  1.2203
 6157SOL     OW24306   6.293   2.202   3.116 -0.4496  0.1140  0.3286
 6157SOL    HW124307   6.356   2.204   3.044 -1.1063 -0.2268 -0.2644
 6157SOL    HW224308   6.346   2.216   3.195  0.1063  2.0639 -0.3280
 6158SOL     OW24309  10.049   9.789   4.268 -0.5210  0.5090 -0.2795
 6158SOL    HW124310  10.080   9.790   4.358 -1.4069  0.8508  0.0321
 6158SOL    HW224311   9.954   9.799   4.275 -0.7295 -0.6108 -1.1922
 6159SOL     OW24312   2.510   8.888   8.046  0.4695  0.1199 -0.3441
 6159SOL    HW124313   2.470   8.816   7.997 -0.0151 -0.7310  1.2103
 6159SOL    HW224314   2.570   8.844   8.106  0.9157  1.1124 -0.0547
 6160SOL     OW24315   2.929   7.943   8.585 -0.2997 -0.3377 -0.5220
 6160SOL    HW124316   2.842   7.904   8.595 -0.5877  0.2426 -0.6925
 6160SOL    HW224317   2.930   7.975   8.494 -0.3756  0.7469 -0.1548
 6161SOL     OW24318   8.556   8.167   9.794  0.2482  0.2035 -0.0192
 6161SOL    HW124319   8.558   8.081   9.835  1.7680  0.6258  0.8527
 6161SOL    HW224320   8.605   8.156   9.712 -0.2832  0.0566 -0.3244
 6162SOL     OW24321  10.177  10.723   6.305  0.8197 -0.1793  0.7630
 6162SOL    HW124322  10.142  10.812   6.297  1.0315 -0.2344 -1.6484
 6162SOL    HW224323  10.270  10.733   6.281  0.9409 -0.9819  0.8909
 6163SOL     OW24324   2.255   9.188   1.503  0.2820  0.3349  0.1667
 6163SOL    HW124325   2.288   9.269   1.543  1.2062 -0.7450  1.6971
 6163SOL    HW224326   2.262   9.123   1.572 -0.2113 -1.1232 -1.1122
 6164SOL     OW24327  10.553   7.897   8.881  0.6900 -0.3366 -0.4178
 6164SOL    HW124328  10.648   7.908   8.874  0.6593 -0.5206 -1.2228
 6164SOL    HW224329  10.518   7.944   8.805 -0.1163  2.8275  1.6839
 6165SOL     OW24330   4.423   6.161   3.552  0.1732 -0.1990  0.2283
 6165SOL    HW124331   4.479   6.110   3.611  0.4761 -0.6432 -0.4368
 6165SOL    HW224332   4.451   6.136   3.464 -0.6112  0.0914 -0.1102
 6166SOL     OW24333   6.997   0.821   4.048  0.1822 -0.2414 -0.6515
 6166SOL    HW124334   7.055   0.768   3.993 -0.8330 -1.2984 -0.7537
 6166SOL    HW224335   7.012   0.911   4.020  0.9088 -0.6043 -1.4769
 6167SOL     OW24336   4.468   2.480   0.390  0.1135 -0.7268 -0.3733
 6167SOL    HW124337   4.548   2.521   0.356  0.8154  0.9858  2.8830
 6167SOL    HW224338   4.499   2.399   0.431  0.7414  0.9561  2.7877
 6168SOL     OW24339   7.660   9.311   9.954  0.5518 -0.6376 -0.4975
 6168SOL    HW124340   7.734   9.363   9.926  0.6739  0.6238  1.8791
 6168SOL    HW224341   7.697   9.227   9.980  1.2044  0.0150  0.7542
 6169SOL     OW24342  10.438   2.278   1.577  0.2330 -0.7289 -0.1062
 6169SOL    HW124343  10.405   2.209   1.636  1.1980 -0.7223  0.4605
 6169SOL    HW224344  10.457   2.233   1.495  2.3529 -1.4818  0.7468
 6170SOL     OW24345   0.316   6.425   0.829 -0.1278  0.0154  0.0288
 6170SOL    HW124346   0.288   6.507   0.788  1.4034  1.1712  1.1928
 6170SOL    HW224347   0.371   6.451   0.902  1.5178 -2.0524 -0.3394
 6171SOL     OW24348   0.223   7.230   1.383 -0.0156 -0.5019  0.6053
 6171SOL    HW124349   0.208   7.146   1.426  0.1253 -0.5633  0.5333
 6171SOL    HW224350   0.148   7.241   1.325 -2.0323  1.1311  3.2583
 6172SOL     OW24351   7.001   3.571   1.450 -0.0026  0.0275 -0.4901
 6172SOL    HW124352   7.015   3.513   1.376  1.2325 -0.1107 -0.1721
 6172SOL    HW224353   6.998   3.659   1.412 -0.2608 -0.1128 -0.7963
 6173SOL     OW24354   4.204   0.808   5.397 -0.1662 -0.5472 -0.3355
 6173SOL    HW124355   4.192   0.782   5.305  0.1806 -0.5434 -0.3825
 6173SOL    HW224356   4.258   0.887   5.392  0.4949 -0.9731 -0.0913
 6174SOL     OW24357   9.331   9.821   7.887  0.2602 -0.8438 -0.8648
 6174SOL    HW124358   9.369   9.783   7.966  0.3451  1.4626  0.2813
 6174SOL    HW224359   9.313   9.912   7.910 -2.2877 -0.7908 -2.6296
 6175SOL     OW24360   8.536   2.137   4.710 -0.0866  0.1748  0.4933
 6175SOL    HW124361   8.545   2.206   4.776 -1.7873  0.4563  0.4588
 6175SOL    HW224362   8.479   2.174   4.643 -0.4184 -0.9942  0.1000
 6176SOL     OW24363   4.175   9.955   2.249 -0.1354  0.1581 -0.0245
 6176SOL    HW124364   4.141  10.004   2.175  1.1786  0.6789 -0.3129
 6176SOL    HW224365   4.190   9.867   2.215 -0.8267  0.0313  0.0024
 6177SOL     OW24366   4.591   7.850   0.257  0.8336 -0.0862 -0.3428
 6177SOL    HW124367   4.561   7.829   0.345  0.3716  0.6706 -0.3156
 6177SOL    HW224368   4.545   7.787   0.201  2.7792 -2.0457  0.1241
 6178SOL     OW24369   3.066   4.979   9.756 -0.4979 -0.3321  0.1598
 6178SOL    HW124370   3.153   5.016   9.769 -0.4932  0.6318 -2.2148
 6178SOL    HW224371   3.080   4.903   9.700 -1.0720 -1.0641  0.9649
 6179SOL     OW24372   6.725   3.914   0.900 -0.0522 -0.2545 -0.2651
 6179SOL    HW124373   6.635   3.924   0.870  0.1233 -0.2835 -0.8315
 6179SOL    HW224374   6.749   4.001   0.932 -0.2341 -0.2099 -0.2500
 6180SOL     OW24375   2.613   9.345   5.876  0.3112 -0.0248 -0.5153
 6180SOL    HW124376   2.681   9.387   5.929 -0.5022 -0.6556  1.0928
 6180SOL    HW224377   2.570   9.283   5.936 -0.5075 -0.9460 -1.9824
 6181SOL     OW24378   5.433   1.935   9.792  0.5959 -0.1562 -0.4182
 6181SOL    HW124379   5.477   2.001   9.739  0.8850 -0.6511 -0.8056
 6181SOL    HW224380   5.359   1.981   9.832  1.5136  0.7248  0.3364
 6182SOL     OW24381   9.637   0.080   8.549  0.5382 -0.5061 -0.0251
 6182SOL    HW124382   9.664   0.103   8.638  0.6657 -0.8231  0.0200
 6182SOL    HW224383   9.636  -0.016   8.549  0.6710 -0.5056 -0.4048
 6183SOL     OW24384   5.965   1.839   6.239 -0.5210  0.1520  0.2800
 6183SOL    HW124385   5.875   1.868   6.250 -0.4774  0.2784  0.3051
 6183SOL    HW224386   6.009   1.863   6.321 -0.7911 -1.1399  0.8245
 6184SOL     OW24387   4.396   9.871   4.491 -0.1682 -0.4320 -0.4189
 6184SOL    HW124388   4.336   9.818   4.439 -0.5163 -0.1027 -0.3513
 6184SOL    HW224389   4.380   9.961   4.463  1.3327 -0.4520 -1.4767
 6185SOL     OW24390   0.957   2.385   9.882 -0.1150 -0.7058  0.5838
 6185SOL    HW124391   0.887   2.376   9.946  0.7140  0.2870  1.6943
 6185SOL    HW224392   1.037   2.386   9.935  0.5676  0.6273 -0.4164
 6186SOL     OW24393   4.256   3.030  10.612 -0.0138 -0.0846 -0.0992
 6186SOL    HW124394   4.242   2.977  10.691  0.0701  0.2576  0.1471
 6186SOL    HW224395   4.243   3.120  10.641  0.1502  0.0522 -0.4497
 6187SOL     OW24396   6.017   5.377   7.664  0.0575  0.5926 -0.5495
 6187SOL    HW124397   5.946   5.357   7.602  0.7635 -2.0692 -0.6465
 6187SOL    HW224398   6.092   5.397   7.609  0.5771 -1.3754 -0.6519
 6188SOL     OW24399   1.328   3.354   1.570  0.3764 -0.3740 -0.2554
 6188SOL    HW124400   1.253   3.394   1.526  0.1123 -0.3275  0.2275
 6188SOL    HW224401   1.370   3.426   1.617 -0.8248 -0.8287  1.6400
 6189SOL     OW24402   7.600   0.417   3.739  0.2884 -0.4217 -0.1551
 6189SOL    HW124403   7.522   0.369   3.766 -0.3619 -0.1641 -1.4957
 6189SOL    HW224404   7.600   0.411   3.643  1.2135  0.6604 -0.2425
 6190SOL     OW24405   2.808   2.495   7.288 -0.5920  0.2439 -0.0805
 6190SOL    HW124406   2.787   2.403   7.274 -0.5159  0.1335  0.5174
 6190SOL    HW224407   2.738   2.528   7.344 -0.2001  0.3455  0.3598
 6191SOL     OW24408   1.070   9.238   5.248 -0.3636 -0.0106  0.3119
 6191SOL    HW124409   1.140   9.302   5.262 -0.7309  0.5833 -0.4952
 6191SOL    HW224410   1.099   9.186   5.173 -0.3401 -0.4043  0.5906
 6192SOL     OW24411   8.190   8.769   5.326  0.1003  0.0564  0.5467
 6192SOL    HW124412   8.258   8.835   5.342  1.7411 -1.2339 -0.7454
 6192SOL    HW224413   8.223   8.689   5.366 -2.2772  0.0883  2.8995
 6193SOL     OW24414  10.375   2.592   6.296 -0.0080 -0.7246 -1.0721
 6193SOL    HW124415  10.346   2.576   6.206 -1.3680 -1.5840 -0.5263
 6193SOL    HW224416  10.297   2.574   6.349  0.8871 -0.6780  0.3127
 6194SOL     OW24417   4.752   6.751   5.016 -0.1217 -0.3004 -0.6251
 6194SOL    HW124418   4.835   6.739   5.062  0.0861 -0.1491 -0.9508
 6194SOL    HW224419   4.722   6.838   5.043  0.7570  0.4549 -1.9087
 6195SOL     OW24420   9.559   4.726   5.357  0.1287  0.4317  0.0927
 6195SOL    HW124421   9.475   4.709   5.399  0.3247  2.6061  1.4946
 6195SOL    HW224422   9.620   4.667   5.401 -0.4386 -0.4292 -0.2351
 6196SOL     OW24423   5.400   6.299   8.639 -0.5236  0.1724  0.1921
 6196SOL    HW124424   5.467   6.359   8.607 -1.2017  0.5191 -0.6334
 6196SOL    HW224425   5.449   6.222   8.670  0.2107 -0.3010 -1.9400
 6197SOL     OW24426   9.913   1.876   2.223  0.0624 -0.1440 -0.0485
 6197SOL    HW124427   9.893   1.933   2.149 -0.2033 -0.1737 -0.0003
 6197SOL    HW224428   9.991   1.914   2.263 -1.0616  1.1664  0.9886
 6198SOL     OW24429   8.243   3.879   0.911 -0.2132 -0.1958 -0.1876
 6198SOL    HW124430   8.244   3.807   0.849 -0.3733 -1.2588  0.9918
 6198SOL    HW224431   8.322   3.868   0.964  0.7606  1.6127 -1.1559
 6199SOL     OW24432   1.619   8.686   4.581 -0.4239 -0.5340 -0.3722
 6199SOL    HW124433   1.601   8.773   4.548  1.3789  0.5088  1.1972
 6199SOL    HW224434   1.624   8.630   4.504 -1.5494  0.7420 -1.3987
 6200SOL     OW24435   6.153   6.559   0.645  0.2619 -0.2123  0.1330
 6200SOL    HW124436   6.185   6.630   0.701 -1.3783  0.1225  0.6919
 6200SOL    HW224437   6.085   6.600   0.592  0.1005 -1.1083 -0.3594
 6201SOL     OW24438   7.520   4.165   3.314  0.0973  0.1901  0.0552
 6201SOL    HW124439   7.592   4.111   3.280  0.0114  0.7674 -1.0776
 6201SOL    HW224440   7.479   4.202   3.236 -0.8391  0.6331  0.7433
 6202SOL     OW24441  10.150   9.291   6.111 -0.9364  0.2606 -0.1465
 6202SOL    HW124442  10.133   9.288   6.205 -0.3229  1.4449  0.0275
 6202SOL    HW224443  10.175   9.382   6.094  0.9037 -0.3760 -1.1115
 6203SOL     OW24444   7.119   8.213   4.406  0.5502 -0.7652 -0.0554
 6203SOL    HW124445   7.175   8.237   4.332  0.0815  0.4692 -0.0212
 6203SOL    HW224446   7.095   8.122   4.388  0.4580 -0.5028 -1.4253
 6204SOL     OW24447   8.545   1.971   4.935 -0.5122 -0.0082  0.3478
 6204SOL    HW124448   8.458   1.979   4.975  0.2187 -0.0198  2.0189
 6204SOL    HW224449   8.541   2.029   4.859 -2.2126 -0.5792 -0.0425
 6205SOL     OW24450   4.061   7.474   2.314  0.3869 -0.0068 -0.2247
 6205SOL    HW124451   4.037   7.566   2.316 -2.0817 -0.4609 -2.6512
 6205SOL    HW224452   4.008   7.434   2.383  2.4014  0.4724  1.7021
 6206SOL     OW24453   2.469   7.394   2.802  0.0812  0.1063  0.1919
 6206SOL    HW124454   2.466   7.378   2.707  1.2068  0.8936  0.0083
 6206SOL    HW224455   2.520   7.475   2.811  0.0930 -0.0281  1.4854
 6207SOL     OW24456   4.513   0.701   5.081 -0.0168  0.0209 -0.3080
 6207SOL    HW124457   4.451   0.678   5.011  0.2169 -2.8976  0.3074
 6207SOL    HW224458   4.501   0.795   5.094 -0.6352  0.5538 -3.7007
 6208SOL     OW24459   3.678   7.343   3.357 -0.1241  0.0999  0.0082
 6208SOL    HW124460   3.700   7.408   3.290 -0.3135  0.2650  0.1065
 6208SOL    HW224461   3.633   7.273   3.310 -0.3491  0.2638 -0.0210
 6209SOL     OW24462   6.237   6.221   5.291 -0.6720 -0.3859 -0.2012
 6209SOL    HW124463   6.247   6.255   5.202  1.3994  0.0835  0.1658
 6209SOL    HW224464   6.157   6.262   5.324 -0.4225  0.9475 -1.1772
 6210SOL     OW24465  10.001   1.704   1.964 -0.2229  0.3518 -0.4444
 6210SOL    HW124466  10.018   1.772   2.029 -0.8362 -0.5062  0.6661
 6210SOL    HW224467  10.059   1.724   1.891  0.1985  1.5787  0.2049
 6211SOL     OW24468  10.147   6.339  10.334  0.1767  0.5205 -0.0218
 6211SOL    HW124469  10.213   6.387  10.283 -1.4336  0.4310 -2.3181
 6211SOL    HW224470  10.063   6.374  10.304 -0.9901 -2.3096 -0.3042
 6212SOL     OW24471   0.985   3.856   5.462 -0.6461 -0.1862 -0.1448
 6212SOL    HW124472   0.997   3.792   5.532  1.2346  1.2500  0.9522
 6212SOL    HW224473   0.918   3.818   5.406 -2.1195 -1.4929  2.3190
 6213SOL     OW24474  10.513   6.344   9.841  0.4499 -0.0609  0.1379
 6213SOL    HW124475  10.583   6.408   9.852  0.2697  1.1426 -3.9111
 6213SOL    HW224476  10.439   6.395   9.809 -0.3419 -1.9884 -1.3109
 6214SOL     OW24477   6.612   0.897   2.187 -0.1625  0.5098  0.4204
 6214SOL    HW124478   6.613   0.843   2.266  0.1071 -0.2352 -0.0792
 6214SOL    HW224479   6.536   0.954   2.198 -2.6488 -2.3393 -0.5541
 6215SOL     OW24480   7.018   6.977   0.611  0.0689 -0.0219  0.0532
 6215SOL    HW124481   7.036   7.053   0.666  0.3579 -1.1026  1.5119
 6215SOL    HW224482   6.933   6.997   0.570  0.2759  1.1978  0.1754
 6216SOL     OW24483   6.388   9.827   9.116 -0.1864  0.3131  0.4376
 6216SOL    HW124484   6.401   9.737   9.085  0.1874  0.5432 -0.0950
 6216SOL    HW224485   6.321   9.863   9.059  0.8362  0.8895 -0.4456
 6217SOL     OW24486   3.842   4.807   2.347 -0.2605  0.1227  0.6392
 6217SOL    HW124487   3.906   4.751   2.390  0.6575 -0.8859 -1.8962
 6217SOL    HW224488   3.757   4.767   2.368  0.3287 -1.8673 -0.4946
 6218SOL     OW24489  10.627   8.978   3.136 -0.1569 -0.3316  0.1708
 6218SOL    HW124490  10.637   8.904   3.195 -0.8471 -0.2267  0.4279
 6218SOL    HW224491  10.598   9.050   3.192  0.7474  0.1997 -0.0379
 6219SOL     OW24492   9.985   5.243   5.479 -0.3703 -0.0730  0.0928
 6219SOL    HW124493   9.990   5.184   5.404 -1.5847  1.1369 -0.9970
 6219SOL    HW224494   9.989   5.186   5.555  0.9034 -1.3384 -0.8847
 6220SOL     OW24495  10.418   4.749   6.708  0.5515  0.7243  0.8910
 6220SOL    HW124496  10.466   4.786   6.634 -0.2409  0.5740  0.2976
 6220SOL    HW224497  10.465   4.781   6.785  2.5996 -0.7234  0.3263
 6221SOL     OW24498   5.520   5.777   4.078  0.1592 -0.6357 -0.6241
 6221SOL    HW124499   5.517   5.778   4.174 -3.6276  0.8959 -0.5679
 6221SOL    HW224500   5.609   5.802   4.056  0.6932  0.7209  2.5531
 6222SOL     OW24501   0.374   2.011   8.672 -0.2532 -0.2813 -0.7640
 6222SOL    HW124502   0.323   2.081   8.631  1.4678  1.3794 -0.2185
 6222SOL    HW224503   0.402   1.955   8.600  0.0478  0.7826 -1.4960
 6223SOL     OW24504   1.368   9.730   3.836  0.5172 -0.0882 -0.0241
 6223SOL    HW124505   1.363   9.666   3.765 -0.3908 -0.9773  0.8327
 6223SOL    HW224506   1.461   9.732   3.860  0.6286 -0.7174 -0.3843
 6224SOL     OW24507  10.492   9.036   4.522 -0.4504  0.2297  0.1533
 6224SOL    HW124508  10.398   9.038   4.539 -0.3777  0.5219  0.5332
 6224SOL    HW224509  10.517   9.128   4.513 -0.1410  0.1731  0.3886
 6225SOL     OW24510   8.276  10.449   9.969  0.0661  0.1886 -0.1074
 6225SOL    HW124511   8.281  10.357   9.995 -1.2195  0.2262  0.3571
 6225SOL    HW224512   8.305  10.450   9.878 -0.9323 -0.8485 -0.4518
 6226SOL     OW24513   2.024   8.677   6.974  0.5298 -0.0557 -0.5545
 6226SOL    HW124514   2.049   8.746   6.913  0.4506 -0.3520 -0.9261
 6226SOL    HW224515   1.928   8.680   6.977  0.3460 -1.6052 -2.3392
 6227SOL     OW24516   2.566   9.026   2.668  0.6583  0.4551  0.5846
 6227SOL    HW124517   2.597   9.105   2.624  1.4170 -0.2539 -0.2097
 6227SOL    HW224518   2.622   8.956   2.634 -0.0506 -0.4437  1.1973
 6228SOL     OW24519   1.650   3.901   6.114  0.4989 -0.2673  0.7229
 6228SOL    HW124520   1.567   3.859   6.135  1.1160 -2.9391 -1.5461
 6228SOL    HW224521   1.716   3.834   6.133  1.6905  0.0947 -1.6697
 6229SOL     OW24522   4.671   5.454   7.577  0.2139  0.0042 -0.3393
 6229SOL    HW124523   4.749   5.487   7.533  1.8343 -2.1856  0.7198
 6229SOL    HW224524   4.631   5.394   7.514  1.1339 -1.2084  0.1991
 6230SOL     OW24525   0.683   1.778   6.702 -0.1689 -0.0476  0.0529
 6230SOL    HW124526   0.721   1.863   6.682 -0.3609 -0.4383 -2.1732
 6230SOL    HW224527   0.657   1.785   6.794  0.3751  2.0712  0.0982
 6231SOL     OW24528   0.374   1.341   5.172 -0.3683 -0.1661  0.8096
 6231SOL    HW124529   0.411   1.341   5.260  0.4085  0.5830  0.4962
 6231SOL    HW224530   0.433   1.396   5.120 -1.1687 -0.0604 -0.0312
 6232SOL     OW24531   0.551  10.604  10.601  0.4401  0.0237 -0.7088
 6232SOL    HW124532   0.636  10.605  10.645  0.5245  0.2799 -0.8772
 6232SOL    HW224533   0.518  10.693  10.611  0.0204 -0.1721 -0.3133
 6233SOL     OW24534   5.760   0.647  10.257 -0.4108 -0.1014  0.8159
 6233SOL    HW124535   5.741   0.554  10.258 -0.3677 -0.1960 -1.4287
 6233SOL    HW224536   5.680   0.688  10.291 -1.8276 -0.8459 -1.3890
 6234SOL     OW24537   7.778   5.930   3.625  0.2533  0.1518 -0.3927
 6234SOL    HW124538   7.749   5.987   3.553  0.4401  0.4511 -0.2282
 6234SOL    HW224539   7.699   5.916   3.677 -0.1439 -0.9478 -1.2492
 6235SOL     OW24540   0.109   5.681   1.643 -0.2399  0.4194 -0.1610
 6235SOL    HW124541   0.036   5.718   1.594 -0.5548  0.1535  0.1031
 6235SOL    HW224542   0.072   5.604   1.686  0.5094 -0.4595 -1.0492
 6236SOL     OW24543   1.407   5.159   1.413  0.1514  0.0857 -0.1537
 6236SOL    HW124544   1.440   5.083   1.460 -0.8125 -0.5433 -0.4564
 6236SOL    HW224545   1.375   5.217   1.482  2.1044  0.8542  0.1657
 6237SOL     OW24546   7.318   9.120   0.647 -0.6792  0.0846  0.0748
 6237SOL    HW124547   7.248   9.140   0.585 -0.8811 -1.3066 -0.1620
 6237SOL    HW224548   7.383   9.189   0.632 -1.3898  0.6241 -0.6293
 6238SOL     OW24549   6.080   7.678   6.812 -0.1973 -0.0251  0.0354
 6238SOL    HW124550   6.131   7.748   6.853  0.5214 -0.5035 -0.0330
 6238SOL    HW224551   6.115   7.672   6.723 -1.5916  0.8527 -0.6158
 6239SOL     OW24552   1.632   3.033   1.178 -0.1843 -0.0634 -0.2096
 6239SOL    HW124553   1.589   2.997   1.256 -1.3610  1.0102 -0.3510
 6239SOL    HW224554   1.561   3.058   1.120  0.6740 -1.5122 -1.9799
 6240SOL     OW24555   0.828   0.198   4.180  0.3968  0.4636 -0.1273
 6240SOL    HW124556   0.853   0.106   4.191 -1.1028  0.2313  1.9346
 6240SOL    HW224557   0.798   0.203   4.089 -0.3813 -1.3585 -0.0293
 6241SOL     OW24558   7.809   0.123   9.287  0.0339 -0.3325 -0.2016
 6241SOL    HW124559   7.819   0.215   9.312  0.4456  0.2807 -2.3998
 6241SOL    HW224560   7.849   0.075   9.359  2.9779  1.3751 -0.5195
 6242SOL     OW24561   0.534   9.101   4.515  0.2107 -0.2470 -0.3926
 6242SOL    HW124562   0.564   9.191   4.531  0.5318 -0.2762 -0.7951
 6242SOL    HW224563   0.468   9.085   4.582 -0.9549  0.8335 -1.2383
 6243SOL     OW24564   8.663   1.167   3.943  0.1155  0.3050  0.5409
 6243SOL    HW124565   8.758   1.160   3.954  0.0121 -1.8452  0.4342
 6243SOL    HW224566   8.643   1.257   3.971  2.1574  0.8068  0.5921
 6244SOL     OW24567   1.788   3.271   0.190 -0.0039  0.0531 -0.1626
 6244SOL    HW124568   1.843   3.208   0.235  0.1712  0.1230 -0.2791
 6244SOL    HW224569   1.841   3.302   0.117  0.1614  0.8278  0.2702
 6245SOL     OW24570   1.179   7.636   3.294 -0.5480 -0.0149 -0.4154
 6245SOL    HW124571   1.198   7.568   3.229 -2.6501 -0.8012 -0.2681
 6245SOL    HW224572   1.111   7.690   3.253 -2.9849 -1.3762  1.6072
 6246SOL     OW24573   2.188   2.525   2.058  0.4008 -0.0322 -0.1158
 6246SOL    HW124574   2.177   2.515   1.964 -0.8533 -0.1288  0.0246
 6246SOL    HW224575   2.191   2.620   2.072 -1.4395  0.0635 -0.0812
 6247SOL     OW24576   2.393   4.635   2.595 -0.0227 -0.1702  0.1645
 6247SOL    HW124577   2.473   4.614   2.546 -0.0469 -1.2799  0.5704
 6247SOL    HW224578   2.325   4.639   2.528  0.1346 -0.6136 -0.0267
 6248SOL     OW24579   8.249   5.567   2.884  0.0596  0.3657  0.6798
 6248SOL    HW124580   8.240   5.661   2.903 -0.7473  0.5659 -0.5453
 6248SOL    HW224581   8.188   5.524   2.944 -0.2585  0.7118  0.6087
 6249SOL     OW24582   3.545   5.639   1.351  0.1042  0.0784 -0.0794
 6249SOL    HW124583   3.626   5.624   1.304 -0.4331  0.1008 -1.0401
 6249SOL    HW224584   3.490   5.689   1.290 -1.7923 -2.5324 -0.7226
 6250SOL     OW24585   6.010   9.290   0.570 -0.2834 -0.2142 -0.0124
 6250SOL    HW124586   6.061   9.368   0.593 -0.3854 -0.3312  0.6303
 6250SOL    HW224587   6.066   9.216   0.594 -0.6866 -0.3428  0.5656
 6251SOL     OW24588   7.036   9.505   1.400 -0.0668  0.3098  0.3882
 6251SOL    HW124589   7.025   9.595   1.430 -0.3559 -0.1202  1.6069
 6251SOL    HW224590   7.004   9.451   1.472 -0.1787 -0.7714 -0.4458
 6252SOL     OW24591   1.627   8.372   3.511 -0.5523 -0.4236  0.5342
 6252SOL    HW124592   1.628   8.307   3.441  0.1537  2.0116 -1.9395
 6252SOL    HW224593   1.536   8.401   3.517 -0.7027 -0.9812  0.9994
 6253SOL     OW24594   4.302   6.583   9.325  0.2634  0.4495  0.5614
 6253SOL    HW124595   4.282   6.545   9.411  0.0121 -0.7805 -0.0060
 6253SOL    HW224596   4.395   6.564   9.312  0.5841  1.6494  1.0360
 6254SOL     OW24597   0.528   6.894   3.144 -0.3932  0.4265 -0.2114
 6254SOL    HW124598   0.546   6.946   3.222 -1.8962 -1.6258  1.5810
 6254SOL    HW224599   0.451   6.936   3.104 -0.4195  0.7055  0.1321
 6255SOL     OW24600   8.736   9.501   0.105  0.6147 -0.2737  0.2889
 6255SOL    HW124601   8.642   9.509   0.122  0.4051 -2.0408  0.1748
 6255SOL    HW224602   8.774   9.580   0.143 -0.9866  0.8675 -0.3693
 6256SOL     OW24603   0.752   2.128   8.055 -0.1263 -0.0424 -0.1414
 6256SOL    HW124604   0.701   2.204   8.026  0.0213 -0.1118 -0.5943
 6256SOL    HW224605   0.815   2.164   8.118  0.7039  0.4123 -1.2122
 6257SOL     OW24606   7.689  10.334   9.891  0.2710 -0.6847 -0.8047
 6257SOL    HW124607   7.665  10.286   9.970  0.3485 -0.8371 -0.8736
 6257SOL    HW224608   7.780  10.361   9.905 -0.1611  0.5788 -0.2013
 6258SOL     OW24609   9.106   8.074   1.952 -0.8177  0.4221 -0.0362
 6258SOL    HW124610   9.131   8.115   2.035 -0.9473  1.1239 -0.3353
 6258SOL    HW224611   9.107   8.146   1.889  1.5395 -0.4563 -1.1520
 6259SOL     OW24612   1.998   6.135   3.090 -0.4819  0.1357 -0.2086
 6259SOL    HW124613   2.035   6.052   3.119  1.0637  1.9586  3.8778
 6259SOL    HW224614   1.908   6.134   3.124 -0.4531  0.1514 -0.1319
 6260SOL     OW24615   5.581   7.334   1.497 -0.4188  0.1389 -0.0294
 6260SOL    HW124616   5.623   7.413   1.530  0.5901 -0.0183 -0.8881
 6260SOL    HW224617   5.520   7.366   1.431  0.5430  0.1768 -0.9320
 6261SOL     OW24618   1.060   9.935   1.212  0.9404  0.6363 -0.0846
 6261SOL    HW124619   1.141   9.888   1.234  1.3426  1.4469  0.2265
 6261SOL    HW224620   1.082   9.984   1.132  0.1155 -0.7097 -1.1697
 6262SOL     OW24621   2.919   8.483   2.324  0.2422  0.1690  0.4246
 6262SOL    HW124622   2.888   8.469   2.234  0.2699 -1.2584  0.6089
 6262SOL    HW224623   2.881   8.567   2.350 -1.6965 -0.4889 -0.1092
 6263SOL     OW24624   4.024   2.357   3.855 -0.0028  0.0810 -0.4611
 6263SOL    HW124625   4.038   2.310   3.773  0.9122 -0.2310 -0.1323
 6263SOL    HW224626   4.102   2.338   3.907 -0.0776  1.1565  0.0621
 6264SOL     OW24627   2.136   3.623   3.339  0.6396  0.2100  0.1231
 6264SOL    HW124628   2.224   3.659   3.331  1.2519 -1.4929 -1.3580
 6264SOL    HW224629   2.128   3.561   3.267 -1.3077 -0.6628  0.9975
 6265SOL     OW24630   0.361   8.509   1.300 -0.0144 -0.2418  0.1194
 6265SOL    HW124631   0.282   8.557   1.276  0.9830  2.3249  1.6452
 6265SOL    HW224632   0.401   8.487   1.216 -0.5443  1.6304 -0.6791
 6266SOL     OW24633   3.035   5.796   8.757 -0.2571  0.0233 -0.0266
 6266SOL    HW124634   2.990   5.744   8.691 -1.1393  0.8411 -0.0920
 6266SOL    HW224635   2.983   5.785   8.836  0.9603 -1.1972  0.6646
 6267SOL     OW24636   0.676   7.867   9.644 -0.4186  0.3755 -0.4920
 6267SOL    HW124637   0.670   7.877   9.549  0.9396  1.2757 -0.5151
 6267SOL    HW224638   0.696   7.955   9.676 -1.2075  0.1547  0.6797
 6268SOL     OW24639   6.422  10.531   8.771  0.3932 -0.1726  0.2761
 6268SOL    HW124640   6.357  10.469   8.738  0.2953 -0.5257  1.0975
 6268SOL    HW224641   6.373  10.613   8.784  0.1346 -0.4047  0.7817
 6269SOL     OW24642   9.919   6.029   9.766  0.3115  0.3888 -0.3116
 6269SOL    HW124643   9.961   6.095   9.711  0.2624  0.1687 -0.6156
 6269SOL    HW224644   9.830   6.063   9.780 -0.7901 -1.0697 -3.0804
 6270SOL     OW24645   2.800   0.214   9.671 -0.1223  0.3980  0.7224
 6270SOL    HW124646   2.842   0.129   9.662  1.3262  1.0789  0.7964
 6270SOL    HW224647   2.748   0.207   9.751  2.1749  0.4241  2.3164
 6271SOL     OW24648   4.144   9.395   1.287  0.1842 -0.3271 -0.5448
 6271SOL    HW124649   4.134   9.468   1.349  0.3877 -0.5510 -0.2447
 6271SOL    HW224650   4.055   9.372   1.262  0.1585  0.7451 -1.4941
 6272SOL     OW24651   5.968   0.813   3.113  0.2163 -0.2512  0.1371
 6272SOL    HW124652   6.042   0.872   3.100  0.4587 -0.1007  1.8957
 6272SOL    HW224653   6.007   0.733   3.150 -0.4352 -0.3205  0.7068
 6273SOL     OW24654   3.364   1.260   9.562  0.6864  0.2051 -0.2070
 6273SOL    HW124655   3.384   1.247   9.655  1.2221  1.2721 -0.1599
 6273SOL    HW224656   3.294   1.325   9.561  1.2222  0.7817 -0.5712
 6274SOL     OW24657   7.569   8.023   9.541  0.1418  0.3521  0.0418
 6274SOL    HW124658   7.553   8.104   9.493 -0.6168  0.9486  1.2505
 6274SOL    HW224659   7.658   8.032   9.574  0.2126  0.5002 -0.1888
 6275SOL     OW24660   6.284   9.935   0.780  0.3785 -0.0801  0.6921
 6275SOL    HW124661   6.322  10.019   0.808  1.1192 -0.9075  2.2774
 6275SOL    HW224662   6.308   9.873   0.849 -0.8557 -1.4378 -0.0366
 6276SOL     OW24663   6.747   1.498   9.560  0.2593 -0.2465 -0.0415
 6276SOL    HW124664   6.752   1.554   9.483  1.9982 -0.5576 -0.1874
 6276SOL    HW224665   6.833   1.507   9.602  0.1217 -1.8021  0.6284
 6277SOL     OW24666   7.841   7.883   5.214 -0.2254  0.0536  0.3110
 6277SOL    HW124667   7.839   7.957   5.153  0.6443  0.3751  0.6563
 6277SOL    HW224668   7.934   7.865   5.227 -0.4126 -1.9945 -0.8091
 6278SOL     OW24669   2.240   7.919   6.530 -0.5161  0.7822  0.7565
 6278SOL    HW124670   2.328   7.931   6.565 -1.2077  0.6072  2.6911
 6278SOL    HW224671   2.220   8.002   6.487  0.7701  0.6286 -0.2081
 6279SOL     OW24672   2.366   3.182   1.554 -0.4139 -0.5670  0.1480
 6279SOL    HW124673   2.318   3.233   1.490 -0.3556  1.3189  1.5309
 6279SOL    HW224674   2.322   3.097   1.555 -2.2670  0.3384 -0.2615
 6280SOL     OW24675   0.825   2.624   7.513 -0.2359 -0.0438  0.1092
 6280SOL    HW124676   0.897   2.663   7.564 -0.4586 -0.3261  0.6523
 6280SOL    HW224677   0.859   2.538   7.486 -0.9763 -0.9641  1.8953
 6281SOL     OW24678   3.734   7.815   3.361 -0.6299  0.7829 -0.4824
 6281SOL    HW124679   3.693   7.738   3.321  0.4709 -0.1074  0.0407
 6281SOL    HW224680   3.680   7.834   3.438 -0.5762  0.1713 -0.2900
 6282SOL     OW24681   1.377   7.351   2.868 -0.0274 -0.1209 -0.1367
 6282SOL    HW124682   1.442   7.308   2.812  0.3097  1.4483 -1.0053
 6282SOL    HW224683   1.325   7.405   2.808  0.0873  1.3054  0.9927
 6283SOL     OW24684   6.457   4.710   6.716 -0.1512 -0.0595  0.5777
 6283SOL    HW124685   6.523   4.649   6.749 -1.3408 -0.4003  2.4729
 6283SOL    HW224686   6.439   4.768   6.790 -0.0488  1.7523 -0.7553
 6284SOL     OW24687   5.011   5.905   8.546  0.1268 -0.5796 -0.3947
 6284SOL    HW124688   4.918   5.900   8.568 -0.0371  2.0711 -0.1493
 6284SOL    HW224689   5.013   5.931   8.454  0.4448  2.7284  0.4233
 6285SOL     OW24690   0.239   1.467   3.163  0.0521  0.1944 -0.0550
 6285SOL    HW124691   0.246   1.543   3.105  0.9406 -0.5847 -1.0086
 6285SOL    HW224692   0.284   1.494   3.243 -1.2811  1.3228  0.3518
 6286SOL     OW24693   5.606   2.134   5.538 -0.1939  0.1659 -0.3083
 6286SOL    HW124694   5.660   2.191   5.594  0.9964  0.0531 -1.3020
 6286SOL    HW224695   5.552   2.195   5.488 -2.7125  0.2449  2.2347
 6287SOL     OW24696   1.142   9.897   4.426 -0.5372  0.2450 -0.0533
 6287SOL    HW124697   1.050   9.885   4.448 -0.4514  0.1549  0.2637
 6287SOL    HW224698   1.148   9.873   4.334 -1.0106  1.1933 -0.3407
 6288SOL     OW24699  10.352   9.905   6.093 -0.4223  0.2194 -0.7490
 6288SOL    HW124700  10.427   9.898   6.033  0.7323  0.6448  0.6003
 6288SOL    HW224701  10.297   9.830   6.070  1.5097 -1.4328 -0.3220
 6289SOL     OW24702   8.690   0.682   5.087 -0.7217  0.1977 -0.0224
 6289SOL    HW124703   8.635   0.624   5.035 -1.0659  0.7773 -0.3139
 6289SOL    HW224704   8.779   0.653   5.070 -0.9486 -1.1259  0.8998
 6290SOL     OW24705   3.210   1.411   6.845 -0.9844 -0.6932 -0.1346
 6290SOL    HW124706   3.184   1.431   6.935 -0.8980  0.1479 -0.2833
 6290SOL    HW224707   3.156   1.336   6.820 -1.0629 -0.8839  0.5900
 6291SOL     OW24708   3.847   1.040   1.256 -0.4594  0.4619  0.7935
 6291SOL    HW124709   3.857   1.115   1.198 -0.6896  1.9140  2.5413
 6291SOL    HW224710   3.931   1.034   1.302  0.1178 -1.3450 -0.3725
 6292SOL     OW24711   1.187   1.404   1.568 -0.3019 -0.5778 -0.0473
 6292SOL    HW124712   1.237   1.476   1.530  1.2599 -1.2811  0.5839
 6292SOL    HW224713   1.163   1.434   1.655 -0.9366 -0.2697 -0.3223
 6293SOL     OW24714   8.601   3.744   7.743 -0.0683  0.1398 -0.1135
 6293SOL    HW124715   8.618   3.687   7.668 -2.8759  0.2163 -0.8974
 6293SOL    HW224716   8.549   3.816   7.707  1.3655  2.0250  1.3118
 6294SOL     OW24717   1.285   1.856   3.419 -0.1027 -0.4647 -0.0466
 6294SOL    HW124718   1.191   1.865   3.434  0.0764 -1.3678  2.0497
 6294SOL    HW224719   1.316   1.945   3.402 -1.0426  0.2071  1.4704
 6295SOL     OW24720   9.851   3.706   1.119  0.0703  0.0645 -0.6747
 6295SOL    HW124721   9.932   3.741   1.156  1.6902 -0.4151 -3.4531
 6295SOL    HW224722   9.835   3.760   1.041 -1.0817 -1.2124 -1.3600
 6296SOL     OW24723   5.135   0.372   6.496 -0.4604 -0.5446 -0.2915
 6296SOL    HW124724   5.164   0.287   6.462  0.6323 -1.1052  1.8711
 6296SOL    HW224725   5.078   0.350   6.570  0.2847  0.5615  0.6575
 6297SOL     OW24726   0.449   9.044   1.882 -0.1610  0.0293 -0.1793
 6297SOL    HW124727   0.518   8.979   1.864 -0.1181  0.0753 -0.1801
 6297SOL    HW224728   0.494   9.128   1.881 -0.3101  0.1087 -0.7100
 6298SOL     OW24729   2.903   7.870   9.500  0.6903 -0.2973  0.0016
 6298SOL    HW124730   2.915   7.792   9.553 -2.4105  0.0168  1.3908
 6298SOL    HW224731   2.908   7.839   9.410 -1.4281 -2.3794  0.5015
 6299SOL     OW24732   8.223   2.581  10.050 -0.3406  0.0918 -0.3633
 6299SOL    HW124733   8.201   2.651   9.989  2.0491  1.0576 -0.2249
 6299SOL    HW224734   8.219   2.501   9.997  0.6185  0.7920 -1.5531
 6300SOL     OW24735   7.412   8.637   9.000 -0.1248  0.2133 -0.0271
 6300SOL    HW124736   7.475   8.706   9.018 -1.3203  1.6353 -1.0055
 6300SOL    HW224737   7.354   8.637   9.076  0.3984 -0.3394  0.3765
 6301SOL     OW24738   3.003   6.978   0.997 -0.3136  0.3386  0.2307
 6301SOL    HW124739   2.931   6.955   1.055 -0.4499  0.2553  0.0311
 6301SOL    HW224740   3.082   6.953   1.044 -0.4796 -1.5401 -0.4084
 6302SOL     OW24741   7.957   8.663   0.775 -0.0756 -0.8087  0.6893
 6302SOL    HW124742   7.959   8.635   0.684 -0.3368 -0.5302  0.5983
 6302SOL    HW224743   8.004   8.746   0.776 -2.6805  0.7872  0.2457
 6303SOL     OW24744   9.523   4.131   7.410  0.1448 -0.2265 -0.3022
 6303SOL    HW124745   9.439   4.095   7.379  0.1057 -1.6085  1.3022
 6303SOL    HW224746   9.533   4.095   7.498  2.1761  0.3699 -0.2590
 6304SOL     OW24747  10.183   9.124   6.768  0.4761  0.1892  0.2951
 6304SOL    HW124748  10.177   9.218   6.784 -0.3029  0.0134  1.1624
 6304SOL    HW224749  10.218   9.116   6.680  1.4912  1.2817  0.5710
 6305SOL     OW24750   9.860   1.808   5.723 -0.2382  0.2895  0.2471
 6305SOL    HW124751   9.838   1.812   5.816  1.7333  1.6518  0.7282
 6305SOL    HW224752   9.949   1.771   5.721 -0.5321 -0.4116 -1.1619
 6306SOL     OW24753   5.811   9.976   0.874 -0.2271 -0.1229  0.3957
 6306SOL    HW124754   5.806  10.010   0.963 -1.5984  0.0298  0.2863
 6306SOL    HW224755   5.796  10.053   0.818 -2.5754 -0.6840  0.1284
 6307SOL     OW24756   6.529   9.224  10.424 -0.0545  0.3697  0.1259
 6307SOL    HW124757   6.581   9.299  10.453  0.1532 -0.7697  3.0175
 6307SOL    HW224758   6.468   9.260  10.361  0.6015  2.8128  0.7960
 6308SOL     OW24759   6.493   5.737   6.206 -0.1676 -0.0132 -0.2352
 6308SOL    HW124760   6.453   5.795   6.271 -2.2622  0.3294 -1.7062
 6308SOL    HW224761   6.582   5.722   6.238 -0.8858  0.6688  2.3168
 6309SOL     OW24762   3.746  10.686   6.765  0.3813 -0.2309 -0.2799
 6309SOL    HW124763   3.784  10.762   6.809 -0.7039  0.9119 -1.2676
 6309SOL    HW224764   3.728  10.624   6.836  2.8314 -0.3159  0.3709
 6310SOL     OW24765   8.171   9.764   8.361  0.1544  0.4299 -0.7018
 6310SOL    HW124766   8.077   9.747   8.367 -0.1280  2.2710  1.8534
 6310SOL    HW224767   8.199   9.719   8.281 -2.6098 -1.3290 -0.8005
 6311SOL     OW24768   2.076   1.818   7.468 -0.8964  0.0573  0.7596
 6311SOL    HW124769   1.993   1.849   7.431 -0.3739  0.8239  0.1821
 6311SOL    HW224770   2.062   1.818   7.562 -2.2725 -1.9676  0.6108
 6312SOL     OW24771  10.659   7.300   7.320 -0.2695 -0.0033  0.7864
 6312SOL    HW124772  10.700   7.348   7.247 -1.9288 -1.9086 -1.5361
 6312SOL    HW224773  10.608   7.367   7.366  0.2003  1.1378 -0.2813
 6313SOL     OW24774   4.908   6.804   9.872  0.1638 -0.4793  0.3496
 6313SOL    HW124775   4.878   6.895   9.883 -1.5432 -0.9552 -0.0494
 6313SOL    HW224776   4.933   6.799   9.780 -1.8803 -0.9368 -0.2498
 6314SOL     OW24777   9.223   4.501   5.026  0.0907 -0.0138  0.0611
 6314SOL    HW124778   9.268   4.477   5.106 -1.4366  2.0853  1.6572
 6314SOL    HW224779   9.149   4.440   5.019  1.4073 -1.5617 -0.9718
 6315SOL     OW24780   5.673   5.802   3.639  0.1641 -0.6187  0.3368
 6315SOL    HW124781   5.601   5.822   3.698  1.0959 -2.9824  2.4158
 6315SOL    HW224782   5.683   5.707   3.643  2.3097 -0.5472 -1.2231
 6316SOL     OW24783   0.426   6.181   2.274  0.1523  0.0945  0.2332
 6316SOL    HW124784   0.429   6.090   2.306 -2.3294 -0.2970 -0.4922
 6316SOL    HW224785   0.423   6.172   2.178 -1.8041  0.8466  0.2012
 6317SOL     OW24786  10.493   7.154   9.474 -0.5880  0.0881  0.2149
 6317SOL    HW124787  10.460   7.104   9.549  0.0145  0.6493  0.8663
 6317SOL    HW224788  10.448   7.239   9.481  0.9671  0.8723  1.1237
 6318SOL     OW24789   5.708   3.546   1.079 -0.2087 -0.6547  0.0179
 6318SOL    HW124790   5.727   3.621   1.022  1.5581 -1.5087 -0.5809
 6318SOL    HW224791   5.707   3.583   1.168 -0.3339  0.2307 -0.3382
 6319SOL     OW24792   1.887   8.548   8.748 -0.2637 -0.6441  0.8338
 6319SOL    HW124793   1.877   8.597   8.830 -0.5449 -0.7022  0.8383
 6319SOL    HW224794   1.926   8.465   8.775 -1.1922 -1.0334  1.0470
 6320SOL     OW24795   3.785   8.338   0.321  0.0566  0.0403  0.2544
 6320SOL    HW124796   3.825   8.406   0.268 -0.6558  0.2257 -0.0606
 6320SOL    HW224797   3.696   8.370   0.339 -1.3236 -1.9613 -2.2306
 6321SOL     OW24798   3.276   8.626   5.203 -0.0482 -0.3771  0.3522
 6321SOL    HW124799   3.307   8.539   5.228  0.8131 -1.0042 -2.5037
 6321SOL    HW224800   3.334   8.652   5.131 -1.7360  1.5406 -0.4196
 6322SOL     OW24801   0.597   0.150   5.546 -0.0924 -0.3931  0.5278
 6322SOL    HW124802   0.689   0.168   5.524  0.1924 -0.1823  1.8391
 6322SOL    HW224803   0.550   0.228   5.516  0.1441 -0.4912 -0.1284
 6323SOL     OW24804   7.155   9.509   5.755  0.0537 -0.2035  0.5425
 6323SOL    HW124805   7.243   9.546   5.761  1.0525 -2.2809 -0.5260
 6323SOL    HW224806   7.165   9.418   5.784 -1.7777 -0.4376  0.5495
 6324SOL     OW24807   7.724  10.194   4.457 -0.1011 -0.3136  0.5834
 6324SOL    HW124808   7.818  10.200   4.471 -0.1020 -0.1880  0.5343
 6324SOL    HW224809   7.685  10.255   4.519 -0.0153  1.5327 -1.0574
 6325SOL     OW24810   9.749   3.193   0.593  0.0708 -0.1890 -0.1012
 6325SOL    HW124811   9.681   3.137   0.630 -1.8507  1.8921 -0.2757
 6325SOL    HW224812   9.723   3.207   0.502  0.6043  0.8032 -0.1221
 6326SOL     OW24813   4.794   2.492   9.538 -0.4632 -0.2344 -0.4055
 6326SOL    HW124814   4.870   2.437   9.525 -0.5036  0.1468 -2.5141
 6326SOL    HW224815   4.830   2.579   9.557 -0.3277  0.0458 -1.8406
 6327SOL     OW24816   3.082   5.441   4.376  0.0838 -0.5214 -0.2418
 6327SOL    HW124817   3.120   5.373   4.432 -1.3733 -2.4848 -1.4621
 6327SOL    HW224818   3.131   5.520   4.397  3.1026 -2.3010  0.0522
 6328SOL     OW24819   3.650   3.725   0.510 -0.4639 -0.2267 -0.1177
 6328SOL    HW124820   3.645   3.740   0.605 -2.1070  1.3015 -0.3821
 6328SOL    HW224821   3.574   3.670   0.491 -1.9117  1.8761 -0.8665
 6329SOL     OW24822   4.549   7.764   3.993  0.1267 -0.2658 -0.5614
 6329SOL    HW124823   4.543   7.793   3.902  1.5637  1.8288 -0.0728
 6329SOL    HW224824   4.636   7.792   4.021 -0.1875 -1.0769  1.4088
 6330SOL     OW24825   8.093   0.684  10.379  0.0310 -0.6310 -0.1527
 6330SOL    HW124826   8.143   0.629  10.439 -1.3206 -2.2633 -0.4619
 6330SOL    HW224827   8.089   0.633  10.298 -1.3276 -0.1180 -0.4274
 6331SOL     OW24828   7.747   2.057  10.506 -0.3404 -0.0602  0.0397
 6331SOL    HW124829   7.719   2.092  10.422 -0.4499  0.1835  0.1751
 6331SOL    HW224830   7.837   2.028  10.492 -0.1512  0.5303 -0.0040
 6332SOL     OW24831   2.777   9.171   9.927  0.4366 -0.3419 -0.2982
 6332SOL    HW124832   2.822   9.233   9.983 -1.6978  3.1698 -2.0946
 6332SOL    HW224833   2.814   9.185   9.840 -0.1821 -1.5280 -0.7802
 6333SOL     OW24834   0.687   6.002   9.619  0.2781 -0.1599  0.5404
 6333SOL    HW124835   0.686   5.998   9.715 -1.5960 -0.5390  0.5375
 6333SOL    HW224836   0.651   6.088   9.598  3.7239  1.3346  0.1435
 6334SOL     OW24837   6.833   3.045   7.497 -0.6739  0.0874 -0.2030
 6334SOL    HW124838   6.758   3.044   7.437 -0.4261  1.0626 -0.5477
 6334SOL    HW224839   6.870   3.133   7.487  0.6257 -0.4389 -0.1834
 6335SOL     OW24840  10.190   5.558   5.446 -0.1843  0.6560  0.6712
 6335SOL    HW124841  10.270   5.508   5.459 -0.8205 -0.8534 -0.8407
 6335SOL    HW224842  10.212   5.647   5.473  1.3068 -0.1780  2.4070
 6336SOL     OW24843   9.651   0.118   0.018  0.3994  0.4792 -0.7948
 6336SOL    HW124844   9.702   0.157  -0.053  0.0402  0.0672 -1.2934
 6336SOL    HW224845   9.566   0.099  -0.022  0.4286 -0.4225 -0.4520
 6337SOL     OW24846   9.532  10.118  10.052 -0.4661  0.2192  0.6299
 6337SOL    HW124847   9.439  10.108  10.034 -0.8483  0.7331  2.1788
 6337SOL    HW224848   9.555  10.202  10.011 -0.8322  0.3917  0.7768
 6338SOL     OW24849   7.659   2.769   2.275 -0.5429 -0.4298 -0.1559
 6338SOL    HW124850   7.587   2.724   2.319 -0.2671 -0.5657  0.1530
 6338SOL    HW224851   7.735   2.756   2.331 -0.0431 -1.1274 -0.9658
 6339SOL     OW24852   6.618   3.246   2.069  0.3760 -0.1813 -0.3542
 6339SOL    HW124853   6.621   3.313   2.137  0.5976 -0.4826 -0.0661
 6339SOL    HW224854   6.563   3.177   2.105  0.9492 -0.5894 -0.2471
 6340SOL     OW24855   1.140   2.574  10.248 -0.2217  0.2388 -0.2476
 6340SOL    HW124856   1.048   2.552  10.260 -0.3508  0.8988  0.0425
 6340SOL    HW224857   1.161   2.630  10.323  0.0129  1.2740 -1.0525
 6341SOL     OW24858   4.531   7.807   8.469  0.1716  0.1172  0.1488
 6341SOL    HW124859   4.516   7.889   8.516  0.4970 -0.3753  1.1368
 6341SOL    HW224860   4.448   7.789   8.425 -0.7442 -0.2938  1.9618
 6342SOL     OW24861   1.491   9.925   4.097  0.3077  0.0668  0.3033
 6342SOL    HW124862   1.505   9.939   4.003  1.6167 -0.6119  0.3843
 6342SOL    HW224863   1.573   9.954   4.138 -0.8703  2.0579  1.4324
 6343SOL     OW24864   7.285   1.770   5.213 -0.1790 -0.3815  0.0341
 6343SOL    HW124865   7.287   1.779   5.118 -0.1464 -0.0346  0.0688
 6343SOL    HW224866   7.371   1.800   5.242 -0.2961 -0.2096  0.2007
 6344SOL     OW24867   7.589   0.207   2.658 -0.1585 -0.6245 -0.5093
 6344SOL    HW124868   7.594   0.296   2.625  2.8553 -1.4561 -2.6996
 6344SOL    HW224869   7.518   0.166   2.608  0.1584 -0.1299 -1.3838
 6345SOL     OW24870   3.585   9.816   4.647 -0.0304  0.1935 -0.2350
 6345SOL    HW124871   3.593   9.909   4.668  0.4872  0.0269  0.3490
 6345SOL    HW224872   3.508   9.810   4.590 -1.2163  0.7257  1.2710
 6346SOL     OW24873   1.476   9.085   9.300 -0.3423  0.7527  0.7664
 6346SOL    HW124874   1.540   9.118   9.363  1.5859 -1.6496  0.2400
 6346SOL    HW224875   1.527   9.070   9.220 -1.2186 -2.3343  0.6524
 6347SOL     OW24876   9.612   1.656   5.642 -0.1449  0.3139 -0.4630
 6347SOL    HW124877   9.690   1.672   5.696 -0.3121  0.3131 -0.2200
 6347SOL    HW224878   9.647   1.631   5.556  0.1132  1.1121 -0.5943
 6348SOL     OW24879   7.630   0.063   8.974  0.6703 -0.0396  0.5035
 6348SOL    HW124880   7.720   0.047   9.004  0.5698 -0.3129  0.6719
 6348SOL    HW224881   7.579   0.067   9.055  0.6146  0.6963  0.4378
 6349SOL     OW24882   4.152   6.777   9.225  0.1142  0.2144  0.7166
 6349SOL    HW124883   4.075   6.750   9.175  1.6124 -2.5097 -0.3168
 6349SOL    HW224884   4.198   6.696   9.245  2.5343  1.6963  1.6765
 6350SOL     OW24885   5.262   7.090   3.053  0.7403 -0.7673 -0.0736
 6350SOL    HW124886   5.196   7.104   3.120  1.6058 -0.7498  0.7892
 6350SOL    HW224887   5.274   6.995   3.049  3.1352 -0.6785  2.2856
 6351SOL     OW24888   7.517   1.383  10.543  0.2316  0.0682 -0.1572
 6351SOL    HW124889   7.513   1.289  10.527 -1.6086 -0.1301  1.1972
 6351SOL    HW224890   7.489   1.423  10.461 -0.1564 -0.6052 -0.3547
 6352SOL     OW24891   9.824   6.895   7.031  0.0317 -0.1099  0.2328
 6352SOL    HW124892   9.842   6.809   6.995  0.5666  0.2726 -0.4404
 6352SOL    HW224893   9.832   6.955   6.957 -1.9573  0.3539  0.3364
 6353SOL     OW24894   2.924   2.436   7.907  0.1908 -0.1675 -0.6345
 6353SOL    HW124895   3.005   2.386   7.896  0.8338  1.0760 -1.7708
 6353SOL    HW224896   2.914   2.443   8.002  1.6311 -0.0258 -0.4600
 6354SOL     OW24897   5.802   5.385   7.475 -0.6582  0.0394  0.4187
 6354SOL    HW124898   5.799   5.401   7.381  1.1360 -0.3578  0.2526
 6354SOL    HW224899   5.733   5.321   7.491 -0.2872 -0.7061 -0.8246
 6355SOL     OW24900   8.147   9.778   0.816 -0.3203  0.0925  0.1726
 6355SOL    HW124901   8.132   9.839   0.743 -0.5584 -0.1238  0.0397
 6355SOL    HW224902   8.188   9.702   0.775 -0.1697  0.0986  0.3141
 6356SOL     OW24903   9.654   9.203   4.596  0.0208 -0.3973  0.7505
 6356SOL    HW124904   9.573   9.232   4.554 -0.8891 -2.5995  0.8603
 6356SOL    HW224905   9.688   9.135   4.538  1.9159  0.5966  0.6242
 6357SOL     OW24906   4.690   7.995   3.822  0.0022  0.0511  0.7665
 6357SOL    HW124907   4.636   7.923   3.787 -1.5296  1.4884  0.0398
 6357SOL    HW224908   4.772   7.989   3.774 -0.8696 -0.0006 -0.7714
 6358SOL     OW24909   6.723   1.059   5.749  0.6051 -0.5276 -0.2333
 6358SOL    HW124910   6.662   1.105   5.807 -0.1462 -1.2276 -0.4564
 6358SOL    HW224911   6.804   1.052   5.800 -0.1032 -1.3082  0.8216
 6359SOL     OW24912   9.483   0.148   4.759 -0.2889 -0.7444 -0.3904
 6359SOL    HW124913   9.534   0.071   4.734 -1.0751 -2.3075  2.3894
 6359SOL    HW224914   9.394   0.116   4.772 -0.7801  0.7525  0.2730
 6360SOL     OW24915   3.930   7.700   8.567 -0.3581  0.7577 -0.0820
 6360SOL    HW124916   3.858   7.722   8.626 -0.2450 -0.0612  0.3649
 6360SOL    HW224917   3.898   7.727   8.480  0.1389  3.5945  0.5034
 6361SOL     OW24918  10.114   5.677   0.215 -0.0679  0.0678 -0.5665
 6361SOL    HW124919  10.141   5.644   0.130 -1.3471 -0.4121 -0.8032
 6361SOL    HW224920  10.180   5.644   0.276 -0.4181 -1.5536 -1.0335
 6362SOL     OW24921   7.471   1.655   2.099  1.4556 -0.4147 -0.3034
 6362SOL    HW124922   7.397   1.620   2.149  1.8541 -0.0793  0.5310
 6362SOL    HW224923   7.543   1.595   2.118  1.3662 -0.8499 -1.2634
 6363SOL     OW24924   6.720   2.735   0.011 -0.0738 -0.5586 -0.4345
 6363SOL    HW124925   6.661   2.803  -0.023  0.7839 -0.8904 -2.7657
 6363SOL    HW224926   6.777   2.781   0.073  0.9298  1.0709 -2.4462
 6364SOL     OW24927   9.313   7.482   0.214  0.6617  0.1847  0.1312
 6364SOL    HW124928   9.271   7.400   0.187  0.2200  0.1615  0.8750
 6364SOL    HW224929   9.253   7.520   0.277  2.1007 -0.2386  1.8431
 6365SOL     OW24930   8.633   7.893   1.412 -0.3970  0.1330  0.4667
 6365SOL    HW124931   8.603   7.860   1.327 -0.2864 -1.2113  0.9240
 6365SOL    HW224932   8.553   7.913   1.460 -0.4495  1.5838 -0.1984
 6366SOL     OW24933  10.588   4.365  10.627 -0.3697 -0.0620  0.0037
 6366SOL    HW124934  10.590   4.374  10.532  1.0533 -2.0915 -0.2302
 6366SOL    HW224935  10.665   4.411  10.658 -0.7054  0.3981  0.1650
 6367SOL     OW24936   6.236   4.175   3.413  0.0415 -0.1827  0.1065
 6367SOL    HW124937   6.284   4.190   3.332 -1.9844  0.7586 -1.0142
 6367SOL    HW224938   6.208   4.084   3.409  1.3729 -0.6288  0.5976
 6368SOL     OW24939   6.987   5.730   4.884  0.0642 -0.1250  0.1185
 6368SOL    HW124940   6.974   5.825   4.890  0.6767 -0.0435  0.2509
 6368SOL    HW224941   7.051   5.720   4.814  0.8326 -0.3584  0.8357
 6369SOL     OW24942   6.632   8.843   7.160  0.1599 -0.2584  0.3230
 6369SOL    HW124943   6.701   8.806   7.106 -0.3414 -1.2046  0.3125
 6369SOL    HW224944   6.555   8.843   7.103 -0.0317  0.0761  0.5780
 6370SOL     OW24945   9.312   0.186   5.418  0.4276  0.3548 -0.1201
 6370SOL    HW124946   9.308   0.186   5.514 -0.2959  1.8448 -0.1280
 6370SOL    HW224947   9.220   0.191   5.390  0.6937  1.3109 -0.8615
 6371SOL     OW24948   1.839   1.122  10.353  0.3256 -0.3001 -0.3149
 6371SOL    HW124949   1.788   1.043  10.338 -0.7855  0.3743 -0.1770
 6371SOL    HW224950   1.774   1.191  10.366  1.2319  0.2252  1.9529
 6372SOL     OW24951   0.859   4.287   0.759 -0.6398 -0.4449 -0.2697
 6372SOL    HW124952   0.910   4.262   0.836 -0.7624  0.3840  0.0924
 6372SOL    HW224953   0.781   4.329   0.794  0.0693  1.4638 -0.8280
 6373SOL     OW24954   5.613   4.148   8.769  0.3482 -0.4359  0.4041
 6373SOL    HW124955   5.698   4.191   8.779 -0.0948  0.3752  0.7281
 6373SOL    HW224956   5.605   4.134   8.674  0.1775  0.8810  0.2072
 6374SOL     OW24957   9.466   0.108  10.216 -0.6142  0.4545  0.1662
 6374SOL    HW124958   9.501   0.179  10.270  0.0120  0.5061 -0.3018
 6374SOL    HW224959   9.378   0.137  10.193 -0.8851  0.4422  1.1408
 6375SOL     OW24960   4.014   4.701   5.492 -0.2018  0.2634 -0.4196
 6375SOL    HW124961   3.997   4.607   5.495 -0.3456  0.2842 -0.5949
 6375SOL    HW224962   3.966   4.732   5.416  0.5345  0.3395 -0.8650
 6376SOL     OW24963   7.425   5.243   7.987 -0.2484  0.0386  0.1116
 6376SOL    HW124964   7.433   5.200   7.901  1.5138  0.2833  0.1218
 6376SOL    HW224965   7.458   5.178   8.049 -0.7907  0.1531  0.5237
 6377SOL     OW24966   1.143   0.920   9.646 -0.2213 -0.8933 -0.4083
 6377SOL    HW124967   1.117   0.875   9.726 -0.8680 -0.3158 -0.2783
 6377SOL    HW224968   1.080   0.891   9.580 -0.0135 -0.9686 -0.5727
 6378SOL     OW24969   0.564  10.556   2.005 -0.6244  0.3321  0.1330
 6378SOL    HW124970   0.503  10.483   2.001  2.7571 -2.8139  0.8591
 6378SOL    HW224971   0.538  10.605   2.083 -1.4086 -1.7321  1.2473
 6379SOL     OW24972   5.228   0.286   4.064  0.3560 -0.4331 -0.1374
 6379SOL    HW124973   5.247   0.223   4.133  0.3608  0.3791  0.6286
 6379SOL    HW224974   5.257   0.244   3.984  1.2765 -0.9950  0.4763
 6380SOL     OW24975   7.052   9.884  10.394  0.0405 -0.2056 -0.0279
 6380SOL    HW124976   7.105   9.927  10.461  1.2691 -1.2281 -0.3074
 6380SOL    HW224977   6.963   9.889  10.428  0.4743  0.3939  1.0913
 6381SOL     OW24978   4.684   7.378   5.490  0.1471 -0.3335  0.1271
 6381SOL    HW124979   4.702   7.465   5.454  0.9538 -0.2452  0.7003
 6381SOL    HW224980   4.682   7.320   5.415 -1.0428  0.2664 -0.3342
 6382SOL     OW24981   5.357   2.201   6.554 -0.2212 -0.4504  0.1908
 6382SOL    HW124982   5.286   2.214   6.491  1.1957 -0.0940 -1.4132
 6382SOL    HW224983   5.332   2.122   6.602 -1.8252 -0.1712 -0.1243
 6383SOL     OW24984   4.733   9.305   8.649  0.5959 -0.0137 -0.0889
 6383SOL    HW124985   4.823   9.274   8.646  0.3909 -0.6306  0.0993
 6383SOL    HW224986   4.679   9.227   8.636  0.0925  0.4280 -0.8073
 6384SOL     OW24987   8.830   7.813   7.165 -0.3631  0.0701  0.0426
 6384SOL    HW124988   8.833   7.721   7.193  0.8068 -0.0057 -0.2683
 6384SOL    HW224989   8.782   7.811   7.082  1.5835 -0.6246 -1.1409
 6385SOL     OW24990   5.774   3.982   4.325  0.2324 -0.3946 -0.0651
 6385SOL    HW124991   5.842   4.043   4.294  0.9468 -0.9234  0.4539
 6385SOL    HW224992   5.719   4.036   4.382  0.8283 -0.2125  0.3503
 6386SOL     OW24993   4.052   6.698   0.033 -0.0548 -0.2156 -0.3106
 6386SOL    HW124994   4.147   6.709   0.030 -0.1196  0.2029 -1.0518
 6386SOL    HW224995   4.019   6.757  -0.035 -0.8647 -0.1463  0.1393
 6387SOL     OW24996   4.865   9.713   9.741  0.1377 -0.3386 -0.3181
 6387SOL    HW124997   4.868   9.619   9.725 -0.9930 -0.2955 -0.9188
 6387SOL    HW224998   4.935   9.749   9.686 -0.3147 -0.7091 -1.1631
 6388SOL     OW24999   6.997   0.789   5.686 -0.4290 -0.1991 -0.5604
 6388SOL    HW125000   7.048   0.747   5.617 -1.1399  1.3791 -2.1021
 6388SOL    HW225001   6.911   0.748   5.682 -0.3036 -0.5088 -0.1998
 6389SOL     OW25002   8.385   3.301   2.717  0.5992 -0.6123  0.5006
 6389SOL    HW125003   8.409   3.219   2.675 -0.8833 -0.7824 -0.1001
 6389SOL    HW225004   8.309   3.279   2.771 -0.6868  0.5954 -0.7368
 6390SOL     OW25005   3.609   2.290   8.535  0.1390  0.1606  0.1128
 6390SOL    HW125006   3.611   2.339   8.617  0.9164 -0.1239  0.2767
 6390SOL    HW225007   3.664   2.213   8.552  1.4701  0.7908 -1.0881
 6391SOL     OW25008   2.096   3.162  10.650 -0.5474 -0.4021 -0.6467
 6391SOL    HW125009   2.011   3.190  10.617 -0.1794  0.8499 -0.6037
 6391SOL    HW225010   2.119   3.230  10.714  2.0179  1.2768 -3.1070
 6392SOL     OW25011   2.617   6.957   0.311  0.0283  0.2071  0.1841
 6392SOL    HW125012   2.536   6.958   0.362  0.9817 -0.6441  1.8354
 6392SOL    HW225013   2.684   6.985   0.373  0.9105  1.7120 -1.3703
 6393SOL     OW25014   8.184   6.312   4.414 -0.3289  0.0935 -0.1947
 6393SOL    HW125015   8.207   6.243   4.352 -0.9540 -0.3533  0.0561
 6393SOL    HW225016   8.267   6.334   4.457  0.1938  0.7315 -1.4948
 6394SOL     OW25017   2.766   4.778   9.317 -0.1388 -0.7275  0.2548
 6394SOL    HW125018   2.678   4.756   9.290 -0.2433 -1.2304  0.9657
 6394SOL    HW225019   2.802   4.696   9.351  0.2334 -0.2990  0.9194
 6395SOL     OW25020   5.241   7.329   8.874 -0.0770  0.0845  0.3316
 6395SOL    HW125021   5.204   7.394   8.933  1.1337  1.9811 -0.8692
 6395SOL    HW225022   5.183   7.329   8.799  0.2457  0.2574  0.0762
 6396SOL     OW25023   9.875   4.092   4.067  0.4926 -0.2478  0.1217
 6396SOL    HW125024   9.854   4.186   4.060 -1.1719 -0.7086 -3.2723
 6396SOL    HW225025   9.919   4.071   3.985  2.5350 -2.1575  1.5851
 6397SOL     OW25026   7.401   4.724   0.648 -0.4722  0.2768  0.3784
 6397SOL    HW125027   7.416   4.704   0.741 -1.4753 -0.1738  0.4524
 6397SOL    HW225028   7.329   4.787   0.649 -0.2929  0.4898 -0.0886
 6398SOL     OW25029   7.503   4.529   9.071  0.1884  0.3356  0.1917
 6398SOL    HW125030   7.559   4.519   8.994 -1.4494 -1.0525 -0.9074
 6398SOL    HW225031   7.483   4.622   9.075  1.5950  0.6682 -0.0783
 6399SOL     OW25032   4.197   9.391   2.424  0.4006  0.2682  0.2039
 6399SOL    HW125033   4.174   9.311   2.472  1.4906 -0.5780 -0.6510
 6399SOL    HW225034   4.117   9.413   2.376 -0.5420  0.8232  1.9316
 6400SOL     OW25035   6.017   5.893   6.761 -0.1247  0.4884 -0.0266
 6400SOL    HW125036   5.949   5.855   6.816 -1.3583  1.0817 -1.0916
 6400SOL    HW225037   5.995   5.986   6.756  1.8351  1.0648  1.1001
 6401SOL     OW25038  10.083   3.270   4.162 -0.3842 -0.8464  0.4029
 6401SOL    HW125039  10.108   3.342   4.105 -0.5417 -1.3065 -0.2557
 6401SOL    HW225040  10.104   3.191   4.112 -0.7005 -1.2576  0.9034
 6402SOL     OW25041   4.004   0.049   6.390 -0.6577 -0.8816 -0.2779
 6402SOL    HW125042   3.928   0.097   6.423  0.6766  0.8658  0.4143
 6402SOL    HW225043   4.069   0.116   6.372  1.6673 -2.4706  1.6254
 6403SOL     OW25044   3.918   7.615   7.356 -0.4356  0.3874 -0.0746
 6403SOL    HW125045   4.002   7.657   7.374 -0.3534  1.0715 -1.8047
 6403SOL    HW225046   3.853   7.680   7.380 -0.4639  0.0445  0.8018
 6404SOL     OW25047   4.265   6.663   1.485  0.0896 -0.2141  0.1570
 6404SOL    HW125048   4.260   6.693   1.395 -0.8464 -0.3985  0.1320
 6404SOL    HW225049   4.242   6.570   1.480 -1.1455  0.0417  0.7099
 6405SOL     OW25050   5.899   4.346   2.910 -0.0940  0.1953  0.1829
 6405SOL    HW125051   5.887   4.406   2.837  0.1483  3.8782  2.8717
 6405SOL    HW225052   5.813   4.305   2.922 -1.3840  2.7283  0.2833
 6406SOL     OW25053   4.665   2.056   3.986 -0.0466 -0.0988  0.8839
 6406SOL    HW125054   4.660   2.080   3.894 -0.9988 -0.1693  0.9002
 6406SOL    HW225055   4.708   1.970   3.987 -2.1544 -1.2406  0.2574
 6407SOL     OW25056   3.054  10.170   6.938 -0.5948  0.0055  0.1881
 6407SOL    HW125057   2.970  10.126   6.949  0.4101 -2.0015  0.4706
 6407SOL    HW225058   3.101  10.116   6.874  0.5178  1.0058  0.1265
 6408SOL     OW25059   9.164   7.508   3.150  0.0420 -0.4669  0.2856
 6408SOL    HW125060   9.226   7.540   3.083  0.9654 -0.5757  1.0653
 6408SOL    HW225061   9.220   7.467   3.216 -0.8626 -0.4271  1.0891
 6409SOL     OW25062   6.343   3.616   8.226  0.2539  0.5190 -0.7169
 6409SOL    HW125063   6.430   3.655   8.226  0.8314 -0.7213  0.4358
 6409SOL    HW225064   6.316   3.616   8.318 -0.1056 -0.9207 -0.7929
 6410SOL     OW25065   5.971   8.678   6.435  0.3620  0.0437  0.2401
 6410SOL    HW125066   5.970   8.692   6.340 -2.0871 -0.3851  0.1286
 6410SOL    HW225067   6.042   8.616   6.449 -0.2572 -1.1549 -1.5619
 6411SOL     OW25068   3.070   2.881   8.609 -0.6912 -0.6490 -0.3647
 6411SOL    HW125069   3.165   2.887   8.605 -0.6428 -0.8462  0.3756
 6411SOL    HW225070   3.044   2.857   8.520 -0.0137 -1.0495 -0.4613
 6412SOL     OW25071   7.158   5.056   6.995 -0.0996  0.5345  0.6010
 6412SOL    HW125072   7.252   5.073   6.990 -0.1129  0.7671  1.0129
 6412SOL    HW225073   7.123   5.090   6.913  0.2902 -0.4074  0.0287
 6413SOL     OW25074   5.666   7.049   9.236  0.2170  0.3208  0.8232
 6413SOL    HW125075   5.732   6.981   9.225 -1.4173 -1.2436  0.2673
 6413SOL    HW225076   5.714   7.131   9.226  2.2926 -0.7124  1.7665
 6414SOL     OW25077   3.067   0.986   5.844 -0.0909  0.2034  0.6539
 6414SOL    HW125078   3.048   0.907   5.895 -0.5725 -0.7581 -0.9500
 6414SOL    HW225079   3.145   0.963   5.793 -0.2415  0.7562  0.1722
 6415SOL     OW25080   9.639   2.430   9.014 -0.0340  0.5552 -0.6077
 6415SOL    HW125081   9.617   2.522   9.000  0.5283  0.7591 -0.2183
 6415SOL    HW225082   9.649   2.422   9.109  0.6494  0.2758 -0.6926
 6416SOL     OW25083   9.547   4.706   6.444 -0.0326  0.0256  0.2090
 6416SOL    HW125084   9.517   4.615   6.448 -0.1362  0.0606  0.2534
 6416SOL    HW225085   9.490   4.753   6.505  1.1760 -0.1940  1.5518
 6417SOL     OW25086   6.057  10.056   5.336  0.0520  0.0409  0.0833
 6417SOL    HW125087   6.148  10.039   5.311  0.3096 -0.3927  1.2580
 6417SOL    HW225088   6.029  10.127   5.277  1.0810  0.0513 -0.4203
 6418SOL     OW25089   4.022   7.737   0.063  0.0672 -0.7109 -0.7141
 6418SOL    HW125090   4.028   7.791  -0.016 -2.8638 -0.0275 -0.5816
 6418SOL    HW225091   3.969   7.662   0.037 -2.7506  0.5488  0.9986
 6419SOL     OW25092   4.614   5.146   0.686  0.1306  0.0135 -0.0686
 6419SOL    HW125093   4.564   5.069   0.714 -1.6518  0.6780 -1.2831
 6419SOL    HW225094   4.559   5.220   0.711  1.0928  0.8370 -0.3521
 6420SOL     OW25095   5.450   6.864   0.423  0.0653  0.1288 -0.4624
 6420SOL    HW125096   5.382   6.836   0.484 -0.5153  1.2297 -0.5784
 6420SOL    HW225097   5.403   6.907   0.351  0.8997  4.3157  1.1805
 6421SOL     OW25098   5.999   0.944   8.050  0.0167 -0.3077  0.2282
 6421SOL    HW125099   6.015   0.860   8.093 -0.7933 -0.3200  0.5252
 6421SOL    HW225100   5.950   0.922   7.971  1.0012 -0.2307 -0.4278
 6422SOL     OW25101   7.425   4.287  10.219 -0.3598  0.1173 -0.3009
 6422SOL    HW125102   7.351   4.242  10.178 -0.4968 -1.5195  1.6493
 6422SOL    HW225103   7.384   4.352  10.277 -0.2044  0.6760 -0.8053
 6423SOL     OW25104   6.029   3.330   9.407 -0.0774 -0.2423  0.4416
 6423SOL    HW125105   6.124   3.328   9.392 -0.3215  1.1928 -1.6748
 6423SOL    HW225106   5.993   3.271   9.341 -0.8197  1.6835 -0.9677
 6424SOL     OW25107   8.875   1.438   9.091  0.4488  0.2012  0.3253
 6424SOL    HW125108   8.862   1.352   9.129 -0.3534  0.0449 -0.2721
 6424SOL    HW225109   8.969   1.444   9.075  0.8625  0.3916  2.5521
 6425SOL     OW25110   3.039   0.763   3.794 -0.0893 -0.0800 -0.1468
 6425SOL    HW125111   3.068   0.854   3.785  0.0738 -0.0149  0.9427
 6425SOL    HW225112   3.117   0.711   3.780 -0.2472 -0.0796 -1.1033
 6426SOL     OW25113   3.848   7.012   8.823  0.3341 -0.8663  0.0475
 6426SOL    HW125114   3.860   6.918   8.813  0.2904 -0.9778  0.9601
 6426SOL    HW225115   3.861   7.047   8.735  1.5371 -1.5956 -0.0887
 6427SOL     OW25116   3.977   5.936   5.213 -0.3155 -0.5271  0.0221
 6427SOL    HW125117   3.921   5.991   5.267 -0.7057 -2.1503  1.3479
 6427SOL    HW225118   4.022   5.997   5.154 -0.3321  1.2335  1.7603
 6428SOL     OW25119  10.532  10.278  10.225 -0.0889  0.6538  0.2891
 6428SOL    HW125120  10.557  10.222  10.298 -1.4762  0.2182  0.4680
 6428SOL    HW225121  10.554  10.367  10.254  0.7899  0.3370  0.5980
 6429SOL     OW25122   7.449   8.291   0.775 -0.4304  0.3773  0.3007
 6429SOL    HW125123   7.363   8.251   0.765  0.0867 -0.6389 -0.3275
 6429SOL    HW225124   7.460   8.301   0.870 -1.1538  0.3274  0.3923
 6430SOL     OW25125   5.917  10.435   2.543 -0.0745  0.2107 -0.1626
 6430SOL    HW125126   5.964  10.371   2.489 -0.1584 -0.8842  1.0448
 6430SOL    HW225127   5.831  10.396   2.558 -0.1590  0.6394  0.5121
 6431SOL     OW25128   1.091   9.809   7.995 -0.0584 -0.2238  0.5056
 6431SOL    HW125129   1.057   9.867   8.063  1.4016 -0.3988  1.4096
 6431SOL    HW225130   1.021   9.744   7.983 -1.2166  1.0107  0.3007
 6432SOL     OW25131   7.324   5.415   2.604 -0.2315  0.8418 -0.2882
 6432SOL    HW125132   7.291   5.388   2.690 -0.6151  0.5097 -0.5311
 6432SOL    HW225133   7.256   5.473   2.570 -0.7767 -0.1664 -0.9628
 6433SOL     OW25134   1.346   1.971   0.050 -0.1253  0.0836 -0.1143
 6433SOL    HW125135   1.384   2.034  -0.012  0.7152  0.3385  0.6323
 6433SOL    HW225136   1.330   2.023   0.129 -1.5278 -0.1532 -0.2187
 6434SOL     OW25137   2.037   2.145   8.113 -0.2064 -0.1261 -0.4355
 6434SOL    HW125138   2.069   2.215   8.169 -0.2356 -0.2947 -0.2088
 6434SOL    HW225139   1.982   2.092   8.170 -1.7624  0.7378 -1.0299
 6435SOL     OW25140   7.244   5.761   1.875 -0.0698  0.4317  0.1296
 6435SOL    HW125141   7.275   5.770   1.965 -1.0613 -2.0396  0.7890
 6435SOL    HW225142   7.320   5.731   1.826 -0.1619 -0.8754  0.7437
 6436SOL     OW25143   6.031   7.400   9.372 -0.5548  0.1253  0.0242
 6436SOL    HW125144   6.115   7.412   9.328 -0.5551  1.5378  0.3716
 6436SOL    HW225145   6.047   7.328   9.434 -0.2883 -1.2103 -1.5350
 6437SOL     OW25146   6.486   2.045  10.676  0.1656 -0.0299  0.6525
 6437SOL    HW125147   6.472   2.084  10.762 -1.3666  0.9221  0.0015
 6437SOL    HW225148   6.559   2.095  10.639 -1.5564  2.1388 -0.0383
 6438SOL     OW25149   3.128  10.146   4.201  0.0624 -0.0695 -0.3718
 6438SOL    HW125150   3.139  10.105   4.116 -1.1068 -1.1065 -0.0544
 6438SOL    HW225151   3.047  10.197   4.193  0.8430  1.1967 -0.3819
 6439SOL     OW25152   4.710   9.341   3.203 -0.6351 -0.3989 -0.3818
 6439SOL    HW125153   4.747   9.339   3.115 -0.7338  0.5695 -0.4537
 6439SOL    HW225154   4.636   9.279   3.199 -1.7727  0.9643 -1.5153
 6440SOL     OW25155   9.862   0.198  10.499  0.4581 -0.2860  0.4093
 6440SOL    HW125156   9.840   0.241  10.417 -0.0380 -0.3582  0.4996
 6440SOL    HW225157   9.955   0.216  10.512 -0.0710  2.1593  1.2620
 6441SOL     OW25158   7.566   3.631  10.415 -0.0292 -0.3788 -0.0369
 6441SOL    HW125159   7.547   3.573  10.341 -0.6107 -0.1248 -0.0878
 6441SOL    HW225160   7.654   3.605  10.443  0.5102  0.0145 -1.2794
 6442SOL     OW25161   7.966   4.749   8.946 -0.4276 -0.4827  0.3045
 6442SOL    HW125162   8.019   4.679   8.984 -0.2702 -0.8584 -0.5808
 6442SOL    HW225163   7.979   4.824   9.005  2.3212 -0.0699 -0.6941
 6443SOL     OW25164   4.998   1.252   7.999 -0.0342 -0.9887  0.2736
 6443SOL    HW125165   4.919   1.220   8.043 -0.3331 -1.6288 -0.6851
 6443SOL    HW225166   5.024   1.329   8.049 -1.6646 -0.3575  0.2187
 6444SOL     OW25167   5.192   7.626  10.233 -0.1882 -0.0478  0.2985
 6444SOL    HW125168   5.103   7.661  10.242  0.2738  1.6840 -1.2280
 6444SOL    HW225169   5.225   7.666  10.153  0.8506 -3.1698 -0.9956
 6445SOL     OW25170   6.507   7.597   8.415  0.4950  0.3287 -0.2056
 6445SOL    HW125171   6.585   7.546   8.437 -0.4458 -0.2043  2.2489
 6445SOL    HW225172   6.438   7.559   8.469 -1.1704  1.6759 -1.2813
 6446SOL     OW25173   1.820   9.627   8.691 -0.4506  0.1900  0.5703
 6446SOL    HW125174   1.804   9.647   8.599  0.7432 -2.0110 -0.1996
 6446SOL    HW225175   1.756   9.679   8.739 -1.7265  0.6949 -1.5676
 6447SOL     OW25176   0.789   0.582   8.913 -0.0708  0.5794  0.0329
 6447SOL    HW125177   0.851   0.595   8.842 -0.6528 -0.9278 -0.8095
 6447SOL    HW225178   0.724   0.650   8.901  0.3112  0.8827 -0.3501
 6448SOL     OW25179   8.906   6.323   1.578  0.2943 -0.5465  0.4071
 6448SOL    HW125180   8.815   6.330   1.548  0.1104 -0.4407  0.9752
 6448SOL    HW225181   8.954   6.292   1.502 -0.5730 -2.6327  0.6438
 6449SOL     OW25182   4.335   3.576   9.330 -0.2341 -0.2926  0.1273
 6449SOL    HW125183   4.252   3.609   9.364 -2.1512 -2.1238 -2.4324
 6449SOL    HW225184   4.353   3.497   9.381 -2.3660 -2.2361 -1.8803
 6450SOL     OW25185   5.785  10.060  10.485  0.1784 -0.1597  0.2260
 6450SOL    HW125186   5.785  10.144  10.531 -0.3835 -0.4869  0.8418
 6450SOL    HW225187   5.822  10.080  10.399  0.6768  0.5850  0.6014
 6451SOL     OW25188   1.351   4.752   4.700  0.3178 -0.2130  0.7680
 6451SOL    HW125189   1.406   4.829   4.688  1.3543 -1.1948 -1.6450
 6451SOL    HW225190   1.394   4.702   4.769  0.8130  0.3994  0.9114
 6452SOL     OW25191   3.329   5.165   7.818  0.4146  0.1152  0.1643
 6452SOL    HW125192   3.252   5.110   7.833  0.2893  0.1073 -0.5132
 6452SOL    HW225193   3.301   5.230   7.754  0.9218  0.2236  0.0468
 6453SOL     OW25194   5.048   0.492   0.154  0.2601 -0.1912  0.3912
 6453SOL    HW125195   5.020   0.492   0.062  0.1774  1.6164  0.3846
 6453SOL    HW225196   5.063   0.400   0.174 -0.8051 -0.7335 -1.1030
 6454SOL     OW25197   4.744   8.398   0.641  0.2397 -0.0039 -0.0051
 6454SOL    HW125198   4.785   8.469   0.691 -1.7231  0.0391  1.6633
 6454SOL    HW225199   4.718   8.334   0.707 -2.2000 -0.0951 -0.9423
 6455SOL     OW25200   9.100   8.116   2.907  0.7272  0.7196  0.2368
 6455SOL    HW125201   9.167   8.048   2.898  1.8383  1.7629  0.3871
 6455SOL    HW225202   9.141   8.184   2.960 -0.2047  1.7097 -0.2721
 6456SOL     OW25203   2.584   7.680   4.959 -0.1964 -0.3434  0.2431
 6456SOL    HW125204   2.556   7.594   4.929  1.5042 -1.5397  1.8806
 6456SOL    HW225205   2.568   7.738   4.885 -4.1156 -1.3992  0.0239
 6457SOL     OW25206   6.701   7.038   6.663 -0.3923  0.1918  0.2159
 6457SOL    HW125207   6.719   6.953   6.623 -0.7794 -0.0268  0.4969
 6457SOL    HW225208   6.787   7.081   6.669  0.1206 -0.9503  1.8068
 6458SOL     OW25209   0.189   3.506   2.503 -0.7932  0.6931 -0.2932
 6458SOL    HW125210   0.271   3.477   2.543 -0.0276  2.2636 -0.6417
 6458SOL    HW225211   0.216   3.572   2.439 -2.2138  0.1308 -1.5179
 6459SOL     OW25212   7.488   5.678   1.406  0.4826  0.1253  0.2723
 6459SOL    HW125213   7.460   5.742   1.471 -0.8309 -0.3548  0.2070
 6459SOL    HW225214   7.504   5.598   1.456 -0.0470 -0.1040  0.0896
 6460SOL     OW25215   9.986  10.635   9.305  0.2400 -0.2222  0.1374
 6460SOL    HW125216   9.960  10.565   9.245 -1.8181 -0.1514  0.8934
 6460SOL    HW225217   9.922  10.705   9.290  1.0713  0.7087  0.8033
 6461SOL     OW25218   4.926   1.122   1.379  0.0101  0.1307  0.0714
 6461SOL    HW125219   4.926   1.217   1.366  0.3767  0.3521  1.5439
 6461SOL    HW225220   4.937   1.086   1.291 -1.8741  1.3974 -0.7277
 6462SOL     OW25221   1.016   0.910   4.221  0.2488  0.3235  0.3668
 6462SOL    HW125222   0.965   0.985   4.190 -0.3795  0.7351  2.2834
 6462SOL    HW225223   1.086   0.949   4.273  2.1594 -0.2767 -1.6040
 6463SOL     OW25224   0.314   8.431   9.896  0.2169 -0.0419 -0.2074
 6463SOL    HW125225   0.226   8.465   9.909  0.7957  1.8537 -0.9937
 6463SOL    HW225226   0.372   8.497   9.934  1.3694 -0.3876 -1.2891
 6464SOL     OW25227  10.326   5.511  10.321 -0.2172  0.6681 -0.4795
 6464SOL    HW125228  10.388   5.507  10.248 -0.5733 -1.0859 -0.7222
 6464SOL    HW225229  10.381   5.522  10.398  0.4504 -1.0074 -0.6716
 6465SOL     OW25230   0.038   5.325   6.502  0.1909  0.6392  0.5285
 6465SOL    HW125231   0.118   5.372   6.479  0.8372 -0.5314  0.2553
 6465SOL    HW225232  -0.032   5.374   6.459  0.8726  1.1469 -0.0251
 6466SOL     OW25233   8.297   9.002   8.418 -0.5316 -0.0110 -0.3984
 6466SOL    HW125234   8.372   8.944   8.405 -0.8004 -0.3698 -0.3688
 6466SOL    HW225235   8.227   8.945   8.449 -1.0023  0.2141 -1.0231
 6467SOL     OW25236   0.794   3.172   9.802  0.1273  0.1031 -0.0547
 6467SOL    HW125237   0.806   3.258   9.843  0.6234 -0.9180  2.0698
 6467SOL    HW225238   0.878   3.154   9.759 -0.1928  0.9215 -1.0653
 6468SOL     OW25239   2.465   5.081   8.250  0.2737 -0.5988 -0.0686
 6468SOL    HW125240   2.432   5.170   8.238  2.4164  0.3840  0.8063
 6468SOL    HW225241   2.501   5.057   8.165  1.7843  0.3322  0.2740
 6469SOL     OW25242   6.621   7.215   1.734  0.4599  0.8042  0.1351
 6469SOL    HW125243   6.691   7.167   1.689  0.6348  0.2042  0.9982
 6469SOL    HW225244   6.546   7.156   1.731 -0.2387  1.7220 -1.3692
 6470SOL     OW25245   1.143   0.598   7.631  0.2077  0.3002  0.1037
 6470SOL    HW125246   1.065   0.547   7.614  0.7035 -1.0025  1.4864
 6470SOL    HW225247   1.148   0.603   7.727  1.4960  0.8362  0.0352
 6471SOL     OW25248   9.025   3.942   1.955 -0.0749 -0.1611  0.5562
 6471SOL    HW125249   9.068   3.934   2.040 -0.7483  0.2454  0.9445
 6471SOL    HW225250   8.970   3.864   1.949  0.3313 -0.4270  0.2839
 6472SOL     OW25251   0.800   1.273   2.083  0.0298 -0.0711  0.1548
 6472SOL    HW125252   0.759   1.339   2.139 -1.7180 -1.2716  0.3594
 6472SOL    HW225253   0.834   1.208   2.144  1.4672  0.4479 -0.0599
 6473SOL     OW25254   2.654   1.016   0.565 -0.1493  0.4793  0.5490
 6473SOL    HW125255   2.591   0.997   0.495  2.0032 -0.5379 -1.2232
 6473SOL    HW225256   2.602   1.009   0.645 -2.3184 -0.2102 -0.8070
 6474SOL     OW25257   9.176   4.718   6.387  0.3430  0.1639 -0.4154
 6474SOL    HW125258   9.186   4.687   6.477  2.8479  0.1870 -0.6184
 6474SOL    HW225259   9.233   4.660   6.336 -0.1609  0.8734 -1.8159
 6475SOL     OW25260   2.485   8.318   1.411  0.7789  0.0007 -0.2939
 6475SOL    HW125261   2.530   8.378   1.352 -1.6710 -0.7666 -3.1271
 6475SOL    HW225262   2.408   8.367   1.441  1.6556  0.1515  1.8834
 6476SOL     OW25263   0.630   2.452   8.925 -0.1538 -0.0071 -0.8157
 6476SOL    HW125264   0.567   2.512   8.965  1.9544  0.9195  1.3117
 6476SOL    HW225265   0.663   2.500   8.849 -0.3461  0.4624 -0.6102
 6477SOL     OW25266   4.555   4.579   5.974  0.1157  0.1091 -0.2154
 6477SOL    HW125267   4.532   4.615   6.060  2.3068  1.5467 -0.1473
 6477SOL    HW225268   4.506   4.634   5.912 -0.5587 -0.1743  0.0553
 6478SOL     OW25269   8.591   6.975   0.009  0.7476  0.1781  0.0785
 6478SOL    HW125270   8.528   6.916   0.049  0.9198  0.0514  0.1634
 6478SOL    HW225271   8.627   6.927  -0.065  2.0120 -0.4326  1.0383
 6479SOL     OW25272   9.804   9.448   9.961  0.2836  0.2320  0.4269
 6479SOL    HW125273   9.887   9.418   9.924  0.1971 -0.2570  0.6206
 6479SOL    HW225274   9.771   9.512   9.898 -0.4593 -1.4740 -1.0158
 6480SOL     OW25275   3.959   5.930   4.388  0.4110  0.1106 -0.4370
 6480SOL    HW125276   4.047   5.938   4.352 -0.1923  0.4528 -1.8830
 6480SOL    HW225277   3.959   5.845   4.432  1.7336  0.5097  0.4085
 6481SOL     OW25278   4.199  10.263   4.088 -0.2104  0.1431  0.5549
 6481SOL    HW125279   4.256  10.188   4.105  1.0108  0.8759 -0.1478
 6481SOL    HW225280   4.237  10.334   4.139  1.7042  1.5693 -2.5137
 6482SOL     OW25281   5.030   9.455   4.028  0.0282  0.1658  0.0487
 6482SOL    HW125282   4.956   9.476   3.972  0.2445 -0.2217 -0.3885
 6482SOL    HW225283   5.021   9.362   4.049  1.1562 -0.2543 -1.1945
 6483SOL     OW25284   6.730   0.116   9.184  0.6072  0.1643  0.0781
 6483SOL    HW125285   6.716   0.022   9.172  3.2047 -0.3809  0.5804
 6483SOL    HW225286   6.825   0.126   9.177  0.4411  2.6824  0.6630
 6484SOL     OW25287   8.029   4.784   3.456 -0.6491 -0.1714 -0.1856
 6484SOL    HW125288   8.053   4.746   3.540 -0.1469 -0.6380 -0.5380
 6484SOL    HW225289   8.111   4.811   3.416 -0.8766 -0.0114 -0.5580
 6485SOL     OW25290   2.176   3.311   0.286  0.2005 -0.3684 -0.0377
 6485SOL    HW125291   2.249   3.277   0.233 -0.0621 -2.6945  0.9846
 6485SOL    HW225292   2.215   3.383   0.335  1.6724 -1.1650  0.0341
 6486SOL     OW25293   2.026   8.904   6.843 -0.2696 -0.8346 -0.2084
 6486SOL    HW125294   1.976   8.986   6.837 -1.9800 -1.8425 -0.2406
 6486SOL    HW225295   2.007   8.858   6.762  0.5438 -1.3590 -0.1147
 6487SOL     OW25296   7.990   5.183  10.538 -0.2076  0.6408 -0.1957
 6487SOL    HW125297   8.066   5.143  10.581  0.1844 -0.0548 -1.4732
 6487SOL    HW225298   7.914   5.139  10.577  0.1816 -0.6876 -0.8869
 6488SOL     OW25299   6.577   0.667   6.078  0.1845 -0.4180  0.6062
 6488SOL    HW125300   6.516   0.714   6.020  0.1693 -0.4255  0.6158
 6488SOL    HW225301   6.637   0.735   6.109  0.4785 -0.4938  0.2188
 6489SOL     OW25302   0.875   2.832   6.864  0.7122  0.2075 -0.4620
 6489SOL    HW125303   0.793   2.813   6.909  0.6463 -2.0552 -1.3901
 6489SOL    HW225304   0.854   2.824   6.771  1.9116 -0.2299 -0.7270
 6490SOL     OW25305   0.489   2.634   0.490  0.0878 -0.0765 -0.1140
 6490SOL    HW125306   0.570   2.584   0.482 -0.3997 -0.5675 -2.6297
 6490SOL    HW225307   0.506   2.696   0.562  2.9142  0.2566 -0.9690
 6491SOL     OW25308   0.928   4.114   3.089 -0.1171  0.8223 -0.1135
 6491SOL    HW125309   0.877   4.125   3.169  0.6821  0.2240  0.4872
 6491SOL    HW225310   1.019   4.129   3.115  0.0507  1.7238 -1.1381
 6492SOL     OW25311   1.577   7.977   8.069  0.1533  0.6296  0.7144
 6492SOL    HW125312   1.655   8.025   8.097  1.2922 -0.2097 -0.8624
 6492SOL    HW225313   1.552   8.019   7.987  0.7275 -0.9190 -0.3032
 6493SOL     OW25314   4.347   4.384   1.465  0.1197  0.4167 -0.3477
 6493SOL    HW125315   4.258   4.381   1.501 -0.0667  0.1089 -0.8202
 6493SOL    HW225316   4.344   4.326   1.389  0.1698  1.9600 -1.5798
 6494SOL     OW25317   1.250   2.871   4.013 -0.0853 -0.2168 -0.1839
 6494SOL    HW125318   1.174   2.862   4.071  0.3923  0.5005  0.5734
 6494SOL    HW225319   1.270   2.964   4.014  1.0420 -0.4455 -0.0545
 6495SOL     OW25320   3.495   9.617   4.117  0.3619 -0.0262 -0.2197
 6495SOL    HW125321   3.564   9.655   4.171  0.4102 -0.1759 -0.1757
 6495SOL    HW225322   3.532   9.615   4.029  0.9107 -1.3100  0.0239
 6496SOL     OW25323   1.245   5.582   5.206 -0.3724 -0.0907  0.0559
 6496SOL    HW125324   1.323   5.570   5.260 -0.5349 -2.1346 -0.1172
 6496SOL    HW225325   1.242   5.677   5.190  1.0908  0.2378  1.4903
 6497SOL     OW25326   4.067  10.587  10.597  0.3717 -0.6195  0.2736
 6497SOL    HW125327   4.073  10.493  10.613  0.5716 -0.5165  0.8172
 6497SOL    HW225328   4.053  10.594  10.503  1.2992 -1.1623  0.0859
 6498SOL     OW25329   8.201   3.845   8.066  0.2769 -0.0334  0.2768
 6498SOL    HW125330   8.142   3.841   7.991  0.4659 -0.9227  0.1589
 6498SOL    HW225331   8.281   3.802   8.036  0.3469 -0.4177  0.9816
 6499SOL     OW25332   9.677   0.780   8.952 -0.0455 -0.5711 -0.1172
 6499SOL    HW125333   9.637   0.799   8.868 -0.0884 -1.9004 -0.4189
 6499SOL    HW225334   9.664   0.686   8.965 -0.3625 -0.3443  1.5406
 6500SOL     OW25335   6.840   4.467   3.442  0.2681 -0.2022  0.2635
 6500SOL    HW125336   6.803   4.408   3.376  2.0163 -0.1164 -0.8664
 6500SOL    HW225337   6.857   4.549   3.394  1.7948 -0.2156  0.7259
 6501SOL     OW25338   5.664   7.953   0.221  0.2782  0.8065 -0.4235
 6501SOL    HW125339   5.604   7.942   0.295 -0.0586 -0.3474 -0.8479
 6501SOL    HW225340   5.671   8.048   0.210 -1.8074  0.9920 -0.6160
 6502SOL     OW25341   6.974   9.772   3.590 -0.0789  0.6040  0.1925
 6502SOL    HW125342   6.898   9.745   3.641  0.1787  0.3895  0.4649
 6502SOL    HW225343   7.019   9.837   3.645  1.1545 -0.8831  1.0186
 6503SOL     OW25344   4.944   8.527   1.657  0.1067 -0.1978  0.6094
 6503SOL    HW125345   4.908   8.503   1.572  2.2399 -1.0778 -0.1321
 6503SOL    HW225346   4.919   8.456   1.715 -0.9377  0.1595  0.6088
 6504SOL     OW25347   3.819   6.606   1.259 -0.1259 -0.5572 -0.0754
 6504SOL    HW125348   3.745   6.663   1.283  0.4968 -0.1061  0.8383
 6504SOL    HW225349   3.810   6.531   1.317 -1.4270 -1.8527 -1.8443
 6505SOL     OW25350   0.936   7.470   0.974 -0.2795  0.8356 -0.1424
 6505SOL    HW125351   0.979   7.404   0.919  1.2438  2.8032 -1.4988
 6505SOL    HW225352   0.843   7.452   0.965  0.0959 -1.2643 -0.2312
 6506SOL     OW25353   8.606   7.129   3.855 -0.3037 -0.5512 -0.1731
 6506SOL    HW125354   8.686   7.158   3.810  1.6774 -3.1451  1.3570
 6506SOL    HW225355   8.630   7.044   3.892 -2.8803 -0.1286  2.8493
 6507SOL     OW25356   6.202   2.674   2.916 -0.4389 -0.1249 -0.4683
 6507SOL    HW125357   6.288   2.694   2.879 -0.6445 -1.7966 -2.0387
 6507SOL    HW225358   6.219   2.608   2.983 -0.2984  1.2262  0.8595
 6508SOL     OW25359   4.780   7.467   9.529  0.2230  0.0115 -0.3406
 6508SOL    HW125360   4.861   7.429   9.495  0.1491  0.5411 -1.1271
 6508SOL    HW225361   4.789   7.561   9.511 -0.0227  0.2473  0.6967
 6509SOL     OW25362   7.172   9.162   7.991 -0.2815  0.2620 -0.4553
 6509SOL    HW125363   7.146   9.122   7.908 -1.0051  0.4587 -0.3288
 6509SOL    HW225364   7.096   9.214   8.017 -0.2346 -0.1686  0.5693
 6510SOL     OW25365  10.067   6.696   2.994  0.0992  0.0477  0.4281
 6510SOL    HW125366  10.083   6.611   2.953  0.5590  1.5560 -2.7648
 6510SOL    HW225367   9.986   6.727   2.954  0.7821  1.7885  0.3451
 6511SOL     OW25368   4.077   2.038   9.234 -0.1871  0.6735 -0.1180
 6511SOL    HW125369   4.023   2.107   9.194 -1.1504  1.6076  2.5664
 6511SOL    HW225370   4.135   2.085   9.293  0.9818 -0.6543 -0.1636
 6512SOL     OW25371   7.415   1.732  10.111 -0.0939  0.1032  0.5792
 6512SOL    HW125372   7.343   1.756  10.170 -0.1316  0.3386  0.4409
 6512SOL    HW225373   7.401   1.787  10.034 -0.0145 -0.1632  0.3742
 6513SOL     OW25374   7.612   3.530   6.244 -0.2062  0.5779 -0.8112
 6513SOL    HW125375   7.672   3.596   6.209 -1.7034  2.0911 -0.6637
 6513SOL    HW225376   7.526   3.554   6.208 -1.1628  0.0030  0.9687
 6514SOL     OW25377   3.763   0.099   9.315  0.4776 -0.2622  0.7173
 6514SOL    HW125378   3.765   0.031   9.382 -0.4417 -0.7995  0.2187
 6514SOL    HW225379   3.688   0.077   9.261  1.2176  0.1524 -0.5120
 6515SOL     OW25380   5.951   9.182  10.071 -0.2393  0.0681 -0.6366
 6515SOL    HW125381   5.881   9.159  10.009 -1.8676 -1.3965  1.6085
 6515SOL    HW225382   5.942   9.277  10.083 -2.0301 -0.1293 -0.2071
 6516SOL     OW25383   7.848   7.710   8.884  0.6507  0.0603 -0.0885
 6516SOL    HW125384   7.814   7.639   8.829  1.2179 -1.1696  1.1047
 6516SOL    HW225385   7.935   7.679   8.911  0.6358  0.9270  0.9749
 6517SOL     OW25386   7.080   7.328   1.383 -0.4591  1.0475  0.3822
 6517SOL    HW125387   7.023   7.252   1.398  0.1954  0.7274  1.3694
 6517SOL    HW225388   7.064   7.385   1.459 -0.3043  1.4898  0.0859
 6518SOL     OW25389   0.636   0.819   8.366 -0.2193  0.1015 -0.2955
 6518SOL    HW125390   0.637   0.829   8.271 -0.2068  0.7722 -0.2320
 6518SOL    HW225391   0.697   0.886   8.397 -0.4075  0.0456  0.1949
 6519SOL     OW25392   4.441   7.684  10.608 -0.3030 -0.3172  0.2956
 6519SOL    HW125393   4.502   7.756  10.597  0.5954 -1.2128 -0.8764
 6519SOL    HW225394   4.451   7.657  10.699  2.7866 -1.8984 -0.3859
 6520SOL     OW25395   1.745   2.007   2.490  0.0955 -0.1983 -0.8577
 6520SOL    HW125396   1.667   2.017   2.436 -0.0604 -0.8043 -0.7494
 6520SOL    HW225397   1.727   1.930   2.543 -0.2783  1.0557  0.9359
 6521SOL     OW25398  10.042   7.868   9.894  0.3494  0.3946 -0.6962
 6521SOL    HW125399   9.999   7.897   9.814  0.0687  0.5217 -0.5024
 6521SOL    HW225400  10.073   7.949   9.935  1.1141  0.2746 -1.0209
 6522SOL     OW25401   8.434   8.378   5.059  0.4314 -0.7733 -0.3117
 6522SOL    HW125402   8.438   8.300   5.004 -2.2493 -2.7813  2.0240
 6522SOL    HW225403   8.347   8.415   5.041  1.4784  1.5592 -1.0570
 6523SOL     OW25404   5.085   0.258   7.743 -0.1371  0.3885  0.0988
 6523SOL    HW125405   5.147   0.307   7.797 -2.0162  2.1587  0.7801
 6523SOL    HW225406   5.002   0.263   7.790 -0.8149 -2.0452 -0.6860
 6524SOL     OW25407   3.715   7.212   0.811 -0.2620  0.5445  0.2638
 6524SOL    HW125408   3.711   7.214   0.907  1.6420 -2.0706  0.4961
 6524SOL    HW225409   3.796   7.257   0.789 -0.1419  0.1824 -0.0420
 6525SOL     OW25410   5.311   7.384   4.422 -0.2014  0.0209  0.4032
 6525SOL    HW125411   5.338   7.295   4.401  1.0015  0.4011  0.2769
 6525SOL    HW225412   5.351   7.403   4.507 -1.4970  0.0099  1.0401
 6526SOL     OW25413   5.325   8.550   6.587 -0.4707 -0.0058  0.2859
 6526SOL    HW125414   5.324   8.541   6.492  0.2016 -1.9766  0.4177
 6526SOL    HW225415   5.323   8.460   6.620  3.9987  0.2798  2.0405
 6527SOL     OW25416   6.130   0.606   6.120  0.8751  0.2180 -0.1947
 6527SOL    HW125417   6.137   0.582   6.212  1.0925 -0.5781 -0.4086
 6527SOL    HW225418   6.176   0.690   6.114  0.5126  0.4709  0.4906
 6528SOL     OW25419   5.931   1.114   1.927 -0.0441  0.3656 -0.6543
 6528SOL    HW125420   5.872   1.169   1.876  0.0558  2.3214  1.1981
 6528SOL    HW225421   5.875   1.072   1.992  0.5010  2.4211  1.2704
 6529SOL     OW25422   0.306   8.615   0.542  0.1102  0.0911 -0.2898
 6529SOL    HW125423   0.221   8.570   0.548  0.6194 -0.7905  0.5723
 6529SOL    HW225424   0.292   8.698   0.587 -0.4427  0.1671 -0.5967
 6530SOL     OW25425   6.442   5.634   9.051  0.0719  0.2900 -0.2171
 6530SOL    HW125426   6.353   5.599   9.056 -0.5639  1.5936 -1.5881
 6530SOL    HW225427   6.473   5.633   9.141 -1.7527  0.8279  0.4617
 6531SOL     OW25428  10.335   2.957  10.658  0.1779  0.3421 -0.1685
 6531SOL    HW125429  10.423   2.992  10.674 -0.1102  0.6369  0.8616
 6531SOL    HW225430  10.307   2.924  10.743 -0.9993  0.9199 -0.3148
 6532SOL     OW25431   9.807   0.315   4.922  0.1107 -0.9670  0.2349
 6532SOL    HW125432   9.846   0.329   5.008 -0.2239  1.9259  0.0234
 6532SOL    HW225433   9.713   0.330   4.936  0.0423 -0.5480 -0.5814
 6533SOL     OW25434   0.802   4.970   7.546 -0.0782  0.1564  0.5169
 6533SOL    HW125435   0.850   4.892   7.573 -0.4649 -0.0514  0.6187
 6533SOL    HW225436   0.868   5.038   7.540  0.2226 -0.1168  0.6886
 6534SOL     OW25437   4.992   5.300   6.280 -0.0916 -0.4363 -0.2269
 6534SOL    HW125438   4.993   5.310   6.375  1.2985 -0.0982 -0.2544
 6534SOL    HW225439   5.029   5.213   6.265 -0.6932 -0.6601 -0.4560
 6535SOL     OW25440   8.275   0.368  10.044  0.1570  0.4036 -0.4907
 6535SOL    HW125441   8.291   0.364  10.138  0.2024 -0.8663 -0.5353
 6535SOL    HW225442   8.317   0.290  10.009 -1.4717 -0.1704 -1.3066
 6536SOL     OW25443   8.374   6.587   9.147 -0.7313  0.2781  0.0398
 6536SOL    HW125444   8.394   6.642   9.222 -1.6206 -0.2857  0.7011
 6536SOL    HW225445   8.432   6.619   9.078  0.5738  0.3693  1.1454
 6537SOL     OW25446   7.989   6.867   6.561 -0.9594  0.0695 -0.3972
 6537SOL    HW125447   8.076   6.861   6.520 -0.2325 -0.2000  1.1031
 6537SOL    HW225448   7.949   6.782   6.544 -1.2516  0.4385 -1.7078
 6538SOL     OW25449   5.445   8.831   1.126 -0.4486  0.0599 -0.1655
 6538SOL    HW125450   5.451   8.922   1.152 -0.3086  0.9134 -2.8222
 6538SOL    HW225451   5.465   8.781   1.205  2.9367  2.3412  0.6075
 6539SOL     OW25452   1.415   4.119   3.178  0.2259 -0.1878 -0.3345
 6539SOL    HW125453   1.503   4.114   3.142 -0.0458 -2.2924 -0.8122
 6539SOL    HW225454   1.386   4.028   3.186 -0.8829  0.2928  2.4489
 6540SOL     OW25455   9.966   6.408   1.556 -0.0438 -0.1566  0.7991
 6540SOL    HW125456  10.012   6.406   1.472 -1.3650 -0.1604  0.0450
 6540SOL    HW225457  10.022   6.358   1.615 -0.0616 -1.9471 -0.6023
 6541SOL     OW25458   8.560   5.580   1.154 -0.2131  0.2979  0.4543
 6541SOL    HW125459   8.531   5.489   1.166 -1.7128  0.9110  2.0976
 6541SOL    HW225460   8.614   5.578   1.076  1.3384 -2.3412  1.4555
 6542SOL     OW25461   0.224   8.555   3.803 -0.2631  0.3176 -0.1489
 6542SOL    HW125462   0.196   8.463   3.800 -0.8563  0.5076 -0.8824
 6542SOL    HW225463   0.145   8.603   3.827  0.3574  0.5311  1.5726
 6543SOL     OW25464   2.065   9.702   6.161 -0.3758 -0.0324 -0.1152
 6543SOL    HW125465   2.109   9.753   6.229 -1.5249 -0.3509  0.9066
 6543SOL    HW225466   2.091   9.611   6.179  0.0863 -0.0173 -0.7021
 6544SOL     OW25467   4.047   2.607   0.101 -0.5261 -0.3476 -0.4823
 6544SOL    HW125468   4.017   2.545   0.034 -1.6739  0.3647 -0.6568
 6544SOL    HW225469   4.131   2.571   0.131 -1.7926 -2.7928  0.4278
 6545SOL     OW25470   5.973   0.387   1.009 -0.2364  0.4535 -0.3077
 6545SOL    HW125471   6.017   0.340   1.080  1.4435  2.0183 -0.2557
 6545SOL    HW225472   5.907   0.442   1.054  0.1040  0.6558 -0.0509
 6546SOL     OW25473   1.841  10.590   8.398  0.3766  0.0708 -0.7335
 6546SOL    HW125474   1.787  10.616   8.473  0.4390  0.1307 -0.7090
 6546SOL    HW225475   1.894  10.518   8.431 -0.8441 -1.0870 -1.2157
 6547SOL     OW25476   8.471   3.830   9.355 -0.0059 -0.1255 -0.6450
 6547SOL    HW125477   8.410   3.832   9.282 -0.7599 -0.5404 -0.0427
 6547SOL    HW225478   8.418   3.850   9.432  1.0225  1.6728 -0.3564
 6548SOL     OW25479   9.476   4.039   8.970  0.5951 -0.4292 -0.0965
 6548SOL    HW125480   9.456   3.956   9.014 -0.6154 -0.4513 -0.6551
 6548SOL    HW225481   9.494   4.015   8.879  0.3704 -0.1026 -0.2307
 6549SOL     OW25482   3.713   9.562   1.265  0.0748 -0.2904 -0.0683
 6549SOL    HW125483   3.628   9.551   1.223 -0.9534  0.1594  1.7643
 6549SOL    HW225484   3.762   9.621   1.207 -1.2192  0.1880 -0.7062
 6550SOL     OW25485   6.631   3.664   5.180  0.4051  0.2742 -0.2188
 6550SOL    HW125486   6.543   3.685   5.211  0.0427 -0.0336 -1.0040
 6550SOL    HW225487   6.673   3.621   5.255  1.5612  4.5182  1.8657
 6551SOL     OW25488   8.502   3.385   4.789  0.1406  0.6623  0.3570
 6551SOL    HW125489   8.497   3.479   4.810 -0.0949  0.2913  2.1319
 6551SOL    HW225490   8.419   3.350   4.821  0.3580 -0.1972 -0.0236
 6552SOL     OW25491   2.766   8.595   7.949 -0.1657 -0.4770  0.7806
 6552SOL    HW125492   2.794   8.669   8.002 -1.3528 -0.2537  1.1366
 6552SOL    HW225493   2.761   8.522   8.012 -0.0301 -0.6003  0.6490
 6553SOL     OW25494   6.086   2.830   2.482 -0.0320 -0.8542 -0.0548
 6553SOL    HW125495   6.136   2.867   2.409  0.0236  1.2059  0.9483
 6553SOL    HW225496   6.056   2.745   2.450  0.8175 -0.4448 -2.0979
 6554SOL     OW25497   8.082   4.485  10.172  0.2248  0.7105  0.0319
 6554SOL    HW125498   8.075   4.391  10.152 -1.2270 -0.2940  4.1945
 6554SOL    HW225499   7.994   4.510  10.200  1.1945  2.5933  1.6164
 6555SOL     OW25500   8.940   9.224   1.668 -0.1078 -0.1992  0.2569
 6555SOL    HW125501   8.917   9.300   1.722 -1.3935 -0.3264 -0.0718
 6555SOL    HW225502   8.955   9.153   1.731  0.8178  0.2493  0.5516
 6556SOL     OW25503   5.483   8.285   9.197  0.2071 -0.1554  0.3801
 6556SOL    HW125504   5.546   8.344   9.154 -0.0897 -0.6312 -0.7500
 6556SOL    HW225505   5.411   8.278   9.134 -0.8576  0.1465  1.5245
 6557SOL     OW25506   2.183   3.549   2.226  0.4015 -0.2331 -0.3782
 6557SOL    HW125507   2.154   3.521   2.313 -0.9204  0.1356 -0.6717
 6557SOL    HW225508   2.213   3.469   2.183 -0.0196 -0.6119  0.0205
 6558SOL     OW25509   0.399   7.717   3.693 -0.5667 -0.4007  0.5272
 6558SOL    HW125510   0.383   7.713   3.787  2.1187 -0.3986  1.0705
 6558SOL    HW225511   0.442   7.802   3.679 -1.8579  0.0615 -0.8931
 6559SOL     OW25512   2.253   5.617   4.019 -0.1627 -0.3302  0.2010
 6559SOL    HW125513   2.251   5.643   4.111 -2.1345  0.6029 -0.0424
 6559SOL    HW225514   2.345   5.617   3.995  0.3125  0.4167  1.9060
 6560SOL     OW25515   8.085   2.056   9.466 -0.3566 -0.1879  0.4016
 6560SOL    HW125516   8.166   2.088   9.426 -1.2012 -1.0083 -2.2331
 6560SOL    HW225517   8.065   2.119   9.535  2.0612  0.4914  0.5746
 6561SOL     OW25518   2.377   7.783   2.976 -0.0456  0.0979 -0.2920
 6561SOL    HW125519   2.408   7.717   3.038 -0.5079 -0.1575 -0.3321
 6561SOL    HW225520   2.456   7.810   2.928  0.0102 -1.0588 -0.8816
 6562SOL     OW25521   1.150   9.363  10.626  0.0976 -0.7917  0.3135
 6562SOL    HW125522   1.244   9.344  10.618 -0.2459 -1.8053 -2.0111
 6562SOL    HW225523   1.123   9.389  10.538 -1.7911 -0.3906  0.9691
 6563SOL     OW25524   1.457  10.428   3.637 -0.2382 -0.1851  0.3766
 6563SOL    HW125525   1.456  10.375   3.717  0.1453 -2.7513 -1.1954
 6563SOL    HW225526   1.377  10.402   3.591  1.2337 -1.4608 -1.6241
 6564SOL     OW25527   5.505   3.070   8.246 -0.1475 -0.1263  0.1612
 6564SOL    HW125528   5.503   3.073   8.341  0.3179 -0.5385  0.1903
 6564SOL    HW225529   5.421   3.030   8.222 -0.1726 -0.2241  0.4074
 6565SOL     OW25530   2.647   9.461   8.505 -0.4381  0.2945  0.0295
 6565SOL    HW125531   2.559   9.428   8.487 -0.0944 -0.6418  0.0418
 6565SOL    HW225532   2.668   9.429   8.592 -0.1971  0.7706  0.1522
 6566SOL     OW25533   9.045   6.329   8.892  0.1606  0.4909 -0.3060
 6566SOL    HW125534   8.992   6.384   8.835  1.0809  0.6085 -1.0689
 6566SOL    HW225535   9.135   6.346   8.865  0.5270 -0.5630  0.1942
 6567SOL     OW25536   0.421   3.408   8.523  0.5603 -0.0082  0.5723
 6567SOL    HW125537   0.388   3.489   8.486 -2.0490 -1.9986 -1.8691
 6567SOL    HW225538   0.346   3.369   8.568 -0.0308 -3.3289 -2.7057
 6568SOL     OW25539   3.224   0.419   7.916 -0.1350 -0.3162  0.3088
 6568SOL    HW125540   3.212   0.461   8.002  0.7989  2.1916 -0.7003
 6568SOL    HW225541   3.135   0.394   7.890 -0.7641  1.0219  1.0283
 6569SOL     OW25542   9.321   8.657   0.915 -0.1089 -0.4358  0.1659
 6569SOL    HW125543   9.272   8.655   0.997 -0.8259  2.0152 -0.1034
 6569SOL    HW225544   9.268   8.607   0.854 -0.8245 -0.2514  0.6177
 6570SOL     OW25545   7.149   3.253   0.948  0.0581  0.2203 -0.5585
 6570SOL    HW125546   7.074   3.310   0.931  0.7109  1.1549 -0.4038
 6570SOL    HW225547   7.110   3.169   0.974 -0.9346  0.0463 -2.4386
 6571SOL     OW25548   3.245   5.752   5.023 -0.4374  0.2969 -0.2728
 6571SOL    HW125549   3.190   5.731   5.098 -1.2129  1.6280 -0.4489
 6571SOL    HW225550   3.184   5.763   4.950  0.2224  0.0453 -0.8769
 6572SOL     OW25551   4.551   0.535   8.035  0.1114  0.8018 -0.1862
 6572SOL    HW125552   4.637   0.495   8.047 -0.7955 -1.2783 -0.2041
 6572SOL    HW225553   4.569   0.623   8.002  2.1920  0.0369 -1.1940
 6573SOL     OW25554   1.252   9.121   8.517  0.1127 -0.2477 -0.7525
 6573SOL    HW125555   1.287   9.098   8.603 -0.7998 -2.1150 -0.8439
 6573SOL    HW225556   1.278   9.213   8.505  1.6894 -0.4333  0.7726
 6574SOL     OW25557   6.190   0.157   3.791  0.4057 -0.2335 -0.3389
 6574SOL    HW125558   6.201   0.184   3.882  0.6721  2.7880 -1.1574
 6574SOL    HW225559   6.274   0.177   3.750 -0.2227 -0.0433 -1.5851
 6575SOL     OW25560   1.042   0.954   6.296 -0.3129 -0.0895  0.1712
 6575SOL    HW125561   1.083   0.994   6.219 -1.1395 -0.4109 -0.4499
 6575SOL    HW225562   1.006   1.028   6.345 -1.5970  0.0006 -0.8342
 6576SOL     OW25563   4.482   8.397   2.557 -0.1824  0.5911  0.3508
 6576SOL    HW125564   4.387   8.402   2.548 -0.1319  2.1766  0.4057
 6576SOL    HW225565   4.502   8.304   2.548 -1.7050  0.2638  0.0517
 6577SOL     OW25566   9.682   6.240   9.598 -0.2296  0.2408  0.1579
 6577SOL    HW125567   9.599   6.195   9.616  1.3710 -3.3061 -0.2866
 6577SOL    HW225568   9.675   6.267   9.507 -0.2640 -1.7993 -0.4920
 6578SOL     OW25569   1.553   4.330   9.021 -0.1442 -0.8955  0.0484
 6578SOL    HW125570   1.460   4.310   9.033  0.0304 -0.9491  1.4445
 6578SOL    HW225571   1.557   4.425   9.011 -0.1905 -0.6475  2.0132
 6579SOL     OW25572   1.657   3.811   1.768  0.0543  0.5792 -0.5128
 6579SOL    HW125573   1.743   3.769   1.777 -0.0678  0.3800 -0.2223
 6579SOL    HW225574   1.670   3.883   1.707  0.1740 -0.1564 -1.3684
 6580SOL     OW25575   1.098   4.077   9.491 -0.0152  0.3532  0.4068
 6580SOL    HW125576   1.096   4.046   9.582 -0.5451  1.0601  0.6494
 6580SOL    HW225577   1.059   4.006   9.441 -1.7023  0.8020  1.0202
 6581SOL     OW25578   5.108   1.674   1.162  0.7804  0.0620  0.4403
 6581SOL    HW125579   5.040   1.691   1.227  0.1582 -1.1920  0.1401
 6581SOL    HW225580   5.139   1.585   1.180  1.0330 -0.0803 -0.5844
 6582SOL     OW25581   2.704   2.337   5.853  0.3474  0.2346 -0.0978
 6582SOL    HW125582   2.773   2.289   5.807  0.2186  1.6078 -1.8311
 6582SOL    HW225583   2.752   2.393   5.914  0.6160 -0.4706  0.3530
 6583SOL     OW25584   0.806   0.768   1.252  0.1300  0.5541  0.4495
 6583SOL    HW125585   0.855   0.801   1.176  0.6120  0.5178  0.7435
 6583SOL    HW225586   0.744   0.705   1.214  0.5970  0.2835  0.1208
 6584SOL     OW25587   9.801  10.605   6.820  0.2228  0.1486  0.3969
 6584SOL    HW125588   9.872  10.543   6.839  1.7319  1.3239 -1.1161
 6584SOL    HW225589   9.820  10.681   6.875 -1.0189 -0.2682  1.4468
 6585SOL     OW25590   2.312   4.325   6.477 -0.0082 -0.6291 -0.1644
 6585SOL    HW125591   2.379   4.291   6.418 -1.0840  0.6755 -2.2684
 6585SOL    HW225592   2.231   4.319   6.427 -1.1468 -0.3741  1.5763
 6586SOL     OW25593   3.997   6.915   6.144  0.3363 -0.7871  0.2897
 6586SOL    HW125594   3.905   6.891   6.144  0.3569 -0.8661  0.2655
 6586SOL    HW225595   4.014   6.946   6.055 -0.1261  0.9759  0.7814
 6587SOL     OW25596   3.501   2.505   5.498  0.2894  0.4015 -0.0370
 6587SOL    HW125597   3.458   2.481   5.416  0.6501 -1.8969  0.3713
 6587SOL    HW225598   3.429   2.530   5.556  0.0029  1.6790 -0.8888
 6588SOL     OW25599   0.256   1.016   8.696 -0.2936  0.1822  0.6636
 6588SOL    HW125600   0.187   1.077   8.671  0.7130  1.2204  0.3129
 6588SOL    HW225601   0.264   0.957   8.622  0.2142  1.0055  0.0435
 6589SOL     OW25602   0.306   0.868   2.881  0.1843  0.3952  0.2235
 6589SOL    HW125603   0.212   0.851   2.868  0.0616 -0.9351  2.3583
 6589SOL    HW225604   0.313   0.895   2.972  1.5057  4.2177 -0.7978
 6590SOL     OW25605  10.180   5.899   1.064 -0.3991  0.1173  0.3718
 6590SOL    HW125606  10.104   5.900   1.122 -0.0805  0.0978  0.7856
 6590SOL    HW225607  10.148   5.856   0.984 -1.0240  0.7463  0.2681
 6591SOL     OW25608  10.160   3.076   2.039 -0.4262  0.0239  0.5993
 6591SOL    HW125609  10.161   3.025   1.958  1.2676  0.3297  0.3925
 6591SOL    HW225610  10.226   3.034   2.094 -0.0749  1.0775  1.0072
 6592SOL     OW25611   5.837   9.284   0.967  0.4620 -0.5181 -0.3243
 6592SOL    HW125612   5.885   9.236   0.899  1.6522  1.1920 -0.7912
 6592SOL    HW225613   5.808   9.364   0.922 -1.8096 -0.9450  0.2967
 6593SOL     OW25614   9.933   3.259  10.481 -0.1101 -0.5758 -0.2641
 6593SOL    HW125615   9.937   3.233  10.389  0.1640 -0.7765 -0.1964
 6593SOL    HW225616   9.840   3.279  10.496 -0.7532 -3.4758  0.1939
 6594SOL     OW25617   9.518   5.982   1.671  0.1134  0.4332 -0.6000
 6594SOL    HW125618   9.472   5.919   1.616 -1.7840  0.5924  0.6897
 6594SOL    HW225619   9.528   6.060   1.617  0.3425 -0.1647 -1.4326
 6595SOL     OW25620   5.753   6.483   2.081 -0.4879  0.5183 -0.2912
 6595SOL    HW125621   5.809   6.546   2.036 -0.3307  1.3565  1.0221
 6595SOL    HW225622   5.813   6.416   2.113 -0.4894  0.3806 -0.5766
 6596SOL     OW25623   1.120   5.075   8.981  0.6731 -0.3707  0.5602
 6596SOL    HW125624   1.143   5.150   8.927 -0.7543  0.4643  1.0800
 6596SOL    HW225625   1.083   5.011   8.920 -2.0407  1.0241  0.6048
 6597SOL     OW25626   1.899   5.144   4.332 -1.0765  0.2110  0.3770
 6597SOL    HW125627   1.922   5.181   4.247  0.1100 -0.0119  0.5936
 6597SOL    HW225628   1.902   5.218   4.393  0.9061 -0.1055  0.7361
 6598SOL     OW25629   3.244   5.293   4.555 -0.4395 -0.0852  0.4824
 6598SOL    HW125630   3.284   5.331   4.634  1.2196 -2.6229  0.9950
 6598SOL    HW225631   3.197   5.216   4.587 -2.3653  0.5346 -0.6844
 6599SOL     OW25632   7.822   5.879   7.344  0.3180 -0.4235  0.4876
 6599SOL    HW125633   7.908   5.846   7.369  0.8865 -0.2515 -1.1035
 6599SOL    HW225634   7.766   5.864   7.420  1.3431 -2.1059  0.9345
 6600SOL     OW25635   6.150   9.523   0.647  0.5626  0.4279  0.1493
 6600SOL    HW125636   6.096   9.567   0.712  1.3278  0.8675  0.4902
 6600SOL    HW225637   6.171   9.591   0.583  0.1161  0.0845 -0.3733
 6601SOL     OW25638   6.686   7.396  10.387 -0.6287 -0.0778  0.0678
 6601SOL    HW125639   6.731   7.339  10.325 -1.2950 -0.2092 -0.3112
 6601SOL    HW225640   6.720   7.483  10.369  2.5254 -0.6166  2.5262
 6602SOL     OW25641   7.742   3.518   4.702 -0.1697 -0.0609 -0.0122
 6602SOL    HW125642   7.817   3.495   4.648  1.2931 -0.6767  2.1468
 6602SOL    HW225643   7.779   3.569   4.774 -1.7346 -0.7997  1.3704
 6603SOL     OW25644   4.849  10.704   4.402  0.3691  0.4644 -0.1315
 6603SOL    HW125645   4.892  10.732   4.321  0.2720  1.7664  0.2530
 6603SOL    HW225646   4.871  10.772   4.465 -0.2041 -0.1448  0.7411
 6604SOL     OW25647   5.689   4.441   9.342  0.7800 -0.2523 -0.1422
 6604SOL    HW125648   5.639   4.499   9.399 -0.1130  0.3339 -1.4433
 6604SOL    HW225649   5.669   4.353   9.373  0.3145  0.0577  0.4539
 6605SOL     OW25650   0.596  10.277   9.442  0.1105 -0.1567  0.3727
 6605SOL    HW125651   0.634  10.351   9.490 -2.8514  1.3566  0.5874
 6605SOL    HW225652   0.597  10.304   9.351 -1.3716  0.3935  0.4968
 6606SOL     OW25653   3.437   5.167   0.992  0.9190  0.1941  0.4457
 6606SOL    HW125654   3.452   5.076   0.966 -1.2611  0.3113 -1.5455
 6606SOL    HW225655   3.421   5.163   1.086  1.5578 -1.3640  0.5202
 6607SOL     OW25656   4.428   6.735   9.953  0.0360 -0.8133  0.4268
 6607SOL    HW125657   4.430   6.814   9.899 -2.4645 -0.1518  1.1407
 6607SOL    HW225658   4.509   6.689   9.932  0.5901  0.9165 -1.5616
 6608SOL     OW25659   8.504   5.264   0.432  0.4086 -0.3695 -0.2265
 6608SOL    HW125660   8.502   5.177   0.472  0.7345 -0.1213  0.3463
 6608SOL    HW225661   8.477   5.249   0.342  0.0140 -0.9983 -0.0148
 6609SOL     OW25662   4.997   8.375   8.491 -0.4116 -0.0840  0.5630
 6609SOL    HW125663   4.987   8.448   8.431  2.4220  0.1360  0.2043
 6609SOL    HW225664   5.068   8.322   8.453  0.4897 -0.7164  2.9158
 6610SOL     OW25665   7.799   6.111   1.521  0.3227 -0.1658  0.6300
 6610SOL    HW125666   7.822   6.067   1.439  2.1861  3.0828 -0.7750
 6610SOL    HW225667   7.734   6.176   1.497  0.1910  0.2186  1.9277
 6611SOL     OW25668   2.527   9.708   3.096  0.6940 -0.0437  0.3960
 6611SOL    HW125669   2.471   9.669   3.028 -0.3817 -0.5588  1.5320
 6611SOL    HW225670   2.467   9.725   3.169  2.0260 -0.6197  1.6680
 6612SOL     OW25671   6.681   8.826   3.603  0.0367 -0.1694  0.4229
 6612SOL    HW125672   6.727   8.746   3.577  0.7819 -0.1640  1.6543
 6612SOL    HW225673   6.640   8.804   3.687 -2.0522 -0.0945 -0.5196
 6613SOL     OW25674   3.540   6.762   8.867  0.0375 -0.2259  0.4537
 6613SOL    HW125675   3.474   6.829   8.853 -2.4388 -2.0809  2.3073
 6613SOL    HW225676   3.598   6.798   8.935 -0.9150  0.2980  1.0089
 6614SOL     OW25677   6.665   9.329   2.939 -0.7314  0.2845 -0.1358
 6614SOL    HW125678   6.651   9.407   2.885 -1.8726 -0.7499 -1.4333
 6614SOL    HW225679   6.732   9.279   2.891 -2.2952 -1.0057 -1.1072
 6615SOL     OW25680   6.959   5.865   8.789 -0.5592 -0.2927  0.3527
 6615SOL    HW125681   6.950   5.906   8.875 -0.5530 -1.2039  0.8121
 6615SOL    HW225682   7.050   5.880   8.764 -0.0574 -1.4823  1.3206
 6616SOL     OW25683   8.359   9.334   0.760  0.5048  0.8888 -0.2959
 6616SOL    HW125684   8.349   9.252   0.712 -2.4294 -0.0951  1.6983
 6616SOL    HW225685   8.398   9.309   0.844 -2.1731  1.0193  1.1311
 6617SOL     OW25686   9.384   3.713   7.958 -0.0284 -0.0353 -0.4163
 6617SOL    HW125687   9.391   3.717   8.054  0.6050 -2.1827 -0.3397
 6617SOL    HW225688   9.411   3.801   7.930  0.6248  0.3819  1.3280
 6618SOL     OW25689   8.732   0.071   5.807  0.0639 -0.3159 -0.0324
 6618SOL    HW125690   8.749  -0.003   5.866  0.5566 -1.1918 -1.2485
 6618SOL    HW225691   8.640   0.094   5.824 -0.2814 -1.5945 -0.0474
 6619SOL     OW25692   2.185   8.788   6.065  0.1848  0.4605  0.1497
 6619SOL    HW125693   2.215   8.698   6.047  1.5683  0.7064  1.0839
 6619SOL    HW225694   2.265   8.836   6.086 -0.5977  1.8187  0.1179
 6620SOL     OW25695   6.835   7.218  10.177 -0.8587 -0.1052  0.3439
 6620SOL    HW125696   6.835   7.289  10.113  1.1532  2.2463  2.7062
 6620SOL    HW225697   6.914   7.169  10.158 -1.3568 -0.6928 -0.2357
 6621SOL     OW25698  10.406  10.630   9.754 -0.0581  0.0322 -0.7467
 6621SOL    HW125699  10.371  10.541   9.760  0.1825  0.0166  3.3191
 6621SOL    HW225700  10.329  10.687   9.757 -0.1529 -0.0885  2.4450
 6622SOL     OW25701   1.683   2.102   4.937  0.3262 -0.2469  0.3234
 6622SOL    HW125702   1.732   2.148   5.005  0.2583  0.1424  0.1077
 6622SOL    HW225703   1.610   2.160   4.917 -0.7378 -1.2038  1.2618
 6623SOL     OW25704   9.810   1.283   6.352  0.0327  0.7248 -0.1154
 6623SOL    HW125705   9.866   1.271   6.429  0.2779 -0.4979 -0.4580
 6623SOL    HW225706   9.773   1.196   6.336 -1.3204  1.3288 -0.3990
 6624SOL     OW25707   1.755   6.387  10.691 -0.0401 -0.0135  0.5385
 6624SOL    HW125708   1.699   6.392  10.768  1.2291  0.0748  1.4808
 6624SOL    HW225709   1.803   6.304  10.701 -1.0242 -0.8131 -0.9949
 6625SOL     OW25710   4.248  10.233   8.317  0.1032 -0.0432 -0.2705
 6625SOL    HW125711   4.337  10.226   8.281  0.0999 -1.1102 -0.0955
 6625SOL    HW225712   4.201  10.286   8.252  0.7602  0.2017 -0.5606
 6626SOL     OW25713   7.115   5.441   7.843 -0.1878  0.0299 -0.3699
 6626SOL    HW125714   7.192   5.386   7.855 -1.5249 -1.4703  2.2327
 6626SOL    HW225715   7.150   5.528   7.824  2.0905 -0.8194 -0.3720
 6627SOL     OW25716   9.395   4.595   2.288  0.5048  0.6585  0.1848
 6627SOL    HW125717   9.474   4.574   2.238 -0.2284  0.5903 -1.0027
 6627SOL    HW225718   9.350   4.661   2.235 -0.5656  0.2009  0.4842
 6628SOL     OW25719   1.899   7.932   3.878 -0.4130  0.0345  0.1616
 6628SOL    HW125720   1.942   7.979   3.806  0.3053 -1.8318 -0.6787
 6628SOL    HW225721   1.832   7.880   3.836  0.6437 -1.8247  0.6688
 6629SOL     OW25722   3.018   5.849   0.293 -0.0154 -0.8708 -0.1897
 6629SOL    HW125723   2.997   5.756   0.303  1.8952 -1.3270 -0.0743
 6629SOL    HW225724   3.114   5.853   0.298 -0.0313  1.0585 -0.6210
 6630SOL     OW25725   4.972   9.490   3.703  0.7546  0.0960 -0.0311
 6630SOL    HW125726   4.898   9.479   3.643  0.1560 -0.1115  0.7259
 6630SOL    HW225727   4.967   9.414   3.761  2.1282 -0.4200 -0.5481
 6631SOL     OW25728   3.971   3.315  10.279  0.0285 -0.1256 -0.3588
 6631SOL    HW125729   3.911   3.360  10.219  0.9206 -2.3405 -3.1613
 6631SOL    HW225730   4.054   3.310  10.230  0.9568 -1.6753  1.2437
 6632SOL     OW25731   0.782   1.651   3.040  0.2696 -0.2375 -0.1563
 6632SOL    HW125732   0.788   1.662   3.135  0.8391  1.0545 -0.3220
 6632SOL    HW225733   0.804   1.737   3.004 -3.0332  0.2367 -1.3976
 6633SOL     OW25734   8.972   6.911   7.759  0.7484  0.1047  0.0027
 6633SOL    HW125735   9.025   6.836   7.788 -1.0787 -0.8188  1.1283
 6633SOL    HW225736   8.946   6.955   7.840  0.9201  1.3595 -0.6034
 6634SOL     OW25737   0.677   1.017  10.511 -0.4426  0.2268 -0.2741
 6634SOL    HW125738   0.721   0.954  10.569 -1.6602 -0.5182 -0.1130
 6634SOL    HW225739   0.602   0.969  10.477 -0.5832  1.1450 -1.3149
 6635SOL     OW25740   9.611  10.600   8.770  0.1099  0.2310  1.0878
 6635SOL    HW125741   9.669  10.629   8.840  0.6884  0.4191  0.5420
 6635SOL    HW225742   9.669  10.560   8.705 -0.3202  0.7274  0.3731
 6636SOL     OW25743   7.996   0.785   3.585 -0.1768 -0.6902 -0.2386
 6636SOL    HW125744   7.931   0.716   3.578  0.1723 -1.0226 -0.2037
 6636SOL    HW225745   8.068   0.746   3.634  0.8137 -0.8828 -1.7901
 6637SOL     OW25746   7.729   4.062   7.797 -0.9069  0.5674 -1.0004
 6637SOL    HW125747   7.713   3.999   7.727 -1.6937  0.1298 -0.4393
 6637SOL    HW225748   7.723   4.010   7.878  2.0238  0.6252 -0.6520
 6638SOL     OW25749   1.781   1.147   4.175 -0.4371 -0.2990  0.5488
 6638SOL    HW125750   1.743   1.176   4.258 -0.8128 -0.5759  0.4790
 6638SOL    HW225751   1.706   1.142   4.115 -0.1368  0.0988  0.1346
 6639SOL     OW25752   2.987   6.126   7.041 -0.3156 -0.7131 -0.6475
 6639SOL    HW125753   2.905   6.176   7.037  0.5918  1.0208  0.8764
 6639SOL    HW225754   3.023   6.146   7.127  2.7105  0.2333 -1.9888
 6640SOL     OW25755   6.511   4.805   7.688 -0.4727 -0.4617  0.0058
 6640SOL    HW125756   6.482   4.817   7.598 -0.8269  0.4151  0.2223
 6640SOL    HW225757   6.464   4.727   7.719  0.4401 -1.3909 -0.8730
 6641SOL     OW25758   5.935   7.966   6.108  0.2232  0.1423  0.3228
 6641SOL    HW125759   5.948   8.060   6.115  2.4569 -0.2257  2.1993
 6641SOL    HW225760   6.008   7.935   6.054  1.1406 -0.7967  2.0337
 6642SOL     OW25761   6.991  10.074  10.075 -0.2107  0.1824  0.3587
 6642SOL    HW125762   7.085  10.094  10.075 -0.4233  1.2500  1.0466
 6642SOL    HW225763   6.954  10.129  10.007 -0.0400 -1.9817 -1.6148
 6643SOL     OW25764   2.261   4.508   0.574 -0.2520 -0.1259  0.1841
 6643SOL    HW125765   2.171   4.524   0.601 -1.6696  0.6071 -4.1711
 6643SOL    HW225766   2.256   4.435   0.513  1.7821  0.8907 -1.3350
 6644SOL     OW25767   9.008   4.343   0.930  0.3425  0.6316  0.1760
 6644SOL    HW125768   9.052   4.425   0.912  0.8534  0.2250 -0.4783
 6644SOL    HW225769   9.079   4.279   0.939  0.0383  0.5054  2.0874
 6645SOL     OW25770   0.040   7.329   1.919  0.6943  0.2814  0.2325
 6645SOL    HW125771   0.051   7.406   1.863  1.6775 -1.5668 -2.2871
 6645SOL    HW225772   0.130   7.299   1.935  0.3114 -0.5547  0.8748
 6646SOL     OW25773   4.834   8.336   3.067 -0.0240 -0.1467  0.1720
 6646SOL    HW125774   4.833   8.301   2.978  0.0020  1.6662 -0.5727
 6646SOL    HW225775   4.783   8.273   3.117 -2.6376  0.3082 -1.7318
 6647SOL     OW25776   1.470   5.558   5.331 -0.6344  0.3767  0.1291
 6647SOL    HW125777   1.536   5.583   5.395 -0.1540 -1.1800  0.2889
 6647SOL    HW225778   1.516   5.500   5.271 -1.2089  1.3683 -1.3411
 6648SOL     OW25779   5.885   0.576   5.278  0.0327 -0.0250  0.0128
 6648SOL    HW125780   5.835   0.574   5.197  0.3290  0.6629 -0.1910
 6648SOL    HW225781   5.889   0.485   5.306  0.1608 -0.3012 -0.8816
 6649SOL     OW25782   2.771   6.106   1.654 -0.0413  0.0790 -0.3595
 6649SOL    HW125783   2.778   6.190   1.609  0.9452  0.3778  0.3106
 6649SOL    HW225784   2.702   6.118   1.719 -0.1918  0.2378 -0.5503
 6650SOL     OW25785   0.052   4.166   9.790  0.2387 -0.1072  0.5067
 6650SOL    HW125786   0.077   4.125   9.873 -0.5154  0.9162  1.2663
 6650SOL    HW225787  -0.038   4.138   9.775  0.7586 -1.2835 -0.6345
 6651SOL     OW25788   3.024   8.954   0.055 -0.4362  0.3742  0.2845
 6651SOL    HW125789   2.932   8.974   0.037 -0.6615 -0.8421 -0.0585
 6651SOL    HW225790   3.020   8.881   0.118  0.2506 -0.5609 -0.7193
 6652SOL     OW25791   3.919   3.766   8.226 -0.0844 -0.3269  0.4450
 6652SOL    HW125792   3.982   3.831   8.256 -1.8470  0.7496  2.0493
 6652SOL    HW225793   3.924   3.696   8.291  1.7397 -1.8494 -1.2276
 6653SOL     OW25794   0.067   8.397   2.803 -0.0631  0.0626  0.1802
 6653SOL    HW125795   0.008   8.326   2.825  1.5702 -1.1391  0.9254
 6653SOL    HW225796   0.030   8.474   2.847 -0.2775 -0.9685  1.8852
 6654SOL     OW25797   9.820   1.125   5.903  0.1304 -0.5413  0.1910
 6654SOL    HW125798   9.754   1.057   5.907  0.6280 -0.9878  1.1882
 6654SOL    HW225799   9.801   1.173   5.823 -2.3531  0.3211  1.2055
 6655SOL     OW25800   2.095   1.407   0.394  0.0919  0.0904  0.1458
 6655SOL    HW125801   2.028   1.338   0.389  0.2852 -0.1962  1.2308
 6655SOL    HW225802   2.048   1.487   0.368 -0.1705 -0.3991 -0.9859
 6656SOL     OW25803   8.532   8.146   3.193  0.7245  0.1450  0.4223
 6656SOL    HW125804   8.581   8.200   3.255  1.1569  0.1205  0.1046
 6656SOL    HW225805   8.559   8.177   3.107  1.4730 -0.9815  0.2233
 6657SOL     OW25806   0.444   4.329   9.225 -0.6922  0.2234 -0.2156
 6657SOL    HW125807   0.457   4.276   9.147  1.4185  0.5647 -0.1611
 6657SOL    HW225808   0.490   4.281   9.294  3.2565  2.9915 -0.5939
 6658SOL     OW25809   6.931   6.714   4.800 -0.3704 -0.0276  0.3286
 6658SOL    HW125810   6.908   6.696   4.709  2.2804  1.4476 -0.7518
 6658SOL    HW225811   6.973   6.634   4.831  0.8280  0.2326 -0.5637
 6659SOL     OW25812  10.095   4.844   7.555 -0.4333  0.4897  0.0622
 6659SOL    HW125813  10.158   4.846   7.483  0.6438 -3.2472  0.6597
 6659SOL    HW225814  10.144   4.874   7.631 -0.4464  0.9409 -0.1076
 6660SOL     OW25815   4.775   5.963   1.221 -0.3486  0.1302 -0.2620
 6660SOL    HW125816   4.861   5.939   1.255 -0.4900  0.2407  0.1827
 6660SOL    HW225817   4.720   5.887   1.240 -1.1575  1.2629  2.4571
 6661SOL     OW25818   4.904  10.436   8.683 -0.6952  0.0702  0.0989
 6661SOL    HW125819   4.857  10.406   8.761 -1.8653  2.5160  0.4273
 6661SOL    HW225820   4.839  10.485   8.633  0.7614  0.9791 -0.9791
 6662SOL     OW25821   1.479   7.055   1.264  0.4010 -0.4472  0.5777
 6662SOL    HW125822   1.549   7.115   1.238  1.2835 -1.9001 -0.6145
 6662SOL    HW225823   1.398   7.097   1.237  1.0296  0.0360 -0.6141
 6663SOL     OW25824   2.541   2.614   5.956 -0.4440  0.3981 -0.2031
 6663SOL    HW125825   2.566   2.703   5.931 -0.4508  0.4634  0.0127
 6663SOL    HW225826   2.624   2.569   5.972 -0.4168  0.1475 -1.0289
 6664SOL     OW25827   7.348   2.648   6.452 -0.4550 -0.4070 -0.3401
 6664SOL    HW125828   7.380   2.562   6.424 -1.9270 -1.0308 -0.2105
 6664SOL    HW225829   7.423   2.707   6.440 -0.1195 -1.2188 -2.7332
 6665SOL     OW25830   9.438   1.324   6.294 -0.2579  0.0100  0.0924
 6665SOL    HW125831   9.459   1.326   6.388  0.0689 -0.3011  0.0286
 6665SOL    HW225832   9.430   1.231   6.274  0.0912  0.0578 -0.2791
 6666SOL     OW25833  10.425   2.426   4.501  0.4249  0.3000 -0.7986
 6666SOL    HW125834  10.464   2.442   4.415  0.9271 -0.9494 -0.8265
 6666SOL    HW225835  10.346   2.480   4.502  0.6405  0.6626 -1.8690
 6667SOL     OW25836   5.509   2.519   8.907 -0.0269 -0.8798 -0.0806
 6667SOL    HW125837   5.504   2.455   8.837  0.2271  0.0882 -1.0100
 6667SOL    HW225838   5.441   2.583   8.887 -0.0870 -0.6949  0.6675
 6668SOL     OW25839   9.602   6.998  10.298 -0.2205  0.4408 -0.2415
 6668SOL    HW125840   9.553   7.080  10.296  1.2989  1.4981  1.8225
 6668SOL    HW225841   9.577   6.957  10.381  0.5336 -0.1933 -0.3092
 6669SOL     OW25842   4.271   4.383   3.928 -0.2191 -0.0228 -0.6690
 6669SOL    HW125843   4.316   4.453   3.880  1.7376 -0.7302  0.0594
 6669SOL    HW225844   4.234   4.427   4.004  0.9827  0.2485 -0.2224
 6670SOL     OW25845  10.083   9.911   8.797 -0.1934  0.0382 -0.1713
 6670SOL    HW125846  10.034   9.830   8.784  1.1941 -1.2533  1.8830
 6670SOL    HW225847  10.147   9.912   8.726 -0.0667 -0.8219 -0.0859
 6671SOL     OW25848   4.582   8.652   4.418 -0.3807  0.7812  0.0676
 6671SOL    HW125849   4.639   8.649   4.496 -0.0658 -3.9907 -0.0599
 6671SOL    HW225850   4.511   8.591   4.439 -1.3244  0.8398 -2.6761
 6672SOL     OW25851  10.530   3.230   5.739 -0.3009 -0.0618  0.3928
 6672SOL    HW125852  10.495   3.195   5.658 -1.7922  1.6386  0.2419
 6672SOL    HW225853  10.501   3.169   5.807  0.0368 -0.9000 -0.1985
 6673SOL     OW25854   0.923  10.411   8.810  0.4084  0.1692  0.5139
 6673SOL    HW125855   0.940  10.317   8.815 -0.8400 -0.1116 -0.0774
 6673SOL    HW225856   0.965  10.439   8.728 -0.0727 -0.0701  0.1864
 6674SOL     OW25857   2.194  10.602   5.202  0.3355 -0.7322 -0.5361
 6674SOL    HW125858   2.139  10.670   5.240  1.4993 -0.7689  1.3974
 6674SOL    HW225859   2.250  10.647   5.140 -0.8088 -0.4457 -1.3906
 6675SOL     OW25860   7.364   5.106   5.015 -0.0956  0.0542 -0.1907
 6675SOL    HW125861   7.307   5.172   4.976  2.0866  0.3077 -3.3339
 6675SOL    HW225862   7.449   5.150   5.025  0.7226 -1.5080  0.1649
 6676SOL     OW25863   3.647   1.995   8.306 -0.0173  0.3011  0.2898
 6676SOL    HW125864   3.572   2.045   8.274  0.4108  1.0024  0.3749
 6676SOL    HW225865   3.723   2.046   8.282  0.5996 -1.3889 -1.6042
 6677SOL     OW25866   6.829   0.442   0.903  0.3717 -0.1335  0.1871
 6677SOL    HW125867   6.865   0.519   0.946  0.1105  0.1765 -0.1507
 6677SOL    HW225868   6.760   0.411   0.962 -0.3224  0.5793 -0.2343
 6678SOL     OW25869   6.131   4.027   7.773 -0.0197  0.0925 -0.4583
 6678SOL    HW125870   6.172   4.008   7.689  0.5622  1.2201 -0.4519
 6678SOL    HW225871   6.195   3.998   7.838  0.0333  0.2886 -0.4224
 6679SOL     OW25872   9.933   1.525   7.247 -0.0082  0.5162 -0.0616
 6679SOL    HW125873  10.016   1.568   7.265 -0.0056  1.0209 -1.2037
 6679SOL    HW225874   9.912   1.477   7.328  2.1413 -0.8585 -0.2424
 6680SOL     OW25875   0.782   1.807   4.376 -0.2160 -0.1505 -0.1960
 6680SOL    HW125876   0.742   1.724   4.351 -0.6385 -0.2836  0.8529
 6680SOL    HW225877   0.876   1.790   4.379 -0.3801 -0.9359  1.1832
 6681SOL     OW25878   6.394   8.097   6.743 -0.5849  0.3527  0.6219
 6681SOL    HW125879   6.405   8.144   6.826  1.6577 -1.0038  1.1873
 6681SOL    HW225880   6.359   8.011   6.769 -0.6195  0.2006  0.0850
 6682SOL     OW25881   2.564   7.851   4.761  0.1193 -0.0620 -0.1101
 6682SOL    HW125882   2.648   7.893   4.741  0.5462 -0.1620  1.3368
 6682SOL    HW225883   2.536   7.812   4.678  1.2157  0.4570 -0.7510
 6683SOL     OW25884   9.899   3.970   0.471 -0.0258 -0.5945 -0.0503
 6683SOL    HW125885   9.961   3.901   0.449  0.8981 -0.1682  1.0835
 6683SOL    HW225886   9.950   4.032   0.523 -0.5654  1.4256 -1.7752
 6684SOL     OW25887   5.616   6.543   1.062 -0.4006  0.1580 -0.4467
 6684SOL    HW125888   5.652   6.625   1.097  1.4999  0.0100 -1.8986
 6684SOL    HW225889   5.521   6.551   1.075 -0.3708  2.9865 -1.3348
 6685SOL     OW25890   6.974   6.741   2.656 -0.0941  0.4122 -0.1430
 6685SOL    HW125891   6.881   6.723   2.671  0.0700 -1.2316 -0.8766
 6685SOL    HW225892   6.976   6.792   2.575 -0.3604  0.3565 -0.1854
 6686SOL     OW25893   5.015   2.516   9.227 -0.3708 -0.3966 -0.2268
 6686SOL    HW125894   4.968   2.482   9.151  0.4891 -1.7104 -0.2020
 6686SOL    HW225895   5.053   2.599   9.197 -0.3552 -0.7187 -1.1158
 6687SOL     OW25896   4.829  10.590   1.911 -0.5286  0.2426  0.0670
 6687SOL    HW125897   4.852  10.617   2.000 -2.2065 -1.7462  1.1807
 6687SOL    HW225898   4.848  10.497   1.909 -0.6760  0.2252 -1.6284
 6688SOL     OW25899   4.324   1.047  10.114  0.0310  0.1773  0.0573
 6688SOL    HW125900   4.378   1.006  10.047  1.0072  1.1910  0.1835
 6688SOL    HW225901   4.315   1.138  10.086 -1.0130  0.2025  0.4220
 6689SOL     OW25902   4.790   5.094   4.141  0.1553 -0.1099 -0.5200
 6689SOL    HW125903   4.749   5.175   4.171 -1.8278 -1.4030  0.4628
 6689SOL    HW225904   4.766   5.088   4.048 -1.5575 -0.5950 -0.0804
 6690SOL     OW25905   5.629   5.321   3.867  0.8282 -0.2131  0.4817
 6690SOL    HW125906   5.539   5.295   3.852  0.9305 -0.3423  0.0789
 6690SOL    HW225907   5.681   5.251   3.828  1.1048 -0.3766  1.1281
 6691SOL     OW25908   0.577   3.294   4.095  0.2130 -0.2199  0.4010
 6691SOL    HW125909   0.622   3.362   4.044 -1.0173 -0.1891 -0.6704
 6691SOL    HW225910   0.564   3.222   4.034 -0.9781 -0.3205  0.7430
 6692SOL     OW25911   9.911   3.404   0.201 -0.4828 -0.0904 -0.3816
 6692SOL    HW125912   9.952   3.471   0.254  0.4608 -1.5681  0.8353
 6692SOL    HW225913   9.867   3.452   0.130  1.7822  1.6685 -0.6791
 6693SOL     OW25914   9.448   1.406   0.611 -0.0597  0.3110  0.1573
 6693SOL    HW125915   9.447   1.379   0.519 -0.5811 -0.9230  0.5066
 6693SOL    HW225916   9.431   1.325   0.660  1.5019  0.6907  1.4126
 6694SOL     OW25917   9.509   6.765   8.886  0.8001  0.1863 -0.0502
 6694SOL    HW125918   9.553   6.749   8.802  0.1334  1.4228 -0.6620
 6694SOL    HW225919   9.424   6.722   8.878  0.5527  0.6992 -0.1882
 6695SOL     OW25920   4.052   6.974   5.865 -0.2883 -0.4708 -0.6877
 6695SOL    HW125921   3.977   7.030   5.885  0.5685  0.5190 -0.1610
 6695SOL    HW225922   4.097   7.019   5.794  0.2443 -0.6337 -0.4603
 6696SOL     OW25923   6.758   9.935   7.288 -0.0299  0.8959 -0.0831
 6696SOL    HW125924   6.666   9.942   7.315 -0.3079 -1.7779 -0.0956
 6696SOL    HW225925   6.763   9.985   7.206 -1.5066  0.9455 -0.1694
 6697SOL     OW25926   6.005   2.229   0.735 -0.2361  0.0440  0.4868
 6697SOL    HW125927   6.018   2.306   0.789 -0.8579 -0.0092  0.7245
 6697SOL    HW225928   5.915   2.201   0.754 -0.8689  0.6494 -1.3583
 6698SOL     OW25929   0.834   0.264   1.320  0.0403  0.4634 -0.0150
 6698SOL    HW125930   0.863   0.354   1.332 -0.6920  0.7416 -0.2784
 6698SOL    HW225931   0.748   0.271   1.279  0.0159 -0.3579 -0.1357
 6699SOL     OW25932   2.287   0.734   5.039 -0.5297  0.1694 -0.3977
 6699SOL    HW125933   2.229   0.810   5.030  1.0623  1.4066 -0.7255
 6699SOL    HW225934   2.228   0.660   5.051 -2.1429  1.5944  1.1093
 6700SOL     OW25935   1.363   4.112   4.073  0.0358  0.7625  0.4347
 6700SOL    HW125936   1.428   4.042   4.077 -0.1021  0.6500  0.7663
 6700SOL    HW225937   1.341   4.130   4.165 -0.3051  0.8855  0.3308
 6701SOL     OW25938  10.511   4.455   8.620 -0.2637  0.3148 -0.0676
 6701SOL    HW125939  10.520   4.368   8.580 -1.8072  0.4731 -0.8070
 6701SOL    HW225940  10.587   4.503   8.588  2.2091 -1.4782  2.5098
 6702SOL     OW25941   3.633   7.944   1.569  0.0533 -0.4634  0.4993
 6702SOL    HW125942   3.718   7.983   1.549 -0.5513  0.1614 -0.9926
 6702SOL    HW225943   3.619   7.878   1.502 -1.1454  0.2585 -0.0033
 6703SOL     OW25944  10.160   1.974   0.701  0.2042 -0.0531 -0.0051
 6703SOL    HW125945  10.182   1.927   0.782 -2.1582 -0.8053  0.2672
 6703SOL    HW225946  10.242   1.976   0.652  0.8633 -2.9970  0.7425
 6704SOL     OW25947   1.724   5.390   9.512  0.6964 -0.0990 -0.0331
 6704SOL    HW125948   1.800   5.448   9.513  0.4289  0.2569  1.2904
 6704SOL    HW225949   1.738   5.331   9.585 -1.0371  0.9726  1.2445
 6705SOL     OW25950   3.990   5.509   7.937  0.3351  0.6429  0.7494
 6705SOL    HW125951   3.922   5.457   7.895 -0.6061  1.3939  1.3158
 6705SOL    HW225952   3.943   5.576   7.986  1.4863  1.2519  1.0622
 6706SOL     OW25953   3.148   2.359   4.845 -0.0549  0.8260  0.0930
 6706SOL    HW125954   3.134   2.451   4.826 -0.4215  0.9150  0.7558
 6706SOL    HW225955   3.080   2.337   4.908 -1.1308 -0.3702 -1.4299
 6707SOL     OW25956   1.549  10.669   6.926  0.1085 -0.2139  0.2153
 6707SOL    HW125957   1.560  10.725   6.848 -0.2872  0.4974  0.6564
 6707SOL    HW225958   1.611  10.704   6.989 -0.9569  0.5053  0.9043
 6708SOL     OW25959   1.439   4.917   3.238  0.3159  0.2519  0.0384
 6708SOL    HW125960   1.433   4.940   3.145  0.4102 -1.2744 -0.3757
 6708SOL    HW225961   1.385   4.839   3.246  1.0800 -0.1910  1.0680
 6709SOL     OW25962   2.512   3.888   1.275 -0.5684  0.4180 -0.5212
 6709SOL    HW125963   2.559   3.857   1.352 -0.2931  0.8653 -0.5046
 6709SOL    HW225964   2.424   3.852   1.284 -0.4429  0.2008 -0.1645
 6710SOL     OW25965   9.983   2.106   6.137  0.2623 -0.1778  0.2784
 6710SOL    HW125966  10.017   2.075   6.054  2.3671 -0.2319  1.1030
 6710SOL    HW225967   9.896   2.140   6.116  1.1683  0.8717 -2.1559
 6711SOL     OW25968   5.765   5.446   5.317  0.0944 -0.0322  0.4329
 6711SOL    HW125969   5.833   5.505   5.284 -0.0819 -0.1740 -0.1891
 6711SOL    HW225970   5.684   5.495   5.306  0.0396 -0.0552  0.7226
 6712SOL     OW25971   5.851   8.981   2.747  0.0322  0.2692 -0.0998
 6712SOL    HW125972   5.899   8.916   2.799  1.5352  1.3675 -0.0297
 6712SOL    HW225973   5.915   9.010   2.682 -1.2334  0.2906 -1.3610
 6713SOL     OW25974   0.359   2.682   5.726  0.0301  0.2407 -0.0714
 6713SOL    HW125975   0.329   2.731   5.803  1.3814  0.4878  0.3207
 6713SOL    HW225976   0.448   2.714   5.710  0.1856 -0.6228 -1.0559
 6714SOL     OW25977  10.094   9.041   8.709 -0.1447 -0.5574 -0.3744
 6714SOL    HW125978  10.128   9.022   8.622 -0.4629 -2.2331 -0.1634
 6714SOL    HW225979  10.002   9.063   8.693 -0.7316 -2.7425 -0.3389
 6715SOL     OW25980  10.592   2.691   7.295 -0.1865 -0.5357 -0.0914
 6715SOL    HW125981  10.512   2.660   7.338 -0.7994  1.4355  0.3278
 6715SOL    HW225982  10.560   2.741   7.219  0.5425  1.0577  0.5962
 6716SOL     OW25983   6.825   0.604   9.783  0.0110 -0.5341 -0.1198
 6716SOL    HW125984   6.810   0.678   9.841 -0.0736  0.0699 -0.8969
 6716SOL    HW225985   6.778   0.626   9.703  1.5309 -0.5474 -1.0549
 6717SOL     OW25986   8.045   9.871   6.576 -0.6996 -0.5458  0.4387
 6717SOL    HW125987   8.136   9.880   6.549 -0.6562  2.4944  1.2114
 6717SOL    HW225988   8.044   9.797   6.636  1.0509 -1.2494 -0.3549
 6718SOL     OW25989   7.813   0.561   4.840 -0.1917  0.4504  0.2530
 6718SOL    HW125990   7.787   0.635   4.894 -0.9561  1.9208 -1.9894
 6718SOL    HW225991   7.731   0.519   4.814 -0.1998  2.0105 -2.6554
 6719SOL     OW25992   5.289   2.581   2.270  0.0254  0.2702 -0.3753
 6719SOL    HW125993   5.368   2.530   2.252 -0.8871 -1.1244 -0.6115
 6719SOL    HW225994   5.243   2.585   2.186 -0.7412  0.0036  0.0195
 6720SOL     OW25995   2.612   0.303   6.626  0.0682 -0.1789  0.2189
 6720SOL    HW125996   2.546   0.237   6.645  0.3422 -0.6905 -0.5338
 6720SOL    HW225997   2.678   0.257   6.574  1.0222  0.3178  0.9553
 6721SOL     OW25998   7.562   0.610  10.349 -0.0535 -0.1017  0.1754
 6721SOL    HW125999   7.536   0.653  10.267 -0.3191 -0.9370 -0.1833
 6721SOL    HW226000   7.489   0.552  10.370 -0.1293  0.3336  1.1835
 6722SOL     OW26001   9.184  10.192   9.299 -0.7747 -0.4896  0.0833
 6722SOL    HW126002   9.252  10.245   9.259 -2.6522  0.2023 -2.4386
 6722SOL    HW226003   9.187  10.215   9.392  1.3994  0.6050 -0.2076
 6723SOL     OW26004  10.164   8.411   9.758 -0.0705 -0.0538 -0.4782
 6723SOL    HW126005  10.126   8.330   9.793 -2.3614  0.3970 -1.6676
 6723SOL    HW226006  10.182   8.391   9.666  1.6071  0.1095 -0.2056
 6724SOL     OW26007   6.235   0.356   9.424 -0.3148  0.2323  0.3566
 6724SOL    HW126008   6.304   0.319   9.479  1.2910  2.7358  0.1869
 6724SOL    HW226009   6.240   0.306   9.342  0.5404 -0.3569  0.7547
 6725SOL     OW26010   4.665   3.446   2.184  0.0671  0.3845 -0.5549
 6725SOL    HW126011   4.745   3.410   2.145 -0.1247  0.3279 -0.8956
 6725SOL    HW226012   4.693   3.478   2.270  0.0169 -1.6316  0.2616
 6726SOL     OW26013   2.701   7.592   8.364  0.0548 -0.5074  0.4995
 6726SOL    HW126014   2.619   7.619   8.324 -1.4406 -2.8262  1.7752
 6726SOL    HW226015   2.749   7.547   8.294  1.5597  3.0141 -0.9925
 6727SOL     OW26016   3.978   1.628   1.398 -0.3317  0.3895 -0.1150
 6727SOL    HW126017   3.962   1.533   1.400  1.3299  0.0660 -0.7277
 6727SOL    HW226018   4.005   1.649   1.487 -0.1268  0.1794 -0.1269
 6728SOL     OW26019   1.633  10.670   1.073 -0.0145  0.8500 -0.1648
 6728SOL    HW126020   1.583  10.714   1.143 -1.1051  0.5120 -0.7083
 6728SOL    HW226021   1.574  10.601   1.042  0.6898  0.6291 -1.0262
 6729SOL     OW26022   4.616   1.287   9.384 -0.7205  0.0407  0.0478
 6729SOL    HW126023   4.673   1.361   9.406 -0.8075 -0.3464  1.7544
 6729SOL    HW226024   4.538   1.328   9.347  0.2774  0.6211 -1.5725
 6730SOL     OW26025   3.352   2.386   5.309  0.1942 -0.7608 -0.3507
 6730SOL    HW126026   3.279   2.342   5.354  1.5601 -1.8414  0.9171
 6730SOL    HW226027   3.310   2.435   5.239 -1.6971 -1.9010 -0.1092
 6731SOL     OW26028  10.256   9.041  10.341 -0.1524 -0.0910 -1.1511
 6731SOL    HW126029  10.188   9.094  10.381 -1.2301 -2.5652  0.5976
 6731SOL    HW226030  10.336   9.065  10.388 -0.8311 -0.6891  0.3914
 6732SOL     OW26031   0.363   0.856   7.477 -0.0738  0.1431 -0.8834
 6732SOL    HW126032   0.347   0.948   7.457  2.3770  1.3081  1.8733
 6732SOL    HW226033   0.456   0.844   7.461 -0.5053 -2.1630 -2.0357
 6733SOL     OW26034   3.501  10.499   4.550  0.4379 -0.3837 -0.3603
 6733SOL    HW126035   3.575  10.448   4.517 -0.2599 -0.8412 -1.2574
 6733SOL    HW226036   3.499  10.479   4.644  1.3944 -0.4321 -0.3397
 6734SOL     OW26037   2.628   1.611   3.950  0.0747 -0.2966 -0.3019
 6734SOL    HW126038   2.671   1.549   4.010  0.0713 -1.1701 -1.1774
 6734SOL    HW226039   2.700   1.651   3.901  0.0530  0.1415  0.0196
 6735SOL     OW26040   7.045   2.426  10.000 -0.2283 -0.3943  0.1297
 6735SOL    HW126041   7.136   2.412   9.972  0.0825  0.6551  0.5886
 6735SOL    HW226042   7.005   2.477   9.930  0.0481  0.6791  0.7301
 6736SOL     OW26043   8.628   7.497   4.452  0.0289  0.0041  0.7817
 6736SOL    HW126044   8.586   7.525   4.370  0.1466  1.9311  1.3405
 6736SOL    HW226045   8.565   7.520   4.520 -0.8172 -3.0966  1.2234
 6737SOL     OW26046   6.794   7.049   0.488  0.7598  0.2789  0.2150
 6737SOL    HW126047   6.739   7.121   0.520 -0.2016 -0.2716 -0.1563
 6737SOL    HW226048   6.774   7.043   0.395  1.0286 -0.3089  0.1946
 6738SOL     OW26049   3.755   5.171   2.087 -0.0701 -0.3105 -0.7504
 6738SOL    HW126050   3.828   5.110   2.082  0.4966  0.3496 -0.6748
 6738SOL    HW226051   3.748   5.209   1.999 -1.4668 -1.6469 -1.2669
 6739SOL     OW26052   4.214   5.368   7.420  0.4929 -0.8583 -0.2211
 6739SOL    HW126053   4.306   5.340   7.411  1.5598  2.5864 -1.6771
 6739SOL    HW226054   4.215   5.430   7.492 -0.6477 -0.5356 -0.4632
 6740SOL     OW26055  10.635   0.393   1.145 -0.1760  0.2806  0.4674
 6740SOL    HW126056  10.644   0.447   1.223  1.0624 -0.9374  1.2180
 6740SOL    HW226057  10.639   0.455   1.072 -0.8579  1.3880  1.3359
 6741SOL     OW26058   6.578   1.820   0.508 -0.1693  0.4342 -0.0016
 6741SOL    HW126059   6.542   1.906   0.529 -1.2411  0.7522 -2.6442
 6741SOL    HW226060   6.517   1.758   0.549 -0.6792  0.9547  0.0470
 6742SOL     OW26061   6.891   9.046   4.140 -0.3475 -0.3382 -0.1888
 6742SOL    HW126062   6.920   9.094   4.217 -0.0021 -0.6324 -0.1321
 6742SOL    HW226063   6.915   8.955   4.158  0.0784 -0.3547 -0.8002
 6743SOL     OW26064   6.933   9.078   4.768  0.0954 -0.0276  0.5826
 6743SOL    HW126065   6.948   8.984   4.773 -0.0554 -0.0324  1.0447
 6743SOL    HW226066   6.914   9.095   4.676 -2.6401 -0.8697  0.9192
 6744SOL     OW26067   0.500   0.289   3.016 -0.1060 -0.4055 -0.0778
 6744SOL    HW126068   0.572   0.310   2.956 -0.1511 -0.1926 -0.0597
 6744SOL    HW226069   0.543   0.255   3.094 -0.0372 -0.5153 -0.1641
 6745SOL     OW26070   7.851   2.235   3.149  0.7081 -0.3775 -0.0224
 6745SOL    HW126071   7.832   2.325   3.122 -1.8466 -1.3830 -1.9983
 6745SOL    HW226072   7.765   2.197   3.167  1.8338 -1.9772  2.4993
 6746SOL     OW26073   0.520   2.242   8.358  0.1026  0.0435  0.3137
 6746SOL    HW126074   0.448   2.193   8.317  0.0988 -0.0559  0.4393
 6746SOL    HW226075   0.598   2.190   8.342 -0.1092 -0.7389  1.6828
 6747SOL     OW26076  10.222   3.856   6.820  0.4011 -0.4248  0.0809
 6747SOL    HW126077  10.283   3.887   6.887  0.6728  1.1034 -0.8447
 6747SOL    HW226078  10.145   3.827   6.871 -0.2071  2.5147  1.0452
 6748SOL     OW26079   6.445   0.285   5.854  0.0573 -0.2313 -0.2073
 6748SOL    HW126080   6.503   0.235   5.911  0.1645  0.8295  0.6730
 6748SOL    HW226081   6.366   0.297   5.907  0.3573  1.2147 -0.0421
 6749SOL     OW26082   2.982   3.356  10.318  0.3827 -0.4506 -0.3278
 6749SOL    HW126083   2.930   3.309  10.252  0.0793  0.9368 -1.1175
 6749SOL    HW226084   3.004   3.289  10.382 -3.2868 -0.9775  0.6420
 6750SOL     OW26085   8.907   4.295   3.431  0.0421 -0.1209  0.1848
 6750SOL    HW126086   8.990   4.278   3.475  0.3942  0.1135 -0.3877
 6750SOL    HW226087   8.921   4.268   3.341  0.2944  2.1440 -0.5154
 6751SOL     OW26088   5.107   2.378   8.317 -0.0916  0.2358  0.5110
 6751SOL    HW126089   5.186   2.342   8.356 -0.5410  0.5813  1.8305
 6751SOL    HW226090   5.126   2.386   8.224  1.5513  0.6574  0.8599
 6752SOL     OW26091   8.161   4.924  10.480  0.0111 -0.7347 -0.4015
 6752SOL    HW126092   8.188   4.855  10.419  3.0495 -0.4715  0.5258
 6752SOL    HW226093   8.105   4.981  10.427  0.0446 -2.1384 -2.0653
 6753SOL     OW26094   4.610   1.603   2.274  0.1129 -0.6279  0.4310
 6753SOL    HW126095   4.678   1.669   2.268  0.4866 -0.7869  2.2936
 6753SOL    HW226096   4.651   1.530   2.320 -1.0524 -1.0848  0.7822
 6754SOL     OW26097   5.160   7.599   7.977  0.2508 -0.2184  0.3943
 6754SOL    HW126098   5.091   7.555   7.927  0.0418  0.0496  0.4474
 6754SOL    HW226099   5.239   7.587   7.924  0.2548 -0.9036  0.5437
 6755SOL     OW26100   9.670   6.443  10.188 -0.4131  0.3068  0.6939
 6755SOL    HW126101   9.663   6.361  10.140 -1.2619  0.8316 -0.1106
 6755SOL    HW226102   9.662   6.511  10.120  0.3668  1.0607  1.3240
 6756SOL     OW26103   1.207   8.203   1.041  0.0999  0.4651  0.0954
 6756SOL    HW126104   1.145   8.263   0.999 -0.1135  1.1867  1.3933
 6756SOL    HW226105   1.157   8.122   1.053 -0.2099  0.6508  0.0653
 6757SOL     OW26106   9.525   8.247   3.336  0.3294 -0.3279 -0.0001
 6757SOL    HW126107   9.435   8.221   3.357 -0.2846 -0.6507 -2.6213
 6757SOL    HW226108   9.543   8.322   3.392 -1.1131 -1.0276  1.4597
 6758SOL     OW26109   9.845   6.447   4.262 -0.6772  0.7680 -0.1469
 6758SOL    HW126110   9.916   6.431   4.324 -0.2859  0.1962 -0.7362
 6758SOL    HW226111   9.888   6.463   4.178 -1.2111  1.3309 -0.3246
 6759SOL     OW26112  10.240   9.131   6.486 -0.1966  0.1524  0.1395
 6759SOL    HW126113  10.335   9.129   6.470 -0.4675  0.1276 -1.6834
 6759SOL    HW226114  10.205   9.064   6.428 -1.5532  1.8907 -1.1612
 6760SOL     OW26115   7.187   4.590   8.556 -0.1880  0.6721  0.1395
 6760SOL    HW126116   7.208   4.683   8.546  0.5833  0.6169  1.0535
 6760SOL    HW226117   7.270   4.546   8.539 -0.6460  0.1150 -0.6919
 6761SOL     OW26118   0.554   1.377  10.299  0.4785 -0.0566 -0.0845
 6761SOL    HW126119   0.467   1.416  10.294  0.8948  0.8138 -1.0907
 6761SOL    HW226120   0.578   1.383  10.391 -0.4365 -0.1001  0.1662
 6762SOL     OW26121  10.383   2.982   8.546 -0.3842 -0.0010  0.1996
 6762SOL    HW126122  10.453   2.944   8.599  1.9447 -0.2043 -2.7570
 6762SOL    HW226123  10.342   2.906   8.503  0.9598  0.3475 -1.8513
 6763SOL     OW26124   0.345   2.319  10.470 -0.1150 -0.3277  0.0208
 6763SOL    HW126125   0.298   2.328  10.387  0.3045  1.3631 -0.0665
 6763SOL    HW226126   0.428   2.277  10.445 -0.4679 -0.8935 -0.2247
 6764SOL     OW26127   1.451   4.461   9.943  0.3277 -0.4402  0.1969
 6764SOL    HW126128   1.462   4.479  10.036 -0.1572 -1.8128  0.5410
 6764SOL    HW226129   1.520   4.399   9.921  0.4561 -0.1092 -0.3762
 6765SOL     OW26130   8.896   3.357   2.841 -0.4572  0.0248 -0.1443
 6765SOL    HW126131   8.847   3.402   2.909 -0.7381 -1.5272  0.7242
 6765SOL    HW226132   8.846   3.278   2.823  1.2586 -1.2096  0.1722
 6766SOL     OW26133   3.708   7.554   5.268  0.1972 -0.3571 -0.5890
 6766SOL    HW126134   3.786   7.551   5.324  0.0677 -1.0614 -0.4306
 6766SOL    HW226135   3.727   7.621   5.203 -0.8602  2.7391  2.0477
 6767SOL     OW26136   1.415   4.476   0.233 -0.3657  0.1734 -0.6895
 6767SOL    HW126137   1.420   4.513   0.322  0.6964 -0.9593 -0.2548
 6767SOL    HW226138   1.322   4.482   0.210 -0.6835  0.3390  0.5555
 6768SOL     OW26139   4.179   7.360   1.070  0.0494  0.0208 -0.8219
 6768SOL    HW126140   4.223   7.281   1.103 -1.1620 -0.4212 -0.1974
 6768SOL    HW226141   4.091   7.356   1.107  0.6331  2.9176  1.2188
 6769SOL     OW26142   7.331  10.668   6.090  0.7510 -0.1325  0.1509
 6769SOL    HW126143   7.237  10.682   6.074  0.7285  1.4913  1.3414
 6769SOL    HW226144   7.348  10.579   6.060 -1.0547 -0.2744 -0.5928
 6770SOL     OW26145   6.499   7.396   5.630  0.0575 -0.6411 -0.2591
 6770SOL    HW126146   6.520   7.383   5.723 -0.2975 -2.0853 -0.3648
 6770SOL    HW226147   6.568   7.454   5.599  1.3679 -1.7415  0.4538
 6771SOL     OW26148   1.655   5.050   0.996 -0.2426 -0.4864  0.0483
 6771SOL    HW126149   1.694   5.009   1.073  0.1537 -0.5805 -0.2002
 6771SOL    HW226150   1.706   5.130   0.983 -1.8890  0.8696  1.3693
 6772SOL     OW26151   2.238   7.737   7.005  0.0474  0.6879 -0.2581
 6772SOL    HW126152   2.156   7.786   7.002 -0.8168 -0.6607  0.4802
 6772SOL    HW226153   2.275   7.747   6.917 -0.6085  1.7833 -0.4215
 6773SOL     OW26154   4.663   1.054   5.966  0.5843  0.9085  0.9674
 6773SOL    HW126155   4.602   1.123   5.994  0.4756  1.0566  0.3777
 6773SOL    HW226156   4.651   1.049   5.871  1.3892  0.8390  0.8669
 6774SOL     OW26157  10.283   0.770   8.044  0.3665 -0.7180 -0.5912
 6774SOL    HW126158  10.355   0.707   8.048  0.5660 -0.4748 -0.3489
 6774SOL    HW226159  10.305   0.827   7.971  0.8204 -0.1607 -0.0306
 6775SOL     OW26160   6.205   3.853   6.657  0.0480 -0.1403  0.2643
 6775SOL    HW126161   6.164   3.768   6.644  0.6948 -0.5773  1.0701
 6775SOL    HW226162   6.286   3.835   6.705  0.8471  0.7819 -0.6603
 6776SOL     OW26163   1.572   0.176   9.864 -0.0601 -0.4347 -0.2517
 6776SOL    HW126164   1.552   0.252   9.810  0.9546 -1.4013 -2.0723
 6776SOL    HW226165   1.535   0.198   9.950 -1.4687  1.2747 -1.2250
 6777SOL     OW26166   1.805  10.132   8.350  0.3296 -0.1406  0.1035
 6777SOL    HW126167   1.746  10.202   8.377  0.8368  0.7740 -1.0612
 6777SOL    HW226168   1.785  10.118   8.257  1.3641 -0.3867 -0.0944
 6778SOL     OW26169   0.122   8.034   8.667  0.4579 -0.5487 -0.2438
 6778SOL    HW126170   0.132   7.958   8.724 -1.5742 -0.0813  0.8337
 6778SOL    HW226171   0.100   8.106   8.727 -2.2195 -0.1469 -1.5864
 6779SOL     OW26172   7.107   8.534   7.003 -0.2225  0.1662 -0.3298
 6779SOL    HW126173   7.121   8.629   7.004  0.4202  0.1132  2.3496
 6779SOL    HW226174   7.012   8.523   7.009 -0.1991  0.7752  3.2877
 6780SOL     OW26175   8.639   5.039   7.625 -0.2426  0.3220  0.1300
 6780SOL    HW126176   8.693   5.119   7.622 -1.0727  0.8721 -1.0492
 6780SOL    HW226177   8.626   5.016   7.533 -0.4424 -0.9011  0.4470
 6781SOL     OW26178   3.374   4.289  10.383 -0.3786 -0.2465  0.3904
 6781SOL    HW126179   3.378   4.345  10.461  0.1160  0.5127 -0.1637
 6781SOL    HW226180   3.393   4.201  10.417 -2.4994 -0.3465  1.4833
 6782SOL     OW26181   2.272   7.027   0.157  0.7769 -0.0110  0.1764
 6782SOL    HW126182   2.242   7.091   0.221 -0.1933 -0.5089  0.2515
 6782SOL    HW226183   2.259   7.070   0.072 -2.1626 -0.9027  0.0653
 6783SOL     OW26184   5.623   4.872   6.509  0.2899  0.2052 -0.6535
 6783SOL    HW126185   5.616   4.820   6.429 -1.7506  0.3207 -0.6132
 6783SOL    HW226186   5.543   4.925   6.509 -0.0547 -0.2133  1.7261
 6784SOL     OW26187   5.266   0.478   3.170 -0.1421 -0.0841  0.3647
 6784SOL    HW126188   5.278   0.413   3.239 -1.3999  0.8014  1.4870
 6784SOL    HW226189   5.220   0.550   3.214  2.5404  2.2738 -0.3748
 6785SOL     OW26190   9.374   9.524   9.400 -0.9338  0.2767 -0.5974
 6785SOL    HW126191   9.451   9.467   9.405 -1.3024 -0.6559 -3.5458
 6785SOL    HW226192   9.369   9.565   9.486  3.1802  0.8099 -0.4213
 6786SOL     OW26193   2.294   3.621   0.500 -0.3244  0.4567 -0.4310
 6786SOL    HW126194   2.367   3.610   0.440 -0.0891  2.8896 -0.7258
 6786SOL    HW226195   2.329   3.596   0.586 -0.2232 -1.6236 -1.0389
 6787SOL     OW26196  10.421   2.254   7.392  0.5990  0.3062  0.1332
 6787SOL    HW126197  10.410   2.165   7.357 -0.4116  0.5113 -0.1155
 6787SOL    HW226198  10.479   2.243   7.467 -0.0653 -0.6801  0.5281
 6788SOL     OW26199   6.385   7.096   2.550  0.6742 -0.5922 -0.4759
 6788SOL    HW126200   6.471   7.124   2.581 -0.1839 -1.7787  3.6025
 6788SOL    HW226201   6.345   7.176   2.516  1.4991  1.3510  2.6348
 6789SOL     OW26202   4.675  10.475   2.749 -0.3606  0.0326  0.4438
 6789SOL    HW126203   4.705  10.563   2.773 -1.9635  0.5359  0.6883
 6789SOL    HW226204   4.607  10.490   2.683  0.8122 -1.1421 -1.1225
 6790SOL     OW26205   5.080  10.661   6.597  0.2795  0.2103  1.1408
 6790SOL    HW126206   5.111  10.746   6.566  2.2634 -0.0841  2.1603
 6790SOL    HW226207   4.985  10.664   6.584  0.6697  1.0005 -2.5799
 6791SOL     OW26208   3.283   0.331   6.902 -0.0218  0.1859  0.5517
 6791SOL    HW126209   3.195   0.367   6.892 -0.1553 -0.3455 -0.2848
 6791SOL    HW226210   3.274   0.263   6.969 -0.9179 -1.9323 -1.5958
 6792SOL     OW26211   2.253   7.965   8.212  0.0489 -0.1238  0.8317
 6792SOL    HW126212   2.230   7.993   8.301  0.2127  0.6780  0.6235
 6792SOL    HW226213   2.347   7.980   8.205  0.0720 -0.3734  0.5879
 6793SOL     OW26214   6.877   2.941   8.923 -0.1102 -0.5359  0.1503
 6793SOL    HW126215   6.817   2.985   8.862 -0.3379 -2.1570 -0.8514
 6793SOL    HW226216   6.866   2.848   8.904  1.2250 -0.9709  1.3846
 6794SOL     OW26217   1.256   7.923   4.331  0.6546 -0.3209  0.4463
 6794SOL    HW126218   1.207   8.001   4.358  0.4311 -0.6147  0.8924
 6794SOL    HW226219   1.303   7.951   4.253 -0.6916 -0.1990 -0.3494
 6795SOL     OW26220   7.645   2.554   8.727 -0.2768 -0.5231 -0.0240
 6795SOL    HW126221   7.663   2.630   8.782 -1.5861 -0.5320  0.4640
 6795SOL    HW226222   7.637   2.589   8.638 -0.2733 -0.1792  0.1131
 6796SOL     OW26223   7.318   0.857   4.284  0.2242  0.4178 -0.5816
 6796SOL    HW126224   7.293   0.943   4.317  2.2465  0.6634  0.4417
 6796SOL    HW226225   7.294   0.859   4.191 -3.3163  0.6147  0.1882
 6797SOL     OW26226   4.943   9.662  10.450  0.3543 -0.5046 -0.0200
 6797SOL    HW126227   4.878   9.608  10.495 -0.8494  0.0818 -0.9796
 6797SOL    HW226228   4.904   9.750  10.449  1.9845  0.2862  0.9493
 6798SOL     OW26229   7.094   3.904   6.638  0.7526  0.1460 -0.1744
 6798SOL    HW126230   7.112   3.844   6.710 -0.9730 -0.2188 -0.0132
 6798SOL    HW226231   7.019   3.955   6.667 -0.9387 -1.0256 -2.2615
 6799SOL     OW26232   9.690   3.603   5.887  0.2930  0.2624  0.3651
 6799SOL    HW126233   9.764   3.660   5.864  0.0832  0.6333  0.6146
 6799SOL    HW226234   9.732   3.520   5.911  0.5321 -0.1458 -1.2978
 6800SOL     OW26235  10.652   3.545   4.327 -0.1484 -0.3450  0.3280
 6800SOL    HW126236  10.652   3.597   4.247  1.1185 -0.9393 -0.0959
 6800SOL    HW226237  10.611   3.462   4.301 -1.4264  0.1160  0.7948
 6801SOL     OW26238   0.318   5.602   8.789 -0.5564 -0.1187 -0.4195
 6801SOL    HW126239   0.401   5.651   8.789  0.4153 -1.6913 -1.3563
 6801SOL    HW226240   0.290   5.603   8.881  1.3120 -0.8548  0.2052
 6802SOL     OW26241   3.981  10.629   1.210  0.2004  0.4720 -0.0958
 6802SOL    HW126242   3.914  10.667   1.153 -0.5984 -0.8541 -0.0974
 6802SOL    HW226243   4.021  10.560   1.157  0.5889  0.3238  0.3844
 6803SOL     OW26244   2.564   9.269   0.257  0.2871  0.1783 -0.5815
 6803SOL    HW126245   2.527   9.331   0.194 -0.6704 -0.3437 -0.5494
 6803SOL    HW226246   2.501   9.197   0.260  1.1423 -0.5784 -0.2624
 6804SOL     OW26247  10.184  10.165   9.617 -0.1892 -0.3021  0.8419
 6804SOL    HW126248  10.155  10.075   9.604 -2.0236  0.3823 -0.2527
 6804SOL    HW226249  10.228  10.188   9.536 -0.0571 -0.0869  0.9736
 6805SOL     OW26250  10.175   9.533   4.577  0.6615  0.3782 -0.3460
 6805SOL    HW126251  10.225   9.506   4.501  4.0193 -0.3998  1.9392
 6805SOL    HW226252  10.146   9.451   4.618 -0.6621  0.7668 -0.4405
 6806SOL     OW26253   6.654   6.673   8.546 -0.1938 -0.6016 -0.3524
 6806SOL    HW126254   6.614   6.757   8.566 -0.7571 -1.1069  0.7557
 6806SOL    HW226255   6.649   6.665   8.451 -0.1211  0.6115 -0.4653
 6807SOL     OW26256  10.633   8.689   1.493  0.3694 -0.7739  0.5674
 6807SOL    HW126257  10.678   8.758   1.542  0.2502 -1.2924  1.4288
 6807SOL    HW226258  10.572   8.651   1.556 -1.1597 -0.2276 -0.5138
 6808SOL     OW26259  10.633   4.701   0.630 -0.0334  0.1365 -0.0240
 6808SOL    HW126260  10.578   4.646   0.686  0.4824 -1.4603 -1.0195
 6808SOL    HW226261  10.598   4.790   0.641 -3.0166 -0.8317 -0.8109
 6809SOL     OW26262   2.836   8.512   3.817  0.1522  0.4322  0.1696
 6809SOL    HW126263   2.765   8.547   3.763 -0.2289  0.4227  0.6649
 6809SOL    HW226264   2.897   8.474   3.753  0.2547  1.4114 -0.3259
 6810SOL     OW26265   3.747   1.965   5.778  0.2764  0.3178 -0.0384
 6810SOL    HW126266   3.711   1.929   5.696 -0.1856  0.3125  0.1649
 6810SOL    HW226267   3.842   1.961   5.766  0.2377  2.0262 -1.3298
 6811SOL     OW26268   6.627   1.765   9.637 -0.6313  0.0755  0.2205
 6811SOL    HW126269   6.644   1.671   9.649 -0.5082 -0.2829 -2.2450
 6811SOL    HW226270   6.698   1.795   9.581  0.0091  1.9617  1.9563
 6812SOL     OW26271   5.541   1.973   8.720 -0.3143 -0.1066  0.0402
 6812SOL    HW126272   5.574   1.955   8.808 -0.5790  0.3002  0.2224
 6812SOL    HW226273   5.450   1.997   8.732 -0.1911  0.5450 -0.2823
 6813SOL     OW26274   3.755  10.170   5.450  0.1862  0.5822  0.0600
 6813SOL    HW126275   3.676  10.117   5.459 -0.6056  1.6001 -0.6452
 6813SOL    HW226276   3.825  10.107   5.432 -0.6984 -0.2398 -0.5860
 6814SOL     OW26277   1.152   4.261   3.932 -0.0805  0.0298 -0.1482
 6814SOL    HW126278   1.202   4.198   3.983  0.4647  0.9274  0.4614
 6814SOL    HW226279   1.132   4.332   3.993 -0.5295  0.5355 -0.8521
 6815SOL     OW26280   8.118   9.014  10.015  0.3525  0.3134 -0.4076
 6815SOL    HW126281   8.122   9.097  10.063  0.5673 -0.7048  1.4014
 6815SOL    HW226282   8.025   9.002   9.996  0.1979  0.4768  0.2230
 6816SOL     OW26283   7.800   0.911   6.635  0.4372 -0.3216 -0.1991
 6816SOL    HW126284   7.833   0.941   6.719 -0.0476 -0.5516  0.0749
 6816SOL    HW226285   7.872   0.860   6.598  0.6854 -0.1373  0.0279
 6817SOL     OW26286   6.155   6.962   3.940 -0.1894 -0.3440 -0.7145
 6817SOL    HW126287   6.082   7.006   3.983  1.8311  0.8504  1.8322
 6817SOL    HW226288   6.131   6.959   3.848 -2.5797  1.7351 -0.2659
 6818SOL     OW26289   8.120   2.146   8.684 -0.2097  1.0395  0.0066
 6818SOL    HW126290   8.068   2.224   8.666  1.8857  2.7656  0.9257
 6818SOL    HW226291   8.190   2.148   8.619  0.6850  0.7537  0.9286
 6819SOL     OW26292   3.743   6.721   8.554 -0.2889  0.1307  0.6981
 6819SOL    HW126293   3.772   6.711   8.644 -0.5781  0.3111  0.8152
 6819SOL    HW226294   3.694   6.803   8.554 -1.1497 -0.3678  0.6080
 6820SOL     OW26295   7.282   9.342   9.570  0.2029 -0.4323 -0.8569
 6820SOL    HW126296   7.218   9.274   9.547  0.3729 -1.0118  0.2667
 6820SOL    HW226297   7.232   9.424   9.565  0.1647 -0.5316 -2.8718
 6821SOL     OW26298   2.462   4.873   4.363 -0.1326  0.3814  0.1204
 6821SOL    HW126299   2.504   4.871   4.449  1.2119  0.7717 -0.5018
 6821SOL    HW226300   2.406   4.951   4.365  0.6193  0.9211  0.3073
 6822SOL     OW26301   3.009   0.231   9.318 -0.5156  0.0965  0.2941
 6822SOL    HW126302   2.971   0.158   9.367  1.1898 -0.4953  0.7941
 6822SOL    HW226303   3.034   0.294   9.386 -2.0063  1.2153 -0.1299
 6823SOL     OW26304   7.834   2.961   3.576  0.1121  0.0503 -0.0994
 6823SOL    HW126305   7.867   2.892   3.633  1.0944 -0.4506 -1.2443
 6823SOL    HW226306   7.758   2.923   3.532 -0.5614  0.3903  0.7428
 6824SOL     OW26307   0.041   6.275   0.919  0.1159 -0.3690  0.0167
 6824SOL    HW126308   0.006   6.269   0.830  0.5851 -0.7212 -0.1495
 6824SOL    HW226309   0.128   6.235   0.913  0.9573  1.3439  0.2089
 6825SOL     OW26310   0.752   3.539   5.196  0.1160 -0.0893 -0.1025
 6825SOL    HW126311   0.676   3.523   5.141  0.0788  1.3164 -0.5071
 6825SOL    HW226312   0.808   3.462   5.183 -0.5816 -0.4733 -0.9228
 6826SOL     OW26313   6.281   9.841   6.558  0.0764 -0.7201  0.1410
 6826SOL    HW126314   6.330   9.770   6.516  1.4183 -0.2780  0.9142
 6826SOL    HW226315   6.301   9.918   6.505  1.6694 -0.1860  1.4447
 6827SOL     OW26316   0.167   8.897   3.415  0.5636 -0.1559  0.2171
 6827SOL    HW126317   0.207   8.897   3.502  0.2861  0.2117  0.3458
 6827SOL    HW226318   0.173   8.806   3.386  0.8354 -0.2429  0.5385
 6828SOL     OW26319   6.719   8.274  10.561 -0.0928  0.0783  0.1990
 6828SOL    HW126320   6.787   8.336  10.588 -0.9166  0.5589  1.2416
 6828SOL    HW226321   6.666   8.261  10.640 -2.1404  0.8962 -0.9813
 6829SOL     OW26322   5.428   2.191   5.781  0.2401 -0.0428 -0.0195
 6829SOL    HW126323   5.471   2.105   5.783  0.0145 -0.1657  2.1200
 6829SOL    HW226324   5.372   2.188   5.704  1.8399 -0.9868 -1.2050
 6830SOL     OW26325   3.215   1.091   1.518 -0.3716  0.2095  0.1745
 6830SOL    HW126326   3.163   1.014   1.496 -0.7534  0.1166  1.3452
 6830SOL    HW226327   3.180   1.160   1.462 -1.8832  0.1848  1.0522
 6831SOL     OW26328   5.051   1.906   9.775  0.0325  0.6302 -0.0051
 6831SOL    HW126329   5.030   1.897   9.682  0.3454 -0.5700  0.0219
 6831SOL    HW226330   5.115   1.977   9.778  0.1329  0.5818 -0.7152
 6832SOL     OW26331   5.169   6.398   8.496 -0.1326 -0.1854 -0.5588
 6832SOL    HW126332   5.245   6.351   8.529 -0.6938 -0.8250 -0.1464
 6832SOL    HW226333   5.204   6.456   8.428  0.5721 -1.2380 -1.1200
 6833SOL     OW26334   3.162   0.449   1.701  0.6243 -0.3993  0.8793
 6833SOL    HW126335   3.220   0.373   1.688  1.8636  0.9147 -2.5417
 6833SOL    HW226336   3.075   0.416   1.681  1.0694 -1.0904 -0.0417
 6834SOL     OW26337   6.480   5.056   7.823 -0.4809  0.6376 -0.6362
 6834SOL    HW126338   6.496   4.972   7.780  0.2503  2.1971 -3.7111
 6834SOL    HW226339   6.396   5.086   7.787 -1.5476  0.5943  1.6367
 6835SOL     OW26340   8.104   0.688   1.569 -0.3959  0.7232 -0.0754
 6835SOL    HW126341   8.088   0.643   1.486  1.3849  1.0473 -0.6187
 6835SOL    HW226342   8.191   0.659   1.596 -0.4591  1.5586  1.0817
 6836SOL     OW26343   8.287   4.952   7.881  0.4647 -0.2671  0.6981
 6836SOL    HW126344   8.342   4.920   7.810 -0.6402  0.0644 -0.3586
 6836SOL    HW226345   8.328   5.034   7.910  0.4914  0.0181 -0.1299
 6837SOL     OW26346   8.522   1.379   4.440  0.2188 -0.4564 -0.1733
 6837SOL    HW126347   8.542   1.415   4.527  3.8768  0.0077 -1.0574
 6837SOL    HW226348   8.518   1.285   4.453 -1.2527 -0.3046  0.7659
 6838SOL     OW26349   5.115   0.669   3.287 -0.7774 -0.2488 -0.0038
 6838SOL    HW126350   5.113   0.745   3.228  0.9621 -1.0485 -1.1530
 6838SOL    HW226351   5.049   0.690   3.354 -1.9900  1.2138 -1.5542
 6839SOL     OW26352   4.428   7.364   3.373  0.3163 -0.1574 -0.5672
 6839SOL    HW126353   4.418   7.393   3.282  0.1355  1.7812  0.0136
 6839SOL    HW226354   4.504   7.413   3.405 -0.3904  0.1825  0.6653
 6840SOL     OW26355   5.309   1.987   1.306 -0.4210  0.2708 -0.3036
 6840SOL    HW126356   5.316   2.059   1.369 -2.2067  0.0540  0.1962
 6840SOL    HW226357   5.313   1.908   1.359  3.6010 -0.2310 -1.0099
 6841SOL     OW26358   2.494   7.836   3.686  0.0470 -0.2375 -0.3098
 6841SOL    HW126359   2.406   7.816   3.655  0.3118 -0.6477 -0.8232
 6841SOL    HW226360   2.548   7.833   3.607 -0.0293  3.7189 -0.6988
 6842SOL     OW26361   2.618   0.010   3.670  0.0451 -0.1754  0.2588
 6842SOL    HW126362   2.578   0.086   3.711  0.3881 -0.7037  1.6135
 6842SOL    HW226363   2.592  -0.064   3.725 -0.4936 -1.0916 -1.1742
 6843SOL     OW26364   5.865   6.963   9.762 -0.1903 -0.0979  0.7493
 6843SOL    HW126365   5.796   6.898   9.750  0.2176 -0.4153  0.0447
 6843SOL    HW226366   5.837   7.037   9.709 -0.3670  0.0773  1.0843
 6844SOL     OW26367   9.703   5.318  10.317  0.4729  0.2002  0.3691
 6844SOL    HW126368   9.709   5.362  10.233 -3.1948  2.2996  1.0280
 6844SOL    HW226369   9.648   5.241  10.300  0.2098  0.3032  0.7552
 6845SOL     OW26370   3.566   6.303   0.744 -0.0746  0.0792 -0.4709
 6845SOL    HW126371   3.486   6.351   0.768 -1.0984 -0.8730 -1.8876
 6845SOL    HW226372   3.627   6.372   0.717 -0.3065  0.8365  0.8171
 6846SOL     OW26373   4.629   4.007   7.921  0.2829 -0.5991 -0.0381
 6846SOL    HW126374   4.680   4.080   7.886 -0.7278  0.4679  0.6272
 6846SOL    HW226375   4.549   4.007   7.869  0.6703 -1.8885 -0.6887
 6847SOL     OW26376   4.609   4.634   9.059  0.5621  0.2874 -0.4129
 6847SOL    HW126377   4.558   4.579   8.999  0.2426  1.2041 -0.9944
 6847SOL    HW226378   4.632   4.575   9.131 -1.7688 -0.0362  0.1481
 6848SOL     OW26379   1.406   5.628   9.298 -0.5394 -0.1752 -0.2853
 6848SOL    HW126380   1.355   5.567   9.352  0.2984 -0.8222 -0.2066
 6848SOL    HW226381   1.428   5.699   9.357 -0.7943 -0.2123 -0.1436
 6849SOL     OW26382   0.449   6.910   9.769  0.8557  0.8911 -1.0273
 6849SOL    HW126383   0.535   6.933   9.804  0.2019  1.1646  0.4744
 6849SOL    HW226384   0.418   6.989   9.725  1.1868  0.9228 -1.2044
 6850SOL     OW26385  10.033   7.349   0.824  0.2321 -0.2074  0.2969
 6850SOL    HW126386  10.011   7.441   0.834 -1.7662 -0.6213  0.1040
 6850SOL    HW226387  10.076   7.325   0.907 -0.0177  0.6730  0.6908
 6851SOL     OW26388   7.684   6.396   3.890 -0.3409  0.1054 -0.0878
 6851SOL    HW126389   7.736   6.340   3.833 -1.0444 -0.4397 -0.2212
 6851SOL    HW226390   7.661   6.339   3.964  0.4863  0.7749  0.7116
 6852SOL     OW26391   4.543   3.766   9.509  0.4097  0.0988 -0.1953
 6852SOL    HW126392   4.480   3.699   9.535 -0.3143  0.8589  0.0595
 6852SOL    HW226393   4.492   3.847   9.505  0.9125  0.3634 -2.0925
 6853SOL     OW26394   7.571   9.969   8.885  0.0397 -0.8838 -0.3681
 6853SOL    HW126395   7.541   9.902   8.824 -0.6097 -1.7919  0.8901
 6853SOL    HW226396   7.505   9.970   8.955  1.4046 -0.8371  0.9952
 6854SOL     OW26397   3.898   9.040   1.322 -0.4605  0.0115 -0.1683
 6854SOL    HW126398   3.818   8.994   1.294 -0.0009 -2.0404  1.5552
 6854SOL    HW226399   3.968   9.000   1.271 -0.3032  0.2640 -0.1486
 6855SOL     OW26400   1.701   0.715   0.854  0.5276 -0.1975 -0.3267
 6855SOL    HW126401   1.740   0.760   0.929  0.4870  1.4846 -1.2674
 6855SOL    HW226402   1.607   0.716   0.871  0.4119  1.1865 -0.8680
 6856SOL     OW26403   8.288   5.474   1.442  0.3766  0.0637 -0.0936
 6856SOL    HW126404   8.222   5.508   1.503  0.6243  0.3321  0.0254
 6856SOL    HW226405   8.359   5.444   1.498  0.8717  0.8744 -0.2713
 6857SOL     OW26406   4.726   3.419   9.273 -0.1378  0.2114  0.2082
 6857SOL    HW126407   4.804   3.366   9.293  0.4546  0.5444 -1.0938
 6857SOL    HW226408   4.654   3.356   9.275 -0.2059  0.2328  3.3963
 6858SOL     OW26409   1.462   3.381   7.410 -0.1611  0.8117 -0.8149
 6858SOL    HW126410   1.454   3.344   7.322  0.7196  0.7572 -0.8818
 6858SOL    HW226411   1.550   3.420   7.412 -0.8064  2.3069 -0.5109
 6859SOL     OW26412   6.865   1.015   2.391  0.5226  0.7119 -0.7120
 6859SOL    HW126413   6.769   1.014   2.393  0.5280  1.0511  0.3358
 6859SOL    HW226414   6.887   1.060   2.310 -0.2221  1.6200 -0.4257
 6860SOL     OW26415   8.214   9.065   3.476 -0.1231  0.0478 -0.2078
 6860SOL    HW126416   8.238   9.005   3.406 -1.0248 -0.0486 -0.4504
 6860SOL    HW226417   8.297   9.095   3.512  0.3436 -1.3381 -0.0869
 6861SOL     OW26418  10.214   2.471   6.772 -0.0591  0.0898 -0.1716
 6861SOL    HW126419  10.284   2.424   6.817  2.2975  2.4333 -1.0874
 6861SOL    HW226420  10.154   2.403   6.743  2.2956 -2.1881 -0.0781
 6862SOL     OW26421   3.446   7.617   7.722 -0.2324 -0.2973 -0.1198
 6862SOL    HW126422   3.514   7.642   7.659 -1.7340  1.5007 -1.1357
 6862SOL    HW226423   3.418   7.530   7.694 -2.7805  1.4867 -3.8498
 6863SOL     OW26424   1.729   6.726  10.225 -0.3159  0.6123 -0.0309
 6863SOL    HW126425   1.648   6.754  10.182 -0.0629 -0.3040 -1.1946
 6863SOL    HW226426   1.711   6.635  10.251  0.2028  0.5325  0.0503
 6864SOL     OW26427   2.489  10.380   7.707  0.4090 -0.0033  1.1234
 6864SOL    HW126428   2.462  10.373   7.799  0.2049  0.5476  1.1090
 6864SOL    HW226429   2.414  10.418   7.663  0.4734 -0.3547  0.7058
 6865SOL     OW26430   4.827   3.786   4.158  0.2784 -0.1669 -0.0811
 6865SOL    HW126431   4.838   3.821   4.246  0.7487 -0.8418  0.1391
 6865SOL    HW226432   4.841   3.692   4.168  0.4332 -0.2372 -0.8923
 6866SOL     OW26433   5.707   0.128   2.532 -0.0567  0.3052  0.0733
 6866SOL    HW126434   5.663   0.207   2.500  1.5072  0.9686 -0.5316
 6866SOL    HW226435   5.784   0.160   2.579 -0.0892 -0.8321  0.9481
 6867SOL     OW26436   7.784   6.219   3.721  0.2073 -0.1056  0.3804
 6867SOL    HW126437   7.830   6.137   3.740 -0.7731 -1.1802 -1.5417
 6867SOL    HW226438   7.751   6.207   3.632 -3.7772  0.5075  1.5820
 6868SOL     OW26439   0.336   6.943   5.509 -0.2411  0.0590  0.1786
 6868SOL    HW126440   0.288   6.920   5.588 -1.3109 -0.8352 -0.6998
 6868SOL    HW226441   0.353   6.859   5.466  0.4862  0.5131 -0.4532
 6869SOL     OW26442   4.430   9.282   3.473  0.9588 -0.0006  0.2746
 6869SOL    HW126443   4.442   9.376   3.485 -0.6073  0.6446 -2.3127
 6869SOL    HW226444   4.342   9.265   3.507  0.8318 -0.2845 -0.1802
 6870SOL     OW26445  10.261   1.346   3.874 -0.0096  0.2358  0.2957
 6870SOL    HW126446  10.219   1.389   3.800 -2.7346 -1.7949  0.5208
 6870SOL    HW226447  10.355   1.364   3.862 -0.3301  0.1758 -3.4786
 6871SOL     OW26448   5.831   7.148   9.547  0.0387  0.2324  0.2606
 6871SOL    HW126449   5.840   7.063   9.505 -1.5855  1.4979 -2.9926
 6871SOL    HW226450   5.913   7.193   9.527  1.1192 -0.6390  2.4312
 6872SOL     OW26451   3.300   8.924   6.037  0.0805  0.2924  0.0431
 6872SOL    HW126452   3.368   8.966   5.985 -1.3054  1.7730 -0.6580
 6872SOL    HW226453   3.347   8.875   6.104  1.8098  2.0330  0.1688
 6873SOL     OW26454  10.172   8.997   2.845 -0.2553  0.0660 -0.0923
 6873SOL    HW126455  10.266   8.983   2.835  0.1921  1.8134  1.2071
 6873SOL    HW226456  10.140   9.010   2.756  0.8479  0.0874 -0.5037
 6874SOL     OW26457   7.009   5.442   0.157 -0.9773 -0.3723 -0.2055
 6874SOL    HW126458   6.975   5.516   0.208  0.5862  0.6786 -0.6149
 6874SOL    HW226459   7.024   5.373   0.222 -0.8571  0.2609  0.4571
 6875SOL     OW26460   0.533   0.162   7.689 -0.9008 -0.4455  0.3254
 6875SOL    HW126461   0.542   0.116   7.606  1.0248  0.1375  0.1661
 6875SOL    HW226462   0.588   0.113   7.750 -1.4750 -0.2608  1.0198
 6876SOL     OW26463   3.621   0.838   7.047 -0.3429 -0.5953 -0.5637
 6876SOL    HW126464   3.558   0.879   6.989 -2.3196 -1.0449  1.1566
 6876SOL    HW226465   3.686   0.799   6.988 -0.9337  0.9544 -2.3466
 6877SOL     OW26466   9.602   8.054   9.810  0.3814 -0.4359 -0.4540
 6877SOL    HW126467   9.591   7.967   9.771  0.6091 -1.3183  1.3440
 6877SOL    HW226468   9.518   8.097   9.794 -1.2873 -2.4688  2.0409
 6878SOL     OW26469  10.049   0.830   6.552 -0.0190  0.2071  0.5017
 6878SOL    HW126470   9.956   0.826   6.529  0.0717  1.0944 -0.0573
 6878SOL    HW226471  10.059   0.764   6.620 -0.7633 -0.9347 -0.4465
 6879SOL     OW26472   2.094   5.385  10.616 -0.1514  0.2295 -0.0816
 6879SOL    HW126473   2.182   5.397  10.653 -0.5839  1.9358  0.4788
 6879SOL    HW226474   2.104   5.411  10.524  0.1467 -0.6467 -0.3114
 6880SOL     OW26475   9.603   4.364   0.943 -0.0125  0.0657  0.2650
 6880SOL    HW126476   9.556   4.328   0.868  0.9146 -2.6444  0.8877
 6880SOL    HW226477   9.554   4.333   1.019  1.1821 -0.4831  0.8407
 6881SOL     OW26478   3.069   3.090   4.498 -0.6060  0.0620 -0.6691
 6881SOL    HW126479   3.148   3.039   4.516  0.6015  1.1707 -2.5392
 6881SOL    HW226480   3.026   3.043   4.427 -0.9561  0.1697 -0.5284
 6882SOL     OW26481   4.307   7.107   4.380  0.1138  0.5680 -0.2611
 6882SOL    HW126482   4.225   7.141   4.417 -0.3000 -0.1219 -0.5400
 6882SOL    HW226483   4.375   7.166   4.415 -0.4983  1.1696 -0.0631
 6883SOL     OW26484   2.525   5.149   9.902  0.0323 -0.4016  0.1603
 6883SOL    HW126485   2.576   5.120   9.978  0.8042  2.4860  0.8745
 6883SOL    HW226486   2.442   5.102   9.909  0.9217 -1.8734  1.5165
 6884SOL     OW26487   9.442   3.568   1.241 -0.3227  0.3806  0.2393
 6884SOL    HW126488   9.362   3.529   1.274  0.0758 -1.0056 -0.3816
 6884SOL    HW226489   9.508   3.547   1.307 -0.0267 -0.3413 -0.2773
 6885SOL     OW26490   2.266  10.532   5.511  1.2439 -0.2118 -0.4464
 6885SOL    HW126491   2.216  10.451   5.502 -1.2435  1.0314  0.9153
 6885SOL    HW226492   2.262  10.571   5.424  0.9461 -0.7552 -0.6855
 6886SOL     OW26493   8.036   3.180   9.580  0.0146 -0.1375 -0.3384
 6886SOL    HW126494   7.944   3.181   9.607  0.8054  0.2896  2.7585
 6886SOL    HW226495   8.073   3.261   9.616  1.9769 -1.1318  0.0522
 6887SOL     OW26496   9.292   7.468   1.838  0.4425 -0.1395 -0.2367
 6887SOL    HW126497   9.247   7.548   1.812 -1.9261 -1.8262 -1.7567
 6887SOL    HW226498   9.229   7.420   1.891  1.6451 -1.2172  0.3009
 6888SOL     OW26499   4.508   7.794   0.513 -0.4125 -0.3974 -0.3518
 6888SOL    HW126500   4.442   7.863   0.510 -0.8663 -0.8110 -0.0306
 6888SOL    HW226501   4.482   7.739   0.587  1.1215  0.2442  0.7065
 6889SOL     OW26502  10.302   9.877   3.407 -0.2673  0.2499  0.2640
 6889SOL    HW126503  10.358   9.872   3.484  2.3312  0.9759 -1.4423
 6889SOL    HW226504  10.273   9.787   3.391 -0.3642  0.0099  1.7262
 6890SOL     OW26505   8.688   3.622  10.032 -0.4658 -0.5384 -0.0744
 6890SOL    HW126506   8.733   3.581  10.106 -0.1897 -1.0166 -0.5007
 6890SOL    HW226507   8.647   3.549   9.985 -1.0814 -0.1841 -0.1017
 6891SOL     OW26508  10.119   3.737   5.669  0.3748  0.2668  0.0296
 6891SOL    HW126509  10.209   3.754   5.694 -0.5460  1.0602  3.2686
 6891SOL    HW226510  10.089   3.819   5.630  0.7538  0.3251 -0.1411
 6892SOL     OW26511   4.872   8.645   9.188  0.4421  0.0431  0.1932
 6892SOL    HW126512   4.792   8.677   9.230 -0.5240 -0.7211 -1.0045
 6892SOL    HW226513   4.872   8.686   9.101  2.5621  1.8475  0.9359
 6893SOL     OW26514   3.813  10.403   5.554 -0.3175 -0.2597 -0.0102
 6893SOL    HW126515   3.848  10.324   5.512  0.3248  0.4339 -0.8141
 6893SOL    HW226516   3.769  10.450   5.484 -0.5040  0.2123  0.4192
 6894SOL     OW26517   2.920   3.654   1.828 -0.1205  0.4357 -0.0026
 6894SOL    HW126518   2.961   3.690   1.749 -0.7404 -0.0598 -0.5675
 6894SOL    HW226519   2.869   3.727   1.864 -2.1419 -0.0618 -1.6705
 6895SOL     OW26520   6.525   5.065   4.249  0.7403 -0.1547 -0.2669
 6895SOL    HW126521   6.506   4.985   4.298  0.0661  0.6765  0.8853
 6895SOL    HW226522   6.620   5.075   4.256  0.7388 -0.4517  0.2232
 6896SOL     OW26523   2.570   5.031   5.910  0.6659 -0.7400  0.1899
 6896SOL    HW126524   2.609   4.944   5.915  1.5418 -0.5330 -1.9174
 6896SOL    HW226525   2.479   5.018   5.935  1.0349 -2.0622  0.9251
 6897SOL     OW26526   1.083   7.267   0.852 -0.7451  0.1557 -0.2959
 6897SOL    HW126527   1.147   7.226   0.909 -0.5634 -1.3631 -1.5233
 6897SOL    HW226528   1.133   7.292   0.774 -1.0744  1.7676 -0.0267
 6898SOL     OW26529   9.748   2.440   5.788  0.2013 -0.1855  0.0017
 6898SOL    HW126530   9.692   2.437   5.710  0.6329 -0.0784 -0.3170
 6898SOL    HW226531   9.764   2.348   5.809 -0.1014 -0.2174  0.1037
 6899SOL     OW26532   8.930   6.224   1.857 -0.5614 -0.0363  0.0464
 6899SOL    HW126533   8.946   6.180   1.774  0.5428 -0.2850  0.3700
 6899SOL    HW226534   8.927   6.154   1.921 -0.7625  0.2042  0.3004
 6900SOL     OW26535   3.001   4.613   7.138 -0.3623  0.2782 -0.1212
 6900SOL    HW126536   3.027   4.682   7.198  0.7623 -0.3129  0.1034
 6900SOL    HW226537   2.985   4.657   7.055 -0.8757  0.9573  0.3291
 6901SOL     OW26538   7.383   2.934   7.933 -0.2146 -0.1230 -0.0717
 6901SOL    HW126539   7.335   2.974   7.861 -0.0015 -0.1972 -0.2593
 6901SOL    HW226540   7.466   2.906   7.893 -0.2054 -0.4024  0.1426
 6902SOL     OW26541   8.353   5.952   3.704 -0.0088 -0.1553  0.2020
 6902SOL    HW126542   8.397   5.869   3.688 -0.7817 -0.4614 -0.3889
 6902SOL    HW226543   8.298   5.936   3.780 -0.1596 -0.1834  0.0867
 6903SOL     OW26544   0.147  10.659   0.016 -0.1284 -0.2882  0.5117
 6903SOL    HW126545   0.151  10.567   0.040  0.5983 -0.1073  1.1296
 6903SOL    HW226546   0.078  10.696   0.071 -0.1823 -0.3910  0.5125
 6904SOL     OW26547   9.876   0.781   2.886 -0.0328  0.3294 -0.3044
 6904SOL    HW126548   9.958   0.823   2.862  0.6166 -0.0751  1.1062
 6904SOL    HW226549   9.809   0.826   2.834  0.6408  2.9905  0.9721
 6905SOL     OW26550   7.065   9.981   1.758 -0.7042  0.0502 -0.1274
 6905SOL    HW126551   7.097   9.892   1.770 -0.0458  0.4671  1.5661
 6905SOL    HW226552   6.987   9.986   1.814 -0.2837  0.7528  0.4086
 6906SOL     OW26553   5.779   6.669   7.553 -0.2605  0.2442 -0.3499
 6906SOL    HW126554   5.836   6.621   7.493  0.3701 -0.1454  0.5309
 6906SOL    HW226555   5.707   6.700   7.498 -1.1872 -2.4601 -0.8346
 6907SOL     OW26556   4.523   6.971   7.092 -0.1172  0.2637 -0.1355
 6907SOL    HW126557   4.569   7.034   7.148  0.0314 -0.1951  0.2654
 6907SOL    HW226558   4.588   6.945   7.027  0.4748 -0.9799  0.8982
 6908SOL     OW26559   7.128   2.158   0.552 -0.0988 -0.1393 -0.5828
 6908SOL    HW126560   7.180   2.156   0.471 -0.0916 -2.7003 -0.6068
 6908SOL    HW226561   7.193   2.157   0.622 -0.1079  0.4928 -0.5656
 6909SOL     OW26562   2.265   8.339   3.451 -0.5930 -0.0679 -0.3332
 6909SOL    HW126563   2.210   8.369   3.523 -0.8336  1.0442 -0.9410
 6909SOL    HW226564   2.238   8.394   3.377 -0.4825 -1.2980 -1.3145
 6910SOL     OW26565  10.171   0.420   7.882 -0.5977 -0.3382 -0.3625
 6910SOL    HW126566  10.093   0.387   7.838 -0.6391  0.8316 -1.2237
 6910SOL    HW226567  10.137   0.480   7.949 -0.4863 -1.1214  0.4073
 6911SOL     OW26568   2.175   2.527   9.585 -0.2013  0.3194  0.1757
 6911SOL    HW126569   2.092   2.566   9.556 -0.0564 -0.0115 -0.7297
 6911SOL    HW226570   2.204   2.583   9.657 -0.1698  1.6877 -0.8584
 6912SOL     OW26571   3.415  10.703  10.397  0.4249 -0.3287  0.4557
 6912SOL    HW126572   3.410  10.752  10.479  1.0334  1.0884 -0.3415
 6912SOL    HW226573   3.508  10.703  10.375  0.2574 -0.6913 -0.2513
 6913SOL     OW26574   7.372  10.594   2.709 -0.6925  0.2717  0.0226
 6913SOL    HW126575   7.374  10.687   2.688 -0.2030  0.6814  1.6780
 6913SOL    HW226576   7.459  10.563   2.684 -1.9614 -0.6389 -3.8780
 6914SOL     OW26577   6.862   5.303  10.653 -0.8800  0.4721 -0.3202
 6914SOL    HW126578   6.913   5.349  10.587  0.1976  0.4733  0.4795
 6914SOL    HW226579   6.883   5.348  10.735 -2.2595  0.5336  0.0204
 6915SOL     OW26580   0.074   4.496   6.833 -0.6758 -0.1275 -0.6967
 6915SOL    HW126581   0.096   4.578   6.876 -1.1835 -0.8137  0.9467
 6915SOL    HW226582   0.158   4.460   6.805 -0.1241 -0.4331  1.2189
 6916SOL     OW26583   9.344   9.014   5.870 -0.5294 -0.6024  0.2932
 6916SOL    HW126584   9.362   9.093   5.921 -1.7771 -0.7405  1.0048
 6916SOL    HW226585   9.283   9.043   5.802  0.4492 -0.5977 -0.5963
 6917SOL     OW26586   5.207   0.107   8.010  0.1929 -0.1758  0.3158
 6917SOL    HW126587   5.270   0.178   8.006  0.8968 -0.6710  1.9397
 6917SOL    HW226588   5.123   0.150   8.025  0.2082  0.4451 -1.2384
 6918SOL     OW26589   3.394   3.367   6.912 -0.4182 -0.5343 -1.0815
 6918SOL    HW126590   3.486   3.365   6.886  0.2901 -0.7615  1.1874
 6918SOL    HW226591   3.372   3.460   6.916  0.6091 -0.3215  1.0263
 6919SOL     OW26592   6.857   5.418   3.267  0.4571 -0.1515 -0.0541
 6919SOL    HW126593   6.902   5.499   3.246 -0.2250 -0.0809 -1.3558
 6919SOL    HW226594   6.794   5.406   3.195  0.5870 -1.8557  0.0727
 6920SOL     OW26595   6.346   9.280   6.209  0.2567  0.2603 -0.5585
 6920SOL    HW126596   6.372   9.194   6.175 -1.3489 -1.3525  1.8883
 6920SOL    HW226597   6.260   9.297   6.171 -0.7058 -0.6678  1.0582
 6921SOL     OW26598   1.976   3.610   7.877 -0.2921  0.4408 -0.5202
 6921SOL    HW126599   1.899   3.664   7.895 -0.3896 -0.1434  0.9329
 6921SOL    HW226600   1.990   3.560   7.957  2.9302  2.1176  0.1053
 6922SOL     OW26601   7.533   5.909   3.742  0.0157 -0.1596  0.0101
 6922SOL    HW126602   7.483   5.985   3.770 -0.1715  0.4809 -1.9089
 6922SOL    HW226603   7.466   5.843   3.721  0.1270 -0.3908  0.3631
 6923SOL     OW26604   5.700   8.738   0.892 -0.5292  0.3332 -0.9549
 6923SOL    HW126605   5.624   8.699   0.936 -1.4692  1.5851 -1.4108
 6923SOL    HW226606   5.705   8.826   0.928  0.1561  0.5685 -1.6143
 6924SOL     OW26607   3.583   3.909   1.966 -0.4296 -0.2902 -0.1971
 6924SOL    HW126608   3.619   3.953   1.889 -0.3913  1.1134  0.6093
 6924SOL    HW226609   3.514   3.967   1.997 -0.8927 -1.1688  0.4545
 6925SOL     OW26610   7.884   6.435   0.558  1.0123 -0.3557 -0.0790
 6925SOL    HW126611   7.883   6.433   0.653  2.4712 -0.6199 -0.0500
 6925SOL    HW226612   7.795   6.410   0.533  0.8554 -1.1733  1.1972
 6926SOL     OW26613   2.221   6.112   1.237  0.1538 -0.1707  0.7951
 6926SOL    HW126614   2.297   6.074   1.282  0.8626 -0.7475 -0.7928
 6926SOL    HW226615   2.207   6.054   1.162  0.4391  1.9323 -0.9874
 6927SOL     OW26616   7.032   7.769   1.299  0.0371  0.1357  0.6118
 6927SOL    HW126617   7.123   7.784   1.270 -0.1479 -1.2016 -0.7925
 6927SOL    HW226618   6.979   7.803   1.227 -0.5338 -0.1255  0.9097
 6928SOL     OW26619   9.438   7.554   8.473  0.2411 -0.0973 -0.2863
 6928SOL    HW126620   9.363   7.522   8.422  1.0469 -0.7457 -1.1202
 6928SOL    HW226621   9.514   7.526   8.422  1.0530  0.4560  0.5950
 6929SOL     OW26622  10.086   3.808   4.175  0.1450 -0.0370  0.2227
 6929SOL    HW126623  10.091   3.747   4.248 -1.3611 -0.4532  0.0021
 6929SOL    HW226624  10.066   3.892   4.215  1.0548  0.0980  0.4209
 6930SOL     OW26625   4.724   4.785  10.278  0.6450  0.0382 -0.2977
 6930SOL    HW126626   4.747   4.744  10.195 -0.5756  0.2872 -0.7791
 6930SOL    HW226627   4.787   4.749  10.341  1.8009  0.0915 -1.3778
 6931SOL     OW26628   7.357   8.760   5.564  0.0655  0.2779 -0.5527
 6931SOL    HW126629   7.278   8.791   5.609 -0.2003 -1.1522  0.0353
 6931SOL    HW226630   7.386   8.685   5.617  0.9301 -0.1716 -1.6315
 6932SOL     OW26631   6.886   1.418   2.247 -0.0229  0.6720  0.6609
 6932SOL    HW126632   6.932   1.454   2.171  1.0859 -1.4492  0.2435
 6932SOL    HW226633   6.864   1.494   2.300  2.3278  1.9564 -0.0724
 6933SOL     OW26634   7.479   7.785   2.383  0.0982 -0.0173 -0.4183
 6933SOL    HW126635   7.396   7.788   2.431  1.3060 -0.1928  1.8407
 6933SOL    HW226636   7.507   7.694   2.387 -0.9519 -0.6139 -3.8166
 6934SOL     OW26637   5.200   9.704   8.821 -0.3814  0.0432  0.2827
 6934SOL    HW126638   5.166   9.682   8.734  0.3249  1.0451 -0.2713
 6934SOL    HW226639   5.282   9.751   8.803  0.1771 -0.4322  1.5166
 6935SOL     OW26640   6.577   7.087   5.470 -0.3600 -0.3476 -0.0074
 6935SOL    HW126641   6.617   7.031   5.404  1.7192  0.0954  0.7965
 6935SOL    HW226642   6.588   7.176   5.436 -0.6782 -0.2149  0.2327
 6936SOL     OW26643   4.615   1.634   0.712  0.0179  0.0819  0.3828
 6936SOL    HW126644   4.675   1.708   0.708  1.1121 -0.8178 -0.7501
 6936SOL    HW226645   4.662   1.562   0.669 -2.0199 -0.5590 -0.9750
 6937SOL     OW26646   7.355   4.963  10.192 -0.0022  0.3848  0.1567
 6937SOL    HW126647   7.419   5.032  10.212  0.2493  0.6482 -1.4284
 6937SOL    HW226648   7.290   5.006  10.137  0.2179 -0.6419 -0.9489
 6938SOL     OW26649   5.745   6.137   0.857 -0.1500  0.5925 -0.4404
 6938SOL    HW126650   5.788   6.180   0.931 -0.8391  1.6373 -0.6156
 6938SOL    HW226651   5.748   6.203   0.787  1.8509 -0.9079 -1.8823
 6939SOL     OW26652   5.847  10.663   7.034  0.1014  0.3629  0.1883
 6939SOL    HW126653   5.886  10.730   6.978  1.7920  0.0499  0.8998
 6939SOL    HW226654   5.754  10.665   7.014  0.5485  0.7112 -2.1380
 6940SOL     OW26655   7.411   5.816   0.415 -0.1287 -0.4510 -0.7034
 6940SOL    HW126656   7.340   5.878   0.429  2.1575  1.9905  1.2819
 6940SOL    HW226657   7.420   5.770   0.499  0.4287 -0.9337 -1.0170
 6941SOL     OW26658   7.645   0.905   7.339  0.0686 -0.7074 -0.1129
 6941SOL    HW126659   7.710   0.963   7.300 -1.4037 -0.0473 -1.7092
 6941SOL    HW226660   7.561   0.934   7.302 -1.2844 -0.9716  2.4780
 6942SOL     OW26661   0.585   9.174   7.689 -0.2359 -0.3888  0.2905
 6942SOL    HW126662   0.552   9.224   7.763 -0.2507 -0.1170  0.0996
 6942SOL    HW226663   0.569   9.229   7.613 -1.6354 -1.3174 -0.1163
 6943SOL     OW26664   9.084   2.087  10.153 -0.0687  0.6814  0.5372
 6943SOL    HW126665   9.172   2.059  10.180 -0.2978 -0.9693 -0.3135
 6943SOL    HW226666   9.049   2.133  10.230  1.4192  1.0959  0.9886
 6944SOL     OW26667   0.537   5.214   1.577 -0.2425  0.4091 -0.2069
 6944SOL    HW126668   0.446   5.224   1.549 -0.0225 -0.1723 -1.1560
 6944SOL    HW226669   0.540   5.257   1.663 -1.2601  0.9677 -0.4342
 6945SOL     OW26670   8.987   4.467  10.139 -0.5621 -0.3843  0.0166
 6945SOL    HW126671   8.939   4.518  10.203 -0.0850  0.0423  0.0403
 6945SOL    HW226672   8.969   4.510  10.055  1.9178  1.4682  0.3339
 6946SOL     OW26673   8.952   2.410   4.141 -0.0934  0.0143  0.1546
 6946SOL    HW126674   8.940   2.502   4.120 -0.1597 -0.4979 -2.4409
 6946SOL    HW226675   9.046   2.395   4.130  0.1051 -0.0049  1.7286
 6947SOL     OW26676   6.574   1.964   8.740  0.6597 -0.0714  0.1891
 6947SOL    HW126677   6.642   1.977   8.674 -0.3189  0.4306 -0.7375
 6947SOL    HW226678   6.623   1.940   8.819  1.8135 -1.4500 -0.8813
 6948SOL     OW26679   5.864   4.453   4.315  0.4526  0.8262  0.2867
 6948SOL    HW126680   5.806   4.529   4.324  0.4343  0.8133  0.2771
 6948SOL    HW226681   5.946   4.490   4.280 -0.0247  0.6571 -1.0971
 6949SOL     OW26682   5.897   4.462   8.939 -0.2676  0.5806  0.4323
 6949SOL    HW126683   5.839   4.524   8.895 -2.5144  0.0239  2.4227
 6949SOL    HW226684   5.891   4.484   9.032 -0.1435 -1.7961  1.0714
 6950SOL     OW26685   4.810   2.194   0.832 -0.4780 -0.4278  0.0122
 6950SOL    HW126686   4.743   2.234   0.887 -0.9875  1.3106 -1.7509
 6950SOL    HW226687   4.764   2.173   0.750  0.4375 -2.1271 -0.1101
 6951SOL     OW26688   1.174   2.380  10.070  0.0162 -0.0194  0.7223
 6951SOL    HW126689   1.119   2.310  10.106 -1.0915 -0.5749 -1.8799
 6951SOL    HW226690   1.178   2.445  10.140 -1.8564 -1.1098  1.9176
 6952SOL     OW26691   0.772   9.873   3.635  0.0161  0.3547  0.1054
 6952SOL    HW126692   0.725   9.790   3.625  0.1088  0.3227 -0.0744
 6952SOL    HW226693   0.711   9.939   3.603  0.3523  0.2423 -0.8077
 6953SOL     OW26694   3.937  10.321   9.648 -0.2530  0.0975  0.2142
 6953SOL    HW126695   3.922  10.412   9.623 -0.8727  0.0368  0.3558
 6953SOL    HW226696   3.859  10.274   9.618 -0.2683 -0.2560  0.7869
 6954SOL     OW26697   1.978   3.201   3.677 -0.8011 -0.2248 -0.0299
 6954SOL    HW126698   1.902   3.258   3.684  0.6076  1.5836  1.3057
 6954SOL    HW226699   2.050   3.259   3.653 -0.0711 -2.1282 -2.9539
 6955SOL     OW26700   4.662  10.039   6.272 -0.1669 -0.1389  0.1356
 6955SOL    HW126701   4.571  10.068   6.283 -0.0706 -0.0237  0.6400
 6955SOL    HW226702   4.654   9.956   6.224 -0.5314 -0.0608  0.0554
 6956SOL     OW26703   1.796   6.810  10.557 -0.4048 -0.4494 -0.2317
 6956SOL    HW126704   1.784   6.885  10.616 -0.2046  0.4126 -1.2526
 6956SOL    HW226705   1.732   6.824  10.487 -0.3374 -1.2223 -0.4598
 6957SOL     OW26706  10.259   9.420   5.286  0.5780 -0.0013 -0.3896
 6957SOL    HW126707  10.264   9.465   5.202 -0.2168 -2.2748 -1.7586
 6957SOL    HW226708  10.216   9.482   5.344 -1.4223  0.6897 -2.4379
 6958SOL     OW26709   3.040   9.969   9.948  0.1210  0.0511  0.1647
 6958SOL    HW126710   3.049   9.886   9.901 -0.4261  1.0245 -1.7881
 6958SOL    HW226711   3.127  10.009   9.943 -0.3490  1.0024 -1.8671
 6959SOL     OW26712  10.631   3.939   3.558 -0.4493 -0.4449  0.3780
 6959SOL    HW126713  10.539   3.966   3.567 -0.3541  0.9778 -2.0359
 6959SOL    HW226714  10.636   3.904   3.469  1.4335 -0.0206  0.2892
 6960SOL     OW26715   9.446   4.313   7.232  0.1284  0.6883 -0.0852
 6960SOL    HW126716   9.494   4.395   7.248 -0.2061  0.7954  0.4025
 6960SOL    HW226717   9.485   4.251   7.294  1.0116  0.2177 -1.0876
 6961SOL     OW26718   4.251  10.619   8.154  0.4583 -0.3215 -0.7215
 6961SOL    HW126719   4.169  10.666   8.167 -0.1182 -1.5073  0.1349
 6961SOL    HW226720   4.298  10.631   8.237  0.2810 -1.2519 -0.4679
 6962SOL     OW26721   4.232   1.109   4.104 -0.3646  0.3110  0.1124
 6962SOL    HW126722   4.276   1.028   4.131  0.9490  1.8428  3.0108
 6962SOL    HW226723   4.290   1.146   4.037  1.2384  0.7495  1.6537
 6963SOL     OW26724   9.678   4.834   3.509 -0.0626  0.0356  0.5657
 6963SOL    HW126725   9.585   4.822   3.525  0.0718 -0.1394  1.2597
 6963SOL    HW226726   9.704   4.906   3.567  0.4486 -0.6500  1.2172
 6964SOL     OW26727   7.660  10.073   4.229  0.0218  0.1801 -0.4285
 6964SOL    HW126728   7.633   9.984   4.252  0.7900 -0.0161 -0.2694
 6964SOL    HW226729   7.696  10.109   4.310 -1.0171  0.9324 -0.2754
 6965SOL     OW26730   4.468   9.889   8.103  0.2841  0.6672  0.0226
 6965SOL    HW126731   4.493   9.931   8.185  1.5453  1.3609 -0.7015
 6965SOL    HW226732   4.531   9.817   8.092  0.2137  0.6698 -0.4183
 6966SOL     OW26733   9.999   1.403   8.852  1.1752 -0.4701  0.8109
 6966SOL    HW126734  10.095   1.401   8.847  1.1526 -0.2513  0.0772
 6966SOL    HW226735   9.976   1.327   8.905  1.7359 -0.8190  0.5681
 6967SOL     OW26736   9.700   9.303   1.566 -0.1770 -0.1340 -0.3904
 6967SOL    HW126737   9.674   9.277   1.654  0.7880 -0.2826 -0.1404
 6967SOL    HW226738   9.641   9.375   1.544 -0.1319  0.2101  0.5647
 6968SOL     OW26739   2.973   5.652   3.366 -0.1169  0.0830  0.3960
 6968SOL    HW126740   2.978   5.692   3.279  0.6388 -1.5150 -0.3428
 6968SOL    HW226741   2.897   5.594   3.362  0.3267 -0.5197  0.5623
 6969SOL     OW26742  10.244  10.602   8.670  0.0542  0.0508  0.6612
 6969SOL    HW126743  10.318  10.662   8.662  0.6446 -0.6569  0.7947
 6969SOL    HW226744  10.254  10.540   8.598  0.7302 -1.2617  1.8338
 6970SOL     OW26745   8.896   0.863  10.624  0.0909  0.1380  0.0020
 6970SOL    HW126746   8.955   0.925  10.666 -0.1322 -0.8032  1.7854
 6970SOL    HW226747   8.888   0.791  10.686  1.5611 -2.4810 -2.5610
 6971SOL     OW26748   6.994   2.005   4.665 -0.6688 -0.5240 -0.2637
 6971SOL    HW126749   7.049   2.048   4.599  1.5396 -2.2974  0.3011
 6971SOL    HW226750   6.972   2.075   4.727  1.7593  0.1307 -0.0327
 6972SOL     OW26751   0.193  10.234   9.089 -0.6822  0.6547  0.6161
 6972SOL    HW126752   0.174  10.204   9.000 -0.2150 -1.3591  1.1466
 6972SOL    HW226753   0.271  10.288   9.080  1.0026 -1.7041  0.0746
 6973SOL     OW26754   4.797   4.250   1.513 -0.0164  0.0955 -0.1696
 6973SOL    HW126755   4.871   4.309   1.500 -0.2209  0.0839 -1.4730
 6973SOL    HW226756   4.760   4.237   1.426 -0.3031 -1.5341  0.1481
 6974SOL     OW26757   9.965   4.661   9.094 -0.2455 -0.2128  0.1046
 6974SOL    HW126758   9.903   4.713   9.145  0.4181  0.1166  0.5852
 6974SOL    HW226759   9.943   4.680   9.003  0.1753  1.1606  0.2635
 6975SOL     OW26760   8.693   0.981   5.110 -0.3792 -0.2254 -0.2907
 6975SOL    HW126761   8.626   1.004   5.174 -0.0349  1.1330 -0.3996
 6975SOL    HW226762   8.689   0.885   5.105 -0.0809 -0.4358  2.1383
 6976SOL     OW26763   0.653   8.121   7.950 -0.1064 -0.5531  0.0269
 6976SOL    HW126764   0.646   8.137   8.044 -0.5943  1.9281 -0.3516
 6976SOL    HW226765   0.572   8.075   7.927 -0.7611  0.2933  0.5895
 6977SOL     OW26766   2.412   1.767   0.469 -0.6274  0.3742 -0.6229
 6977SOL    HW126767   2.335   1.765   0.413  0.7634  1.2510 -2.7184
 6977SOL    HW226768   2.412   1.855   0.507 -0.4809  0.5044 -0.9191
 6978SOL     OW26769   5.389   8.428   7.052 -0.0364 -0.1538  0.3707
 6978SOL    HW126770   5.445   8.488   7.102  0.1285  0.3767 -0.4194
 6978SOL    HW226771   5.365   8.478   6.974 -2.1585 -0.1176  0.9721
 6979SOL     OW26772   2.801   1.499   0.353  0.5689 -0.0300  0.0085
 6979SOL    HW126773   2.861   1.517   0.281  0.6296 -0.2103  0.0133
 6979SOL    HW226774   2.721   1.545   0.329  0.3735 -0.6187 -0.4903
 6980SOL     OW26775   2.650   7.924  10.595  0.3543 -0.7854  0.1176
 6980SOL    HW126776   2.638   8.018  10.608  1.5989 -0.7879  1.5952
 6980SOL    HW226777   2.653   7.913  10.500  1.3126  0.8490 -0.0852
 6981SOL     OW26778  10.629   5.619   5.571 -0.1536 -0.0803 -0.5177
 6981SOL    HW126779  10.723   5.633   5.571 -0.3425  1.3902  0.0363
 6981SOL    HW226780  10.615   5.548   5.634  0.4989  0.4873  0.2848
 6982SOL     OW26781   5.576   5.315   9.104  0.3196 -0.0101 -0.4935
 6982SOL    HW126782   5.547   5.240   9.052 -0.1444 -0.4300  0.3587
 6982SOL    HW226783   5.512   5.320   9.176  1.4014  0.0843  0.4806
 6983SOL     OW26784   4.116   2.156   7.442 -0.3599 -0.1775  0.4512
 6983SOL    HW126785   4.149   2.133   7.530  1.1350  0.5351  0.1022
 6983SOL    HW226786   4.096   2.071   7.402  0.9609 -0.6473  0.7361
 6984SOL     OW26787   1.964   5.341   5.547  0.4253 -0.1163 -0.3824
 6984SOL    HW126788   1.965   5.436   5.549 -0.7892  0.0045  3.7905
 6984SOL    HW226789   1.882   5.318   5.503 -0.2542  0.8638  0.3438
 6985SOL     OW26790   7.182   8.457   7.288  0.1644  0.3399 -0.3850
 6985SOL    HW126791   7.184   8.511   7.209  2.4772 -1.0133 -1.3463
 6985SOL    HW226792   7.262   8.481   7.335 -0.8380  0.6249  1.2303
 6986SOL     OW26793   3.533   8.420   7.708 -0.2325  0.2198 -0.0154
 6986SOL    HW126794   3.611   8.384   7.665 -1.7134 -0.1490 -2.5568
 6986SOL    HW226795   3.494   8.344   7.752 -0.4205 -0.1175 -0.7495
 6987SOL     OW26796  10.002   2.104   5.519 -0.3998  0.4980 -0.3202
 6987SOL    HW126797   9.999   2.150   5.435 -0.1291 -0.0977 -0.6646
 6987SOL    HW226798  10.026   2.171   5.583  2.4133  0.4128 -1.1581
 6988SOL     OW26799   9.731  10.242   1.209  0.5587  0.2989  0.1203
 6988SOL    HW126800   9.734  10.173   1.142  0.8152 -0.5583  0.9861
 6988SOL    HW226801   9.675  10.206   1.277 -0.2994  1.4703  0.0544
 6989SOL     OW26802   4.243   1.524   6.618 -0.2195 -0.5305  0.2297
 6989SOL    HW126803   4.193   1.487   6.691 -1.0935 -1.6679 -0.9121
 6989SOL    HW226804   4.316   1.570   6.660  1.4042 -4.1709  1.7796
 6990SOL     OW26805   5.168   3.628   6.100  0.4971 -0.8902 -0.8061
 6990SOL    HW126806   5.114   3.593   6.029  0.8599 -1.2371 -0.9167
 6990SOL    HW226807   5.149   3.571   6.174 -0.6411  0.0797 -0.3262
 6991SOL     OW26808   7.440   9.826   8.408 -0.9519  0.0785 -0.1320
 6991SOL    HW126809   7.450   9.756   8.344  1.2585  0.5560 -0.3808
 6991SOL    HW226810   7.358   9.869   8.385 -0.8997 -0.6406 -1.7605
 6992SOL     OW26811   1.486   5.534  10.427  0.0693  0.4107 -0.2786
 6992SOL    HW126812   1.551   5.488  10.480 -0.9464  1.5539  2.0865
 6992SOL    HW226813   1.538   5.574  10.357  1.2855 -2.1647 -0.9893
 6993SOL     OW26814   1.433  10.078   3.521  0.1578  0.1261  0.1012
 6993SOL    HW126815   1.383  10.006   3.484  1.0053 -1.0131  1.1156
 6993SOL    HW226816   1.377  10.155   3.507 -0.2598 -0.4881 -2.0376
 6994SOL     OW26817  10.325  10.196   8.847 -0.1236 -0.1144  0.1582
 6994SOL    HW126818  10.329  10.193   8.752  3.1828 -0.6653  0.1720
 6994SOL    HW226819  10.349  10.107   8.874  0.1361  0.3282  1.4677
 6995SOL     OW26820   1.833   0.194   0.078  0.3565  0.4211 -0.4525
 6995SOL    HW126821   1.760   0.136   0.056 -0.6981  2.5291 -3.0251
 6995SOL    HW226822   1.909   0.152   0.038 -0.4155  0.7731 -2.4132
 6996SOL     OW26823   3.035   0.157   5.004  0.0792  0.1081  0.5443
 6996SOL    HW126824   3.094   0.228   4.978  0.4077 -0.5465 -0.5908
 6996SOL    HW226825   2.953   0.177   4.960 -0.0140  0.1235  0.7284
 6997SOL     OW26826   1.561   0.423   1.087 -0.5861  0.2622  0.2606
 6997SOL    HW126827   1.552   0.425   1.182  0.0099  1.7363  0.3245
 6997SOL    HW226828   1.473   0.442   1.054 -1.0343 -1.3545  0.4709
 6998SOL     OW26829   7.191   3.736   2.624  0.1468  0.1106  0.2790
 6998SOL    HW126830   7.226   3.737   2.534 -1.1675  3.0035 -0.3299
 6998SOL    HW226831   7.211   3.823   2.658 -2.0974  0.1763  1.6377
 6999SOL     OW26832   0.597   5.460   0.144 -0.1157  0.0322  1.3218
 6999SOL    HW126833   0.619   5.367   0.154  0.8697  0.0822 -0.0999
 6999SOL    HW226834   0.509   5.459   0.107  0.2653 -0.3672  0.4085
 7000SOL     OW26835   1.087   8.496   0.764  0.3177  0.1658  0.3906
 7000SOL    HW126836   1.123   8.478   0.677  0.9943  1.6906  0.3351
 7000SOL    HW226837   0.993   8.482   0.753  0.6381 -2.3600  0.1522
 7001SOL     OW26838   5.756   2.396   1.366 -0.5942 -0.5285  0.1480
 7001SOL    HW126839   5.742   2.319   1.421 -2.1422 -0.1990  0.2531
 7001SOL    HW226840   5.713   2.375   1.283 -2.1818  0.6938  0.6175
 7002SOL     OW26841   4.880   5.718   6.860  0.2584  0.3826 -0.1422
 7002SOL    HW126842   4.874   5.711   6.956 -1.5795  1.4383 -0.1356
 7002SOL    HW226843   4.925   5.637   6.834  1.5971  0.4695  1.6516
 7003SOL     OW26844   5.512   2.580   0.654  0.0943 -0.2671 -0.1694
 7003SOL    HW126845   5.449   2.532   0.601 -0.4099  1.3510 -1.1019
 7003SOL    HW226846   5.490   2.558   0.745 -1.2441 -0.4010 -0.5159
 7004SOL     OW26847   6.641   6.740   3.628  0.1575 -0.0004  0.1493
 7004SOL    HW126848   6.668   6.784   3.709  2.7592 -1.0429 -0.0542
 7004SOL    HW226849   6.576   6.677   3.656  0.5435  0.1031  1.3425
 7005SOL     OW26850   9.870   0.802   5.864  0.5318 -0.3300  0.6281
 7005SOL    HW126851   9.883   0.709   5.884 -1.5972 -0.7617  0.3457
 7005SOL    HW226852   9.851   0.843   5.948 -1.3316 -0.7529  0.4636
 7006SOL     OW26853   5.741   6.465   9.397 -0.4954 -0.0582 -0.5705
 7006SOL    HW126854   5.808   6.422   9.343 -0.6826 -0.4429 -0.5033
 7006SOL    HW226855   5.687   6.393   9.430 -0.8008  0.2294 -0.4313
 7007SOL     OW26856   5.577   4.829   6.854  0.5303 -0.3152  0.2938
 7007SOL    HW126857   5.515   4.823   6.781  0.6240 -0.5004  0.2285
 7007SOL    HW226858   5.597   4.923   6.861 -0.7288 -0.0766  1.1321
 7008SOL     OW26859   2.509   3.338   9.465  0.3726 -0.1196 -0.7549
 7008SOL    HW126860   2.561   3.299   9.395  0.1160 -0.2276 -0.8905
 7008SOL    HW226861   2.451   3.268   9.494  0.3074 -0.0038 -0.6021
 7009SOL     OW26862   8.098   3.762   2.501 -0.0016  0.5614  0.0629
 7009SOL    HW126863   8.118   3.822   2.573 -1.7039  0.7660  0.3883
 7009SOL    HW226864   8.071   3.681   2.544  0.9577 -0.0173 -0.3801
 7010SOL     OW26865   3.603   7.667   8.196  0.2485  0.3908  0.5479
 7010SOL    HW126866   3.585   7.627   8.280 -0.3196 -0.0553  0.2211
 7010SOL    HW226867   3.554   7.750   8.197 -0.8469 -0.2267  0.1577
 7011SOL     OW26868   8.931   2.145   9.670  0.1111 -0.4185 -0.0703
 7011SOL    HW126869   8.984   2.178   9.742 -0.6287 -0.8190  0.6728
 7011SOL    HW226870   8.870   2.084   9.711  0.1801 -1.2364 -1.1479
 7012SOL     OW26871   1.466  10.225   6.756 -0.0988 -0.9638 -0.0257
 7012SOL    HW126872   1.527  10.298   6.754  1.2509 -1.9860  1.4137
 7012SOL    HW226873   1.383  10.262   6.725  1.2270  0.4369 -2.1406
 7013SOL     OW26874  10.485   8.358  10.207  0.4153 -0.3974  0.0990
 7013SOL    HW126875  10.487   8.264  10.225  0.2124  0.0096  2.5329
 7013SOL    HW226876  10.410   8.369  10.149  0.6354 -1.7581 -0.4920
 7014SOL     OW26877   1.180   4.713   4.039  0.4386 -0.3397  0.1282
 7014SOL    HW126878   1.214   4.792   4.080 -0.1107 -0.2789  0.4782
 7014SOL    HW226879   1.249   4.647   4.052  1.0958  0.1913 -0.5661
 7015SOL     OW26880   6.047   5.113   9.918 -0.1894  0.0194 -0.2977
 7015SOL    HW126881   6.065   5.147   9.831  0.7897  0.6399  0.1327
 7015SOL    HW226882   6.119   5.145   9.972 -0.5097 -0.7751  0.6346
 7016SOL     OW26883   0.385   5.477   3.008  0.8959  0.0417  1.0083
 7016SOL    HW126884   0.354   5.481   3.099 -0.9700  2.9679  0.3888
 7016SOL    HW226885   0.396   5.569   2.983 -1.4891 -0.4675 -2.6058
 7017SOL     OW26886   3.583   2.523   5.174  0.2240 -0.3608  0.1985
 7017SOL    HW126887   3.617   2.457   5.233 -0.4791 -0.0194  1.0095
 7017SOL    HW226888   3.493   2.494   5.155 -0.4818  0.9043  1.4454
 7018SOL     OW26889   8.800   9.186   3.402 -0.1156 -0.3006 -0.3662
 7018SOL    HW126890   8.848   9.118   3.450 -2.0117 -1.7106 -0.3180
 7018SOL    HW226891   8.752   9.234   3.470  0.4742  0.4930 -0.4960
 7019SOL     OW26892   2.890   8.704   1.809  0.1296 -0.6678 -0.6669
 7019SOL    HW126893   2.981   8.735   1.806 -0.3781  0.8966 -1.2454
 7019SOL    HW226894   2.893   8.618   1.768  1.1293 -0.0054 -2.0870
 7020SOL     OW26895   5.035   3.567   6.434  0.1324  0.8662 -0.5491
 7020SOL    HW126896   4.956   3.597   6.389  0.7584  1.3617 -1.3665
 7020SOL    HW226897   5.069   3.497   6.378 -0.9226 -0.9271  0.9713
 7021SOL     OW26898   2.391   7.599   3.386 -0.1606 -0.1615  0.1713
 7021SOL    HW126899   2.405   7.517   3.433  0.7932  0.1492  0.4560
 7021SOL    HW226900   2.348   7.573   3.305  2.1956 -1.2570 -0.8273
 7022SOL     OW26901   9.363   0.743   9.192 -0.1686  0.5296 -0.2615
 7022SOL    HW126902   9.441   0.723   9.140 -0.1681 -0.8794  0.2525
 7022SOL    HW226903   9.364   0.679   9.263 -1.6632  0.6511 -0.1052
 7023SOL     OW26904   8.769  10.124   1.349 -0.0704  0.4435  0.0523
 7023SOL    HW126905   8.687  10.074   1.347 -0.0229  0.3810 -1.4012
 7023SOL    HW226906   8.742  10.214   1.367 -0.5397  0.5313 -1.0029
 7024SOL     OW26907   9.750   3.312   1.521  0.0770 -0.1989  0.1071
 7024SOL    HW126908   9.814   3.324   1.451  1.8075  0.2432  1.6966
 7024SOL    HW226909   9.770   3.226   1.558  0.3012  0.2992  1.1559
 7025SOL     OW26910   0.473   9.128   8.464  0.5112  0.1420  0.0149
 7025SOL    HW126911   0.386   9.110   8.501  0.4252 -0.5783 -0.5117
 7025SOL    HW226912   0.457   9.196   8.398  0.8360  2.2750  2.0044
 7026SOL     OW26913   5.726   5.005   3.518 -0.0313  0.1618  0.1652
 7026SOL    HW126914   5.661   4.948   3.475 -0.0188 -1.9602  2.6959
 7026SOL    HW226915   5.698   5.008   3.610  3.6613 -1.2932  1.5113
 7027SOL     OW26916  10.132   4.990   8.648  0.5027  0.1127  0.1906
 7027SOL    HW126917  10.138   4.975   8.742  0.6009 -0.8000  0.0462
 7027SOL    HW226918  10.075   4.919   8.616  0.1728  0.6228 -0.3865
 7028SOL     OW26919   6.283   8.091  10.374 -0.0012 -0.2808  0.0425
 7028SOL    HW126920   6.287   8.186  10.372  1.9448 -0.3198 -0.5577
 7028SOL    HW226921   6.304   8.064  10.284  0.5854 -1.2612  0.4477
 7029SOL     OW26922   4.326   6.588   3.821  0.2518 -0.0443  0.2376
 7029SOL    HW126923   4.365   6.540   3.748 -1.3757 -1.6826  0.3690
 7029SOL    HW226924   4.396   6.646   3.851  0.7553  1.2781 -3.0498
 7030SOL     OW26925   8.925   1.136   6.650 -0.0276 -0.2644  0.5205
 7030SOL    HW126926   8.977   1.075   6.598 -0.9297 -0.2260 -0.4360
 7030SOL    HW226927   8.857   1.082   6.691 -0.5558  0.0292  0.0304
 7031SOL     OW26928   4.831   5.579  10.641 -0.7354 -0.2970 -0.1356
 7031SOL    HW126929   4.872   5.551  10.722 -1.0460 -1.9804 -0.5177
 7031SOL    HW226930   4.849   5.672  10.635  0.1545 -0.3553  1.3544
 7032SOL     OW26931   7.449   2.478   6.850 -0.0528 -0.4388  0.6678
 7032SOL    HW126932   7.396   2.405   6.883  2.0385 -2.2811  0.2301
 7032SOL    HW226933   7.433   2.478   6.756 -0.4917  0.0571  0.7410
 7033SOL     OW26934   8.991   0.392   6.244  0.2835 -0.0507  0.3428
 7033SOL    HW126935   8.950   0.324   6.298 -0.7150  1.9477  2.2958
 7033SOL    HW226936   8.986   0.359   6.155 -2.0665 -1.6239  0.9737
 7034SOL     OW26937   6.204   7.471   3.637  0.0326  0.4882  0.0655
 7034SOL    HW126938   6.277   7.460   3.698 -0.5955 -1.8412  0.4975
 7034SOL    HW226939   6.150   7.393   3.650  0.0074 -0.2812 -3.6507
 7035SOL     OW26940   7.703   9.826   2.166 -0.1590 -0.1167  0.1075
 7035SOL    HW126941   7.691   9.735   2.191  1.3773 -0.1066  0.9493
 7035SOL    HW226942   7.708   9.824   2.071 -1.2421 -0.7464  0.0395
 7036SOL     OW26943   3.202   5.504   9.628 -0.0775 -0.3121  0.5222
 7036SOL    HW126944   3.285   5.517   9.674 -0.6312  2.3971  0.9255
 7036SOL    HW226945   3.227   5.483   9.538  1.0789  0.8404  0.5459
 7037SOL     OW26946   5.392   9.504   7.412  0.6019  0.0662 -0.3761
 7037SOL    HW126947   5.337   9.476   7.339 -0.4281 -1.0075  0.7587
 7037SOL    HW226948   5.359   9.454   7.488  0.9987  1.8392  1.0300
 7038SOL     OW26949  10.380  10.576   1.183 -0.5133  1.1869 -0.0700
 7038SOL    HW126950  10.337  10.514   1.124 -0.8506  1.9750 -0.6736
 7038SOL    HW226951  10.460  10.601   1.138  0.0322  0.5907  0.5397
 7039SOL     OW26952   6.764   0.921   2.845  0.7591  0.1180 -0.2804
 7039SOL    HW126953   6.826   0.850   2.861  0.3216 -0.1999  0.0576
 7039SOL    HW226954   6.792   0.959   2.762  0.3017 -1.2388 -1.0958
 7040SOL     OW26955   6.460  10.656   3.387 -0.6159 -0.1035  0.7719
 7040SOL    HW126956   6.466  10.660   3.292  0.2064 -0.2836  0.8092
 7040SOL    HW226957   6.441  10.564   3.407 -0.1893 -0.1806  0.8130
 7041SOL     OW26958   8.343   5.984   8.913 -0.2366 -0.5734  0.0962
 7041SOL    HW126959   8.388   6.065   8.891  0.8591 -1.0009  0.6746
 7041SOL    HW226960   8.350   5.929   8.835  1.4632 -1.1453  0.6107
 7042SOL     OW26961   4.676   1.860   8.076 -0.1578 -0.1981  0.0079
 7042SOL    HW126962   4.696   1.954   8.078 -1.2258  0.3111 -3.9752
 7042SOL    HW226963   4.603   1.850   8.137 -0.2508  1.6517  0.2755
 7043SOL     OW26964   7.884   5.388   9.393  0.1161  0.6557 -0.0680
 7043SOL    HW126965   7.856   5.476   9.366  0.0922  0.7629  0.3041
 7043SOL    HW226966   7.972   5.379   9.357 -0.2759  0.4300 -0.9911
 7044SOL     OW26967  10.416   2.397   8.556  0.0230  0.4356  0.1654
 7044SOL    HW126968  10.408   2.402   8.461  0.2466  1.1769  0.1752
 7044SOL    HW226969  10.350   2.458   8.588 -1.6179 -1.4498  0.5722
 7045SOL     OW26970   0.815  10.579   4.229 -0.1596 -0.0812 -0.2146
 7045SOL    HW126971   0.812  10.602   4.136  0.7182  1.0199  0.0042
 7045SOL    HW226972   0.839  10.486   4.230 -1.0570 -0.3451 -1.0933
 7046SOL     OW26973   1.933   5.738   2.456 -0.4677  0.4155  0.1259
 7046SOL    HW126974   1.977   5.655   2.437 -1.6850 -0.2040 -0.0617
 7046SOL    HW226975   2.004   5.796   2.486  0.7157 -0.1092 -1.5039
 7047SOL     OW26976   3.257   3.442  10.322  0.2460  0.3033 -0.0093
 7047SOL    HW126977   3.169   3.426  10.286  0.0905  1.0236  0.0410
 7047SOL    HW226978   3.242   3.499  10.397  0.6882 -0.2390  0.4914
 7048SOL     OW26979   8.755   0.551   9.379 -0.0101 -0.4556 -0.3430
 7048SOL    HW126980   8.799   0.530   9.296  0.1479 -0.4064 -0.2729
 7048SOL    HW226981   8.782   0.641   9.397 -2.9289  0.9533 -2.1354
 7049SOL     OW26982   1.972   1.994   6.089 -0.0176  0.1270  0.0813
 7049SOL    HW126983   2.018   1.914   6.113 -0.2155  0.1028  0.3985
 7049SOL    HW226984   2.038   2.063   6.096 -0.4073  0.3525  2.2421
 7050SOL     OW26985   0.751   8.873   5.516 -0.1855 -0.0693 -0.0413
 7050SOL    HW126986   0.719   8.930   5.585  0.0117 -0.2304  0.1839
 7050SOL    HW226987   0.833   8.913   5.487  0.4507 -0.7537  0.7805
 7051SOL     OW26988   4.338   3.149   3.118  0.4839 -0.3063  0.4462
 7051SOL    HW126989   4.355   3.241   3.101  1.2264 -0.4769  0.2079
 7051SOL    HW226990   4.275   3.123   3.050 -0.7929  0.3372  1.3405
 7052SOL     OW26991   9.401   0.624   1.091  0.5933 -0.4720  0.3241
 7052SOL    HW126992   9.425   0.591   1.178 -0.2367  0.6080  0.9887
 7052SOL    HW226993   9.347   0.701   1.109  0.7705  0.0231 -1.1609
 7053SOL     OW26994   4.561   0.608   6.891 -0.0300 -0.8315 -0.1352
 7053SOL    HW126995   4.518   0.684   6.931  1.5070  0.4612 -0.8337
 7053SOL    HW226996   4.639   0.644   6.849 -0.1763 -2.5419 -2.0151
 7054SOL     OW26997   8.277   1.040   3.216  0.3430 -0.2097 -0.3191
 7054SOL    HW126998   8.205   1.039   3.153 -0.2419 -0.0644  0.3328
 7054SOL    HW226999   8.305   0.949   3.223 -0.0708 -0.3316 -0.2522
 7055SOL     OW27000   7.130   9.586   7.436  0.2468  0.3112 -0.0911
 7055SOL    HW127001   7.123   9.647   7.509  1.8894 -0.0413  0.3974
 7055SOL    HW227002   7.042   9.550   7.426 -0.2467  1.1559  0.9996
 7056SOL     OW27003   0.756   3.266  10.546 -0.2769 -0.5917  1.0184
 7056SOL    HW127004   0.797   3.312  10.619 -0.2498  0.8481  0.1223
 7056SOL    HW227005   0.783   3.315  10.468 -0.7505 -1.7726  0.0780
 7057SOL     OW27006   1.586   4.862   3.465 -0.3757 -0.7109 -0.2717
 7057SOL    HW127007   1.554   4.937   3.515 -1.4143 -0.9965 -0.4779
 7057SOL    HW227008   1.542   4.869   3.381  1.8582  0.1396 -1.4610
 7058SOL     OW27009   9.092   9.844   6.924 -0.6963 -0.2762 -0.2952
 7058SOL    HW127010   9.186   9.835   6.913 -0.5484  1.0426 -0.2110
 7058SOL    HW227011   9.055   9.805   6.845 -0.0937 -0.9214 -0.2653
 7059SOL     OW27012   8.838   1.750   2.484  0.4828  0.6226 -0.0456
 7059SOL    HW127013   8.747   1.735   2.458  0.7604  1.3626 -1.5494
 7059SOL    HW227014   8.889   1.688   2.431  0.8814  0.2798  0.7159
 7060SOL     OW27015   2.003   9.315   3.510  0.2077  0.7780  0.0824
 7060SOL    HW127016   2.004   9.220   3.497  2.2086  0.1316  3.7201
 7060SOL    HW227017   1.911   9.338   3.504 -0.2030 -1.0597 -2.4334
 7061SOL     OW27018   7.810   1.993   8.819  0.1427  0.0401 -0.1575
 7061SOL    HW127019   7.786   1.939   8.894  0.2158  0.0505 -0.1271
 7061SOL    HW227020   7.827   2.080   8.856 -1.1925  0.4054 -0.3639
 7062SOL     OW27021   5.070   8.589   9.695 -0.3951  0.9995  0.4009
 7062SOL    HW127022   5.155   8.581   9.651 -1.5692  1.1497 -2.0740
 7062SOL    HW227023   5.013   8.627   9.629 -1.9158  2.9665  2.6801
 7063SOL     OW27024   7.543  10.467   5.469  0.4020 -0.6845  0.1104
 7063SOL    HW127025   7.638  10.478   5.480  0.4871 -1.3507  0.0834
 7063SOL    HW227026   7.531  10.457   5.375  0.4043 -1.4539  0.1867
 7064SOL     OW27027   5.190   4.306   2.656 -0.0974 -0.2949 -0.5689
 7064SOL    HW127028   5.154   4.395   2.647 -2.0257 -0.9108  0.4180
 7064SOL    HW227029   5.268   4.306   2.601 -0.3303  1.8557 -0.9943
 7065SOL     OW27030   3.516   5.180   9.882 -0.0257 -0.2450 -0.2239
 7065SOL    HW127031   3.531   5.260   9.832 -0.9790  0.9171  1.2697
 7065SOL    HW227032   3.438   5.141   9.842 -0.8481  0.7332  0.3797
 7066SOL     OW27033   3.795   9.634   0.830 -0.1948 -0.0991  0.0260
 7066SOL    HW127034   3.709   9.594   0.839  0.3132 -1.3864 -0.6844
 7066SOL    HW227035   3.854   9.576   0.879  0.5438 -0.2116 -0.9697
 7067SOL     OW27036   1.785   4.538   5.055  0.4224 -0.0566 -0.3219
 7067SOL    HW127037   1.799   4.631   5.038  1.4626 -0.2216 -0.4402
 7067SOL    HW227038   1.801   4.495   4.971  1.5672 -0.4801  0.0835
 7068SOL     OW27039   3.974   3.217   7.801 -0.2872  0.0798 -0.8693
 7068SOL    HW127040   4.040   3.245   7.739 -1.2785 -1.0778 -2.5106
 7068SOL    HW227041   3.891   3.230   7.756 -1.1205  0.1306  0.5986
 7069SOL     OW27042   5.362   6.364   9.142 -0.1284  0.0505  0.1887
 7069SOL    HW127043   5.383   6.338   9.053 -1.4784  0.2297 -0.2167
 7069SOL    HW227044   5.367   6.460   9.141 -1.5147  0.1505 -0.1139
 7070SOL     OW27045   4.572   2.240   3.395  0.0045  0.6669  0.1851
 7070SOL    HW127046   4.661   2.271   3.379  0.3233 -0.2438  0.1424
 7070SOL    HW227047   4.549   2.275   3.481 -0.5886  3.0716 -0.8801
 7071SOL     OW27048   5.551   5.410   3.433 -0.2458 -0.4230 -0.0906
 7071SOL    HW127049   5.581   5.425   3.343  3.1011 -1.5551  0.7128
 7071SOL    HW227050   5.518   5.320   3.432  0.8915 -0.8594  0.0181
 7072SOL     OW27051   5.537   8.673   5.495 -0.3090 -0.7850 -0.4493
 7072SOL    HW127052   5.520   8.613   5.423 -0.6188 -1.5096  0.2213
 7072SOL    HW227053   5.555   8.617   5.570 -0.3605 -0.0386  0.1355
 7073SOL     OW27054   9.118   8.617   5.029 -0.0726  0.6248  0.6200
 7073SOL    HW127055   9.186   8.670   4.988  0.4384  0.5056  1.2942
 7073SOL    HW227056   9.082   8.672   5.099 -0.7920  0.7478  0.1676
 7074SOL     OW27057   4.186   4.801   2.944 -0.4202 -0.3389  0.0411
 7074SOL    HW127058   4.149   4.721   2.908 -0.2921 -0.5243  0.3210
 7074SOL    HW227059   4.279   4.797   2.921 -0.5273  0.0321 -0.4914
 7075SOL     OW27060   0.922   4.711   2.112  0.3823  0.0532 -0.7381
 7075SOL    HW127061   0.941   4.766   2.037  1.9836  1.5096  0.6506
 7075SOL    HW227062   0.912   4.772   2.185 -2.0427 -1.2332  0.1268
 7076SOL     OW27063   4.037   4.630   6.810 -0.4011 -0.3376 -0.3679
 7076SOL    HW127064   4.083   4.584   6.740  0.5930  0.7500 -0.4527
 7076SOL    HW227065   4.103   4.646   6.876 -1.2677 -1.0943  0.7299
 7077SOL     OW27066   4.742   9.681   2.668  0.2335 -0.0131  0.2293
 7077SOL    HW127067   4.795   9.613   2.709 -0.2729 -1.1232 -0.8882
 7077SOL    HW227068   4.652   9.661   2.693  0.1856  1.1241  1.0797
 7078SOL     OW27069   9.665   5.531   0.510  0.4739  0.3852  0.4305
 7078SOL    HW127070   9.636   5.606   0.561  0.7051 -0.4171  1.7713
 7078SOL    HW227071   9.755   5.552   0.484  1.8509 -0.8157  3.7389
 7079SOL     OW27072   9.983   5.979   8.998 -0.0630 -0.0539 -0.5003
 7079SOL    HW127073   9.990   5.890   8.962 -1.1433 -0.6404  0.6455
 7079SOL    HW227074  10.058   5.987   9.057 -0.9117 -0.9221  0.7686
 7080SOL     OW27075   0.277   1.943   0.778 -0.0915 -0.3679 -0.2574
 7080SOL    HW127076   0.346   2.009   0.775 -2.1247  1.8683 -1.7434
 7080SOL    HW227077   0.202   1.988   0.818 -0.8814 -2.5773  0.9498
 7081SOL     OW27078   9.805   0.316   9.129  0.3802 -0.3382  0.0458
 7081SOL    HW127079   9.852   0.241   9.165  2.5006  0.1514 -1.4361
 7081SOL    HW227080   9.870   0.387   9.132 -1.1958  1.1386  0.3749
 7082SOL     OW27081   8.159   6.017   9.993 -0.6265 -0.2563 -0.5208
 7082SOL    HW127082   8.202   5.981   9.915  0.5672  0.5043 -0.2492
 7082SOL    HW227083   8.217   6.089  10.021 -1.6744  0.2753  0.3506
 7083SOL     OW27084   5.520   1.935   3.480 -0.2117  0.0797  0.4874
 7083SOL    HW127085   5.564   2.019   3.489  0.9775 -0.5809  1.0646
 7083SOL    HW227086   5.554   1.899   3.398  0.8533 -0.7157  1.2550
 7084SOL     OW27087   5.196   6.707   2.959  0.2097 -0.6528  0.5084
 7084SOL    HW127088   5.161   6.665   3.038 -0.4677 -1.0871 -0.0035
 7084SOL    HW227089   5.184   6.641   2.890 -0.7431  0.3122 -0.2889
 7085SOL     OW27090   4.301  10.153   4.411  0.2176  0.3256  0.0804
 7085SOL    HW127091   4.386  10.186   4.438 -0.9969  3.0227  0.9240
 7085SOL    HW227092   4.301  10.160   4.315  0.0864  2.8040  0.2019
 7086SOL     OW27093   9.090  10.070   1.950 -0.6653 -0.8216 -0.0765
 7086SOL    HW127094   9.144  10.098   2.024  0.1662 -2.2125 -0.1178
 7086SOL    HW227095   9.142  10.001   1.908 -1.5672 -0.7470 -1.3610
 7087SOL     OW27096   1.415   6.469   9.637 -0.0147 -0.4705 -0.2934
 7087SOL    HW127097   1.470   6.534   9.592  1.8371 -2.3583 -0.8906
 7087SOL    HW227098   1.329   6.479   9.596  0.6276  0.5586 -1.4721
 7088SOL     OW27099   8.872   7.714   9.170 -0.5227  0.0443  0.5306
 7088SOL    HW127100   8.880   7.683   9.080 -2.7438  1.8681 -0.3955
 7088SOL    HW227101   8.941   7.780   9.178 -1.3934  1.1251 -0.4769
 7089SOL     OW27102   0.041   9.261   9.993  0.3249 -0.3803  0.0607
 7089SOL    HW127103   0.007   9.189  10.046 -2.9695  2.8981  2.9247
 7089SOL    HW227104   0.102   9.307  10.050  0.3768  0.5427 -0.6987
 7090SOL     OW27105   9.193   3.757   6.398  0.6658 -0.0031  0.7220
 7090SOL    HW127106   9.182   3.699   6.323 -2.5888  1.2850  0.0610
 7090SOL    HW227107   9.287   3.755   6.416  1.0609 -3.3223 -0.9278
 7091SOL     OW27108   2.000   4.605   1.243 -0.3786 -0.5023  0.2982
 7091SOL    HW127109   1.913   4.619   1.281  0.8025  0.6870  2.7990
 7091SOL    HW227110   2.032   4.525   1.285  0.8176  0.6521  1.7193
 7092SOL     OW27111  10.673   6.560   2.839 -0.0520  0.1088  0.7054
 7092SOL    HW127112  10.670   6.638   2.894  0.5831 -0.4865  1.6325
 7092SOL    HW227113  10.621   6.495   2.888 -1.1828  0.1476 -0.4020
 7093SOL     OW27114   7.535   5.443   3.626  0.1898  0.5722 -0.5833
 7093SOL    HW127115   7.585   5.362   3.623  1.2461  1.0991  1.1834
 7093SOL    HW227116   7.585   5.504   3.571 -0.4433  0.1405 -1.6660
 7094SOL     OW27117   0.616   6.043   6.162  0.2050 -0.3506 -0.6602
 7094SOL    HW127118   0.631   6.131   6.127 -1.0847  0.9672  1.8681
 7094SOL    HW227119   0.521   6.037   6.173  0.3792 -1.5544  0.4054
 7095SOL     OW27120   0.192  10.522   5.986  0.8765  0.0639 -0.6293
 7095SOL    HW127121   0.102  10.500   5.961  0.5616 -0.9353  1.2043
 7095SOL    HW227122   0.244  10.447   5.957  0.8236 -0.1736 -0.1252
 7096SOL     OW27123   8.504   2.226  10.388  0.1409  0.5105 -0.0801
 7096SOL    HW127124   8.515   2.175  10.307 -0.3070 -0.9699  0.7464
 7096SOL    HW227125   8.593   2.247  10.416  0.3509 -0.0101 -0.3393
 7097SOL     OW27126   7.070   0.124  10.697  0.4041 -0.5948 -0.5334
 7097SOL    HW127127   7.115   0.093  10.619  2.3233 -0.7140  0.5596
 7097SOL    HW227128   7.130   0.188  10.736 -1.1296  0.5059  0.1129
 7098SOL     OW27129   3.436  10.409   1.938  0.2929 -0.1373  0.2919
 7098SOL    HW127130   3.450  10.323   1.900  0.7872 -0.0294  0.2184
 7098SOL    HW227131   3.354  10.402   1.986  1.3005 -1.2168  1.9393
 7099SOL     OW27132   4.612   3.822   4.759 -0.1672  0.3450 -0.0328
 7099SOL    HW127133   4.622   3.824   4.855 -2.0047 -2.7503  0.3940
 7099SOL    HW227134   4.697   3.795   4.727  0.2162  0.4850  0.8357
 7100SOL     OW27135  10.064   3.823   8.146  0.1845 -0.0529  0.5947
 7100SOL    HW127136  10.035   3.734   8.128  0.0656 -0.1311  1.1489
 7100SOL    HW227137  10.159   3.816   8.157  0.1754 -0.1101  0.6348
 7101SOL     OW27138   5.941   7.428  10.014 -0.1150 -0.1558 -0.1529
 7101SOL    HW127139   5.986   7.493  10.068 -1.1963  1.2460 -0.8594
 7101SOL    HW227140   5.863   7.404  10.065  0.5630 -1.3596  0.3561
 7102SOL     OW27141   3.379   9.693   2.053 -0.0867 -0.2537 -0.1522
 7102SOL    HW127142   3.383   9.773   2.105  0.9321 -0.5211  0.2201
 7102SOL    HW227143   3.396   9.722   1.963 -0.7550  0.0731 -0.1741
 7103SOL     OW27144   0.539   1.548   3.054  0.1274 -0.5247 -0.1001
 7103SOL    HW127145   0.632   1.571   3.049  0.1485 -0.8306 -1.4408
 7103SOL    HW227146   0.538   1.461   3.095  0.7325 -2.0394 -3.0438
 7104SOL     OW27147   6.044   0.035   9.912  0.4422 -0.1901 -0.3797
 7104SOL    HW127148   6.123  -0.016   9.898  1.7171  0.8433  2.4000
 7104SOL    HW227149   6.051   0.108   9.851  0.4551 -1.2977 -1.7426
 7105SOL     OW27150   5.377   4.583   0.983 -0.4724 -0.2606  0.2715
 7105SOL    HW127151   5.288   4.581   1.017 -0.8971  0.5079 -0.7452
 7105SOL    HW227152   5.410   4.670   1.007 -0.6671  0.1693 -0.9326
 7106SOL     OW27153   2.758   5.439   4.639  0.1971  0.1511 -0.3191
 7106SOL    HW127154   2.789   5.386   4.566 -0.2015  0.2933 -0.5946
 7106SOL    HW227155   2.838   5.475   4.678  0.3794  0.6938 -1.1523
 7107SOL     OW27156  10.049   4.260   3.390 -0.2425 -0.0297 -0.2983
 7107SOL    HW127157  10.043   4.232   3.298  0.9444  0.3654 -0.5156
 7107SOL    HW227158  10.130   4.220   3.422  0.1776  1.1088  0.1153
 7108SOL     OW27159   5.806   7.631   8.397 -0.0051  0.3068  0.4820
 7108SOL    HW127160   5.819   7.714   8.351 -1.2850  0.1739 -0.1688
 7108SOL    HW227161   5.711   7.626   8.411  0.2638  0.1029  2.7167
 7109SOL     OW27162   2.375   4.717   2.050 -0.3924 -0.4051  0.0484
 7109SOL    HW127163   2.430   4.722   1.971  1.0089  1.4013  1.0500
 7109SOL    HW227164   2.433   4.680   2.117 -0.4447  1.1978  1.0352
 7110SOL     OW27165   5.137   5.192   2.034  0.3691  0.1787  0.2251
 7110SOL    HW127166   5.165   5.268   1.982 -0.5749  1.0820  0.9791
 7110SOL    HW227167   5.213   5.172   2.089  0.8951  0.0770 -0.5170
 7111SOL     OW27168   3.120   9.250   7.630 -0.3616 -0.0663 -0.1809
 7111SOL    HW127169   3.078   9.326   7.590 -0.7749 -0.5116 -0.6045
 7111SOL    HW227170   3.058   9.222   7.697 -0.7611 -0.7461 -0.8301
 7112SOL     OW27171   9.934   1.571   3.565 -0.0215 -0.7333 -0.3212
 7112SOL    HW127172   9.943   1.666   3.569  0.9068 -0.6830 -2.4059
 7112SOL    HW227173  10.023   1.538   3.572 -0.2602 -1.4110 -0.4061
 7113SOL     OW27174   3.537   2.606   3.703 -0.0438 -0.1979 -0.2499
 7113SOL    HW127175   3.630   2.600   3.726  0.5266  1.3946 -1.8743
 7113SOL    HW227176   3.500   2.522   3.732  2.4645 -2.0623 -1.9584
 7114SOL     OW27177   5.789   6.092   3.892 -0.3020 -0.0396  0.2858
 7114SOL    HW127178   5.880   6.099   3.919 -0.0152 -1.1728 -0.3037
 7114SOL    HW227179   5.774   6.168   3.836 -0.1033  0.8278  1.3919
 7115SOL     OW27180  10.119   3.862   9.123  0.3243  0.3396 -0.1718
 7115SOL    HW127181  10.202   3.849   9.171  0.1879  0.3364  0.0648
 7115SOL    HW227182  10.051   3.835   9.185  0.2076 -1.0880 -0.8739
 7116SOL     OW27183   5.736   4.541   0.532  0.6737  0.1825  0.1337
 7116SOL    HW127184   5.717   4.487   0.455 -0.2764  0.3034  0.2725
 7116SOL    HW227185   5.719   4.483   0.606 -2.8122  1.3157  0.3759
 7117SOL     OW27186   6.846   7.482   4.393  0.1451  0.3201 -0.6858
 7117SOL    HW127187   6.907   7.408   4.395  0.7180  0.7706 -1.2304
 7117SOL    HW227188   6.759   7.442   4.397  0.3797 -0.4854 -2.7801
 7118SOL     OW27189   3.282   5.697   8.704  0.3408  0.3896 -0.4282
 7118SOL    HW127190   3.201   5.738   8.735 -0.8408 -0.2977 -2.4442
 7118SOL    HW227191   3.305   5.634   8.773 -1.5587 -0.2956 -0.3605
 7119SOL     OW27192   4.533   1.177   4.926 -0.3517  0.1359 -0.1690
 7119SOL    HW127193   4.558   1.269   4.919 -1.1051  0.3538 -0.1823
 7119SOL    HW227194   4.450   1.171   4.878 -1.1649 -0.1755  1.1906
 7120SOL     OW27195   8.587   5.499   2.368  0.2471  0.2610 -0.2602
 7120SOL    HW127196   8.491   5.500   2.373  0.2553 -0.2912  0.0671
 7120SOL    HW227197   8.607   5.416   2.325  0.4921  1.4360 -2.5787
 7121SOL     OW27198   4.043   3.518   7.450 -0.3048 -0.5753 -0.2046
 7121SOL    HW127199   4.108   3.515   7.380 -1.4162  0.0108 -1.3062
 7121SOL    HW227200   4.040   3.611   7.476  0.1352 -0.7939  0.6901
 7122SOL     OW27201   4.851   1.664   7.046 -0.2879  0.7032  0.1761
 7122SOL    HW127202   4.760   1.632   7.048  0.1576 -0.5741  1.8798
 7122SOL    HW227203   4.869   1.690   7.136  0.8525  1.5938 -0.2867
 7123SOL     OW27204   4.410   4.761   2.079 -0.2194  0.0638 -0.8564
 7123SOL    HW127205   4.366   4.680   2.104 -1.3103  1.2804  1.6104
 7123SOL    HW227206   4.503   4.744   2.094 -0.5973 -0.1682  1.7883
 7124SOL     OW27207  10.239  10.374   8.440  0.3798  0.2906 -0.3732
 7124SOL    HW127208  10.151  10.412   8.436 -0.0412 -0.7300 -2.0450
 7124SOL    HW227209  10.287  10.416   8.369  0.2875 -1.2833 -1.4302
 7125SOL     OW27210   2.043   6.925   8.815 -0.3619  0.6898 -0.4884
 7125SOL    HW127211   2.111   6.934   8.748  0.4676  0.1402  0.2628
 7125SOL    HW227212   1.986   6.855   8.781 -1.2579  1.9255 -1.6682
 7126SOL     OW27213   5.459   9.858   6.851  0.1330 -0.2049 -0.4833
 7126SOL    HW127214   5.488   9.770   6.874  0.1270  0.7210  3.8424
 7126SOL    HW227215   5.530   9.894   6.798  1.7277 -1.6735  0.5736
 7127SOL     OW27216   8.176   1.315   8.315  0.1378 -0.4701 -0.2532
 7127SOL    HW127217   8.166   1.399   8.360  0.4848 -0.8675  0.5907
 7127SOL    HW227218   8.089   1.277   8.315 -0.1337  0.1200 -1.1267
 7128SOL     OW27219   9.761   7.618   8.536 -0.0560 -0.4715  0.4396
 7128SOL    HW127220   9.772   7.629   8.441 -0.7854  0.8550  0.4721
 7128SOL    HW227221   9.819   7.546   8.559 -0.6285 -1.5175 -1.1835
 7129SOL     OW27222   9.634   0.698  10.487 -0.2587 -0.2034  0.2913
 7129SOL    HW127223   9.557   0.739  10.449 -0.9051 -1.2951  0.3835
 7129SOL    HW227224   9.693   0.684  10.412 -1.1113 -1.4328 -0.1906
 7130SOL     OW27225   0.901   0.651   5.583 -0.3914 -0.2879 -0.0786
 7130SOL    HW127226   0.937   0.732   5.546  2.0319 -1.5141 -0.5670
 7130SOL    HW227227   0.814   0.676   5.613  1.1476  3.1897  2.1702
 7131SOL     OW27228  10.698   9.721   1.341 -0.4005 -0.3557 -0.2591
 7131SOL    HW127229  10.726   9.767   1.420  0.7683 -1.1429 -0.1924
 7131SOL    HW227230  10.703   9.628   1.364  0.4901 -0.6170 -1.4003
 7132SOL     OW27231   1.677   1.848   3.549  0.0048 -0.6340  0.3992
 7132SOL    HW127232   1.637   1.882   3.469  0.2745  0.2333  0.6167
 7132SOL    HW227233   1.662   1.917   3.614  2.1108 -0.0995  0.4009
 7133SOL     OW27234   9.228  10.580   6.458 -0.3856 -0.7949 -0.6416
 7133SOL    HW127235   9.323  10.590   6.460 -0.3793 -0.9567  0.5175
 7133SOL    HW227236   9.213  10.494   6.420 -0.2098  0.5000 -3.9642
 7134SOL     OW27237   9.877   8.022   0.058  0.3663  0.0343 -0.2246
 7134SOL    HW127238   9.904   7.931   0.062  0.2238  0.0259  0.7957
 7134SOL    HW227239   9.783   8.020   0.074  0.0885  0.2414 -1.7061
 7135SOL     OW27240   4.688   2.139   3.711  0.0570  0.1799  0.4742
 7135SOL    HW127241   4.781   2.132   3.691  0.5933  0.9080  2.4642
 7135SOL    HW227242   4.669   2.232   3.702 -0.3632  0.1083  0.6038
 7136SOL     OW27243   6.858   7.363   7.597 -0.1254 -0.1458  0.3042
 7136SOL    HW127244   6.880   7.415   7.674 -1.4814 -0.2845  0.8193
 7136SOL    HW227245   6.854   7.273   7.628 -1.3480 -0.1312  0.2575
 7137SOL     OW27246   0.916   2.790   0.781 -0.3614  0.9953 -0.2341
 7137SOL    HW127247   0.959   2.735   0.847 -0.0506  2.5848  0.9615
 7137SOL    HW227248   0.823   2.784   0.802 -0.4299  0.2109 -0.7084
 7138SOL     OW27249   8.474   2.432   6.232  0.2214  0.4822 -0.1450
 7138SOL    HW127250   8.555   2.430   6.282  0.4745 -0.1654 -0.5628
 7138SOL    HW227251   8.503   2.439   6.141 -0.1417 -0.7609 -0.3778
 7139SOL     OW27252   7.113   2.901   7.466 -0.1269 -0.1622 -0.5429
 7139SOL    HW127253   7.069   2.935   7.388 -1.0849 -0.1115  0.0067
 7139SOL    HW227254   7.072   2.948   7.539  2.7471  1.9886 -0.1339
 7140SOL     OW27255   6.832  10.656   3.932  0.0772 -0.0324  0.5459
 7140SOL    HW127256   6.926  10.662   3.911  0.5950 -2.7952  1.6230
 7140SOL    HW227257   6.789  10.656   3.846  1.4139 -2.1024 -0.2197
 7141SOL     OW27258   3.042   9.362   1.614 -0.0904 -0.0265  0.7287
 7141SOL    HW127259   3.108   9.292   1.619  0.1147  0.0112 -0.8049
 7141SOL    HW227260   3.092   9.442   1.598 -0.4088  0.2494  1.0957
 7142SOL     OW27261   3.393   8.069   9.116 -0.1023 -0.2785  0.3303
 7142SOL    HW127262   3.323   8.061   9.050 -0.1931  1.3523  0.2014
 7142SOL    HW227263   3.346   8.081   9.199 -0.0476  2.5273  0.0297
 7143SOL     OW27264   1.029   4.913   3.109 -0.5532 -0.0059  0.6448
 7143SOL    HW127265   0.994   4.842   3.162  0.1270 -0.4705  0.4933
 7143SOL    HW227266   1.091   4.958   3.167  0.1497 -0.4799  0.2892
 7144SOL     OW27267   1.688   5.585   8.347  0.3221  0.3542  0.0071
 7144SOL    HW127268   1.766   5.533   8.326  0.2637 -0.1352  0.9947
 7144SOL    HW227269   1.640   5.533   8.411 -0.4878  0.9564 -0.0997
 7145SOL     OW27270   0.879   6.276   2.670  0.2031 -0.0400  0.2386
 7145SOL    HW127271   0.936   6.343   2.634  0.8449 -0.6196  0.1635
 7145SOL    HW227272   0.915   6.193   2.639 -2.2535 -0.3501 -2.1076
 7146SOL     OW27273   5.433   4.435   7.918 -0.1172 -0.1283 -0.4635
 7146SOL    HW127274   5.451   4.344   7.941 -0.0118 -0.6375 -2.3929
 7146SOL    HW227275   5.410   4.433   7.825  0.3946  1.8755 -0.6949
 7147SOL     OW27276  10.007   3.488   9.181 -0.4158  0.0752 -0.5228
 7147SOL    HW127277   9.934   3.451   9.131 -1.3293  2.5552 -1.1726
 7147SOL    HW227278  10.084   3.475   9.125 -1.2008  1.6226 -2.0652
 7148SOL     OW27279   2.041   5.880   0.857 -0.1228  0.1565 -0.1835
 7148SOL    HW127280   2.034   5.867   0.951 -0.8235  0.9832 -0.1157
 7148SOL    HW227281   2.060   5.973   0.847  0.4267 -0.0124 -0.8487
 7149SOL     OW27282   0.767   7.801   6.172 -0.3847 -0.0319  0.2816
 7149SOL    HW127283   0.719   7.763   6.098 -0.4341 -0.0696  0.3334
 7149SOL    HW227284   0.785   7.891   6.144  1.5548 -0.6680 -0.7253
 7150SOL     OW27285   4.449   5.754   6.600  0.1490  0.4329  0.0282
 7150SOL    HW127286   4.537   5.718   6.607  0.4505  0.8654 -1.2630
 7150SOL    HW227287   4.412   5.713   6.522 -0.7954  0.2669  0.5443
 7151SOL     OW27288   4.074   1.237   7.417 -0.4841  0.2078  0.3143
 7151SOL    HW127289   4.035   1.248   7.504  0.5592  0.6474  0.7549
 7151SOL    HW227290   4.025   1.296   7.361  0.1928  1.5451  1.0758
 7152SOL     OW27291   3.074   0.349   6.584  0.0037  0.3236 -0.5931
 7152SOL    HW127292   2.990   0.390   6.609  0.2427  0.9188 -0.7552
 7152SOL    HW227293   3.100   0.300   6.662  0.7619  2.2140  0.3990
 7153SOL     OW27294   6.989   6.114   3.689 -0.4871 -1.0435  0.1448
 7153SOL    HW127295   7.073   6.154   3.710 -1.0437 -0.9776  2.4889
 7153SOL    HW227296   6.934   6.186   3.657 -0.7995 -0.2780  2.2609
 7154SOL     OW27297   8.881   8.045   7.316  0.2627 -0.6007  0.7333
 7154SOL    HW127298   8.874   7.970   7.257  0.7955  0.3570 -0.5953
 7154SOL    HW227299   8.960   8.090   7.287 -0.6519  1.0906  0.7710
 7155SOL     OW27300   1.184   2.438   3.395  0.3473  0.0431  0.0446
 7155SOL    HW127301   1.120   2.457   3.326  0.0718  0.4423  0.4086
 7155SOL    HW227302   1.195   2.521   3.441  1.6592  0.1649 -0.4508
 7156SOL     OW27303   3.484   4.038   3.667  0.2276  0.0870  0.5860
 7156SOL    HW127304   3.540   4.106   3.630 -0.1262  0.4568  0.7171
 7156SOL    HW227305   3.506   4.035   3.760  2.3576 -2.0487  0.0936
 7157SOL     OW27306   3.653   9.632   7.541 -0.1249  0.3323 -0.0855
 7157SOL    HW127307   3.740   9.597   7.525 -0.7738 -2.2117  1.3695
 7157SOL    HW227308   3.668   9.725   7.557  1.9542  0.4889 -2.3178
 7158SOL     OW27309   7.623   5.522   5.901 -0.4767  0.2110 -0.0096
 7158SOL    HW127310   7.642   5.537   5.808 -0.2222  2.3927  0.3551
 7158SOL    HW227311   7.528   5.533   5.907 -0.3210  1.6250  0.2124
 7159SOL     OW27312   2.484   8.961   3.799  0.2515 -0.1449 -0.0778
 7159SOL    HW127313   2.512   9.011   3.722  0.0707 -0.2520 -0.2155
 7159SOL    HW227314   2.485   9.024   3.871 -1.8248  0.5766 -0.5993
 7160SOL     OW27315   9.045   3.820   3.674  0.4731 -0.4067 -0.0598
 7160SOL    HW127316   9.061   3.732   3.708 -1.0933  0.1498  2.3796
 7160SOL    HW227317   8.982   3.808   3.603  1.0160 -1.3069 -0.4073
 7161SOL     OW27318   2.824   0.484   6.686 -0.1447  0.0911  0.1259
 7161SOL    HW127319   2.800   0.528   6.767 -0.2489 -0.0106  0.1496
 7161SOL    HW227320   2.749   0.430   6.664  0.2533 -0.6158  0.4751
 7162SOL     OW27321   4.611   4.988   3.037  0.0772 -0.0656  0.6029
 7162SOL    HW127322   4.676   5.057   3.051 -1.3566  1.4317  0.1829
 7162SOL    HW227323   4.537   5.014   3.091 -0.3555 -1.4979  0.7183
 7163SOL     OW27324  10.558   5.111   6.365 -0.0399  0.2149  0.4440
 7163SOL    HW127325  10.631   5.125   6.426 -0.8657  1.2640  1.2395
 7163SOL    HW227326  10.585   5.155   6.285  0.9229 -0.8948  0.1336
 7164SOL     OW27327  10.185   8.646   6.949  0.2154  0.3195  0.3786
 7164SOL    HW127328  10.217   8.597   7.025  0.6026  2.0548  1.3921
 7164SOL    HW227329  10.252   8.633   6.882  0.5045 -0.2011  0.7573
 7165SOL     OW27330   2.446   2.338   2.112  0.0114  0.1273 -0.6966
 7165SOL    HW127331   2.374   2.297   2.160  1.2708 -1.4938 -0.0438
 7165SOL    HW227332   2.428   2.432   2.115 -1.5271 -0.1683  0.3078
 7166SOL     OW27333   3.379   8.069   8.002  0.5454 -0.0297 -0.2803
 7166SOL    HW127334   3.348   8.103   8.085 -0.2450  1.6586 -1.2084
 7166SOL    HW227335   3.301   8.066   7.946  0.9127 -1.8292 -0.7620
 7167SOL     OW27336   3.722   6.984   6.270 -0.4318 -0.0626  0.0291
 7167SOL    HW127337   3.637   6.958   6.305 -0.5948 -0.5383 -0.7199
 7167SOL    HW227338   3.742   6.919   6.204  0.3040  0.3153 -0.1252
 7168SOL     OW27339   0.090   3.271   1.001  0.7681  0.4581 -0.4848
 7168SOL    HW127340   0.038   3.231   1.071  0.1104  0.7142 -0.8158
 7168SOL    HW227341   0.089   3.365   1.021  2.4348  0.3235  0.3774
 7169SOL     OW27342   3.422   5.940   5.668 -0.3218 -0.0485 -0.2150
 7169SOL    HW127343   3.380   5.907   5.589 -1.3589  0.0471  0.2861
 7169SOL    HW227344   3.486   6.004   5.636 -0.8423  0.1045 -0.9725
 7170SOL     OW27345   1.361   7.073   4.964  0.3736 -0.7433  0.0952
 7170SOL    HW127346   1.337   7.009   5.031  0.7532 -0.1972  0.7651
 7170SOL    HW227347   1.356   7.158   5.008  1.2297 -0.4230 -0.3866
 7171SOL     OW27348   4.987   2.152   3.728  0.3962  0.1286  0.0386
 7171SOL    HW127349   5.006   2.246   3.730  0.6539  0.1099 -0.9338
 7171SOL    HW227350   5.054   2.116   3.670  0.0218 -0.5961  0.0525
 7172SOL     OW27351   3.071   4.106   9.891  0.2609  0.1258 -0.7021
 7172SOL    HW127352   3.092   4.199   9.893 -0.1753  0.2469 -1.2624
 7172SOL    HW227353   3.108   4.071   9.971  0.3103  0.8109 -0.4174
 7173SOL     OW27354   0.524   1.800   0.806  0.3176 -0.0925  0.9467
 7173SOL    HW127355   0.536   1.821   0.713  1.4808  0.1204  1.1305
 7173SOL    HW227356   0.440   1.840   0.828  0.1859  0.1501  0.0651
 7174SOL     OW27357   7.551   0.736   9.259 -0.3011 -0.1438 -0.1576
 7174SOL    HW127358   7.541   0.830   9.241 -3.4835 -0.5937 -1.5896
 7174SOL    HW227359   7.465   0.710   9.293 -0.3622 -2.9170 -2.1213
 7175SOL     OW27360   5.514  10.022   3.601  0.0796 -0.0377  0.4711
 7175SOL    HW127361   5.454  10.040   3.674  0.5828  1.0120  0.6489
 7175SOL    HW227362   5.464   9.967   3.541 -1.0114  0.6942  0.6857
 7176SOL     OW27363   3.644   3.131   9.122 -0.1400 -0.0126  0.3575
 7176SOL    HW127364   3.603   3.191   9.184  0.3023  0.1826  0.4701
 7176SOL    HW227365   3.714   3.089   9.173  0.4053  0.3494 -0.0746
 7177SOL     OW27366   5.748   4.202   8.184  0.2861  0.3562  0.2653
 7177SOL    HW127367   5.695   4.145   8.128 -1.1176  0.0388  1.8454
 7177SOL    HW227368   5.685   4.260   8.226  1.3842  1.1041  0.9267
 7178SOL     OW27369   2.220   4.789  10.332 -0.2687 -0.1151  0.2012
 7178SOL    HW127370   2.308   4.756  10.311 -0.2785 -0.0366  0.0322
 7178SOL    HW227371   2.207   4.862  10.271 -0.2167  0.2488  0.6243
 7179SOL     OW27372   0.955   3.174   9.311  0.5997  0.2673 -0.3281
 7179SOL    HW127373   0.947   3.259   9.267  0.8490  0.8962  0.8151
 7179SOL    HW227374   0.994   3.117   9.244  2.5097  1.6184 -0.4661
 7180SOL     OW27375   8.297   4.139   0.799 -0.0673  0.4391  0.6422
 7180SOL    HW127376   8.210   4.163   0.768 -0.0516  1.6054  1.4458
 7180SOL    HW227377   8.285   4.054   0.841 -0.5755  0.0514 -0.2412
 7181SOL     OW27378   2.566  10.041   2.442 -0.2972  0.3648  0.4402
 7181SOL    HW127379   2.535  10.044   2.533  0.6917  0.5459  0.7837
 7181SOL    HW227380   2.604  10.128   2.428  0.4582 -0.0079  0.1805
 7182SOL     OW27381   7.529   9.172   6.739  0.6382 -0.2040 -0.0942
 7182SOL    HW127382   7.503   9.169   6.830  1.4509 -1.2106  0.1292
 7182SOL    HW227383   7.619   9.204   6.741  0.6627 -0.2374 -0.5376
 7183SOL     OW27384   5.791   7.423   0.056  0.0125  0.0569 -0.1896
 7183SOL    HW127385   5.848   7.370   0.000  1.3721  0.8677  0.4014
 7183SOL    HW227386   5.810   7.394   0.145 -1.6107 -0.7030 -0.0502
 7184SOL     OW27387   7.222   2.764   3.308  0.4371  1.0785  0.9189
 7184SOL    HW127388   7.210   2.859   3.310  0.5816  1.1628 -0.6837
 7184SOL    HW227389   7.154   2.730   3.367  0.1359  2.1528  1.2183
 7185SOL     OW27390   0.914   6.835   7.421  0.2661 -0.2247 -0.0344
 7185SOL    HW127391   0.930   6.909   7.362  0.7822 -1.0171 -0.9232
 7185SOL    HW227392   1.001   6.807   7.448  0.0197  0.7061  1.8990
 7186SOL     OW27393   1.818   8.352   2.934  0.5766 -0.3686  0.1308
 7186SOL    HW127394   1.875   8.289   2.888  0.2112 -2.0005  1.7922
 7186SOL    HW227395   1.737   8.352   2.883  0.4810 -1.4858  0.2536
 7187SOL     OW27396   8.846   1.659   1.921 -0.0168 -0.4977  0.3340
 7187SOL    HW127397   8.930   1.642   1.963  0.0063 -3.1115 -0.6012
 7187SOL    HW227398   8.851   1.750   1.892  2.4269 -0.5555  0.4171
 7188SOL     OW27399   8.842   1.197  10.327  0.4961 -0.5587  0.0346
 7188SOL    HW127400   8.747   1.208  10.329  0.4163 -1.0587 -0.6193
 7188SOL    HW227401   8.857   1.139  10.253  1.2026 -1.7302  1.0656
 7189SOL     OW27402   5.109   9.245   2.485 -0.3794  0.8333 -0.2203
 7189SOL    HW127403   5.073   9.157   2.482  0.5570  0.4561 -2.1843
 7189SOL    HW227404   5.197   9.236   2.449 -0.5969  2.6934 -1.3470
 7190SOL     OW27405   0.190   5.164  10.652  0.0062  0.0538  0.1523
 7190SOL    HW127406   0.248   5.098  10.691 -0.1619 -0.3240 -0.2346
 7190SOL    HW227407   0.218   5.170  10.561  0.2791  0.8106  0.2817
 7191SOL     OW27408   4.463   2.305   1.543  0.0218  0.1397  0.1321
 7191SOL    HW127409   4.519   2.367   1.497  0.6885 -0.9625 -0.6178
 7191SOL    HW227410   4.457   2.339   1.633 -0.4101  1.7496 -0.4807
 7192SOL     OW27411  10.354   8.081   4.323 -0.4574 -0.4968 -0.1596
 7192SOL    HW127412  10.390   8.158   4.369  1.4342 -1.3729 -0.0664
 7192SOL    HW227413  10.354   8.107   4.231  0.4225 -0.4496 -0.1586
 7193SOL     OW27414   7.500   8.049   9.202  0.0537 -0.0149 -0.6046
 7193SOL    HW127415   7.518   7.967   9.156  1.8689 -0.5610  0.9706
 7193SOL    HW227416   7.542   8.116   9.149  0.7493 -0.4297 -0.5912
 7194SOL     OW27417   6.940   7.858   4.979 -0.4158  0.0039 -0.2682
 7194SOL    HW127418   7.002   7.805   4.929 -1.0030 -0.3904 -0.5805
 7194SOL    HW227419   6.872   7.796   5.007 -0.6082  0.4096  0.1679
 7195SOL     OW27420   8.794   5.923   1.883  0.4956  0.5666 -0.0999
 7195SOL    HW127421   8.858   5.948   1.816  0.3803  0.2194 -0.3390
 7195SOL    HW227422   8.812   5.982   1.956  0.0224  1.5667 -0.7742
 7196SOL     OW27423   6.315   0.115   5.567 -0.0630 -0.3099 -0.9420
 7196SOL    HW127424   6.373   0.044   5.596  0.1956  0.4672  0.5398
 7196SOL    HW227425   6.361   0.195   5.591 -0.9885  0.3501 -1.3115
 7197SOL     OW27426   4.215   0.979   5.653  0.9968 -0.0320  0.3231
 7197SOL    HW127427   4.267   0.977   5.572  3.0532  0.5142  1.5550
 7197SOL    HW227428   4.185   1.069   5.660  1.5250  0.1269  0.5794
 7198SOL     OW27429   9.532   3.268   5.362  0.5830 -0.2735  0.3040
 7198SOL    HW127430   9.605   3.222   5.404  1.5946 -0.9887 -2.0245
 7198SOL    HW227431   9.549   3.360   5.379  3.5343 -0.1731 -2.0905
 7199SOL     OW27432   4.945   6.962   8.970 -0.5878 -0.4856 -0.4756
 7199SOL    HW127433   4.959   7.052   9.002 -1.1320  0.2169 -2.0934
 7199SOL    HW227434   4.860   6.937   9.006 -0.0333 -0.6975  0.7049
 7200SOL     OW27435   9.327   3.165   0.504 -0.3042 -0.1733 -0.3773
 7200SOL    HW127436   9.320   3.258   0.524 -1.9533 -0.3986  0.2713
 7200SOL    HW227437   9.361   3.162   0.414 -2.7422  1.1665 -1.4421
 7201SOL     OW27438   3.895   1.032   6.750 -0.1900  0.5117 -0.1665
 7201SOL    HW127439   3.939   0.958   6.790 -1.1015  0.6396  1.1234
 7201SOL    HW227440   3.890   1.098   6.819 -0.9549  1.1016 -0.7569
 7202SOL     OW27441   9.092   7.024   2.376 -0.1726  0.8688 -0.1301
 7202SOL    HW127442   9.188   7.025   2.375 -0.1532 -0.2645 -0.5870
 7202SOL    HW227443   9.068   6.972   2.300 -1.1238  0.3755  0.4898
 7203SOL     OW27444   6.562   2.733   1.322  0.2825  0.0109 -0.2207
 7203SOL    HW127445   6.525   2.685   1.396 -1.2363  0.6659 -0.5087
 7203SOL    HW227446   6.528   2.822   1.331  0.1958  0.1475 -1.5920
 7204SOL     OW27447   7.712   1.027   3.305  0.0619 -0.1089 -0.5314
 7204SOL    HW127448   7.756   0.944   3.324 -0.6061  0.1007  2.4489
 7204SOL    HW227449   7.779   1.094   3.323  0.3148  0.0589 -2.0034
 7205SOL     OW27450   9.332   5.472   1.473  0.1631 -0.2822 -0.2512
 7205SOL    HW127451   9.264   5.466   1.540  1.6136  0.0989  1.3320
 7205SOL    HW227452   9.311   5.552   1.424 -0.9951 -0.6409 -0.3735
 7206SOL     OW27453   8.613   4.667   4.653 -0.0101 -0.0764  0.8858
 7206SOL    HW127454   8.676   4.648   4.584  0.6592 -0.8480  1.6860
 7206SOL    HW227455   8.653   4.736   4.705  0.0684 -0.4026  1.2588
 7207SOL     OW27456   2.807   3.998   0.675 -0.0407 -0.4020  0.1550
 7207SOL    HW127457   2.875   4.034   0.619 -0.3647 -0.8701 -0.5628
 7207SOL    HW227458   2.849   3.926   0.722  0.3442  0.2636  0.8429
 7208SOL     OW27459   4.452   3.105   6.514  0.0296  0.4235 -0.0012
 7208SOL    HW127460   4.365   3.141   6.495 -1.2000 -1.4585  1.6241
 7208SOL    HW227461   4.495   3.172   6.567 -1.0055  0.7978  0.3850
 7209SOL     OW27462   5.924   9.262   9.278 -0.1901  0.3993  0.1936
 7209SOL    HW127463   5.928   9.239   9.185  1.4455  0.1850  0.2953
 7209SOL    HW227464   5.834   9.292   9.291 -0.0701  1.8127 -1.7894
 7210SOL     OW27465   4.599   8.152   6.720  0.2574  0.0836 -0.3727
 7210SOL    HW127466   4.595   8.155   6.625 -3.0290  1.1498 -0.3387
 7210SOL    HW227467   4.683   8.192   6.743 -0.1838  2.6881 -2.7904
 7211SOL     OW27468   4.282   8.347   5.420  0.3890 -0.2002  0.3119
 7211SOL    HW127469   4.378   8.342   5.420  0.3752 -0.5850  1.1432
 7211SOL    HW227470   4.262   8.412   5.352  1.3430  1.6068  1.6456
 7212SOL     OW27471   6.778   7.623   3.268  0.1550 -0.5655  0.4996
 7212SOL    HW127472   6.715   7.694   3.261  0.7228 -0.0091  0.9510
 7212SOL    HW227473   6.724   7.544   3.275 -0.4887 -0.1122  0.7607
 7213SOL     OW27474   3.268   7.865   4.446 -0.4317 -0.1855 -1.2719
 7213SOL    HW127475   3.212   7.842   4.372  0.3588 -0.3344 -1.8383
 7213SOL    HW227476   3.355   7.832   4.422 -0.0018  0.4216 -0.6073
 7214SOL     OW27477   8.143   7.292   0.246 -0.4211 -0.6326  0.2210
 7214SOL    HW127478   8.063   7.344   0.238  0.2055  0.5590  1.4007
 7214SOL    HW227479   8.135   7.226   0.177 -0.9921  1.3085 -1.6815
 7215SOL     OW27480   4.337   2.627   7.110 -0.1534 -0.9329  0.5694
 7215SOL    HW127481   4.398   2.675   7.053 -2.5672  0.5640 -0.9282
 7215SOL    HW227482   4.333   2.679   7.190 -0.1189 -0.5463  0.3244
 7216SOL     OW27483   5.756   1.464   6.357 -0.4509 -0.2266  0.0534
 7216SOL    HW127484   5.782   1.379   6.392  0.1370 -0.5096 -1.0253
 7216SOL    HW227485   5.709   1.443   6.276 -1.9122  0.4020  0.6992
 7217SOL     OW27486   9.234   2.371   7.801  0.0252  0.0612 -0.3515
 7217SOL    HW127487   9.316   2.365   7.752  1.2416  2.4360  1.2101
 7217SOL    HW227488   9.253   2.327   7.884 -0.5111  0.0817 -0.2129
 7218SOL     OW27489   1.360   1.590   9.182 -0.4654 -0.0870 -0.3969
 7218SOL    HW127490   1.384   1.647   9.109 -0.8075 -1.1264 -1.3451
 7218SOL    HW227491   1.312   1.648   9.242  0.6384  0.9996 -0.5174
 7219SOL     OW27492   6.955   4.039   2.548 -0.3520 -0.0416 -0.0095
 7219SOL    HW127493   6.908   4.108   2.594 -3.2048 -1.7653 -0.1455
 7219SOL    HW227494   7.018   4.086   2.493  0.4417  2.2216  2.6192
 7220SOL     OW27495   0.722   9.369   3.679  0.3903  0.3439  0.6685
 7220SOL    HW127496   0.634   9.342   3.703  0.5553  1.2714  2.5704
 7220SOL    HW227497   0.752   9.305   3.615 -1.5598 -0.1180  0.1775
 7221SOL     OW27498   9.253   5.960   0.791  0.0657 -0.5029 -0.3955
 7221SOL    HW127499   9.308   5.910   0.731  2.2843  0.1961  0.9307
 7221SOL    HW227500   9.299   6.043   0.801 -1.0673 -0.0158  1.0733
 7222SOL     OW27501   5.696  10.656   7.864  0.0552 -0.3213 -0.2108
 7222SOL    HW127502   5.739  10.728   7.818 -2.3886  1.0695 -0.5376
 7222SOL    HW227503   5.652  10.606   7.795  1.1185 -1.7534  0.0934
 7223SOL     OW27504   3.008   5.788   6.275  0.4397 -0.1183 -0.3328
 7223SOL    HW127505   3.070   5.769   6.346  0.2601 -0.0737 -0.1641
 7223SOL    HW227506   2.922   5.779   6.315  0.3448  0.7011 -0.3329
 7224SOL     OW27507   3.882   0.517   3.519 -0.3871 -0.1634  0.5039
 7224SOL    HW127508   3.810   0.580   3.516  0.1404  0.4176 -0.4522
 7224SOL    HW227509   3.961   0.571   3.513  0.0640 -0.9215 -1.2343
 7225SOL     OW27510   0.127   3.411   9.209  0.2103  0.3975 -0.9595
 7225SOL    HW127511   0.084   3.491   9.241  1.8640  0.7768  0.4365
 7225SOL    HW227512   0.145   3.361   9.288  0.1658 -0.8903 -1.7411
 7226SOL     OW27513  10.478   4.259   1.785 -0.2587 -0.9604 -0.1555
 7226SOL    HW127514  10.433   4.180   1.813 -0.3276 -1.8859 -2.6013
 7226SOL    HW227515  10.408   4.315   1.750 -0.1480  0.0177  1.1003
 7227SOL     OW27516   5.205  10.060   7.380 -0.7105  0.5157  0.8329
 7227SOL    HW127517   5.132  10.015   7.338 -1.9492  0.4641  2.8771
 7227SOL    HW227518   5.163  10.127   7.435  0.9241  2.0210  0.3286
 7228SOL     OW27519   5.358  10.164   9.684 -0.1333 -0.0750  0.0155
 7228SOL    HW127520   5.378  10.193   9.595  1.1151 -0.3009  0.1967
 7228SOL    HW227521   5.325  10.075   9.675 -2.2575  0.7040 -0.3949
 7229SOL     OW27522   9.128   9.390   0.953 -0.4617  0.2016 -0.3936
 7229SOL    HW127523   9.036   9.409   0.934 -0.9960 -0.3481  1.4874
 7229SOL    HW227524   9.139   9.409   1.046  1.4906  0.7810 -0.6926
 7230SOL     OW27525   6.670   0.128   4.295  0.3628 -0.1904 -0.1405
 7230SOL    HW127526   6.687   0.145   4.202  2.3149  1.0728  0.3680
 7230SOL    HW227527   6.756   0.135   4.336 -0.1422 -2.6356  1.5430
 7231SOL     OW27528   8.704   9.227   7.319 -0.4240  0.2391 -0.8282
 7231SOL    HW127529   8.625   9.269   7.351 -1.3712 -1.4337 -0.8280
 7231SOL    HW227530   8.713   9.148   7.372  1.6406  0.6936 -0.3909
 7232SOL     OW27531   1.946   8.951   3.101 -0.4519 -0.1642 -0.2721
 7232SOL    HW127532   1.946   8.999   3.184 -0.7223  0.1989 -0.4778
 7232SOL    HW227533   1.886   9.000   3.046 -1.0364 -0.9635 -0.3588
 7233SOL     OW27534   4.762   0.996   6.605 -0.6648  0.4821  0.3117
 7233SOL    HW127535   4.820   1.050   6.552 -1.6263  0.2627 -1.0168
 7233SOL    HW227536   4.690   0.973   6.546 -1.1891 -0.7444  1.3778
 7234SOL     OW27537   6.697   2.949   9.212  0.0280 -0.4173 -0.5258
 7234SOL    HW127538   6.665   2.876   9.160 -1.1280 -1.5223  1.6243
 7234SOL    HW227539   6.768   2.912   9.265  1.7842  0.8907 -1.8225
 7235SOL     OW27540   8.713   7.156   9.659  0.2152  0.8050 -0.0009
 7235SOL    HW127541   8.698   7.072   9.703  1.2785 -1.3239 -3.3602
 7235SOL    HW227542   8.629   7.178   9.619  0.4511  0.2220 -0.8347
 7236SOL     OW27543  10.171   7.779   1.278  0.1379 -0.5325 -0.0662
 7236SOL    HW127544  10.106   7.831   1.325 -1.1821 -2.1572  0.0184
 7236SOL    HW227545  10.175   7.819   1.191  0.1477  0.4946  0.3930
 7237SOL     OW27546   6.578   5.228   2.598 -0.0816  0.3672  0.2838
 7237SOL    HW127547   6.528   5.258   2.674  0.4948  1.8604  0.1049
 7237SOL    HW227548   6.665   5.211   2.632  0.0839  0.7035  0.0337
 7238SOL     OW27549   9.431   2.831   8.079  0.1238  0.0208 -0.3183
 7238SOL    HW127550   9.372   2.791   8.014  0.5645 -2.3672  0.6551
 7238SOL    HW227551   9.517   2.796   8.057  0.8220  1.6365 -0.2783
 7239SOL     OW27552   5.056   1.216   7.185 -0.1498 -0.4086 -0.4213
 7239SOL    HW127553   5.104   1.180   7.110 -0.2866 -3.1071  0.6733
 7239SOL    HW227554   5.082   1.160   7.258 -0.8481  1.4760  1.3388
 7240SOL     OW27555   7.826   0.158   1.865 -0.0674  0.1516  0.3418
 7240SOL    HW127556   7.841   0.073   1.824  2.4731  1.1435 -1.0277
 7240SOL    HW227557   7.819   0.139   1.959  2.1718 -1.4566  0.2685
 7241SOL     OW27558   0.930  10.036   0.073  0.2983  0.6517 -0.1100
 7241SOL    HW127559   0.991  10.000   0.138  0.5656  0.8538 -0.2485
 7241SOL    HW227560   0.984  10.056  -0.003  0.0939  1.0164 -0.1628
 7242SOL     OW27561   1.259   1.560   3.876 -0.0854  0.4304  0.4943
 7242SOL    HW127562   1.239   1.623   3.945 -2.2432  0.6172 -0.2008
 7242SOL    HW227563   1.276   1.614   3.799 -1.6933  0.2427 -0.0429
 7243SOL     OW27564   0.313   4.206   2.788 -0.1369 -0.6433  0.3922
 7243SOL    HW127565   0.251   4.211   2.862 -0.1562  0.3450  0.3260
 7243SOL    HW227566   0.333   4.113   2.780 -0.7396 -0.8528  1.1480
 7244SOL     OW27567   3.357   7.383   1.277  0.5292  0.2091  0.1914
 7244SOL    HW127568   3.306   7.449   1.230  0.8283  0.4378  0.1823
 7244SOL    HW227569   3.324   7.299   1.245  0.4689  0.3609 -0.1443
 7245SOL     OW27570   8.105   8.107   3.049 -0.1511 -0.0078  0.2216
 7245SOL    HW127571   8.112   8.200   3.027 -0.3895 -0.3554 -1.4311
 7245SOL    HW227572   8.044   8.104   3.123  2.6862  1.4463  2.9046
 7246SOL     OW27573   3.812  10.160   9.919  0.4324  0.4348 -0.3589
 7246SOL    HW127574   3.761  10.187   9.842 -1.8911  1.0879  1.2808
 7246SOL    HW227575   3.883  10.224   9.924  1.3938 -0.3639 -2.6091
 7247SOL     OW27576   2.373   2.652   6.294 -0.0443 -0.1806  0.2680
 7247SOL    HW127577   2.384   2.740   6.329  1.3116 -0.1159 -0.2884
 7247SOL    HW227578   2.350   2.665   6.202 -1.1185 -0.4000  0.4916
 7248SOL     OW27579   3.171   6.306   0.619  0.3492  0.2869 -0.7087
 7248SOL    HW127580   3.123   6.332   0.541  1.4926  0.4587 -1.3878
 7248SOL    HW227581   3.227   6.233   0.589 -1.7166 -2.0606  0.7862
 7249SOL     OW27582   2.298   1.784  10.029  0.3591 -0.1780  0.0751
 7249SOL    HW127583   2.292   1.776  10.124  1.7527 -2.3141  0.0495
 7249SOL    HW227584   2.388   1.812  10.013 -0.5020  2.5557 -0.5981
 7250SOL     OW27585   7.312   5.417   4.585 -0.0416 -0.1887  0.0294
 7250SOL    HW127586   7.383   5.428   4.648 -0.5378 -0.3706  0.6358
 7250SOL    HW227587   7.355   5.402   4.501  0.6740  2.5659 -0.1827
 7251SOL     OW27588   6.245   8.673  10.516 -0.3745 -0.3228  0.9462
 7251SOL    HW127589   6.191   8.607  10.560  0.4719 -1.3266  0.5169
 7251SOL    HW227590   6.231   8.753  10.567 -4.2868  0.1920 -0.5741
 7252SOL     OW27591   4.420   9.061   3.719 -0.0319  0.9820 -0.3896
 7252SOL    HW127592   4.387   9.014   3.642 -2.5872  0.6028  0.8275
 7252SOL    HW227593   4.433   8.994   3.785 -0.6811  1.6061  0.3958
 7253SOL     OW27594   4.075   9.638   1.998  0.1036 -0.0828 -0.3988
 7253SOL    HW127595   4.154   9.584   1.995  0.7211  0.6697  1.1415
 7253SOL    HW227596   4.093   9.710   1.938 -0.4068 -1.1284 -1.8626
 7254SOL     OW27597   9.870   3.196   1.078  0.3582 -0.0069 -0.3372
 7254SOL    HW127598   9.783   3.172   1.045 -0.4297 -0.5805  1.9925
 7254SOL    HW227599   9.882   3.286   1.049 -1.6862  0.6002  0.5168
 7255SOL     OW27600   5.918  10.675   6.193  0.0880  0.1131 -0.0338
 7255SOL    HW127601   5.917  10.685   6.288  1.6663  0.7314 -0.0476
 7255SOL    HW227602   5.882  10.587   6.177  2.4180 -1.2066  1.3598
 7256SOL     OW27603   6.424  10.071   1.545  0.4242  0.0355  0.8149
 7256SOL    HW127604   6.403  10.164   1.534 -0.1269 -0.1369  0.3714
 7256SOL    HW227605   6.376  10.046   1.624 -0.4539 -0.1681  0.2334
 7257SOL     OW27606   1.589   6.660   3.797 -0.5821  0.0425 -0.0456
 7257SOL    HW127607   1.634   6.741   3.821 -1.2669  0.9418 -1.6755
 7257SOL    HW227608   1.615   6.644   3.707 -2.3980 -0.1594 -0.5721
 7258SOL     OW27609   2.244   8.143  10.591 -0.4437 -0.0635 -0.1998
 7258SOL    HW127610   2.223   8.125  10.500  2.3398  0.9200 -1.1524
 7258SOL    HW227611   2.339   8.159  10.591 -0.8614  3.6002  2.2093
 7259SOL     OW27612   7.347   8.866   0.799  0.1669  0.3111  0.5216
 7259SOL    HW127613   7.331   8.926   0.726  2.6276  0.0005 -0.3576
 7259SOL    HW227614   7.276   8.801   0.793 -0.4201  1.0410 -0.7542
 7260SOL     OW27615   3.304   4.320   3.682  0.2394  0.3216  0.2399
 7260SOL    HW127616   3.282   4.413   3.685 -3.0145 -0.3350  0.5882
 7260SOL    HW227617   3.334   4.305   3.592 -1.6529  1.3049 -0.6115
 7261SOL     OW27618   3.109   0.960   4.619  0.4272 -0.2967 -0.7579
 7261SOL    HW127619   3.107   0.919   4.705 -0.1224  1.1964 -0.0108
 7261SOL    HW227620   3.173   1.031   4.628  0.6207 -0.3385 -1.6929
 7262SOL     OW27621  10.382   6.338   2.571 -0.1672  0.0344  0.1097
 7262SOL    HW127622  10.294   6.334   2.534 -0.2673  0.8266  0.2524
 7262SOL    HW227623  10.369   6.362   2.663  0.2187  0.5473  0.0327
 7263SOL     OW27624   7.502  10.538   6.270  0.0135 -0.4094 -0.3639
 7263SOL    HW127625   7.439  10.590   6.221  1.6908  0.6113 -1.5446
 7263SOL    HW227626   7.560  10.602   6.311  0.5949 -1.3218  0.2972
 7264SOL     OW27627   7.185  10.679   8.617 -0.1267 -0.0472 -0.1172
 7264SOL    HW127628   7.270  10.679   8.661 -0.9516 -1.8445  1.6173
 7264SOL    HW227629   7.161  10.771   8.611  1.8848  0.4929 -0.5894
 7265SOL     OW27630   2.741   8.683   5.127 -0.2443 -0.1034  0.1611
 7265SOL    HW127631   2.824   8.635   5.116  0.4649  1.1587 -0.1543
 7265SOL    HW227632   2.704   8.686   5.039 -0.8289 -0.9691  0.3571
 7266SOL     OW27633  10.233   4.560   0.333  0.0227  0.0407 -0.5418
 7266SOL    HW127634  10.285   4.640   0.321  0.5422  0.2248  2.2703
 7266SOL    HW227635  10.255   4.530   0.421 -2.5350 -1.4744 -0.3172
 7267SOL     OW27636   2.005   9.105   6.312 -0.2958 -0.1040 -0.5233
 7267SOL    HW127637   1.994   9.189   6.267  0.5366 -0.0379 -0.6091
 7267SOL    HW227638   1.957   9.043   6.258  1.9112 -0.3182 -2.3892
 7268SOL     OW27639   3.706   6.587   7.805 -0.1397 -0.4674 -0.2488
 7268SOL    HW127640   3.770   6.648   7.840 -0.4530 -1.5994  2.5186
 7268SOL    HW227641   3.730   6.577   7.713  1.8938  1.2807  0.0277
 7269SOL     OW27642  10.483  10.617   5.177  0.1351  0.1958 -0.4552
 7269SOL    HW127643  10.510  10.582   5.262 -2.2745  0.3281  0.4373
 7269SOL    HW227644  10.530  10.700   5.169  1.7799 -0.6656 -0.1250
 7270SOL     OW27645   8.742   0.695   2.014  0.2630  0.6427 -0.2017
 7270SOL    HW127646   8.762   0.728   2.102 -1.2742  1.6495 -0.1801
 7270SOL    HW227647   8.774   0.605   2.014  2.1237  1.2538  0.6844
 7271SOL     OW27648   1.107   2.593   0.118  0.0655 -0.4371  0.6590
 7271SOL    HW127649   1.018   2.627   0.106  0.1037 -0.3805  0.5379
 7271SOL    HW227650   1.105   2.506   0.076  0.4795  0.1716 -0.6750
 7272SOL     OW27651   9.050  10.032   0.514 -0.7952 -0.0621 -0.1253
 7272SOL    HW127652   9.118  10.055   0.577 -0.4926 -1.2964  0.0043
 7272SOL    HW227653   9.094   9.979   0.448 -1.7235 -1.3239  0.2372
 7273SOL     OW27654   1.281   9.178   0.167  0.0578  0.3723 -0.1124
 7273SOL    HW127655   1.355   9.225   0.129 -0.2912  1.0617  0.0337
 7273SOL    HW227656   1.252   9.118   0.098  0.4870  0.4045 -0.3210
 7274SOL     OW27657   9.306   4.151   6.191 -0.5362 -0.2395  0.2170
 7274SOL    HW127658   9.364   4.205   6.245 -0.6183  3.3387 -2.9090
 7274SOL    HW227659   9.360   4.076   6.165  0.3030 -0.6905  2.9351
 7275SOL     OW27660   3.676   9.239   4.025  0.2182 -0.3053 -0.7974
 7275SOL    HW127661   3.609   9.284   3.974 -2.3112 -2.7812  0.0863
 7275SOL    HW227662   3.710   9.172   3.965  1.1209  0.2345 -0.8943
 7276SOL     OW27663   4.825   5.125   3.671  0.0047 -0.5009 -0.0918
 7276SOL    HW127664   4.781   5.041   3.653 -0.5210 -0.4270  0.8150
 7276SOL    HW227665   4.754   5.188   3.677  0.3518 -0.1139 -0.0389
 7277SOL     OW27666   1.389   8.950   6.314  0.0593  0.9291  0.0101
 7277SOL    HW127667   1.484   8.966   6.311  0.2581 -0.2493 -0.2358
 7277SOL    HW227668   1.369   8.945   6.407  0.2216  1.2277  0.0653
 7278SOL     OW27669   6.142   4.438   7.001  0.1759 -0.1214 -0.4619
 7278SOL    HW127670   6.183   4.484   6.928  0.2154 -0.0811 -0.4146
 7278SOL    HW227671   6.071   4.495   7.029  0.8590  0.3940  0.2524
 7279SOL     OW27672   8.374   6.953   3.744 -0.1997 -0.4691 -0.6881
 7279SOL    HW127673   8.414   6.917   3.823 -1.9186 -1.5526 -0.2371
 7279SOL    HW227674   8.362   6.877   3.687 -0.2200  0.0733 -1.4074
 7280SOL     OW27675  10.333   6.595   0.528  0.1004 -0.0959  0.2141
 7280SOL    HW127676  10.304   6.637   0.447  0.7366  2.3337  1.1596
 7280SOL    HW227677  10.405   6.538   0.501  1.0827  1.5450 -0.8225
 7281SOL     OW27678   6.377   6.708  10.187  0.8010  0.1412 -0.0002
 7281SOL    HW127679   6.343   6.788  10.148  0.2071 -0.4962 -0.8224
 7281SOL    HW227680   6.453   6.737  10.238 -0.7098  1.5253  1.5527
 7282SOL     OW27681   3.979   3.870   5.031  0.3193  0.2329 -0.0006
 7282SOL    HW127682   3.968   3.904   5.120 -1.6670 -1.3756  0.4385
 7282SOL    HW227683   3.908   3.909   4.981  0.5571 -0.0072 -0.5324
 7283SOL     OW27684   9.964   1.850   3.544 -0.3238 -0.5710  0.5032
 7283SOL    HW127685   9.936   1.939   3.524  3.7937  0.5955 -1.2196
 7283SOL    HW227686  10.034   1.861   3.609  0.1792 -2.5252  0.3651
 7284SOL     OW27687   9.105   9.501   4.401 -0.2873  0.1153 -0.3912
 7284SOL    HW127688   9.015   9.529   4.419 -0.5795 -0.5937 -0.6960
 7284SOL    HW227689   9.160   9.571   4.435 -0.9822  0.8217 -0.7023
 7285SOL     OW27690   0.278   8.819   4.585 -0.5386  0.5054 -0.1438
 7285SOL    HW127691   0.227   8.880   4.531  0.4642  1.1608 -0.3766
 7285SOL    HW227692   0.323   8.875   4.649  0.2739 -0.0014 -0.2609
 7286SOL     OW27693   0.266   3.402   4.289  0.2705 -0.3963 -0.3921
 7286SOL    HW127694   0.350   3.358   4.298 -0.0140 -1.0039 -0.6366
 7286SOL    HW227695   0.223   3.388   4.374  0.0283 -0.9270 -0.5959
 7287SOL     OW27696   6.815   1.919   3.451  0.1752  1.0694  0.0517
 7287SOL    HW127697   6.779   2.008   3.456 -0.0604  1.1107 -1.6458
 7287SOL    HW227698   6.854   1.915   3.364 -1.8080 -1.1868 -0.8513
 7288SOL     OW27699   8.728   8.574   4.022  0.5073 -0.1851 -0.1300
 7288SOL    HW127700   8.750   8.666   4.040  3.3207 -0.8140  0.0866
 7288SOL    HW227701   8.729   8.567   3.927 -0.1906  0.0979 -0.1624
 7289SOL     OW27702   9.938   8.072   4.246 -0.3081 -0.0101 -0.1792
 7289SOL    HW127703   9.926   8.016   4.323 -1.8814  0.7875  0.2127
 7289SOL    HW227704   9.993   8.021   4.187  1.5197 -0.3746  1.7326
 7290SOL     OW27705   6.498  10.598   2.905 -0.3898 -0.2425 -0.9460
 7290SOL    HW127706   6.411  10.620   2.873 -1.2947 -3.3209 -0.8683
 7290SOL    HW227707   6.545  10.568   2.827  0.6919  1.4260 -0.9942
 7291SOL     OW27708   9.071   4.841   4.289 -0.4072 -0.2404 -0.1400
 7291SOL    HW127709   9.038   4.924   4.322 -0.5846 -1.5258  3.3334
 7291SOL    HW227710   9.019   4.774   4.335  1.8091 -2.2664 -0.3869
 7292SOL     OW27711   3.429   5.659   4.859 -0.5091 -0.4947  0.5881
 7292SOL    HW127712   3.391   5.682   4.944  0.3691 -0.3943  0.9624
 7292SOL    HW227713   3.460   5.741   4.823  1.8341 -0.8856  1.5335
 7293SOL     OW27714   6.524   6.321   0.196  0.2923 -0.4030  0.4039
 7293SOL    HW127715   6.610   6.335   0.237  0.7767  0.3941 -0.8219
 7293SOL    HW227716   6.468   6.292   0.268  0.9835  1.3784  1.7435
 7294SOL     OW27717   8.565   9.341   8.816 -0.1668  0.1444 -0.8294
 7294SOL    HW127718   8.579   9.287   8.895  0.3319 -1.7273 -2.1242
 7294SOL    HW227719   8.556   9.277   8.745  0.6209  1.8027 -2.4903
 7295SOL     OW27720   3.134   5.035   7.611  0.9399  0.3805 -0.5727
 7295SOL    HW127721   3.067   5.023   7.544  1.9250  1.2312 -1.7630
 7295SOL    HW227722   3.158   5.128   7.605  1.1864  0.4374  0.8539
 7296SOL     OW27723   4.513   9.743   8.596 -0.2302 -0.1372 -0.7045
 7296SOL    HW127724   4.585   9.718   8.654  0.4837  1.2435 -0.9335
 7296SOL    HW227725   4.484   9.662   8.556  1.3043 -0.7227 -0.7018
 7297SOL     OW27726   1.922   1.843   9.724 -0.0850  0.3395  0.5904
 7297SOL    HW127727   1.917   1.747   9.719  0.6588  0.3295 -0.1334
 7297SOL    HW227728   1.844   1.874   9.678 -0.3305  0.0914  0.8327
 7298SOL     OW27729   6.569   1.061   8.069  0.0917 -0.2402 -0.1045
 7298SOL    HW127730   6.551   1.099   7.982  0.8110 -1.1060 -0.6460
 7298SOL    HW227731   6.489   1.013   8.091 -0.1745  0.1590 -0.1857
 7299SOL     OW27732   9.287   2.838   7.503 -0.0062  0.0510  0.3007
 7299SOL    HW127733   9.373   2.868   7.472  0.6306 -1.7343  0.2029
 7299SOL    HW227734   9.307   2.771   7.568 -1.2604 -1.8993 -1.2085
 7300SOL     OW27735  10.021   0.550   4.017 -0.0492  0.2196  0.6719
 7300SOL    HW127736  10.070   0.511   4.089  1.0420 -0.4255 -0.3960
 7300SOL    HW227737   9.933   0.514   4.026  0.3148 -0.5756  1.1331
 7301SOL     OW27738   8.676   2.263   6.777 -0.0439 -0.4732  0.5879
 7301SOL    HW127739   8.690   2.289   6.868  0.5884  2.4417 -0.2513
 7301SOL    HW227740   8.615   2.327   6.742  0.2536 -1.1237 -1.2340
 7302SOL     OW27741   7.360   3.232   0.692 -0.5865 -0.4284 -0.0088
 7302SOL    HW127742   7.341   3.278   0.774  0.0392 -0.6373  0.2550
 7302SOL    HW227743   7.404   3.151   0.719  3.1287  1.1855 -0.6604
 7303SOL     OW27744   7.482   5.676   1.755  0.4439 -0.0975 -0.0654
 7303SOL    HW127745   7.479   5.601   1.696 -0.9235 -0.1802  0.0832
 7303SOL    HW227746   7.568   5.716   1.738  0.5186 -0.7360 -1.3253
 7304SOL     OW27747   3.087  10.183  10.536  0.5095 -0.0487 -0.8456
 7304SOL    HW127748   3.127  10.206  10.619  1.9128  0.3661 -1.6141
 7304SOL    HW227749   3.023  10.114  10.558 -1.2582  2.0383  0.9616
 7305SOL     OW27750   1.652   3.305  10.304  0.7818 -0.1475  0.4887
 7305SOL    HW127751   1.597   3.260  10.369  0.5375 -0.7856 -0.1524
 7305SOL    HW227752   1.642   3.254  10.224 -0.6597  1.8351 -0.6963
 7306SOL     OW27753  10.269   2.593   7.099 -0.4913 -0.1824  0.5820
 7306SOL    HW127754  10.290   2.516   7.046 -1.0907 -0.4814  0.7708
 7306SOL    HW227755  10.208   2.561   7.166 -0.2818  0.3341  1.0312
 7307SOL     OW27756   1.964   6.924   1.779 -0.2574 -0.0327 -0.1462
 7307SOL    HW127757   1.926   6.870   1.710  0.7608 -0.2586 -0.5484
 7307SOL    HW227758   2.051   6.946   1.747  0.3120 -0.2972  1.1438
 7308SOL     OW27759   4.278   1.298   6.820  0.0910  0.4080  0.4879
 7308SOL    HW127760   4.341   1.329   6.755  0.9059 -3.5578 -0.8661
 7308SOL    HW227761   4.193   1.302   6.775  0.4243 -0.7962 -0.2784
 7309SOL     OW27762   3.129   5.295  10.345  0.4008 -0.2605 -0.6796
 7309SOL    HW127763   3.036   5.311  10.361  0.5257  0.0161 -0.1967
 7309SOL    HW227764   3.131   5.231  10.274 -0.1495  0.3787 -1.2889
 7310SOL     OW27765   6.846   2.924   0.196  0.3289  0.3412 -0.0642
 7310SOL    HW127766   6.905   2.937   0.270  2.0739  0.6896 -1.4672
 7310SOL    HW227767   6.844   3.009   0.152 -0.9722  0.2393 -0.2476
 7311SOL     OW27768   0.961  10.334   6.214 -0.3448  0.3410  0.3344
 7311SOL    HW127769   1.023  10.357   6.145 -1.7230  1.5355 -0.5639
 7311SOL    HW227770   0.950  10.239   6.206  2.5051 -0.2000  1.5649
 7312SOL     OW27771   9.119   9.108   6.874  0.4514  0.4095 -0.2423
 7312SOL    HW127772   9.133   9.046   6.802 -0.1802 -0.0355  0.0042
 7312SOL    HW227773   9.080   9.054   6.943  0.9247  0.8657  0.3766
 7313SOL     OW27774   5.844   7.715   4.372  0.2730 -0.1436 -0.1677
 7313SOL    HW127775   5.753   7.719   4.402  0.0766 -0.6228 -0.6767
 7313SOL    HW227776   5.884   7.648   4.427 -0.0414 -0.8983 -0.8349
 7314SOL     OW27777   6.567   7.832   5.719 -0.0020  0.2227  0.2132
 7314SOL    HW127778   6.557   7.905   5.658  0.1960 -0.8147 -1.1056
 7314SOL    HW227779   6.477   7.801   5.735  0.0577 -0.8739 -1.3273
 7315SOL     OW27780   9.534   2.768   8.582  0.1108 -0.1292 -0.1705
 7315SOL    HW127781   9.466   2.748   8.647  0.2436 -0.0990 -0.0198
 7315SOL    HW227782   9.489   2.819   8.515  0.5112  2.2125  1.2290
 7316SOL     OW27783   3.622   0.631   7.933  0.0372  0.6999  0.6454
 7316SOL    HW127784   3.597   0.588   8.015  0.6222  0.5600  0.7575
 7316SOL    HW227785   3.656   0.559   7.878  0.9931  1.0071  0.8209
 7317SOL     OW27786   6.309   4.055   5.382 -0.2862 -0.6113  0.2343
 7317SOL    HW127787   6.339   4.069   5.292  1.2312 -0.9068  0.6648
 7317SOL    HW227788   6.390   4.049   5.433 -1.1223 -0.7194  1.5821
 7318SOL     OW27789   5.393   5.985   7.663  0.4497 -0.3385  0.5710
 7318SOL    HW127790   5.386   5.898   7.702  0.6095 -0.3098  0.6646
 7318SOL    HW227791   5.305   6.004   7.631  0.6101 -0.9146 -0.2516
 7319SOL     OW27792   1.199   2.005   7.251 -0.3042  0.0662  0.2487
 7319SOL    HW127793   1.271   2.043   7.201 -0.7821 -0.5580 -0.9692
 7319SOL    HW227794   1.203   1.911   7.231 -2.4237  0.2081 -1.2197
 7320SOL     OW27795   5.579   1.640  10.129  0.4299  0.0080 -0.2311
 7320SOL    HW127796   5.524   1.709  10.093  1.3672 -0.7505 -3.5305
 7320SOL    HW227797   5.530   1.605  10.203 -0.6998  3.1938  0.6624
 7321SOL     OW27798   5.945   9.889   6.094  0.1677  0.1825  0.2200
 7321SOL    HW127799   5.925   9.904   6.187 -1.4812  0.2959 -0.1136
 7321SOL    HW227800   5.877   9.829   6.064  1.1965 -0.5555 -0.7278
 7322SOL     OW27801   6.601   6.999   8.775 -0.2759 -0.2775 -0.0282
 7322SOL    HW127802   6.642   6.935   8.833 -0.6913  0.0810  0.6885
 7322SOL    HW227803   6.515   7.015   8.814  0.0259  1.1095  0.1313
 7323SOL     OW27804   4.782   1.660   8.472  0.4609  0.1954  0.1115
 7323SOL    HW127805   4.791   1.637   8.379  0.7705  1.8258 -0.2881
 7323SOL    HW227806   4.716   1.729   8.474  1.0628  0.7682  1.0091
 7324SOL     OW27807  10.507   9.029   5.164  0.4541  0.0307 -0.3361
 7324SOL    HW127808  10.498   8.964   5.234  1.7018 -0.1688 -0.3353
 7324SOL    HW227809  10.445   9.001   5.097  0.5582 -0.8357 -0.0867
 7325SOL     OW27810   5.612   2.645   1.324 -0.3975  0.9297 -0.1611
 7325SOL    HW127811   5.645   2.557   1.340 -0.9823  0.4487 -1.4290
 7325SOL    HW227812   5.597   2.648   1.229 -2.4422  1.6509  0.1333
 7326SOL     OW27813   7.895   3.010   6.566  0.0007 -0.3031  0.2984
 7326SOL    HW127814   7.907   2.931   6.515  0.8712  0.4726 -0.7389
 7326SOL    HW227815   7.836   3.064   6.513  1.8411  0.9970 -0.5018
 7327SOL     OW27816   8.412   0.276   9.224  0.6916  0.0689  0.1488
 7327SOL    HW127817   8.437   0.189   9.254 -2.6272 -1.5611 -1.2340
 7327SOL    HW227818   8.390   0.324   9.304  1.4076 -0.7551  0.8608
 7328SOL     OW27819   4.170   5.426   9.971  0.7638  0.0420 -0.6188
 7328SOL    HW127820   4.258   5.390   9.980  0.9021  0.5387  0.1482
 7328SOL    HW227821   4.145   5.406   9.881  1.4931 -0.4723 -0.7182
 7329SOL     OW27822   6.716   9.292  10.182 -0.0791  0.3794 -0.5912
 7329SOL    HW127823   6.719   9.386  10.203 -2.1681  0.6075 -1.0354
 7329SOL    HW227824   6.727   9.248  10.266  1.7254  0.9679 -0.4807
 7330SOL     OW27825   8.380   5.058   0.820 -0.2224  0.5077 -0.1560
 7330SOL    HW127826   8.442   5.114   0.773  0.2028  0.0599 -0.1326
 7330SOL    HW227827   8.301   5.061   0.766 -0.5578  1.9298  0.3599
 7331SOL     OW27828   0.243  10.009   4.931  0.3746  0.4686  0.4079
 7331SOL    HW127829   0.180   9.958   4.983  0.2997  0.8733  0.7145
 7331SOL    HW227830   0.281  10.071   4.992  0.2882  0.9527 -0.0242
 7332SOL     OW27831   1.867   7.879   5.507 -0.5372 -0.4455 -0.0724
 7332SOL    HW127832   1.862   7.902   5.414 -1.5443 -0.6231 -0.0802
 7332SOL    HW227833   1.779   7.848   5.528  0.2204 -2.3913  0.4441
 7333SOL     OW27834  10.609   5.826   1.513 -0.3221  0.7382  0.0668
 7333SOL    HW127835  10.524   5.808   1.552 -0.0428  0.9944  0.8192
 7333SOL    HW227836  10.627   5.917   1.538  0.5702  0.4077  0.6933
 7334SOL     OW27837   7.096   4.639   9.450 -0.2316 -0.0788 -0.0697
 7334SOL    HW127838   7.082   4.595   9.533 -1.6722 -0.5551 -0.5471
 7334SOL    HW227839   7.185   4.674   9.456  0.9179 -2.8604  0.3988
 7335SOL     OW27840   5.625   4.272   3.928  0.1301 -0.0959 -0.0447
 7335SOL    HW127841   5.718   4.254   3.915  0.5717  0.9699  1.4374
 7335SOL    HW227842   5.593   4.199   3.981  0.1428 -0.3873 -0.4325
 7336SOL     OW27843   4.743   7.475   9.088  0.0534 -0.2673 -0.1405
 7336SOL    HW127844   4.680   7.526   9.138  1.9290  0.8282  1.2527
 7336SOL    HW227845   4.746   7.390   9.132 -0.2753 -0.2384 -0.0650
 7337SOL     OW27846   9.631   4.754   6.157 -0.5684  0.1014  0.0178
 7337SOL    HW127847   9.553   4.798   6.124 -1.1785  0.2230  1.5538
 7337SOL    HW227848   9.614   4.742   6.250  0.8924 -0.6434  0.2109
 7338SOL     OW27849   0.878   0.152   5.473  0.0034 -0.3302 -0.0274
 7338SOL    HW127850   0.926   0.117   5.399  1.0991 -0.4208  0.6998
 7338SOL    HW227851   0.925   0.233   5.496 -0.1146 -0.4795  0.7673
 7339SOL     OW27852   0.747   4.499   3.942  0.4624 -0.2916  0.0682
 7339SOL    HW127853   0.733   4.415   3.987 -0.5724 -0.4647 -0.5368
 7339SOL    HW227854   0.805   4.548   4.000  0.0530 -0.9380  1.0582
 7340SOL     OW27855   9.225   0.418   8.811 -0.3498  0.2003 -0.1066
 7340SOL    HW127856   9.273   0.352   8.861 -0.1899  0.5773  0.2354
 7340SOL    HW227857   9.214   0.378   8.724  0.5136  0.0811 -0.1670
 7341SOL     OW27858   7.911   3.540   4.916 -0.3319  0.0401  0.5666
 7341SOL    HW127859   7.999   3.538   4.953 -0.3623  0.5470  0.6640
 7341SOL    HW227860   7.879   3.450   4.927  0.2236 -0.1838  0.3923
 7342SOL     OW27861   2.488   5.170   0.231  0.0107  0.3082  0.2798
 7342SOL    HW127862   2.566   5.148   0.282  0.0402  2.8324  1.5013
 7342SOL    HW227863   2.517   5.167   0.140  1.0490 -0.4568  0.6187
 7343SOL     OW27864   8.238   5.439   5.533  0.5132 -0.4635  0.4222
 7343SOL    HW127865   8.291   5.359   5.539 -2.7529 -2.7863  0.9139
 7343SOL    HW227866   8.218   5.461   5.624 -0.4695 -0.5040  0.2309
 7344SOL     OW27867   3.288   2.594   5.109  0.1381 -0.1475  0.5578
 7344SOL    HW127868   3.196   2.568   5.107  0.5184 -1.5662  0.2595
 7344SOL    HW227869   3.287   2.689   5.097 -1.3304  0.0084  1.6537
 7345SOL     OW27870   1.149  10.613   1.506  0.0813 -0.4233 -0.4908
 7345SOL    HW127871   1.183  10.652   1.586 -1.4458  0.2481 -0.1398
 7345SOL    HW227872   1.106  10.685   1.460 -1.2774 -1.3039 -0.6733
 7346SOL     OW27873   4.670   4.470   6.886  0.2690  0.4344  0.0759
 7346SOL    HW127874   4.640   4.385   6.917 -0.1839 -0.2906 -2.1835
 7346SOL    HW227875   4.590   4.514   6.856  0.5942  1.3989  0.5662
 7347SOL     OW27876   2.811   9.529   9.413  0.4892  0.0526 -0.1235
 7347SOL    HW127877   2.835   9.603   9.469  0.7853 -1.2735  1.5758
 7347SOL    HW227878   2.785   9.460   9.474 -2.0732 -0.5216 -1.7060
 7348SOL     OW27879   4.658   4.403   0.381  0.4147 -0.3469  0.3898
 7348SOL    HW127880   4.717   4.362   0.445 -0.0599  0.1650  1.1741
 7348SOL    HW227881   4.689   4.371   0.296  0.4413 -1.8481  0.9324
 7349SOL     OW27882   0.950   5.814  10.248 -0.0367  0.2795 -0.2571
 7349SOL    HW127883   0.900   5.794  10.169  1.2935 -0.8211 -0.8609
 7349SOL    HW227884   1.017   5.747  10.251  1.3651  1.6541  0.5638
 7350SOL     OW27885   3.724   3.118   6.159 -0.1772 -0.5380  0.0403
 7350SOL    HW127886   3.726   3.041   6.215 -1.1194  0.3823  1.4045
 7350SOL    HW227887   3.635   3.151   6.168 -0.0150  0.2637 -1.1525
 7351SOL     OW27888   2.115   1.114   3.445 -0.7843 -0.4306 -0.2099
 7351SOL    HW127889   2.157   1.192   3.410 -2.1199  0.7491  0.6653
 7351SOL    HW227890   2.182   1.070   3.497 -0.1574  0.4326 -0.2855
 7352SOL     OW27891   8.912   7.758   9.823 -0.0237  0.4229 -0.0250
 7352SOL    HW127892   9.004   7.732   9.811 -0.2021  0.0081 -0.5693
 7352SOL    HW227893   8.867   7.676   9.843 -0.4152  0.4760 -0.6481
 7353SOL     OW27894   1.224   9.687   8.634  0.4302  0.2666  0.7012
 7353SOL    HW127895   1.316   9.695   8.660  0.5067 -1.0042  0.8832
 7353SOL    HW227896   1.179   9.655   8.713  0.4169 -2.2175 -0.2188
 7354SOL     OW27897   2.044   2.182   7.056 -0.3527  0.7432  0.4251
 7354SOL    HW127898   1.963   2.195   7.105  1.3455  2.6792  2.9965
 7354SOL    HW227899   2.076   2.271   7.038  0.2788  0.0505 -2.2805
 7355SOL     OW27900   0.520   1.681   2.673  0.6415 -0.5592 -0.9136
 7355SOL    HW127901   0.580   1.705   2.744 -0.0155  0.8266 -0.7852
 7355SOL    HW227902   0.487   1.594   2.697 -2.3313  1.2291  2.5110
 7356SOL     OW27903   6.132   5.815   9.246  0.6814 -0.0748  0.1426
 7356SOL    HW127904   6.167   5.796   9.333  1.6363  0.4085 -0.1305
 7356SOL    HW227905   6.146   5.734   9.197 -1.3153 -0.9315  0.8535
 7357SOL     OW27906   2.088   5.457   0.361  0.2454  0.1945  0.3097
 7357SOL    HW127907   2.058   5.420   0.278  0.0005  2.1631 -0.5355
 7357SOL    HW227908   2.173   5.416   0.376 -1.3393 -3.1968  1.1870
 7358SOL     OW27909   8.809   1.113   1.909 -0.1020 -0.3932  0.2114
 7358SOL    HW127910   8.832   1.036   1.858  2.5273 -0.3076  1.1375
 7358SOL    HW227911   8.811   1.186   1.846 -0.8787 -0.8145 -0.3163
 7359SOL     OW27912   6.285  10.504   4.277  0.1710 -0.1689 -0.4673
 7359SOL    HW127913   6.371  10.537   4.300 -0.2400 -0.4147  1.6572
 7359SOL    HW227914   6.248  10.571   4.219  0.9306  1.0727  0.4203
 7360SOL     OW27915   9.362   9.781   6.872 -0.3100  0.4801  0.4884
 7360SOL    HW127916   9.438   9.781   6.930  0.1571  0.8585 -0.1084
 7360SOL    HW227917   9.379   9.711   6.810  1.0212  2.4089 -1.4782
 7361SOL     OW27918   4.522   9.873   4.742 -0.1067 -0.1474  0.3415
 7361SOL    HW127919   4.493   9.881   4.652  1.8272 -1.0077 -0.4266
 7361SOL    HW227920   4.554   9.960   4.765 -0.4336  0.0253  0.1418
 7362SOL     OW27921   5.176   5.263   3.655  0.6115  0.3387 -0.4043
 7362SOL    HW127922   5.193   5.355   3.675  1.7922  0.0019  0.2329
 7362SOL    HW227923   5.147   5.264   3.564  0.5837  1.3379 -0.4005
 7363SOL     OW27924   6.481   2.857   3.356 -0.1920 -0.4238  0.5245
 7363SOL    HW127925   6.535   2.840   3.433  1.4197  2.7440  0.2781
 7363SOL    HW227926   6.515   2.798   3.289 -0.7287 -2.2750  1.8289
 7364SOL     OW27927   8.522   9.585   8.988 -0.5163  0.2094 -0.3581
 7364SOL    HW127928   8.480   9.560   8.906 -1.9557  1.8043 -0.1524
 7364SOL    HW227929   8.568   9.666   8.968 -2.1563  1.4671  0.7204
 7365SOL     OW27930   1.148   2.831   6.917 -0.4872  0.5159  0.6659
 7365SOL    HW127931   1.055   2.856   6.914 -0.0992  1.9290 -1.2497
 7365SOL    HW227932   1.185   2.867   6.837  1.1981 -2.2587  0.0687
 7366SOL     OW27933  10.374   0.017   9.470  0.2012  0.4452  0.4736
 7366SOL    HW127934  10.453  -0.001   9.522  1.1070  1.0713 -0.6548
 7366SOL    HW227935  10.305   0.028   9.536  0.8342 -1.0223  1.4605
 7367SOL     OW27936   3.682   4.686   8.239  0.4118 -0.2901  0.3086
 7367SOL    HW127937   3.655   4.725   8.322 -1.2167 -2.4843  0.8963
 7367SOL    HW227938   3.745   4.619   8.263  1.9612  0.7840 -0.5414
 7368SOL     OW27939   5.574   9.964   1.155  0.3822 -0.0457 -0.2958
 7368SOL    HW127940   5.644  10.029   1.149  1.3594 -1.1880 -2.1256
 7368SOL    HW227941   5.564   9.949   1.249  3.9919 -1.2596  0.0568
 7369SOL     OW27942   4.972   2.841   2.245  1.2539  0.8113 -1.2004
 7369SOL    HW127943   4.955   2.930   2.277  0.1650 -0.4115  2.0612
 7369SOL    HW227944   4.885   2.802   2.238  1.8171 -0.7045 -0.1792
 7370SOL     OW27945   4.511   5.249   9.734 -0.1074  0.7728  0.3723
 7370SOL    HW127946   4.422   5.229   9.704  0.0857 -0.4677  0.5863
 7370SOL    HW227947   4.556   5.282   9.656  0.4770 -2.6801 -0.9214
 7371SOL     OW27948   5.053   2.568   6.810  0.0274  0.1611  0.3708
 7371SOL    HW127949   5.060   2.661   6.787 -1.1141  0.4920  1.2692
 7371SOL    HW227950   5.110   2.524   6.748 -1.8790  1.1336 -2.2287
 7372SOL     OW27951   4.213   4.800   5.960 -0.2631 -0.1106  0.6079
 7372SOL    HW127952   4.257   4.842   5.886 -0.5668 -1.0472 -0.1203
 7372SOL    HW227953   4.221   4.706   5.943 -2.5666 -0.3306  0.3865
 7373SOL     OW27954   9.209   0.226   2.096 -0.8013  0.0739 -0.3929
 7373SOL    HW127955   9.195   0.168   2.021 -0.5547  0.1016 -0.4589
 7373SOL    HW227956   9.156   0.303   2.077 -0.0869  0.4427 -0.9365
 7374SOL     OW27957   9.299   0.767   2.397 -0.1355  0.4111 -0.3865
 7374SOL    HW127958   9.336   0.684   2.426 -0.3894  0.8124  1.1626
 7374SOL    HW227959   9.283   0.755   2.303 -2.4305 -2.1625  0.2064
 7375SOL     OW27960   9.698   7.571   9.494  0.0817  1.0474 -0.0976
 7375SOL    HW127961   9.627   7.572   9.430  0.1370 -0.3813 -0.2028
 7375SOL    HW227962   9.655   7.554   9.578  0.2452  0.6623 -0.0909
 7376SOL     OW27963   0.531   0.615   1.316 -0.3613 -0.5493 -0.4243
 7376SOL    HW127964   0.494   0.628   1.404  1.4960  0.4967  0.2571
 7376SOL    HW227965   0.497   0.689   1.265  0.7834  0.4520  0.2176
 7377SOL     OW27966   7.665   7.833   4.380 -0.0630  0.6867 -0.4296
 7377SOL    HW127967   7.614   7.806   4.456  2.1561 -1.3576  0.4654
 7377SOL    HW227968   7.618   7.796   4.305 -1.7109  1.8422 -0.0302
 7378SOL     OW27969   7.854   9.406   1.435 -0.4935  0.1616 -0.1526
 7378SOL    HW127970   7.839   9.313   1.454  3.0194 -0.7323 -0.9750
 7378SOL    HW227971   7.904   9.438   1.510 -2.0723  1.5660  0.3399
 7379SOL     OW27972   1.155   4.851   9.678 -0.3554 -0.5485  0.4292
 7379SOL    HW127973   1.216   4.780   9.658  0.7169  0.4847 -0.0772
 7379SOL    HW227974   1.181   4.923   9.620 -1.9279  0.0009  0.3509
 7380SOL     OW27975   9.180   9.420   3.490 -0.4241 -0.2258  0.6776
 7380SOL    HW127976   9.092   9.411   3.528 -0.7196 -1.0177 -0.1653
 7380SOL    HW227977   9.172   9.494   3.430 -0.9579 -1.2152 -0.5323
 7381SOL     OW27978   5.323  10.485   8.540 -0.4434  0.0060  0.1376
 7381SOL    HW127979   5.328  10.495   8.635  0.2046 -2.3477  0.4151
 7381SOL    HW227980   5.414  10.489   8.510 -0.7012  1.6104 -0.5370
 7382SOL     OW27981  10.667   2.868   0.959 -0.7889 -0.9412 -0.2931
 7382SOL    HW127982  10.655   2.941   1.020 -2.1224 -3.4341  2.7187
 7382SOL    HW227983  10.753   2.833   0.980 -0.8665 -1.2659 -0.4997
 7383SOL     OW27984   4.842   9.471   0.801  0.5961  0.2296  0.5350
 7383SOL    HW127985   4.837   9.449   0.708 -1.8278 -0.2890  0.7147
 7383SOL    HW227986   4.929   9.442   0.828  0.3882 -2.1047 -0.9953
 7384SOL     OW27987   8.909   0.695   4.662  0.1059  0.1219 -0.0156
 7384SOL    HW127988   8.947   0.607   4.660  1.7220  0.7883  0.0362
 7384SOL    HW227989   8.983   0.753   4.647 -0.6392  1.5678  1.5935
 7385SOL     OW27990   8.723   6.708   4.106 -0.5125 -0.3251  0.2691
 7385SOL    HW127991   8.690   6.790   4.143 -0.3922  0.1354 -0.6015
 7385SOL    HW227992   8.817   6.712   4.120 -0.2845  0.4895 -1.2266
 7386SOL     OW27993   2.346   2.821  10.717  0.1062  0.3323 -0.5197
 7386SOL    HW127994   2.345   2.746  10.658  1.2259 -0.5666  0.5429
 7386SOL    HW227995   2.375   2.785  10.801 -2.6692  1.2840  1.0001
 7387SOL     OW27996   4.257   6.386   1.465  0.3049 -0.4206 -0.1040
 7387SOL    HW127997   4.163   6.369   1.465 -0.2473  1.8520  2.5056
 7387SOL    HW227998   4.292   6.323   1.528  0.5317 -1.1835 -0.9822
 7388SOL     OW27999   3.531   6.494   4.793 -0.1826 -0.2943  0.0952
 7388SOL    HW128000   3.620   6.529   4.785 -0.1194 -0.6362 -0.7495
 7388SOL    HW228001   3.534   6.410   4.747 -1.4311  0.5675 -1.6774
 7389SOL     OW28002   6.012   8.347   7.273 -0.0260 -0.4439 -0.5550
 7389SOL    HW128003   6.092   8.398   7.277 -0.2753 -0.0680 -0.2758
 7389SOL    HW228004   6.010   8.298   7.355 -0.5422  0.2552 -0.1432
 7390SOL     OW28005   3.521   5.910   2.588  0.2987  0.2036 -0.0217
 7390SOL    HW128006   3.476   5.836   2.629  1.0434  0.8206  2.0145
 7390SOL    HW228007   3.536   5.972   2.659  1.9676  1.1987 -1.1695
 7391SOL     OW28008   3.453   7.316   8.697 -0.2979 -0.4587  0.2491
 7391SOL    HW128009   3.409   7.238   8.730 -0.3597 -1.5905 -2.2887
 7391SOL    HW228010   3.381   7.377   8.678 -0.3178 -0.1142  1.3983
 7392SOL     OW28011   9.645   4.937   3.836  0.6301 -0.3166  0.2592
 7392SOL    HW128012   9.715   4.873   3.822  0.0725 -0.6286 -1.3017
 7392SOL    HW228013   9.586   4.893   3.898  2.2039  0.3073  2.2997
 7393SOL     OW28014   2.640   7.971   9.468  0.1388  0.3149  0.3320
 7393SOL    HW128015   2.720   7.920   9.477 -0.4234 -0.5215  0.7209
 7393SOL    HW228016   2.655   8.050   9.518  0.3257 -0.3318  1.3293
 7394SOL     OW28017   0.105   7.305   9.251  0.3805 -0.5960  0.0115
 7394SOL    HW128018   0.043   7.259   9.194 -0.7468  1.9822 -1.0525
 7394SOL    HW228019   0.050   7.353   9.312  1.4603 -0.4214  0.8758
 7395SOL     OW28020   1.949   6.447   1.896  0.4850 -0.0122  0.4626
 7395SOL    HW128021   2.021   6.496   1.856  2.4240 -1.9158  1.3894
 7395SOL    HW228022   1.879   6.512   1.905  1.7379  1.7279 -1.2749
 7396SOL     OW28023   3.828   6.759   7.061  0.3021  0.1977  0.3828
 7396SOL    HW128024   3.921   6.743   7.048  0.4478 -0.1723  1.7916
 7396SOL    HW228025   3.810   6.839   7.011  1.9203  1.7055  2.0982
 7397SOL     OW28026   3.155   6.429  10.542  0.0407 -0.0313 -0.3840
 7397SOL    HW128027   3.187   6.512  10.505  0.3421  0.4960  0.9887
 7397SOL    HW228028   3.173   6.364  10.474  0.6926  0.8748 -1.1051
 7398SOL     OW28029   8.618   5.458   9.591  0.4977  0.0243  0.2960
 7398SOL    HW128030   8.561   5.385   9.571  0.6092  0.4695 -1.9409
 7398SOL    HW228031   8.562   5.522   9.636 -0.5602  0.0934 -1.0755
 7399SOL     OW28032   0.251   1.534   1.978  0.0029  0.2387  0.6421
 7399SOL    HW128033   0.312   1.479   2.028  0.6367  0.5528  0.2233
 7399SOL    HW228034   0.200   1.472   1.926 -0.7544 -0.1097  1.7481
 7400SOL     OW28035   0.095   8.279   3.702  0.1708 -0.2291 -0.1462
 7400SOL    HW128036   0.107   8.231   3.620 -1.0226  1.1507 -1.1764
 7400SOL    HW228037   0.072   8.212   3.766 -1.1718 -1.0784 -1.4704
 7401SOL     OW28038   8.783   4.993   1.616  0.2714 -0.1968  0.0677
 7401SOL    HW128039   8.759   5.074   1.570 -0.4131 -0.6494 -0.3890
 7401SOL    HW228040   8.812   4.933   1.548  0.6084 -0.4023  0.3856
 7402SOL     OW28041   0.830   4.042   7.903  0.2343  0.0594  0.4971
 7402SOL    HW128042   0.762   4.043   7.835  1.2159 -1.5188 -0.5438
 7402SOL    HW228043   0.897   3.982   7.870  3.0338  2.8308  0.6575
 7403SOL     OW28044   3.902   4.960   2.108 -0.2307  0.3144 -0.1714
 7403SOL    HW128045   3.994   4.960   2.082 -0.2836  0.2488 -0.3558
 7403SOL    HW228046   3.901   4.912   2.191 -0.1452  0.0473 -0.3252
 7404SOL     OW28047   7.688   9.474   6.500 -0.0912  0.2623 -0.3688
 7404SOL    HW128048   7.757   9.511   6.555 -0.5846  0.8261 -0.1180
 7404SOL    HW228049   7.730   9.459   6.416  0.5097 -0.0206 -0.0269
 7405SOL     OW28050   4.316   9.153   1.297  0.2226  0.4572 -0.2152
 7405SOL    HW128051   4.352   9.158   1.209  0.2903  0.9025 -0.1624
 7405SOL    HW228052   4.237   9.207   1.295 -0.8154 -0.9953 -0.4997
 7406SOL     OW28053   7.066   5.471   4.465  0.1049 -0.1310 -0.3732
 7406SOL    HW128054   6.995   5.442   4.521  0.4909  0.4749  0.4429
 7406SOL    HW228055   7.139   5.487   4.525  1.0744 -1.1482 -1.2319
 7407SOL     OW28056   7.581   1.599   7.526  0.1273  0.0473  0.6151
 7407SOL    HW128057   7.542   1.661   7.463  0.8766 -0.4787 -0.4039
 7407SOL    HW228058   7.625   1.534   7.471  0.3489 -0.7365  1.6934
 7408SOL     OW28059   2.639   3.700   9.854  0.2770 -0.3794 -0.0502
 7408SOL    HW128060   2.667   3.722   9.943 -0.2569  0.8578 -0.1641
 7408SOL    HW228061   2.687   3.762   9.798 -1.8087  1.1087 -0.3312
 7409SOL     OW28062   5.867   1.051   4.270 -0.0769  0.4066  0.1328
 7409SOL    HW128063   5.790   1.106   4.255 -0.2364  0.1545  0.0118
 7409SOL    HW228064   5.844   0.967   4.230  0.2769  0.3419  0.0662
 7410SOL     OW28065   6.077   2.216   6.129 -0.0536 -0.2454  0.3905
 7410SOL    HW128066   6.008   2.173   6.079  0.2713 -0.6271  0.2619
 7410SOL    HW228067   6.071   2.308   6.103 -0.3887 -0.3090  0.2358
 7411SOL     OW28068   9.154   2.637   1.360 -0.2325 -0.6414  0.1740
 7411SOL    HW128069   9.232   2.627   1.305  0.0057 -0.1799  0.4163
 7411SOL    HW228070   9.117   2.549   1.366  0.7198 -1.0216  0.6959
 7412SOL     OW28071   1.619   4.160   1.361  0.3225  0.1666 -0.1286
 7412SOL    HW128072   1.700   4.190   1.319  0.0866  0.0555 -0.6691
 7412SOL    HW228073   1.573   4.241   1.383  1.2679  0.2867  1.5925
 7413SOL     OW28074   9.762  10.635  10.273  0.1149 -0.2539 -0.0260
 7413SOL    HW128075   9.689  10.694  10.290  0.9406  1.0709 -0.8407
 7413SOL    HW228076   9.722  10.550  10.260 -1.0066 -0.1793  2.4476
 7414SOL     OW28077   6.308  10.394   2.763 -0.0917  0.3459 -0.5693
 7414SOL    HW128078   6.216  10.402   2.789 -0.1459  1.3539 -1.0212
 7414SOL    HW228079   6.349  10.348   2.836 -1.0209 -0.4210 -0.5155
 7415SOL     OW28080   0.202   0.332   5.641 -0.5364  0.4195  0.0511
 7415SOL    HW128081   0.295   0.330   5.616  0.4130 -0.4654  3.1851
 7415SOL    HW228082   0.168   0.412   5.601  1.4321  0.5719 -1.5026
 7416SOL     OW28083   2.448   3.363   9.777  0.2733 -0.2008 -0.3495
 7416SOL    HW128084   2.538   3.392   9.760 -0.1017  1.4398  0.2926
 7416SOL    HW228085   2.418   3.330   9.692  1.0890  0.3086 -0.8529
 7417SOL     OW28086   6.862   8.685   7.990 -0.1998  0.3812 -0.4651
 7417SOL    HW128087   6.810   8.759   8.021  0.6528  1.1137 -0.7581
 7417SOL    HW228088   6.837   8.675   7.898  1.7379  2.1836 -1.2837
 7418SOL     OW28089   3.968   6.491   0.429 -0.5719  0.3655  0.6900
 7418SOL    HW128090   3.952   6.489   0.334  0.1820  0.7893  0.5494
 7418SOL    HW228091   3.952   6.401   0.457 -0.6125  0.1932  0.1302
 7419SOL     OW28092   0.407  10.491   0.431 -0.2612 -0.7277 -0.6969
 7419SOL    HW128093   0.444  10.520   0.348  0.0092 -1.2889 -0.7803
 7419SOL    HW228094   0.478  10.503   0.494 -1.6692  3.5871  0.3517
 7420SOL     OW28095   9.721   9.532   6.194 -0.6662 -0.0545 -0.2038
 7420SOL    HW128096   9.798   9.537   6.250 -0.2221  0.6343 -0.8616
 7420SOL    HW228097   9.648   9.521   6.256 -0.3853  2.3789  0.6952
 7421SOL     OW28098   4.760   7.082   0.193 -0.8686  0.2978 -0.2391
 7421SOL    HW128099   4.734   6.990   0.193 -1.1322  0.3684  0.2077
 7421SOL    HW228100   4.764   7.106   0.100 -0.8147 -0.1573 -0.3560
 7422SOL     OW28101  10.486   6.294   5.528 -0.0421 -0.2806  0.5413
 7422SOL    HW128102  10.488   6.278   5.623 -1.8340 -1.8563  0.3885
 7422SOL    HW228103  10.393   6.311   5.510  0.4828  1.3659 -0.7562
 7423SOL     OW28104   8.836   5.094  10.018  0.5467  0.4076 -0.2707
 7423SOL    HW128105   8.909   5.156  10.016  0.0942  1.0107 -3.5473
 7423SOL    HW228106   8.789   5.110   9.936 -1.3898 -2.1904  0.2186
 7424SOL     OW28107   3.859   5.939   1.802  0.0883  0.0923 -0.0251
 7424SOL    HW128108   3.782   5.925   1.857 -0.7953 -1.2131 -1.5312
 7424SOL    HW228109   3.850   6.029   1.771 -1.6923 -0.5171 -1.4019
 7425SOL     OW28110   8.621  10.297   6.488  0.1583 -0.2890  0.2319
 7425SOL    HW128111   8.556  10.333   6.429  0.5129  0.9220  0.5582
 7425SOL    HW228112   8.593  10.324   6.575  0.5365 -0.6501  0.4739
 7426SOL     OW28113   9.224   3.812   0.106 -0.3075  0.0439  0.2757
 7426SOL    HW128114   9.307   3.781   0.069 -1.4258 -1.1449 -1.4296
 7426SOL    HW228115   9.175   3.731   0.125 -1.5013  0.7251  0.1948
 7427SOL     OW28116   3.068   4.109   0.058 -0.1154 -0.1714  0.3959
 7427SOL    HW128117   3.066   4.175   0.128  0.8056 -0.7853  1.0142
 7427SOL    HW228118   2.983   4.065   0.064  0.0127 -0.3210  1.2323
 7428SOL     OW28119   5.438   2.942   5.126  0.6645  0.2437  0.3571
 7428SOL    HW128120   5.456   2.849   5.119 -1.5129 -0.1247 -2.6689
 7428SOL    HW228121   5.472   2.979   5.045 -1.4931  1.4054 -0.1050
 7429SOL     OW28122   1.919   0.240   6.413  0.6025 -0.3197 -0.8046
 7429SOL    HW128123   1.983   0.174   6.387  1.0877 -0.3839  0.4861
 7429SOL    HW228124   1.914   0.233   6.508  1.0709  1.8512 -0.5597
 7430SOL     OW28125   6.484   0.221   3.833 -0.8053  0.0766 -0.4837
 7430SOL    HW128126   6.536   0.298   3.807 -2.2685  1.3962  0.3469
 7430SOL    HW228127   6.444   0.191   3.751 -0.1755  0.1316 -0.8268
 7431SOL     OW28128   7.017  10.189   8.535 -0.2700 -0.4758  0.0146
 7431SOL    HW128129   6.989  10.213   8.623  0.9576 -0.1723  0.3320
 7431SOL    HW228130   7.095  10.136   8.548 -0.2433 -0.6758 -0.8875
 7432SOL     OW28131   1.411   2.533   3.805 -0.2045 -0.6171  0.0081
 7432SOL    HW128132   1.484   2.522   3.866 -1.8750 -3.4599  1.7397
 7432SOL    HW228133   1.446   2.505   3.721  0.5972 -2.7334  0.9521
 7433SOL     OW28134   7.319   7.240   9.628 -0.0294 -0.2642  0.2116
 7433SOL    HW128135   7.253   7.174   9.652 -2.3760  2.1124  0.7481
 7433SOL    HW228136   7.302   7.256   9.535 -1.2686  1.3327  0.6572
 7434SOL     OW28137   9.226   2.017   7.356 -0.1261  0.3402  0.1590
 7434SOL    HW128138   9.309   2.063   7.363 -1.5815  3.0062  2.3388
 7434SOL    HW228139   9.236   1.939   7.410  1.9072 -1.2918 -2.3405
 7435SOL     OW28140   3.150   8.646   1.717  0.8177  0.4135 -0.5070
 7435SOL    HW128141   3.158   8.559   1.680  2.8633 -0.1553  1.0952
 7435SOL    HW228142   3.198   8.703   1.656  2.7755 -0.2521  0.3290
 7436SOL     OW28143   4.860   7.404   3.217  0.3793 -0.8837  0.1522
 7436SOL    HW128144   4.859   7.368   3.305  1.3650 -0.0075  0.5461
 7436SOL    HW228145   4.892   7.333   3.162  1.0663 -1.0204  0.7153
 7437SOL     OW28146   8.295   2.354   1.044 -0.0786 -0.3640  0.1860
 7437SOL    HW128147   8.274   2.355   0.950  1.3580 -2.0090 -0.2031
 7437SOL    HW228148   8.263   2.438   1.076  0.1473  0.6206 -1.9452
 7438SOL     OW28149   7.731   1.655   5.378  0.3289  0.5309 -0.0604
 7438SOL    HW128150   7.734   1.690   5.467 -0.7828  0.8414 -0.1307
 7438SOL    HW228151   7.768   1.567   5.387  0.5353  0.6757  0.6431
 7439SOL     OW28152   5.761   0.076   3.927 -0.2051  0.0563  0.0215
 7439SOL    HW128153   5.771   0.005   3.991  0.2959  0.6140  0.5750
 7439SOL    HW228154   5.834   0.064   3.866  1.0689  1.2077  1.2280
 7440SOL     OW28155   2.431   6.122   4.821  0.5218 -0.1054 -0.4052
 7440SOL    HW128156   2.487   6.044   4.832  0.3919 -0.4750 -2.0902
 7440SOL    HW228157   2.456   6.157   4.736 -0.1281  1.1511 -0.1021
 7441SOL     OW28158   2.129   9.755   0.107 -0.4491  0.1539 -0.2551
 7441SOL    HW128159   2.072   9.832   0.113  0.4132  0.9601 -1.7276
 7441SOL    HW228160   2.102   9.699   0.180 -0.7833  2.0470  1.1485
 7442SOL     OW28161   3.628   2.296   8.965  0.0097 -0.0293 -0.4293
 7442SOL    HW128162   3.596   2.350   9.038  0.6635 -0.5514  0.2676
 7442SOL    HW228163   3.611   2.349   8.887 -0.5442  0.6243  0.1135
 7443SOL     OW28164   3.839   8.193  10.676  0.7385 -0.1286 -0.5392
 7443SOL    HW128165   3.911   8.250  10.648  0.6336  0.3710  0.1724
 7443SOL    HW228166   3.762   8.230  10.633  0.7908 -0.2021 -0.6966
 7444SOL     OW28167   1.747   4.300   5.998  0.2128 -0.4878  0.0166
 7444SOL    HW128168   1.786   4.353   5.929  1.9459 -0.2720  1.0828
 7444SOL    HW228169   1.690   4.360   6.045  0.0716 -0.2844 -0.4098
 7445SOL     OW28170   1.476   9.024   7.948 -0.1063 -0.5080 -0.0514
 7445SOL    HW128171   1.442   8.946   7.904  0.0083 -0.5571 -0.0533
 7445SOL    HW228172   1.571   9.017   7.937 -0.1800  0.5500 -1.6248
 7446SOL     OW28173   8.803   8.479   6.931  0.5014 -0.5179  0.5464
 7446SOL    HW128174   8.818   8.573   6.931  1.7617 -0.6974 -0.3960
 7446SOL    HW228175   8.862   8.446   6.999  1.6136 -0.8210 -0.5317
 7447SOL     OW28176   9.722   1.259   3.986 -0.1717  0.5598 -0.2937
 7447SOL    HW128177   9.754   1.348   3.995  1.1140  0.2450 -1.3654
 7447SOL    HW228178   9.769   1.210   4.053 -1.4206  0.8021  0.7791
 7448SOL     OW28179  10.658   3.863   5.082  0.3959 -0.1859  0.0301
 7448SOL    HW128180  10.667   3.768   5.095  2.1513 -0.1221 -0.5217
 7448SOL    HW228181  10.705   3.902   5.155 -0.0618  0.2704  0.0834
 7449SOL     OW28182   0.779   4.803   7.283 -0.0259 -0.3500 -0.1457
 7449SOL    HW128183   0.760   4.714   7.252  0.1220 -0.5315  0.2780
 7449SOL    HW228184   0.755   4.802   7.376 -3.1404  0.9745 -0.7853
 7450SOL     OW28185   0.106   2.410  10.679 -0.2216  0.3518 -0.3760
 7450SOL    HW128186   0.134   2.477  10.741  0.4196  0.8625 -1.1942
 7450SOL    HW228187   0.179   2.402  10.617 -0.0512 -1.5133  0.0104
 7451SOL     OW28188   2.809   9.564   3.486 -0.0876 -0.0292  0.2173
 7451SOL    HW128189   2.888   9.599   3.445  0.0269  1.7460  1.8025
 7451SOL    HW228190   2.838   9.529   3.570 -1.0227  1.2712  1.1303
 7452SOL     OW28191   6.247   8.811   5.630  0.2852  0.3796 -0.1458
 7452SOL    HW128192   6.220   8.901   5.647  0.3469  0.2065  0.9466
 7452SOL    HW228193   6.169   8.768   5.596 -0.2898  0.3650  1.1605
 7453SOL     OW28194   7.678   4.894   1.127  0.5020 -0.1523  0.3280
 7453SOL    HW128195   7.771   4.906   1.108  0.6753 -0.4948  0.9431
 7453SOL    HW228196   7.634   4.964   1.078  1.1144  0.2592  0.3627
 7454SOL     OW28197   2.713   4.006  10.350 -0.2213  0.3648  0.0812
 7454SOL    HW128198   2.693   3.976  10.439 -0.1363 -0.5033 -0.1875
 7454SOL    HW228199   2.630   4.043  10.318 -0.7740 -1.0012 -0.1393
 7455SOL     OW28200   2.008   0.803   1.844 -0.1416 -0.1831 -0.4597
 7455SOL    HW128201   2.095   0.841   1.833 -0.0152 -0.8635 -2.1608
 7455SOL    HW228202   1.979   0.834   1.930  0.1917  3.2024 -1.4175
 7456SOL     OW28203   2.425   4.586   4.872  0.0448 -0.2537  0.1474
 7456SOL    HW128204   2.508   4.634   4.872 -0.8687  1.3915  1.6404
 7456SOL    HW228205   2.368   4.636   4.814 -0.1958 -0.9107 -0.2015
 7457SOL     OW28206   3.907   5.138  10.031 -0.0337 -0.5922  0.3203
 7457SOL    HW128207   3.886   5.231  10.031  0.3428 -0.4880  1.7627
 7457SOL    HW228208   3.935   5.120   9.941 -0.3427  0.6255 -0.0353
 7458SOL     OW28209   3.496  10.144   8.839  0.1972 -0.0847 -0.5056
 7458SOL    HW128210   3.552  10.114   8.767 -0.4327  1.8707 -1.8904
 7458SOL    HW228211   3.422  10.185   8.795 -0.0547  1.4498  1.2642
 7459SOL     OW28212   0.964   5.451   4.606 -0.6064 -0.3430  0.6294
 7459SOL    HW128213   1.038   5.441   4.665 -0.1949  0.0289  0.1810
 7459SOL    HW228214   0.928   5.362   4.597 -0.5905 -0.4253  1.3197
 7460SOL     OW28215   0.818   7.971   0.715  0.4113  0.0493  0.0087
 7460SOL    HW128216   0.893   7.950   0.660 -1.2723  0.1197 -2.4491
 7460SOL    HW228217   0.821   7.905   0.785  1.5522 -1.2610 -1.2116
 7461SOL     OW28218   5.811   6.387   0.688 -0.3037  0.4631  0.0576
 7461SOL    HW128219   5.810   6.482   0.679 -0.4066  0.7572  2.3944
 7461SOL    HW228220   5.858   6.355   0.611  2.3595  2.6337  0.6349
 7462SOL     OW28221   3.435   8.346   4.553  0.2293 -1.1126  0.3526
 7462SOL    HW128222   3.524   8.311   4.547  1.5392  2.1096 -1.8350
 7462SOL    HW228223   3.416   8.348   4.647  3.9627  1.2604  1.2455
 7463SOL     OW28224   6.114   7.329   0.177  0.1469 -0.2568  0.4317
 7463SOL    HW128225   6.197   7.330   0.130 -0.0934  0.4901 -0.0042
 7463SOL    HW228226   6.063   7.259   0.136 -0.1081  0.4715 -0.5240
 7464SOL     OW28227   3.161   9.095   5.384 -0.1527 -0.4240  0.8460
 7464SOL    HW128228   3.078   9.133   5.411 -1.1386 -0.4057 -1.9937
 7464SOL    HW228229   3.138   9.010   5.348  1.1085 -0.5378  0.2607
 7465SOL     OW28230   3.892  10.670   9.939 -0.0505  0.2570 -0.1004
 7465SOL    HW128231   3.945  10.647   9.863  0.1807  1.3283 -0.2769
 7465SOL    HW228232   3.953  10.668  10.013 -0.5569 -2.1834  0.3389
 7466SOL     OW28233   2.412   3.468   8.326 -0.1569  0.3042 -0.9318
 7466SOL    HW128234   2.422   3.560   8.350 -1.4325 -0.0184  1.0602
 7466SOL    HW228235   2.318   3.452   8.330  0.1173 -1.3316 -0.1818
 7467SOL     OW28236   5.427   6.068   8.323 -0.4034  0.2006 -0.6370
 7467SOL    HW128237   5.372   6.023   8.387 -2.2895 -0.0133 -2.2993
 7467SOL    HW228238   5.487   6.120   8.375 -0.9598 -1.0019  1.3006
 7468SOL     OW28239   6.171   8.628   3.719  0.3030  0.3436 -0.2135
 7468SOL    HW128240   6.137   8.700   3.771  0.7903  1.0698 -0.8880
 7468SOL    HW228241   6.266   8.631   3.732  0.2724 -0.6517  0.3541
 7469SOL     OW28242   0.885   1.090   6.478  0.5878  0.2050  0.6281
 7469SOL    HW128243   0.841   1.126   6.555  1.5388  0.9462  0.8475
 7469SOL    HW228244   0.851   1.001   6.471 -2.2006  1.2175 -0.2002
 7470SOL     OW28245   8.403   0.822   2.076  0.6560 -0.1734  0.4251
 7470SOL    HW128246   8.325   0.877   2.078  0.6669 -0.0931  3.3605
 7470SOL    HW228247   8.477   0.884   2.077  0.7506 -0.2599 -0.4265
 7471SOL     OW28248   1.596   0.210   8.352 -0.0689  0.3685 -0.1060
 7471SOL    HW128249   1.654   0.214   8.428  1.0133  1.0138 -0.9430
 7471SOL    HW228250   1.654   0.218   8.277 -1.1975  0.4903 -0.9927
 7472SOL     OW28251   5.390   0.608   2.720  0.0824  0.2435  0.1729
 7472SOL    HW128252   5.459   0.631   2.782  0.6143 -1.7887  0.4014
 7472SOL    HW228253   5.313   0.591   2.774  0.1959 -0.2727  0.1778
 7473SOL     OW28254   7.470   8.479   1.262 -0.3421 -0.1627 -0.0698
 7473SOL    HW128255   7.559   8.496   1.231 -0.7383  0.2186 -1.0312
 7473SOL    HW228256   7.450   8.552   1.321 -0.2838  0.1319 -0.4179
 7474SOL     OW28257   3.644   9.413   1.481 -0.1318 -0.1770  0.6887
 7474SOL    HW128258   3.702   9.454   1.416 -1.7189  1.4973  0.2460
 7474SOL    HW228259   3.687   9.431   1.565  1.1348 -0.9940  0.2533
 7475SOL     OW28260   1.909   1.051   9.082 -0.3334  0.2376 -0.2356
 7475SOL    HW128261   1.903   1.098   9.165  1.6202  0.7898 -0.3691
 7475SOL    HW228262   1.895   0.959   9.105  0.5987  0.3410  0.7770
 7476SOL     OW28263   6.653  10.166   4.546  0.8626  0.1306  0.1419
 7476SOL    HW128264   6.656  10.091   4.606  2.7456  0.4881  0.5819
 7476SOL    HW228265   6.745  10.180   4.522  0.4053  1.5304 -0.9105
 7477SOL     OW28266   0.626   3.019   4.263  0.7020  0.5898  0.3711
 7477SOL    HW128267   0.535   2.991   4.265  0.4059  1.4272 -0.5687
 7477SOL    HW228268   0.676   2.937   4.252 -0.1185  0.3129 -2.0673
 7478SOL     OW28269   9.568  10.364   9.952 -0.0589 -0.2694  0.1468
 7478SOL    HW128270   9.522  10.440   9.919 -1.3486 -0.1971  1.9919
 7478SOL    HW228271   9.659  10.393   9.961 -0.0929  0.3382 -1.2006
 7479SOL     OW28272   9.117  10.611   8.410 -0.2739  0.2960  0.1373
 7479SOL    HW128273   9.110  10.648   8.322  0.0499 -1.2674 -0.5827
 7479SOL    HW228274   9.092  10.519   8.400 -0.9002  0.2446  1.8154
 7480SOL     OW28275   2.155   5.346   8.239  0.6789  0.2012 -0.0408
 7480SOL    HW128276   2.224   5.346   8.172  1.5774 -0.7630  0.8553
 7480SOL    HW228277   2.178   5.273   8.297 -1.2620 -0.3146  0.1257
 7481SOL     OW28278   1.395  10.433   0.376 -0.5365  0.5856 -0.1052
 7481SOL    HW128279   1.309  10.430   0.335 -0.5176 -0.4268 -0.1041
 7481SOL    HW228280   1.405  10.347   0.417  0.0072  1.0911  0.8646
 7482SOL     OW28281   7.416   8.671   4.667  0.0253  0.0305 -0.1154
 7482SOL    HW128282   7.504   8.703   4.686  0.5049 -0.1693 -1.8126
 7482SOL    HW228283   7.421   8.577   4.683  0.3362 -0.0899 -0.8758
 7483SOL     OW28284   8.295  10.671   4.019  0.1954  0.0053 -0.3964
 7483SOL    HW128285   8.221  10.616   3.992 -0.6218  0.4705  0.8316
 7483SOL    HW228286   8.370  10.611   4.022 -0.4865 -0.8408  0.0152
 7484SOL     OW28287   3.240   0.203   4.073 -0.0085 -0.1529  0.0288
 7484SOL    HW128288   3.248   0.284   4.124  2.5173 -0.6898  0.6526
 7484SOL    HW228289   3.295   0.218   3.996  0.3838 -1.1856  0.0857
 7485SOL     OW28290   6.105   5.722   2.694 -0.2011 -0.1076 -0.4406
 7485SOL    HW128291   6.050   5.791   2.657  0.1063  1.6307  2.0190
 7485SOL    HW228292   6.189   5.765   2.710  0.0056 -1.0287  1.1663
 7486SOL     OW28293   2.633   8.860   1.275  0.1948 -0.4862 -0.0797
 7486SOL    HW128294   2.579   8.807   1.217 -1.0700 -0.8782  1.3867
 7486SOL    HW228295   2.589   8.945   1.277  0.8794 -0.1115 -0.5641
 7487SOL     OW28296   4.148   4.752   9.544  0.6977 -0.5545 -0.2408
 7487SOL    HW128297   4.127   4.833   9.590 -0.0341 -0.8384 -0.0614
 7487SOL    HW228298   4.241   4.737   9.561  0.6711 -0.1105  0.2865
 7488SOL     OW28299   7.949   5.690   2.189 -0.3317 -0.2411 -0.2135
 7488SOL    HW128300   7.897   5.623   2.232 -1.0525 -0.3182 -1.1558
 7488SOL    HW228301   7.928   5.771   2.235 -0.3725 -0.4727  0.1729
 7489SOL     OW28302   6.719   2.436   9.477  0.1315  0.0438 -0.0003
 7489SOL    HW128303   6.686   2.527   9.479  0.8429  0.3760 -1.8576
 7489SOL    HW228304   6.745   2.422   9.386  1.4721 -1.5278  0.5833
 7490SOL     OW28305   1.889   2.420   6.772 -0.0211 -0.2839  0.0359
 7490SOL    HW128306   1.900   2.476   6.849 -2.7144 -0.4114  0.6131
 7490SOL    HW228307   1.976   2.384   6.756  0.9882  1.1002  1.9462
 7491SOL     OW28308   2.580   2.415   0.905 -0.5861  0.3057 -0.0386
 7491SOL    HW128309   2.562   2.364   0.826  0.2541  1.5082 -1.0475
 7491SOL    HW228310   2.628   2.491   0.874 -1.6790  1.6579  1.4375
 7492SOL     OW28311   0.662   3.156   8.054 -0.4578 -0.1512 -0.5295
 7492SOL    HW128312   0.686   3.066   8.073 -1.3396 -0.5233 -1.1301
 7492SOL    HW228313   0.590   3.175   8.114 -0.9247 -0.1695 -1.0863
 7493SOL     OW28314   8.080   3.597   5.278  0.1199 -0.1798  0.0558
 7493SOL    HW128315   7.985   3.592   5.283  0.1206  0.7715  1.5555
 7493SOL    HW228316   8.110   3.541   5.350  0.7025 -0.2000 -0.1967
 7494SOL     OW28317   2.307   1.561   6.351 -0.5583 -0.9725  0.3472
 7494SOL    HW128318   2.403   1.568   6.347 -0.6074 -0.8481 -1.1890
 7494SOL    HW228319   2.285   1.590   6.439  0.7996 -0.7796  0.6519
 7495SOL     OW28320   7.998   6.467   0.841  0.2919  0.1953 -0.2433
 7495SOL    HW128321   7.910   6.467   0.879 -0.5578  1.1009 -2.0934
 7495SOL    HW228322   8.045   6.535   0.890 -1.4353  2.9098 -2.0471
 7496SOL     OW28323   8.810   2.193   4.011  0.1784 -0.3514  0.0201
 7496SOL    HW128324   8.841   2.238   3.932  0.0866  0.4203  0.4133
 7496SOL    HW228325   8.821   2.257   4.081 -0.2623 -0.8332  0.5407
 7497SOL     OW28326   8.582   4.742   1.853 -0.0289  0.0241  0.2381
 7497SOL    HW128327   8.669   4.702   1.855 -0.5150 -1.0885  0.1046
 7497SOL    HW228328   8.544   4.723   1.939 -0.8957 -1.3024 -0.4044
 7498SOL     OW28329   3.966   4.761   5.749 -0.0924 -0.0482 -0.4044
 7498SOL    HW128330   4.004   4.708   5.679 -0.7612 -0.1006 -0.7342
 7498SOL    HW228331   3.983   4.852   5.722 -1.2067 -0.0430 -1.1396
 7499SOL     OW28332   6.296   4.197   6.978 -0.7938  0.9128  0.1117
 7499SOL    HW128333   6.239   4.270   7.000 -0.3895  2.1712 -2.5535
 7499SOL    HW228334   6.298   4.196   6.882  2.0217 -0.3653  0.0700
 7500SOL     OW28335   9.531   1.252   8.886 -0.0274  0.2539 -0.1885
 7500SOL    HW128336   9.576   1.187   8.939 -1.5742 -1.6637 -1.0930
 7500SOL    HW228337   9.563   1.236   8.797  0.1395  1.2707 -0.3195
 7501SOL     OW28338   7.874   5.591   1.581 -0.2584  0.2956 -0.4727
 7501SOL    HW128339   7.934   5.555   1.646 -0.2280 -0.8056 -1.0866
 7501SOL    HW228340   7.842   5.515   1.533 -0.7402  1.0367 -1.3643
 7502SOL     OW28341   2.314   8.884   3.509 -0.5891  0.5498  0.9358
 7502SOL    HW128342   2.322   8.922   3.596  1.3086 -1.8489  1.9336
 7502SOL    HW228343   2.279   8.954   3.455 -1.6429  2.1910  3.5552
 7503SOL     OW28344   5.068   1.320   8.475  0.1615  0.0955 -0.3314
 7503SOL    HW128345   5.095   1.412   8.479 -0.5451  0.3174 -0.5033
 7503SOL    HW228346   5.045   1.297   8.565 -1.5230  0.6822 -0.5666
 7504SOL     OW28347  10.232   6.012   0.260  0.1075 -0.2066 -0.3033
 7504SOL    HW128348  10.233   6.108   0.266  1.2094 -0.0698 -1.8996
 7504SOL    HW228349  10.141   5.990   0.237 -0.0152  0.5213 -0.5377
 7505SOL     OW28350  10.167   5.812   9.492 -0.1699  0.3733  0.1222
 7505SOL    HW128351  10.182   5.743   9.558 -2.1772  1.6288  2.0192
 7505SOL    HW228352  10.080   5.845   9.512 -0.7294  1.0918 -3.0171
 7506SOL     OW28353   6.127   3.587   5.388  0.2124 -0.4471  0.5572
 7506SOL    HW128354   6.081   3.597   5.472  1.0226  2.5564  0.7535
 7506SOL    HW228355   6.058   3.566   5.325 -0.9972  0.8808  1.3830
 7507SOL     OW28356   4.493   0.028   3.089 -0.3689  0.3382  0.2456
 7507SOL    HW128357   4.540   0.018   3.006 -0.3596  0.8802  0.1792
 7507SOL    HW228358   4.534  -0.035   3.148  0.3597  0.7194  0.1507
 7508SOL     OW28359   4.151   3.115   5.994  0.2968  0.5036 -0.1128
 7508SOL    HW128360   4.125   3.207   6.004  0.7684  0.6548 -0.2565
 7508SOL    HW228361   4.160   3.083   6.084  0.8549  0.8118 -0.0507
 7509SOL     OW28362   0.715   0.914   0.416  0.2204  0.1048  0.4188
 7509SOL    HW128363   0.794   0.966   0.428  0.0319  0.4938 -0.0111
 7509SOL    HW228364   0.675   0.948   0.336 -1.0186  0.7500  1.2664
 7510SOL     OW28365   1.764   5.975   2.457  0.6753  0.2413  0.0959
 7510SOL    HW128366   1.765   5.880   2.445  1.2067  0.0653  1.4395
 7510SOL    HW228367   1.743   5.988   2.549  0.8003  1.4289 -0.0235
 7511SOL     OW28368   1.078   2.912   1.237 -0.2919  0.1084  0.3839
 7511SOL    HW128369   1.136   2.873   1.171  0.3406  0.6886  0.5942
 7511SOL    HW228370   1.025   2.975   1.188 -0.9499 -0.6082  0.1423
 7512SOL     OW28371   4.343   2.526   6.285  0.1733 -0.3551 -0.3438
 7512SOL    HW128372   4.401   2.535   6.360  0.5789 -1.0869 -0.5582
 7512SOL    HW228373   4.262   2.570   6.311 -0.4635 -2.3508  1.3244
 7513SOL     OW28374   8.503   6.011   4.585 -0.0382 -0.0181  0.1326
 7513SOL    HW128375   8.457   6.079   4.635  0.0079 -0.1827  0.3989
 7513SOL    HW228376   8.593   6.044   4.579 -0.3369  0.6317 -0.9759
 7514SOL     OW28377   9.699   9.082   3.464 -0.0421  0.0234  0.1136
 7514SOL    HW128378   9.766   9.014   3.456 -0.7356 -0.6267 -0.3031
 7514SOL    HW228379   9.718   9.125   3.548  1.7644  0.8191 -0.6430
 7515SOL     OW28380   8.182   1.278   0.521 -0.4661  0.5617  0.1787
 7515SOL    HW128381   8.213   1.258   0.610  0.3693 -1.2526 -0.4727
 7515SOL    HW228382   8.261   1.290   0.470 -0.9236  0.5752 -0.5435
 7516SOL     OW28383   0.947   4.642   2.795 -0.3372  0.5249  0.2345
 7516SOL    HW128384   0.955   4.573   2.730  1.1907  0.6728  0.2427
 7516SOL    HW228385   0.893   4.709   2.752 -1.3722 -0.4020  0.0356
 7517SOL     OW28386   4.670   8.046   9.465 -0.1430 -0.0203 -0.0097
 7517SOL    HW128387   4.601   8.098   9.423  0.2540  0.5341  0.0151
 7517SOL    HW228388   4.703   7.989   9.396  0.4859  0.8658 -0.4566
 7518SOL     OW28389   3.719   6.522   7.528  0.5124  0.2245 -0.0766
 7518SOL    HW128390   3.723   6.578   7.450  0.6569 -0.1776 -0.3603
 7518SOL    HW228391   3.674   6.443   7.498 -0.5587  0.5638  0.5534
 7519SOL     OW28392   5.262   9.162   9.861  0.0929  0.4322 -0.2183
 7519SOL    HW128393   5.236   9.179   9.952  1.2270  2.9903 -0.2660
 7519SOL    HW228394   5.250   9.247   9.817  1.8199 -0.1073 -1.8570
 7520SOL     OW28395   1.313   2.301   2.246  0.6887 -0.2243 -0.2740
 7520SOL    HW128396   1.398   2.344   2.244 -0.2695  1.7812 -0.0960
 7520SOL    HW228397   1.278   2.313   2.158 -0.0508  0.3817  0.0878
 7521SOL     OW28398   7.390   9.098  10.077  0.3532  0.3486  0.1678
 7521SOL    HW128399   7.390   9.004  10.094  2.4494  0.2419 -0.0780
 7521SOL    HW228400   7.483   9.122  10.077 -0.0736  2.2210 -0.8887
 7522SOL     OW28401   3.565   9.184   8.511  0.2427  0.4636  0.2390
 7522SOL    HW128402   3.612   9.129   8.449  0.6336  1.7900 -0.6966
 7522SOL    HW228403   3.473   9.175   8.486  0.3077  0.2506  0.0814
 7523SOL     OW28404   9.366   2.355   6.694 -0.2062  0.1807  0.5889
 7523SOL    HW128405   9.437   2.410   6.727 -1.3447  0.7934  2.1624
 7523SOL    HW228406   9.377   2.272   6.739  0.1634 -0.1124 -0.0325
 7524SOL     OW28407   4.927   1.408   1.287 -0.4231 -0.2914  0.0900
 7524SOL    HW128408   4.834   1.390   1.305 -1.1104  1.2358 -1.6583
 7524SOL    HW228409   4.941   1.496   1.321  1.0414 -1.2773  2.2911
 7525SOL     OW28410   4.871   9.000   4.291 -0.0855 -0.0512  0.8644
 7525SOL    HW128411   4.885   8.907   4.303  0.0621 -0.0933  0.3785
 7525SOL    HW228412   4.954   9.041   4.315  0.4151 -0.1833 -0.5644
 7526SOL     OW28413   0.454   1.232   3.693 -0.1295  0.4486 -0.2320
 7526SOL    HW128414   0.496   1.147   3.677 -3.6490 -1.5416 -0.1110
 7526SOL    HW228415   0.397   1.245   3.617 -3.0238  0.2840  1.7087
 7527SOL     OW28416   6.926   6.914   8.010  0.4165 -0.5826  0.5059
 7527SOL    HW128417   6.860   6.871   7.955  1.3810 -2.2510  0.5884
 7527SOL    HW228418   6.892   7.003   8.023 -1.2682 -1.0597 -0.3389
 7528SOL     OW28419   5.930   5.462   8.908  0.2507  0.0445  0.1404
 7528SOL    HW128420   5.951   5.383   8.959 -1.5188 -1.6097 -1.5438
 7528SOL    HW228421   5.838   5.479   8.927  0.1430  0.6754 -0.8722
 7529SOL     OW28422   6.226   6.450   9.021  0.1695  0.0739  0.3447
 7529SOL    HW128423   6.282   6.414   9.090 -0.8188  0.6131  1.4701
 7529SOL    HW228424   6.159   6.499   9.069 -0.2719  0.8474 -1.0343
 7530SOL     OW28425   7.630   6.726   2.183  0.4713  0.1882 -0.2311
 7530SOL    HW128426   7.544   6.686   2.192  0.8621 -1.2209 -1.9541
 7530SOL    HW228427   7.687   6.674   2.239  0.5022  0.0065 -0.4296
 7531SOL     OW28428   2.990   8.594   9.641  0.2959  0.7623 -0.2536
 7531SOL    HW128429   2.898   8.576   9.660  0.3869  1.8251  1.4305
 7531SOL    HW228430   2.994   8.604   9.546 -0.7793 -2.0901 -0.7186
 7532SOL     OW28431   3.671   7.894   2.054 -0.1349  0.3816  0.3187
 7532SOL    HW128432   3.613   7.925   2.123  1.0447  2.2773  0.5443
 7532SOL    HW228433   3.690   7.972   2.002 -1.8734 -1.1826 -2.9133
 7533SOL     OW28434   2.904   6.642   1.668 -0.2506  0.6315  0.3327
 7533SOL    HW128435   2.879   6.671   1.580  0.6619  1.7697  0.4140
 7533SOL    HW228436   2.864   6.706   1.727  0.4117  0.7766  0.6362
 7534SOL     OW28437   6.579   3.471   7.273  0.4914  0.2005 -0.8055
 7534SOL    HW128438   6.515   3.464   7.343  0.7941 -0.9914 -0.6375
 7534SOL    HW228439   6.651   3.414   7.299  1.0303  0.4760 -1.6296
 7535SOL     OW28440   2.241   0.770  10.206  0.0342 -0.8654 -0.1524
 7535SOL    HW128441   2.328   0.774  10.165  0.7331 -0.1800  1.3244
 7535SOL    HW228442   2.255   0.805  10.294 -1.8839 -0.1646 -0.0989
 7536SOL     OW28443   2.092   0.211   9.403 -0.2346  0.0258 -0.0421
 7536SOL    HW128444   2.142   0.287   9.432  0.5807 -0.5153  0.0025
 7536SOL    HW228445   2.147   0.136   9.426  0.6935 -0.4467 -3.3006
 7537SOL     OW28446   2.210   7.581   3.732  0.2411 -0.6075 -0.7410
 7537SOL    HW128447   2.305   7.573   3.722  0.1738 -1.4249 -0.7359
 7537SOL    HW228448   2.182   7.630   3.654  0.7051 -0.0702 -0.5721
 7538SOL     OW28449   9.113   8.196   7.256  0.0299  0.5276  0.3713
 7538SOL    HW128450   9.117   8.151   7.172  0.9341  0.0656  0.6366
 7538SOL    HW228451   9.204   8.196   7.287 -0.3785  0.0288  1.6724
 7539SOL     OW28452   4.025   3.277  10.708  0.2750  0.7677 -0.2788
 7539SOL    HW128453   4.057   3.338  10.640 -1.8659  1.5055 -0.7111
 7539SOL    HW228454   3.988   3.204  10.658  2.1080 -0.5695  0.2305
 7540SOL     OW28455   8.904   8.870   6.457  0.0384 -0.2807 -0.3781
 7540SOL    HW128456   8.814   8.845   6.481  0.6288 -1.9183  0.2993
 7540SOL    HW228457   8.919   8.827   6.373 -0.4073  1.5303 -1.4294
 7541SOL     OW28458   7.578   3.269   7.747  0.2743 -0.0193  0.0450
 7541SOL    HW128459   7.533   3.259   7.663 -2.2112  2.4424  0.9596
 7541SOL    HW228460   7.509   3.263   7.813  1.8222  0.3204  1.7916
 7542SOL     OW28461   3.662   3.387   3.286  0.2699  0.4872  0.1392
 7542SOL    HW128462   3.698   3.450   3.347  1.4293  1.3119 -1.3210
 7542SOL    HW228463   3.726   3.383   3.214 -1.3552  0.1233 -1.3758
 7543SOL     OW28464   5.126   3.098   9.759  0.1347  0.3510 -0.7217
 7543SOL    HW128465   5.095   3.011   9.786  0.1394  0.7591  0.6805
 7543SOL    HW228466   5.217   3.101   9.790  0.7977  0.1294 -2.5314
 7544SOL     OW28467   1.503   5.772   0.394  0.3064  0.6085  0.0928
 7544SOL    HW128468   1.523   5.740   0.306 -0.4096  0.4499 -0.0181
 7544SOL    HW228469   1.574   5.833   0.414  0.9412  0.0001 -0.2506
 7545SOL     OW28470   6.884   3.236   7.758  0.1756  0.4194  0.8833
 7545SOL    HW128471   6.822   3.274   7.696  0.5277  0.1608  0.3578
 7545SOL    HW228472   6.858   3.144   7.764  1.7537 -0.2241 -0.9893
 7546SOL     OW28473   6.090   6.768   2.308  1.0543  0.0147 -0.1302
 7546SOL    HW128474   6.020   6.821   2.347  0.3887 -0.1915 -1.0010
 7546SOL    HW228475   6.169   6.820   2.321  0.8084  0.1100  1.1643
 7547SOL     OW28476  10.559   4.981   0.450  0.4255 -0.2091  0.9198
 7547SOL    HW128477  10.542   4.988   0.544  1.7292  2.8134  1.0568
 7547SOL    HW228478  10.654   4.973   0.444  0.5379  1.4921 -0.1445
 7548SOL     OW28479   8.823   6.616   8.887  0.4961 -0.3481 -0.3742
 7548SOL    HW128480   8.855   6.543   8.834  1.6462 -0.1121 -0.0422
 7548SOL    HW228481   8.881   6.617   8.963 -0.1446  0.2846  0.1159
 7549SOL     OW28482   1.523  10.003  10.419 -0.0616  0.1071 -0.3598
 7549SOL    HW128483   1.485  10.052  10.492 -0.6489  1.5760 -1.6027
 7549SOL    HW228484   1.618  10.018  10.427 -0.1037  0.0762  0.2184
 7550SOL     OW28485   7.207   5.168   4.531  0.0340  0.2293 -0.2275
 7550SOL    HW128486   7.234   5.256   4.555 -0.8870  0.9236 -1.6598
 7550SOL    HW228487   7.114   5.174   4.514 -0.1857 -1.1802  0.2870
 7551SOL     OW28488   2.675   6.249   0.169  0.1212  0.3032 -0.0156
 7551SOL    HW128489   2.724   6.326   0.141 -0.2713  0.2923 -0.7571
 7551SOL    HW228490   2.742   6.186   0.195  0.6981 -0.6170 -3.2692
 7552SOL     OW28491   2.908   9.247   4.633  0.6709 -0.2958 -0.1681
 7552SOL    HW128492   2.889   9.217   4.545  1.5544 -1.3394 -0.0290
 7552SOL    HW228493   2.914   9.342   4.626 -1.8727 -0.1115 -0.6901
 7553SOL     OW28494   9.329   1.296   4.367  0.2956 -0.0306 -0.4972
 7553SOL    HW128495   9.255   1.266   4.314 -1.9837  1.3371  1.6685
 7553SOL    HW228496   9.335   1.390   4.348 -0.6532  0.5182  1.5937
 7554SOL     OW28497   6.768   9.584   0.298 -0.0331  0.5895  0.1536
 7554SOL    HW128498   6.711   9.532   0.241  1.1969 -0.7161  0.0824
 7554SOL    HW228499   6.767   9.671   0.258 -1.3095  0.3870 -0.3159
 7555SOL     OW28500   6.221   0.908   4.025  0.3313 -0.2885 -0.4956
 7555SOL    HW128501   6.204   0.818   4.053  2.1161 -0.3006  0.6995
 7555SOL    HW228502   6.230   0.902   3.930 -1.4565 -1.0136 -0.6614
 7556SOL     OW28503   4.515   2.442   9.633 -0.6637  0.5293  0.2309
 7556SOL    HW128504   4.605   2.437   9.603 -0.0857  1.0662  1.7711
 7556SOL    HW228505   4.522   2.467   9.725 -2.1281 -4.9440  2.1730
 7557SOL     OW28506   4.058   6.206   5.108  0.0392 -0.3017 -0.1851
 7557SOL    HW128507   4.013   6.283   5.141  1.1744 -0.1078  1.0258
 7557SOL    HW228508   4.149   6.219   5.135 -0.0496 -2.9223  1.7827
 7558SOL     OW28509   7.287   3.309   5.404 -0.1372  0.2869  0.5078
 7558SOL    HW128510   7.374   3.270   5.412  0.2156  1.2179  1.3305
 7558SOL    HW228511   7.281   3.372   5.475 -0.4129  2.2708 -1.1660
 7559SOL     OW28512   2.735   8.311   5.561  0.0414  0.1710 -0.5339
 7559SOL    HW128513   2.786   8.336   5.639  0.1011  0.6667 -0.7266
 7559SOL    HW228514   2.727   8.392   5.511  0.6634 -0.3051 -1.4374
 7560SOL     OW28515   3.871   4.546   8.343  0.1300 -0.1752  0.3959
 7560SOL    HW128516   3.949   4.587   8.379 -0.1899 -0.3354  1.3221
 7560SOL    HW228517   3.825   4.512   8.420  0.3061 -2.1232 -0.3063
 7561SOL     OW28518   0.193   3.465   2.085  0.7007  0.1366  0.0293
 7561SOL    HW128519   0.129   3.436   2.149 -0.0284 -0.3624 -0.9114
 7561SOL    HW228520   0.144   3.473   2.003  1.6623  0.5415 -0.5284
 7562SOL     OW28521  10.356   7.911  10.566  0.1256  0.1750 -0.4916
 7562SOL    HW128522  10.336   7.896  10.658  0.0719  0.7439 -0.4058
 7562SOL    HW228523  10.451   7.907  10.561  0.2321  1.7443 -0.1071
 7563SOL     OW28524   9.026   9.207   2.211  0.2516  0.2769 -0.1005
 7563SOL    HW128525   9.022   9.204   2.307 -2.1404  0.0183 -0.1661
 7563SOL    HW228526   9.041   9.299   2.191 -2.1999  0.8783  0.5144
 7564SOL     OW28527   5.621   1.877   8.952 -0.2667  0.3599  0.1926
 7564SOL    HW128528   5.597   1.826   9.030  0.0518  0.6983  0.5139
 7564SOL    HW228529   5.716   1.882   8.955  0.0085 -1.8961 -1.6641
 7565SOL     OW28530   5.942   0.315   5.362 -0.3260  0.1806  0.0643
 7565SOL    HW128531   5.897   0.269   5.432 -2.9146  0.0024 -1.5723
 7565SOL    HW228532   6.032   0.325   5.393 -1.0851 -0.8738  2.8687
 7566SOL     OW28533   5.031   2.149   9.090 -0.2367  0.1250  0.1331
 7566SOL    HW128534   5.066   2.076   9.040 -0.2115  0.1154  0.1651
 7566SOL    HW228535   4.936   2.138   9.086 -0.2110 -0.7896  1.4220
 7567SOL     OW28536   4.694   2.588   9.289 -0.0732  0.0749  0.7004
 7567SOL    HW128537   4.764   2.588   9.223 -1.3569 -1.8876 -0.8131
 7567SOL    HW228538   4.734   2.548   9.366  0.3219 -1.8363 -0.4174
 7568SOL     OW28539  10.065   5.571   2.961  0.1088 -0.2749  0.1632
 7568SOL    HW128540  10.127   5.581   2.888 -0.6373 -0.5548 -0.5274
 7568SOL    HW228541  10.093   5.636   3.026  1.0765 -0.3473 -0.1647
 7569SOL     OW28542   0.877   2.750   9.412 -0.4041  0.0142 -0.2962
 7569SOL    HW128543   0.860   2.665   9.371  0.9550  0.7367 -2.5985
 7569SOL    HW228544   0.958   2.737   9.461 -0.1112 -0.0238 -0.7753
 7570SOL     OW28545   9.577   0.156   1.682  0.1570 -0.2296  0.1886
 7570SOL    HW128546   9.655   0.158   1.626  0.3052  1.6274  0.3900
 7570SOL    HW228547   9.556   0.248   1.697 -2.2314 -0.6583 -0.0472
 7571SOL     OW28548   4.815   4.012   5.809  0.4525  0.0345  0.0120
 7571SOL    HW128549   4.767   3.954   5.867 -0.0059  0.3263 -0.0669
 7571SOL    HW228550   4.817   3.966   5.725 -1.7503  1.0024 -0.6495
 7572SOL     OW28551   2.020  10.048   0.521  0.2024 -0.4201 -0.0588
 7572SOL    HW128552   2.080   9.989   0.476  0.4299 -1.6201  1.6945
 7572SOL    HW228553   2.071  10.126   0.538  1.4016 -1.4971  1.5665
 7573SOL     OW28554   7.345   9.576   9.254  0.7143  0.0098 -0.3956
 7573SOL    HW128555   7.251   9.559   9.255  0.6515  0.3008 -1.1128
 7573SOL    HW228556   7.366   9.592   9.162  1.5393 -0.4654 -0.3032
 7574SOL     OW28557   3.195   6.754   1.384 -0.2179  0.8868 -0.0906
 7574SOL    HW128558   3.205   6.831   1.440 -1.4370 -0.1511  1.6570
 7574SOL    HW228559   3.101   6.743   1.375 -0.0786 -0.5784 -0.0089
 7575SOL     OW28560   5.366  10.495   4.505 -0.2988 -0.1224  0.3444
 7575SOL    HW128561   5.448  10.465   4.546  0.6514  1.2390 -0.5002
 7575SOL    HW228562   5.365  10.452   4.419 -0.0134  0.5603 -0.0046
 7576SOL     OW28563   4.570   5.430   5.328 -0.3864  0.0458 -0.2155
 7576SOL    HW128564   4.608   5.503   5.279  2.0511 -1.1356 -0.2293
 7576SOL    HW228565   4.529   5.470   5.404  2.1611  1.3774  0.5509
 7577SOL     OW28566   9.831   8.253   3.949  0.0955 -0.3437  0.3167
 7577SOL    HW128567   9.837   8.289   3.860  1.6351  0.4053  0.6860
 7577SOL    HW228568   9.887   8.175   3.947  0.4627 -0.0945  0.7247
 7578SOL     OW28569   1.901   4.948   1.951  0.4800  0.6008  0.3293
 7578SOL    HW128570   1.991   4.917   1.959  0.4919  0.4281 -0.4182
 7578SOL    HW228571   1.859   4.921   2.032  0.8365 -0.2207  0.2539
 7579SOL     OW28572   2.110   9.460   2.655  0.0832 -0.3454 -0.5144
 7579SOL    HW128573   2.043   9.441   2.720  0.7319  1.8935  0.9599
 7579SOL    HW228574   2.172   9.388   2.662 -0.3835 -0.6545  0.6571
 7580SOL     OW28575   6.342   7.474   0.028 -0.2343 -0.0592  0.5177
 7580SOL    HW128576   6.301   7.538   0.084  0.8967  1.0080  0.1738
 7580SOL    HW228577   6.398   7.525  -0.031 -0.9186 -1.1742 -1.1917
 7581SOL     OW28578   4.816   6.187   7.275  0.0868 -0.0728 -0.2204
 7581SOL    HW128579   4.815   6.184   7.371  1.7921 -0.1441 -0.1828
 7581SOL    HW228580   4.824   6.280   7.254  2.7683 -0.2177 -0.1801
 7582SOL     OW28581   7.378   2.472   8.814 -0.1371 -0.0395  0.5903
 7582SOL    HW128582   7.469   2.479   8.785 -0.4591  0.8060 -0.2430
 7582SOL    HW228583   7.328   2.525   8.753 -1.3681 -1.4164  0.3244
 7583SOL     OW28584   6.713   1.302   1.896  0.0205  0.2538 -0.0627
 7583SOL    HW128585   6.701   1.208   1.887  0.3511  0.0730  1.1556
 7583SOL    HW228586   6.776   1.325   1.827  0.5142 -0.5545  0.1027
 7584SOL     OW28587   7.586   8.339   0.488 -0.7015  0.4129 -0.0043
 7584SOL    HW128588   7.512   8.316   0.544  0.0874  0.3383  1.0449
 7584SOL    HW228589   7.661   8.340   0.547  0.2525 -0.1928 -1.1669
 7585SOL     OW28590   7.343   1.534   1.817 -0.2748  0.3410  0.3890
 7585SOL    HW128591   7.363   1.474   1.888  0.2405  1.7953  1.5214
 7585SOL    HW228592   7.398   1.611   1.834 -0.1612  0.7550 -1.5658
 7586SOL     OW28593   8.074   5.584   4.415  0.0504  0.4770  0.2235
 7586SOL    HW128594   8.040   5.533   4.488  0.7910  0.4350  0.5424
 7586SOL    HW228595   8.133   5.648   4.456  3.1256 -1.6664 -0.5519
 7587SOL     OW28596   6.360   9.415   7.982  0.3895  0.4453  0.0227
 7587SOL    HW128597   6.296   9.352   8.017 -0.9867  1.6676 -0.1978
 7587SOL    HW228598   6.445   9.377   8.004 -0.3843 -1.4353 -0.0109
 7588SOL     OW28599   8.737   0.331   3.591 -0.3176  0.1889  0.3147
 7588SOL    HW128600   8.673   0.395   3.561  0.4527  0.9012  0.1611
 7588SOL    HW228601   8.783   0.302   3.512  1.3932  1.7159  0.6748
 7589SOL     OW28602   7.786  10.396   8.372  0.1907 -0.8830  0.0707
 7589SOL    HW128603   7.826  10.391   8.459  2.0870 -1.5720 -0.7713
 7589SOL    HW228604   7.701  10.353   8.382  0.9597 -2.2123  1.3024
 7590SOL     OW28605   3.774  10.268   3.134  0.1561 -0.4720  0.8352
 7590SOL    HW128606   3.710  10.200   3.155 -0.8939  0.2835  0.1929
 7590SOL    HW228607   3.730  10.350   3.155  1.5025  0.0262  1.8464
 7591SOL     OW28608   6.492   8.533  10.164 -0.0204 -0.2728  0.1533
 7591SOL    HW128609   6.533   8.556  10.080 -1.1710 -1.5320 -0.8000
 7591SOL    HW228610   6.445   8.612  10.190 -0.3180 -0.1163 -0.8183
 7592SOL     OW28611   7.219   5.236   6.430  0.3266 -0.0346 -0.1850
 7592SOL    HW128612   7.292   5.281   6.472  2.2495 -1.0317 -2.2496
 7592SOL    HW228613   7.178   5.303   6.375 -0.9332  0.7423  1.5959
 7593SOL     OW28614   9.409   4.951  10.331 -0.3046 -0.5626  0.3595
 7593SOL    HW128615   9.381   4.865  10.362  0.2312 -0.8831 -0.0337
 7593SOL    HW228616   9.412   5.005  10.410 -1.2771 -0.7262  0.5126
 7594SOL     OW28617   0.226  10.181   4.105  0.3609 -0.5231  0.1407
 7594SOL    HW128618   0.186  10.165   4.190 -0.2385  0.2919  0.0241
 7594SOL    HW228619   0.309  10.224   4.125  0.5656 -1.0018  0.3337
 7595SOL     OW28620   8.732   7.116   1.744 -0.2421 -0.3021  0.4453
 7595SOL    HW128621   8.783   7.178   1.797 -1.1629 -0.1869  1.2154
 7595SOL    HW228622   8.798   7.070   1.692  0.6134  0.1576  1.0889
 7596SOL     OW28623   8.104   9.286   3.371 -0.5063  0.2501  0.1019
 7596SOL    HW128624   8.134   9.368   3.412 -0.6989 -0.0547  0.8732
 7596SOL    HW228625   8.143   9.217   3.425 -2.0019 -0.1552  0.7177
 7597SOL     OW28626   0.049   4.196   1.717 -0.0260  0.2158 -0.2138
 7597SOL    HW128627   0.077   4.284   1.741  0.4191  0.5853 -1.9292
 7597SOL    HW228628  -0.028   4.179   1.770  0.5470  1.1887  0.9616
 7598SOL     OW28629   1.881   0.428   5.838  0.1402  0.2989 -0.7604
 7598SOL    HW128630   1.869   0.397   5.748 -0.9909 -0.5937 -0.3183
 7598SOL    HW228631   1.901   0.350   5.889 -2.3710  0.2359  0.2993
 7599SOL     OW28632   3.492   8.144   5.402  0.0138 -0.0160  0.1316
 7599SOL    HW128633   3.564   8.191   5.443  0.8891 -1.4743  0.3478
 7599SOL    HW228634   3.529   8.107   5.322 -1.0586  0.8789 -0.8220
 7600SOL     OW28635   2.840   1.858   1.530 -0.1872 -0.1051 -0.1817
 7600SOL    HW128636   2.789   1.868   1.611  0.2284 -2.3859  0.4497
 7600SOL    HW228637   2.898   1.783   1.548  0.5776 -0.0824 -2.2776
 7601SOL     OW28638   1.639   3.590  10.406 -0.2017  0.2666 -0.1703
 7601SOL    HW128639   1.633   3.501  10.371  0.7070  0.4982 -0.9454
 7601SOL    HW228640   1.644   3.578  10.501 -1.0901 -0.4450 -0.1927
 7602SOL     OW28641   9.098   8.918   8.419 -0.2065 -0.0484 -0.8967
 7602SOL    HW128642   9.023   8.876   8.462  0.4977  0.3640  0.8352
 7602SOL    HW228643   9.172   8.901   8.478  0.4141  2.3167 -0.8911
 7603SOL     OW28644  10.509   3.367   6.536 -0.4869  0.5341 -0.1327
 7603SOL    HW128645  10.426   3.409   6.513 -1.3111 -1.5637 -1.2378
 7603SOL    HW228646  10.567   3.388   6.463 -0.2562  1.3617  0.2733
 7604SOL     OW28647   7.696   1.840   1.831 -0.6140  0.2678 -0.0166
 7604SOL    HW128648   7.779   1.793   1.830 -1.6139 -1.6559  1.1046
 7604SOL    HW228649   7.694   1.883   1.916 -1.2984 -0.7867  0.5221
 7605SOL     OW28650   0.550   8.351   9.056 -0.1025  0.0396  0.9084
 7605SOL    HW128651   0.572   8.331   9.147  2.1285 -1.5746  0.1076
 7605SOL    HW228652   0.610   8.298   9.004 -0.5296  1.7371 -1.5372
 7606SOL     OW28653   1.174   4.600   7.986 -0.0281 -0.0519 -0.6118
 7606SOL    HW128654   1.117   4.557   7.922  1.1224  0.0584 -1.7467
 7606SOL    HW228655   1.258   4.554   7.979  0.0985 -0.0895  0.8896
 7607SOL     OW28656   1.699   3.426   8.409 -0.1103  0.0968  0.1277
 7607SOL    HW128657   1.645   3.494   8.369 -1.3897 -1.0100 -0.1237
 7607SOL    HW228658   1.715   3.363   8.339 -1.0281 -1.0625  0.9033
 7608SOL     OW28659   5.872   3.905   8.505 -0.0971 -0.3939 -0.3110
 7608SOL    HW128660   5.912   3.920   8.590 -0.4387 -1.7682  0.1049
 7608SOL    HW228661   5.783   3.938   8.514 -0.1512 -0.5945 -0.1231
 7609SOL     OW28662   1.364   9.547   4.325  0.9347 -0.0531 -0.1520
 7609SOL    HW128663   1.280   9.505   4.344  0.9801  0.4911  1.4211
 7609SOL    HW228664   1.345   9.609   4.254  0.1559 -0.4115 -0.2630
 7610SOL     OW28665   4.465   4.769   2.944  0.3788  0.2851 -0.0122
 7610SOL    HW128666   4.523   4.840   2.970  1.0890 -0.4596  0.4793
 7610SOL    HW228667   4.475   4.703   3.013  0.6122 -0.7762 -1.0247
 7611SOL     OW28668   9.642   5.765   3.413  0.4216 -0.6121  0.2361
 7611SOL    HW128669   9.556   5.770   3.455  0.6750  0.1860  0.6888
 7611SOL    HW228670   9.627   5.718   3.331 -0.7288  0.8273 -0.4119
 7612SOL     OW28671   7.449   9.906   4.745  0.6952  0.0409  0.1625
 7612SOL    HW128672   7.508   9.865   4.683 -0.2724  0.0357 -0.7859
 7612SOL    HW228673   7.501   9.917   4.825  1.6405 -0.9230 -0.3009
 7613SOL     OW28674   2.049   0.465   1.964 -0.1269 -0.4205 -0.0535
 7613SOL    HW128675   2.139   0.446   1.992 -0.0810 -0.9919 -0.5567
 7613SOL    HW228676   1.997   0.395   2.003 -0.1146 -1.0084 -1.0511
 7614SOL     OW28677   2.693   3.384   4.701  0.1583  0.0449  0.2200
 7614SOL    HW128678   2.771   3.328   4.703 -0.1988 -0.5077 -0.8668
 7614SOL    HW228679   2.722   3.465   4.743  2.3237  1.0804 -2.9164
 7615SOL     OW28680   7.464   6.028   1.469 -0.2913 -0.1921 -0.0553
 7615SOL    HW128681   7.392   6.083   1.438 -0.4011  0.5250  1.3892
 7615SOL    HW228682   7.513   6.005   1.390 -0.2720  1.9465 -0.7248
 7616SOL     OW28683   4.999   2.281  10.426  0.4929  0.4202 -0.0803
 7616SOL    HW128684   4.966   2.353  10.372  2.4325  1.7497  0.3951
 7616SOL    HW228685   5.059   2.234  10.367  0.3123  0.0363  0.0390
 7617SOL     OW28686   6.636   3.884   2.483  0.2873  0.7012  0.1496
 7617SOL    HW128687   6.617   3.978   2.482 -0.4570  0.5684  0.5950
 7617SOL    HW228688   6.588   3.851   2.559 -0.2409 -0.1994 -0.5510
 7618SOL     OW28689   3.709   3.908   5.584  0.3202  0.1489 -0.3645
 7618SOL    HW128690   3.621   3.946   5.581  0.5722  0.8476 -4.9149
 7618SOL    HW228691   3.694   3.813   5.579 -0.1248  0.1867  0.0484
 7619SOL     OW28692   3.445   4.072  10.511  0.0156 -0.2288 -0.1557
 7619SOL    HW128693   3.522   4.019  10.530  0.3284 -0.4357 -1.8690
 7619SOL    HW228694   3.403   4.085  10.597  0.4818 -2.3787  0.4533
 7620SOL     OW28695   2.139   7.032   9.551 -0.0886 -0.3848 -0.1733
 7620SOL    HW128696   2.226   7.002   9.579 -0.6336 -1.4389  0.4615
 7620SOL    HW228697   2.115   6.971   9.481  0.0736  0.4931 -1.0049
 7621SOL     OW28698   8.495   3.243   2.328  0.1555  0.1836 -0.2463
 7621SOL    HW128699   8.554   3.190   2.382  0.7835  1.5881  0.4924
 7621SOL    HW228700   8.424   3.183   2.305  1.3141 -1.2560 -0.2607
 7622SOL     OW28701  10.655   2.675   8.313 -0.0784 -0.1151  0.5118
 7622SOL    HW128702  10.663   2.743   8.381  2.4943 -0.9755  1.1765
 7622SOL    HW228703  10.727   2.615   8.331 -0.4146 -1.3629 -1.9469
 7623SOL     OW28704   8.807   2.023   1.505 -0.1610  0.1077 -0.7230
 7623SOL    HW128705   8.749   1.949   1.485 -1.5369  1.3619 -1.5493
 7623SOL    HW228706   8.748   2.097   1.520  1.1263  0.8234  1.2312
 7624SOL     OW28707   9.750   6.473   3.725 -0.1299 -0.4881 -0.1421
 7624SOL    HW128708   9.731   6.442   3.813 -0.4968  3.3852  1.3345
 7624SOL    HW228709   9.665   6.493   3.687  0.1359  0.4597 -0.2722
 7625SOL     OW28710   1.287   2.874   3.279  0.5110  0.1688  0.2146
 7625SOL    HW128711   1.323   2.818   3.210  0.7369  0.0299  0.4413
 7625SOL    HW228712   1.334   2.847   3.358 -1.0009 -0.9113  0.7837
 7626SOL     OW28713   3.319   8.738   1.917 -0.1388 -0.1119 -0.3411
 7626SOL    HW128714   3.233   8.700   1.901 -1.0611  1.6348  0.1397
 7626SOL    HW228715   3.379   8.687   1.863 -1.5045 -1.2000 -0.8872
 7627SOL     OW28716   5.076   5.626   5.659 -0.2922 -0.4035  0.2705
 7627SOL    HW128717   5.123   5.556   5.614 -0.4533 -0.7114  0.5817
 7627SOL    HW228718   5.024   5.582   5.726  0.2019  0.0754  0.9866
 7628SOL     OW28719   0.071   8.750   2.172 -0.8000  0.0870  0.0281
 7628SOL    HW128720   0.073   8.662   2.209  0.7237 -0.5653 -1.4926
 7628SOL    HW228721   0.139   8.750   2.105 -0.8697  2.3853 -0.1305
 7629SOL     OW28722   1.930   1.728   2.295 -0.6024 -0.0861 -0.0955
 7629SOL    HW128723   1.854   1.730   2.237 -0.7073  0.0187  0.0463
 7629SOL    HW228724   1.927   1.811   2.342  0.9565  1.0138 -1.8245
 7630SOL     OW28725   7.230   0.912   3.692  0.1136  0.0732  0.4155
 7630SOL    HW128726   7.310   0.883   3.648  0.6995  0.0480  1.4584
 7630SOL    HW228727   7.164   0.913   3.623  1.4108  1.8898 -0.9134
 7631SOL     OW28728   0.866   0.600   0.081  0.7839  0.5455 -0.4974
 7631SOL    HW128729   0.947   0.587   0.130  0.0375  0.6512  0.8407
 7631SOL    HW228730   0.805   0.538   0.120  0.4109 -0.0570 -1.9821
 7632SOL     OW28731   2.757   4.187   5.266 -0.1912 -0.2619  0.0493
 7632SOL    HW128732   2.698   4.258   5.240 -0.2478 -0.3041  0.0631
 7632SOL    HW228733   2.738   4.116   5.206  0.0767 -0.1624 -0.1580
 7633SOL     OW28734   7.442   9.329   6.534 -0.1925 -0.5568 -0.2018
 7633SOL    HW128735   7.468   9.245   6.572 -3.0231 -0.6257  1.8411
 7633SOL    HW228736   7.522   9.381   6.537  1.0538 -2.3827  0.7725
 7634SOL     OW28737   1.282   3.494   7.944 -0.2141 -0.2860  0.4955
 7634SOL    HW128738   1.314   3.430   8.007 -0.1437 -1.0306 -0.2727
 7634SOL    HW228739   1.281   3.446   7.861  0.2787  0.8545 -0.1813
 7635SOL     OW28740   3.283   9.272   7.348  0.1286 -0.0799  0.2845
 7635SOL    HW128741   3.251   9.252   7.436 -0.4473 -0.0497  0.0877
 7635SOL    HW228742   3.369   9.311   7.362 -0.8485  1.9217  0.9722
 7636SOL     OW28743  10.573   1.609   4.744 -0.3665  0.4144 -0.1341
 7636SOL    HW128744  10.635   1.537   4.730  0.3899  1.2607 -1.3163
 7636SOL    HW228745  10.624   1.688   4.728 -0.9827  1.2925  1.8943
 7637SOL     OW28746  10.656   4.377   9.138  0.3749 -0.2837 -0.5773
 7637SOL    HW128747  10.669   4.380   9.233 -0.3398  0.5283 -0.4826
 7637SOL    HW228748  10.695   4.459   9.107  1.2030 -0.8577 -1.0780
 7638SOL     OW28749   0.220   6.017   1.668  1.1355 -0.0509  0.8055
 7638SOL    HW128750   0.287   5.968   1.620 -0.0261 -1.6176  0.7253
 7638SOL    HW228751   0.188   6.083   1.606  2.4052  0.5810  0.7758
 7639SOL     OW28752  10.267   0.095   7.305 -0.4864 -0.3948 -0.2813
 7639SOL    HW128753  10.238   0.095   7.397  0.2627 -0.1058 -0.0385
 7639SOL    HW228754  10.362   0.084   7.310 -0.4200 -0.1760 -1.0189
 7640SOL     OW28755   2.072   4.859   9.790 -0.2665  0.3184 -0.3193
 7640SOL    HW128756   2.015   4.789   9.822  1.0245 -0.1322  1.0564
 7640SOL    HW228757   2.063   4.855   9.695 -1.7952 -0.3387 -0.1831
 7641SOL     OW28758   9.774   3.565   4.377 -0.1317  0.0307  0.0430
 7641SOL    HW128759   9.778   3.571   4.282 -1.1944  1.0108  0.0342
 7641SOL    HW228760   9.844   3.504   4.401  0.2060 -0.1509 -1.3492
 7642SOL     OW28761   3.028   1.955  10.025 -0.5098  0.5401 -0.0982
 7642SOL    HW128762   3.063   1.935  10.112 -1.8609 -1.6954  0.0060
 7642SOL    HW228763   3.004   1.870   9.988  0.7612  1.3124 -3.0383
 7643SOL     OW28764   2.870   8.166   8.190 -0.0973  0.0576  0.1817
 7643SOL    HW128765   2.810   8.236   8.215 -0.0619 -0.6737  2.5653
 7643SOL    HW228766   2.842   8.091   8.243 -0.1338 -1.7786 -2.2639
 7644SOL     OW28767   3.333   0.126  10.155  0.0409  0.0954 -0.1201
 7644SOL    HW128768   3.385   0.104  10.077  2.4309  2.2967  0.7256
 7644SOL    HW228769   3.355   0.058  10.218  1.5174  0.6916  0.0325
 7645SOL     OW28770   4.236   9.845   0.836 -0.0527  0.7314 -0.5194
 7645SOL    HW128771   4.210   9.860   0.927 -0.4408  1.3362 -0.7271
 7645SOL    HW228772   4.184   9.907   0.785  1.4701  1.6737 -0.9906
 7646SOL     OW28773   7.097   0.052   5.819  0.3700  0.6235  0.0942
 7646SOL    HW128774   7.069   0.060   5.910  0.6158  1.2707  0.1158
 7646SOL    HW228775   7.145   0.133   5.801  0.5477  0.3871 -0.5321
 7647SOL     OW28776   2.391   9.482   6.031  0.0953  0.6152 -0.4824
 7647SOL    HW128777   2.296   9.472   6.023 -0.3262  2.3188  1.5040
 7647SOL    HW228778   2.417   9.525   5.949 -0.8697  0.3580 -0.9374
 7648SOL     OW28779   8.903   4.270   4.483 -0.1059  0.2038  0.1916
 7648SOL    HW128780   8.976   4.212   4.463  0.0455  0.4197  0.1232
 7648SOL    HW228781   8.906   4.280   4.579  1.2483  1.9041  0.0109
 7649SOL     OW28782   3.746   8.753   8.833  0.0082  0.3536  0.2615
 7649SOL    HW128783   3.707   8.820   8.777  1.0056  0.5344 -0.2277
 7649SOL    HW228784   3.839   8.756   8.813 -0.1480 -3.1397 -1.9948
 7650SOL     OW28785   6.438   2.366   7.284 -0.1345  0.1573  0.1942
 7650SOL    HW128786   6.460   2.273   7.289 -1.3776 -0.1141  1.2906
 7650SOL    HW228787   6.521   2.411   7.300  0.5640 -0.7432 -0.7551
 7651SOL     OW28788   5.217   9.592   5.028  0.8071  0.1832  0.6058
 7651SOL    HW128789   5.188   9.568   4.940  0.8279  1.4674  0.2273
 7651SOL    HW228790   5.136   9.596   5.079  0.5843  1.0672  0.2163
 7652SOL     OW28791   5.915   8.175   2.423 -0.2239  0.0360  0.2022
 7652SOL    HW128792   5.841   8.222   2.462  0.6547  1.5338  0.1379
 7652SOL    HW228793   5.880   8.136   2.343 -1.1058  0.1224  0.5380
 7653SOL     OW28794   2.220   9.070   8.767 -0.3721 -0.5000 -0.0872
 7653SOL    HW128795   2.228   9.052   8.860 -0.0068 -1.0495 -0.2231
 7653SOL    HW228796   2.302   9.040   8.729  0.4261  1.7528 -0.2872
 7654SOL     OW28797   8.079   7.916  10.516  0.0623 -0.1946 -0.2369
 7654SOL    HW128798   8.018   7.965  10.572 -1.0544 -0.7031 -0.9568
 7654SOL    HW228799   8.155   7.973  10.506 -0.0487  0.2219  1.1591
 7655SOL     OW28800   5.313   0.281   2.430 -0.1467  0.3984 -0.1371
 7655SOL    HW128801   5.251   0.254   2.498  0.5597  0.2882  0.4751
 7655SOL    HW228802   5.368   0.346   2.473 -1.4920  2.5073 -1.4325
 7656SOL     OW28803   4.984  10.724   7.613 -0.1612  0.2712 -0.2701
 7656SOL    HW128804   4.906  10.778   7.602  0.1775  1.3007  1.8837
 7656SOL    HW228805   5.051  10.784   7.646  0.9647 -0.9867 -0.1607
 7657SOL     OW28806   6.332   1.802   4.867  0.4071 -0.3841  0.0071
 7657SOL    HW128807   6.291   1.865   4.807  0.7373  0.2209  0.4061
 7657SOL    HW228808   6.423   1.798   4.837  0.2881 -0.9926 -0.2762
 7658SOL     OW28809   5.013   0.933  10.231  0.3046 -0.2535  0.0310
 7658SOL    HW128810   4.933   0.935  10.180 -0.0834 -0.3937  0.6170
 7658SOL    HW228811   4.993   0.984  10.310  1.3391  1.1630 -0.5785
 7659SOL     OW28812  10.053   8.074   8.137  0.0345 -0.4953  0.5054
 7659SOL    HW128813  10.084   8.127   8.211  0.0765 -4.1576  3.3903
 7659SOL    HW228814  10.120   8.085   8.070  0.9905  1.5156  1.6999
 7660SOL     OW28815   9.949   7.763   0.225 -0.5995  0.0212 -0.2480
 7660SOL    HW128816   9.914   7.731   0.142 -1.3402 -1.3355  0.5485
 7660SOL    HW228817   9.995   7.688   0.263  1.8439  1.3071 -0.4953
 7661SOL     OW28818   2.962   3.445   9.442 -0.1324 -0.4154 -0.1355
 7661SOL    HW128819   2.948   3.354   9.469 -1.8518 -0.3615 -0.7179
 7661SOL    HW228820   3.017   3.438   9.364  0.9776 -0.8533  0.6716
 7662SOL     OW28821   2.283   8.765  10.663 -0.4895 -0.1441 -0.1037
 7662SOL    HW128822   2.339   8.736  10.591 -1.8403 -1.1373 -0.8138
 7662SOL    HW228823   2.220   8.825  10.622  0.8445  2.0819  0.9319
 7663SOL     OW28824   1.991   2.664   7.348  0.0833  0.2682  0.5314
 7663SOL    HW128825   1.923   2.636   7.285  0.6606  2.0487 -0.9687
 7663SOL    HW228826   1.942   2.686   7.427 -0.8828 -0.3120  0.1154
 7664SOL     OW28827   2.415   3.093   9.590 -0.1529  0.0091  0.2076
 7664SOL    HW128828   2.478   3.114   9.659 -0.1411  0.8602 -0.0490
 7664SOL    HW228829   2.338   3.061   9.636 -0.7622  2.0973  0.7516
 7665SOL     OW28830   1.958   1.283   1.147 -0.0182 -0.1473 -0.1568
 7665SOL    HW128831   2.043   1.256   1.114  0.5040  0.9142  0.2655
 7665SOL    HW228832   1.897   1.217   1.114  0.9669 -0.9386 -0.4276
 7666SOL     OW28833   2.457   0.888   5.933 -0.1165  0.1536  0.4336
 7666SOL    HW128834   2.363   0.875   5.927 -0.0953  0.1813  0.0206
 7666SOL    HW228835   2.485   0.905   5.843  0.6699 -2.5076  0.0586
 7667SOL     OW28836   8.135   4.041   3.750 -0.3388 -0.4690  0.6787
 7667SOL    HW128837   8.162   4.033   3.659 -0.7956  1.0182  0.3734
 7667SOL    HW228838   8.045   4.008   3.751 -1.7723  2.9164 -0.3011
 7668SOL     OW28839   1.055   8.262   3.177  0.7048  0.1208 -0.3101
 7668SOL    HW128840   1.042   8.334   3.116  2.7635 -0.2059 -1.2114
 7668SOL    HW228841   1.137   8.221   3.149  0.5635 -1.4067  1.3349
 7669SOL     OW28842   0.486   0.759   8.009 -0.1364 -0.8173  0.5970
 7669SOL    HW128843   0.398   0.790   7.988 -0.0334 -0.5766  0.5178
 7669SOL    HW228844   0.537   0.773   7.929  0.4635  0.8713  1.2333
 7670SOL     OW28845  10.371   2.825   5.841 -0.5282  0.0202  0.4581
 7670SOL    HW128846  10.319   2.861   5.769  0.3350 -0.4630 -0.4184
 7670SOL    HW228847  10.308   2.772   5.890 -1.1185  0.3179  0.0484
 7671SOL     OW28848  10.335   9.702   9.607  0.2453  0.3742  0.1539
 7671SOL    HW128849  10.340   9.627   9.666 -0.5803 -0.0159 -0.2629
 7671SOL    HW228850  10.425   9.714   9.576  0.9077  1.1926  2.2093
 7672SOL     OW28851   3.938   3.635   1.634 -0.0451  0.5494  0.2144
 7672SOL    HW128852   3.985   3.687   1.698 -0.8605  1.8110 -0.1763
 7672SOL    HW228853   3.847   3.662   1.642 -0.2730  0.2253 -0.9713
 7673SOL     OW28854   5.132   2.046   7.346 -0.5228  0.1753  0.0831
 7673SOL    HW128855   5.142   2.136   7.315 -1.6456 -0.0340 -0.9509
 7673SOL    HW228856   5.131   2.054   7.442  1.7826  0.9754  0.1149
 7674SOL     OW28857   2.583   5.886   4.874 -0.1158  0.2036  0.0314
 7674SOL    HW128858   2.647   5.850   4.813 -0.7130 -1.6413  0.4318
 7674SOL    HW228859   2.635   5.917   4.948  0.6601  2.8968 -1.5081
 7675SOL     OW28860   8.088   9.763  10.266 -0.2616  0.4559 -0.5258
 7675SOL    HW128861   8.160   9.824  10.248  0.7472 -1.1782 -2.4369
 7675SOL    HW228862   8.054   9.791  10.350  3.6898  0.3353  1.3529
 7676SOL     OW28863   7.649   9.529   5.194  0.2183 -0.0631 -0.3869
 7676SOL    HW128864   7.620   9.611   5.233  0.9571  0.7706 -1.5197
 7676SOL    HW228865   7.588   9.514   5.122 -0.3148 -0.8756  0.2154
 7677SOL     OW28866   1.367   8.539   8.852  0.3861 -0.0155  0.3692
 7677SOL    HW128867   1.428   8.555   8.924 -0.8832 -0.1717  1.5291
 7677SOL    HW228868   1.394   8.601   8.784  0.1492  1.9188  1.9116
 7678SOL     OW28869  10.598   7.330   2.723  0.1918 -0.1515 -0.2199
 7678SOL    HW128870  10.545   7.310   2.646  0.3365 -0.2685 -0.2913
 7678SOL    HW228871  10.675   7.376   2.689  0.3135 -0.3069 -0.1604
 7679SOL     OW28872   7.227   3.985  10.374  0.3224 -0.3360  0.2110
 7679SOL    HW128873   7.251   4.076  10.359  0.0341 -0.2214  0.4475
 7679SOL    HW228874   7.311   3.939  10.385  0.4757 -0.1415 -0.1386
 7680SOL     OW28875   6.583   8.848   4.181 -0.7425  0.4635 -0.6893
 7680SOL    HW128876   6.586   8.940   4.206 -0.0030  0.4332 -0.6334
 7680SOL    HW228877   6.502   8.814   4.220  0.2041  0.5024  1.4134
 7681SOL     OW28878   9.481   2.605   9.949 -0.5746  0.4968  0.1633
 7681SOL    HW128879   9.543   2.643   9.887 -2.6188  2.0588 -1.0418
 7681SOL    HW228880   9.532   2.540   9.997  1.4768  0.2866 -2.1128
 7682SOL     OW28881   4.590   2.418   3.644 -0.0887 -0.2082  0.3218
 7682SOL    HW128882   4.663   2.437   3.585 -0.8075 -2.5087 -1.4790
 7682SOL    HW228883   4.547   2.502   3.657  1.3559  0.7434 -0.6901
 7683SOL     OW28884   5.540   1.930   5.764 -0.1213 -0.2887  0.1893
 7683SOL    HW128885   5.605   1.955   5.698  0.4597  0.6987  1.0945
 7683SOL    HW228886   5.488   1.862   5.722 -0.7843  1.3819 -1.8813
 7684SOL     OW28887   2.164   5.456   5.193  0.3406  0.2711 -0.2224
 7684SOL    HW128888   2.240   5.446   5.250  0.7788 -1.1163 -1.0225
 7684SOL    HW228889   2.198   5.441   5.105 -1.1541 -2.1860 -0.4587
 7685SOL     OW28890   9.977   8.605   0.761 -0.2907  0.2325  0.5345
 7685SOL    HW128891  10.025   8.567   0.834 -2.0625  0.7520  2.0314
 7685SOL    HW228892   9.942   8.530   0.714  0.0782 -0.0843  0.7562
 7686SOL     OW28893   3.306   6.965   9.684 -1.4884  1.0424  0.0076
 7686SOL    HW128894   3.276   6.961   9.594 -1.2801  3.3524 -0.2253
 7686SOL    HW228895   3.236   7.010   9.731 -2.7327 -2.2016  1.6310
 7687SOL     OW28896   3.666   5.069   6.351 -0.2748 -0.1706  0.1306
 7687SOL    HW128897   3.714   4.989   6.374 -0.9912 -0.5499  0.3207
 7687SOL    HW228898   3.576   5.053   6.380 -0.0868  1.3499  1.6719
 7688SOL     OW28899   4.027  10.611   4.345  0.2270 -0.5237  0.4889
 7688SOL    HW128900   3.937  10.578   4.334  0.0918  0.1890 -0.7169
 7688SOL    HW228901   4.065  10.554   4.412  0.4384 -4.0540 -2.2878
 7689SOL     OW28902   1.121   0.103   4.404 -0.1302 -0.2851 -0.1722
 7689SOL    HW128903   1.042   0.089   4.456  0.2157 -0.0635  0.4214
 7689SOL    HW228904   1.186   0.136   4.466 -0.0206  1.0253 -0.9252
 7690SOL     OW28905   1.458   3.401   6.448  0.6616 -0.6293 -0.0326
 7690SOL    HW128906   1.547   3.402   6.414  0.5772  0.1823 -0.2482
 7690SOL    HW228907   1.423   3.315   6.421  1.4207 -1.0157  0.1992
 7691SOL     OW28908  10.546   3.262   3.298 -0.3464 -0.1754 -0.1284
 7691SOL    HW128909  10.582   3.270   3.386 -1.8480  0.6895  0.4642
 7691SOL    HW228910  10.542   3.352   3.266  0.3106 -0.4986 -1.1491
 7692SOL     OW28911   3.407   1.298   1.252 -0.4047  0.0692 -0.4057
 7692SOL    HW128912   3.378   1.387   1.272 -1.0976 -0.3786  0.6197
 7692SOL    HW228913   3.343   1.241   1.293 -1.8012 -0.9680 -3.6511
 7693SOL     OW28914   5.361   4.048   4.834 -0.3215 -0.0454 -0.5915
 7693SOL    HW128915   5.345   4.102   4.911  0.8397  0.2064 -0.5026
 7693SOL    HW228916   5.447   4.076   4.802  0.3385 -1.8311 -0.5286
 7694SOL     OW28917   6.819   0.558   1.884  0.4810 -0.0020  0.3588
 7694SOL    HW128918   6.763   0.605   1.946  2.7118  1.1316  1.6221
 7694SOL    HW228919   6.786   0.468   1.885 -1.4898  0.6901  0.7745
 7695SOL     OW28920   1.704   5.727   4.258  0.4828 -0.3140 -0.0988
 7695SOL    HW128921   1.767   5.769   4.199  0.6271 -0.7847 -0.2806
 7695SOL    HW228922   1.698   5.637   4.227  0.2567 -0.4604  0.3612
 7696SOL     OW28923   5.924   3.765   0.683  0.3203 -0.1774  0.1017
 7696SOL    HW128924   5.861   3.828   0.649  1.1639 -0.1513 -1.5167
 7696SOL    HW228925   5.901   3.755   0.775 -3.2176 -1.5809 -0.7820
 7697SOL     OW28926   8.666  10.611  10.605  0.5658  0.4320  0.1909
 7697SOL    HW128927   8.669  10.706  10.613  0.7253  0.4699 -0.2695
 7697SOL    HW228928   8.584  10.586  10.647  1.3859  0.5844  1.9438
 7698SOL     OW28929   2.262   8.779   8.821 -0.0293 -0.3846  0.0451
 7698SOL    HW128930   2.295   8.720   8.753  2.4320  0.1269  0.6816
 7698SOL    HW228931   2.340   8.805   8.870 -1.6499 -0.4672  2.9018
 7699SOL     OW28932  10.199   7.960   9.144  0.6194  0.3208 -0.2409
 7699SOL    HW128933  10.112   7.994   9.161  0.5750 -0.7323  2.0837
 7699SOL    HW228934  10.188   7.901   9.069 -0.9692 -0.7955  0.8130
 7700SOL     OW28935   8.765   0.185   0.849 -0.0163 -0.0938 -0.5694
 7700SOL    HW128936   8.751   0.197   0.943 -0.3055 -1.3869 -0.4397
 7700SOL    HW228937   8.855   0.216   0.834 -0.4241  1.3797 -0.1216
 7701SOL     OW28938   1.883   4.674   9.915  0.0199  0.0583  0.3138
 7701SOL    HW128939   1.954   4.620   9.950 -2.1321 -2.0373  1.7333
 7701SOL    HW228940   1.856   4.728   9.989 -0.9049 -0.3272  0.2630
 7702SOL     OW28941   1.573   7.763   0.716  0.2806 -0.1936  0.2694
 7702SOL    HW128942   1.492   7.810   0.740  0.3732 -0.4011  1.0280
 7702SOL    HW228943   1.552   7.718   0.634 -0.8673 -1.4345  1.1978
 7703SOL     OW28944   9.903   5.631   2.522  0.2591  0.0967  0.6598
 7703SOL    HW128945   9.844   5.678   2.463  1.7684 -0.5435 -1.5267
 7703SOL    HW228946   9.892   5.539   2.499  0.0415 -0.2995  2.2482
 7704SOL     OW28947   3.118   8.959   7.411  0.5968  0.0075  0.6697
 7704SOL    HW128948   3.162   8.941   7.494 -1.4892  0.1160  1.8691
 7704SOL    HW228949   3.039   9.007   7.436 -0.4090 -0.5222 -1.3300
 7705SOL     OW28950   5.678   8.327   8.179  0.1009 -0.2100  0.4197
 7705SOL    HW128951   5.618   8.334   8.253 -0.5713 -1.8135  0.0584
 7705SOL    HW228952   5.748   8.269   8.210  0.1707 -0.3407  0.0235
 7706SOL     OW28953   7.214   0.410   7.418  0.0241 -0.3680 -0.5993
 7706SOL    HW128954   7.306   0.409   7.393  0.2727  2.0512 -0.0276
 7706SOL    HW228955   7.168   0.379   7.340  1.2980 -1.8492 -0.8149
 7707SOL     OW28956   3.504   2.039   6.830  0.0285 -0.0814 -0.7503
 7707SOL    HW128957   3.493   1.955   6.874  0.7419  0.1955 -0.0188
 7707SOL    HW228958   3.535   2.017   6.742  2.4693 -0.5299  0.1614
 7708SOL     OW28959   6.366   0.461   5.503  0.1968 -0.0835  0.0948
 7708SOL    HW128960   6.280   0.436   5.468 -0.4273  0.2264  1.3788
 7708SOL    HW228961   6.395   0.532   5.445 -0.7176  0.2690  0.0468
 7709SOL     OW28962   8.868  10.681  10.222 -0.5144 -0.0254 -0.1874
 7709SOL    HW128963   8.858  10.596  10.264 -0.2547  0.1443  0.2236
 7709SOL    HW228964   8.900  10.661  10.134 -0.6334 -0.3597 -0.1548
 7710SOL     OW28965   3.768   3.508   6.314  0.1578 -0.5834  0.4971
 7710SOL    HW128966   3.732   3.596   6.326  1.8895  0.5305 -1.6897
 7710SOL    HW228967   3.742   3.483   6.226  0.9078 -1.6243  0.5549
 7711SOL     OW28968   3.403   0.560  10.386  0.0888  0.1924 -0.2559
 7711SOL    HW128969   3.341   0.554  10.459 -0.1012  2.2603 -0.1905
 7711SOL    HW228970   3.463   0.487  10.400 -0.9517 -0.4686  1.0036
 7712SOL     OW28971   0.418   4.238   5.023 -0.2435  0.1687  0.2709
 7712SOL    HW128972   0.322   4.231   5.018 -0.2012  0.3749 -1.6473
 7712SOL    HW228973   0.443   4.276   4.939  1.5825 -0.3734  0.5352
 7713SOL     OW28974   4.180   5.894   5.024  0.4499 -0.3513  0.3162
 7713SOL    HW128975   4.134   5.894   4.940  0.5005 -1.1288  0.2869
 7713SOL    HW228976   4.246   5.963   5.016 -1.3292  1.5090  0.7097
 7714SOL     OW28977   0.651   1.667   8.362  0.0084  0.0464 -0.5683
 7714SOL    HW128978   0.674   1.758   8.347  0.1515  0.1031  0.0105
 7714SOL    HW228979   0.672   1.623   8.279  1.3815  0.2518 -0.3423
 7715SOL     OW28980   1.191   6.614   0.303 -0.4843 -0.2515 -0.1655
 7715SOL    HW128981   1.146   6.532   0.282  0.1993 -0.7048  0.1124
 7715SOL    HW228982   1.276   6.607   0.259 -0.8597  0.8140 -1.1136
 7716SOL     OW28983   6.314   5.815   9.440 -0.2657  0.1871  0.5455
 7716SOL    HW128984   6.394   5.811   9.387 -1.5531  0.1226 -1.5149
 7716SOL    HW228985   6.323   5.743   9.502  0.8373 -0.4574 -0.3136
 7717SOL     OW28986   6.043   6.991   8.836 -0.0262  0.3831  0.2260
 7717SOL    HW128987   5.997   7.039   8.767 -0.1235 -0.6895 -0.4696
 7717SOL    HW228988   6.129   7.033   8.841  0.3341 -0.1267 -1.2294
 7718SOL     OW28989   9.019   3.161   4.106 -0.0157 -0.1711  0.0744
 7718SOL    HW128990   9.082   3.139   4.175  0.6418 -1.5730 -0.9405
 7718SOL    HW228991   9.033   3.255   4.090 -0.2139  0.2023  1.8384
 7719SOL     OW28992   5.040   4.475  10.554  0.0380 -0.5123  1.1196
 7719SOL    HW128993   5.112   4.535  10.533 -1.0240  0.2099 -0.6352
 7719SOL    HW228994   5.079   4.412  10.615  1.8721  0.4545  1.0293
 7720SOL     OW28995   4.682   0.046   7.319 -0.7642  0.6222 -0.4664
 7720SOL    HW128996   4.595   0.047   7.359 -0.3012  0.9128  0.5415
 7720SOL    HW228997   4.718  -0.040   7.341 -1.6719 -0.4754 -2.8703
 7721SOL     OW28998   5.137   6.781  10.549  0.0188  0.4934  0.1967
 7721SOL    HW128999   5.121   6.756  10.458  0.3193 -1.4335  0.6225
 7721SOL    HW229000   5.224   6.745  10.568 -0.0315  0.9002  1.2541
 7722SOL     OW29001   6.250   9.599   6.799 -0.4621  0.3369  0.4381
 7722SOL    HW129002   6.282   9.602   6.890 -0.2514  1.0598  0.3482
 7722SOL    HW229003   6.180   9.534   6.801  1.4712 -1.8773  0.4734
 7723SOL     OW29004   2.542   0.802   4.999  0.2161  0.1369 -0.6001
 7723SOL    HW129005   2.452   0.770   5.010  0.4057 -0.4747 -0.7717
 7723SOL    HW229006   2.564   0.843   5.082  0.1045 -0.5576 -0.2220
 7724SOL     OW29007   5.617   1.896   8.326  0.0215  0.4278  0.5359
 7724SOL    HW129008   5.539   1.844   8.343  0.8743 -0.4087  2.0900
 7724SOL    HW229009   5.676   1.837   8.280  0.5363  0.3767  1.2439
 7725SOL     OW29010   7.707   1.949   1.315 -0.5310 -0.2556  0.3856
 7725SOL    HW129011   7.712   2.026   1.259  0.0136 -1.4179 -1.2242
 7725SOL    HW229012   7.640   1.971   1.380 -1.2602  1.1053 -0.7815
 7726SOL     OW29013   0.054   0.280  10.537  0.0804  0.7368  0.1811
 7726SOL    HW129014  -0.024   0.251  10.490 -0.4014 -0.9374  1.8724
 7726SOL    HW229015   0.120   0.214  10.516 -0.0879  0.0784  1.6294
 7727SOL     OW29016   1.257   0.192   4.186  0.2026  0.2438  0.3157
 7727SOL    HW129017   1.204   0.270   4.170 -2.7926 -2.2108 -3.6746
 7727SOL    HW229018   1.207   0.142   4.250  0.6048  0.2780  0.6620
 7728SOL     OW29019   3.507   5.608   7.419 -0.5265 -0.0410  0.7365
 7728SOL    HW129020   3.451   5.657   7.359  0.3151  0.1314  0.0617
 7728SOL    HW229021   3.590   5.600   7.372  0.7505  1.6183  2.5592
 7729SOL     OW29022   1.097   3.401   1.761  0.2676 -0.3259 -0.2240
 7729SOL    HW129023   1.073   3.487   1.796  0.6595  0.9264 -2.8357
 7729SOL    HW229024   1.065   3.401   1.671  4.1611 -1.1298 -1.8112
 7730SOL     OW29025   6.771   6.356   2.214  0.4381  0.1256  0.7104
 7730SOL    HW129026   6.812   6.438   2.189 -3.0790  2.1376  0.9194
 7730SOL    HW229027   6.759   6.362   2.308  1.0354 -1.1432  0.8989
 7731SOL     OW29028   5.700   7.460   7.812  0.7915 -0.2806 -0.7296
 7731SOL    HW129029   5.658   7.374   7.803  0.7484 -0.3536  0.0640
 7731SOL    HW229030   5.689   7.482   7.905  1.5721  0.1844 -0.7408
 7732SOL     OW29031   7.161   5.941   7.412 -0.4943  0.3013 -0.5504
 7732SOL    HW129032   7.126   5.987   7.488  0.9923 -1.4948  1.3222
 7732SOL    HW229033   7.084   5.917   7.361 -1.4966  1.9522  0.0990
 7733SOL     OW29034   0.280   9.387   9.114  0.3845 -0.0765  0.4004
 7733SOL    HW129035   0.283   9.454   9.181  1.3577  0.3007 -0.0045
 7733SOL    HW229036   0.329   9.424   9.040 -0.4850 -0.5571 -0.4463
 7734SOL     OW29037   4.246   1.284   4.867 -0.3250  0.2516 -0.1071
 7734SOL    HW129038   4.266   1.374   4.891 -1.8332  0.9884 -1.4442
 7734SOL    HW229039   4.191   1.291   4.790  0.5387 -1.8665 -1.0096
 7735SOL     OW29040   6.252   7.396   5.858  0.0663 -0.8295 -0.5031
 7735SOL    HW129041   6.339   7.427   5.835  1.2029 -2.2614  1.5308
 7735SOL    HW229042   6.193   7.463   5.824  2.0910  1.3217 -0.0354
 7736SOL     OW29043   6.664   4.399   6.648  0.4358 -0.5132  0.0179
 7736SOL    HW129044   6.610   4.346   6.590  0.4314  1.3718 -1.8116
 7736SOL    HW229045   6.612   4.408   6.728 -0.7627 -0.9521 -0.6940
 7737SOL     OW29046   6.209   7.102   5.190  0.6771 -0.3434  0.2399
 7737SOL    HW129047   6.180   7.011   5.181  1.0167 -0.5295  0.9466
 7737SOL    HW229048   6.128   7.150   5.208  0.5485 -0.5619  0.2577
 7738SOL     OW29049   8.539   9.181   3.371 -0.2379  0.4648  0.3475
 7738SOL    HW129050   8.632   9.175   3.347 -0.5903  0.3387 -1.0700
 7738SOL    HW229051   8.494   9.200   3.289 -1.4707  0.6445  1.0355
 7739SOL     OW29052   8.077  10.255   0.682  0.2374 -0.1602 -0.4891
 7739SOL    HW129053   8.030  10.335   0.708 -0.7061 -0.5416 -0.9957
 7739SOL    HW229054   8.103  10.215   0.765  0.7075  0.6672 -0.2286
 7740SOL     OW29055   7.918   2.468   6.926  0.2761  0.1921  0.3497
 7740SOL    HW129056   7.997   2.489   6.877  0.7384 -1.5316  0.2967
 7740SOL    HW229057   7.857   2.539   6.905 -0.0227 -1.0342 -3.7570
 7741SOL     OW29058  10.100   7.561   3.068 -0.4298 -0.3893 -0.5511
 7741SOL    HW129059  10.129   7.476   3.035  0.0890 -0.5429  0.2671
 7741SOL    HW229060  10.114   7.621   2.995  0.7164 -0.7120 -0.6247
 7742SOL     OW29061   3.057  10.286   9.450  0.2080  0.3056 -0.7475
 7742SOL    HW129062   3.127  10.279   9.385  0.3223 -2.1896 -0.4542
 7742SOL    HW229063   3.002  10.357   9.419  0.5172 -0.5030 -3.3408
 7743SOL     OW29064   9.190   3.702   3.041 -0.0794 -0.1193 -0.0453
 7743SOL    HW129065   9.186   3.626   2.983  2.3380  0.2597 -0.8136
 7743SOL    HW229066   9.144   3.771   2.992  2.3087  0.3287 -1.8510
 7744SOL     OW29067   7.818   5.516   6.687 -0.1277  0.2215 -0.3846
 7744SOL    HW129068   7.799   5.602   6.651  1.0520  0.5452 -0.2859
 7744SOL    HW229069   7.903   5.492   6.650  0.8549  0.3093  1.6769
 7745SOL     OW29070   3.507   1.244   2.340 -0.6853 -0.3052  0.1096
 7745SOL    HW129071   3.455   1.322   2.359  0.1677  0.2097  0.4048
 7745SOL    HW229072   3.444   1.180   2.306 -1.5281  0.2431  0.6068
 7746SOL     OW29073  10.593   1.788   7.328 -0.0979  0.7296  0.6083
 7746SOL    HW129074  10.644   1.829   7.398  1.7919 -0.5908  0.0711
 7746SOL    HW229075  10.569   1.702   7.362  1.7432 -0.3580 -0.6780
 7747SOL     OW29076   0.641   3.818   1.448 -0.4342 -0.1947  0.6399
 7747SOL    HW129077   0.630   3.901   1.402 -0.7853 -0.8849 -0.5678
 7747SOL    HW229078   0.648   3.842   1.540 -1.8609  1.0890  0.4611
 7748SOL     OW29079   0.740   1.156   8.486 -0.5353  0.1703  0.3040
 7748SOL    HW129080   0.664   1.143   8.543 -1.0924  1.7186 -0.0205
 7748SOL    HW229081   0.749   1.251   8.482  0.7234  0.0242 -0.5969
 7749SOL     OW29082   7.006   3.578   0.719 -0.5133  0.2379  0.0174
 7749SOL    HW129083   6.954   3.651   0.687  1.1424  0.9106 -1.3347
 7749SOL    HW229084   7.039   3.536   0.640  1.0330 -0.0840  0.7901
 7750SOL     OW29085   7.088   4.943   3.848 -0.6243  0.2002  0.7061
 7750SOL    HW129086   7.143   4.901   3.914 -1.7326 -0.6719  1.1062
 7750SOL    HW229087   7.142   4.945   3.769 -0.2884 -1.3751  0.8670
 7751SOL     OW29088   6.149   1.889   0.421  0.4668  0.3458  0.1132
 7751SOL    HW129089   6.190   1.802   0.420  0.0659  0.0705  2.2894
 7751SOL    HW229090   6.211   1.944   0.468  0.3895  1.0701 -0.6251
 7752SOL     OW29091   4.509   3.146   4.396  0.1608  0.2624 -0.0575
 7752SOL    HW129092   4.424   3.188   4.390  0.1900  0.5703  1.2181
 7752SOL    HW229093   4.558   3.178   4.320 -1.7485 -2.1865 -2.5048
 7753SOL     OW29094   8.925   1.971   4.196 -0.3822 -0.2622  0.2386
 7753SOL    HW129095   8.858   1.970   4.264  0.2060  1.2963  0.8816
 7753SOL    HW229096   8.884   2.017   4.122 -0.1107  0.4942  0.5519
 7754SOL     OW29097   9.002   1.226   3.300 -0.5133  0.3329  0.1321
 7754SOL    HW129098   8.947   1.274   3.239  0.3807  0.2626 -0.7597
 7754SOL    HW229099   9.004   1.280   3.379 -0.3433  1.2662 -0.4969
 7755SOL     OW29100  10.150   9.363   9.614  0.0205  0.5287 -0.4861
 7755SOL    HW129101  10.075   9.417   9.640  0.7565  1.1923  0.3436
 7755SOL    HW229102  10.223   9.396   9.667  0.7939 -0.4252 -0.9157
 7756SOL     OW29103   8.237   4.238   6.074  0.1503 -0.2101  0.0074
 7756SOL    HW129104   8.262   4.219   6.165 -1.3749 -3.0194 -0.0256
 7756SOL    HW229105   8.180   4.314   6.081  0.6467  0.0796  1.3040
 7757SOL     OW29106   2.187   3.282   6.614  0.2145  0.3005  0.3121
 7757SOL    HW129107   2.129   3.358   6.622 -2.2941 -1.4629 -0.0159
 7757SOL    HW229108   2.176   3.235   6.697  0.6739 -0.4197 -0.0253
 7758SOL     OW29109   4.743   2.234   4.171  0.7391 -0.0273 -0.0153
 7758SOL    HW129110   4.721   2.317   4.131 -0.1849 -0.4341 -0.3691
 7758SOL    HW229111   4.704   2.168   4.114  1.2437 -0.6978  0.3912
 7759SOL     OW29112   6.516   9.108   4.252 -0.5308 -0.1247 -0.0226
 7759SOL    HW129113   6.588   9.167   4.229 -0.0554 -0.4009  0.7145
 7759SOL    HW229114   6.452   9.121   4.183  0.0125  0.4952 -0.4286
 7760SOL     OW29115   5.056   7.568   6.099  0.0769  0.4159 -0.0015
 7760SOL    HW129116   5.129   7.512   6.125 -0.0281 -0.5877 -1.7154
 7760SOL    HW229117   5.060   7.642   6.160  3.6267  1.3248 -1.0627
 7761SOL     OW29118   3.017   2.226   0.492 -0.4562  0.5880 -0.1054
 7761SOL    HW129119   3.073   2.257   0.420 -0.6806  0.1907 -0.4621
 7761SOL    HW229120   2.981   2.305   0.531  3.1903  1.1685  2.5350
 7762SOL     OW29121   6.135   2.478   1.693 -0.0771 -0.2937  1.1044
 7762SOL    HW129122   6.128   2.484   1.597  0.9922 -1.2539  0.9456
 7762SOL    HW229123   6.072   2.411   1.717 -0.6044  0.1999  1.1237
 7763SOL     OW29124   4.476   1.973   3.389  0.2020  0.8156  0.4805
 7763SOL    HW129125   4.511   2.062   3.396  0.1825  0.9828 -1.2316
 7763SOL    HW229126   4.481   1.952   3.296 -0.4862 -0.7030  0.7548
 7764SOL     OW29127   4.449   4.322   0.513  0.2633  0.0483 -0.1654
 7764SOL    HW129128   4.520   4.357   0.459 -0.0799  0.2209 -0.5082
 7764SOL    HW229129   4.382   4.296   0.450  0.5413 -1.3178  0.0664
 7765SOL     OW29130  10.494   9.548   8.688  0.1326 -0.1544 -0.4744
 7765SOL    HW129131  10.534   9.632   8.713 -0.3998 -0.2407  0.7840
 7765SOL    HW229132  10.516   9.489   8.760  0.2565 -1.0202 -1.2145
 7766SOL     OW29133   1.875   2.116   5.535 -0.0495 -0.4276 -0.2666
 7766SOL    HW129134   1.895   2.079   5.621 -0.0540  0.5282  0.1640
 7766SOL    HW229135   1.902   2.049   5.473 -0.7840 -1.4617  0.5035
 7767SOL     OW29136   6.897   8.465   7.395 -0.1725  0.2281  0.1443
 7767SOL    HW129137   6.992   8.470   7.393 -0.0890 -0.6777  0.8695
 7767SOL    HW229138   6.878   8.374   7.418 -1.0970  1.2257  4.1591
 7768SOL     OW29139   7.259  10.302   3.996 -0.0324  0.1373  0.3898
 7768SOL    HW129140   7.332  10.291   4.057 -0.1743 -1.3803  0.3323
 7768SOL    HW229141   7.225  10.213   3.983 -0.7504  0.5759 -0.9816
 7769SOL     OW29142   4.228   9.472   9.250 -0.5439 -0.1728  0.4402
 7769SOL    HW129143   4.214   9.448   9.158  1.9989  0.3409 -0.1515
 7769SOL    HW229144   4.211   9.566   9.253  1.0105  0.1469  0.0682
 7770SOL     OW29145   4.836   6.600   5.315  0.4214 -0.2807  0.0400
 7770SOL    HW129146   4.839   6.692   5.341 -1.5656  1.3709 -4.5325
 7770SOL    HW229147   4.895   6.595   5.239 -0.9991 -2.2862 -1.0147
 7771SOL     OW29148   7.026   0.894   8.492  0.6586  0.1545 -0.7246
 7771SOL    HW129149   7.114   0.928   8.478  1.3577 -2.0929 -2.4366
 7771SOL    HW229150   6.970   0.947   8.434  1.1101  0.6867 -0.6777
 7772SOL     OW29151   4.002   4.380   0.388  0.1017 -0.1405 -0.6351
 7772SOL    HW129152   3.951   4.346   0.461  0.6842 -0.7365 -0.4905
 7772SOL    HW229153   4.047   4.457   0.424 -0.3209  0.1087 -0.6325
 7773SOL     OW29154  10.717  10.287   5.240 -0.2053  0.0998  0.7347
 7773SOL    HW129155  10.646  10.279   5.303 -1.2282 -2.5638 -0.5844
 7773SOL    HW229156  10.786  10.229   5.274 -0.8172 -1.4622 -0.5447
 7774SOL     OW29157  10.559   4.779   5.712  0.0900 -0.1422  0.1130
 7774SOL    HW129158  10.604   4.812   5.634 -0.5554 -1.9424 -1.1097
 7774SOL    HW229159  10.617   4.713   5.747  1.5519  2.3391  2.7678
 7775SOL     OW29160   3.585   1.699   2.909  0.2185  0.0597  0.0151
 7775SOL    HW129161   3.599   1.605   2.923 -0.4169  0.0932  0.9915
 7775SOL    HW229162   3.502   1.704   2.860 -0.0774  0.1279  0.5164
 7776SOL     OW29163   0.080   6.557   0.999  0.2147  0.0065 -0.5326
 7776SOL    HW129164   0.121   6.607   0.928 -0.0019 -0.3596 -0.9161
 7776SOL    HW229165   0.065   6.470   0.962 -2.5637  0.6002 -1.0119
 7777SOL     OW29166  10.353   0.054   4.955 -0.0487  0.8993  0.2326
 7777SOL    HW129167  10.259   0.073   4.948 -0.2172  0.3949  1.0743
 7777SOL    HW229168  10.374   0.065   5.047  0.8494  1.5362 -0.0315
 7778SOL     OW29169   9.633   2.523   8.403 -0.4134 -0.3785 -0.1204
 7778SOL    HW129170   9.632   2.596   8.465 -1.1689  0.8874 -1.5613
 7778SOL    HW229171   9.615   2.446   8.457  2.5067  0.1204  1.8247
 7779SOL     OW29172   3.045  10.661   0.696 -0.3995  0.5775 -0.2162
 7779SOL    HW129173   3.000  10.677   0.613 -1.7440 -0.1968  0.3148
 7779SOL    HW229174   3.016  10.573   0.722  0.7612  0.4081  0.6004
 7780SOL     OW29175  10.137   6.493   2.442  0.1556 -0.4895 -0.2356
 7780SOL    HW129176  10.064   6.491   2.504  2.7046 -0.2555  3.0541
 7780SOL    HW229177  10.162   6.586   2.439  0.8959 -0.6994 -0.5850
 7781SOL     OW29178   6.594   9.080   1.956  0.2360  0.3101 -0.0041
 7781SOL    HW129179   6.622   9.138   1.885 -1.0767  1.0449  0.0590
 7781SOL    HW229180   6.665   9.086   2.021  1.4052 -0.2976 -1.1789
 7782SOL     OW29181   5.758   3.233   0.770  0.3766 -0.8683 -0.3486
 7782SOL    HW129182   5.817   3.309   0.770  0.3647 -0.8175 -2.1764
 7782SOL    HW229183   5.772   3.192   0.855 -1.3500  2.4480  1.7153
 7783SOL     OW29184   0.035   4.519   0.942  0.0931 -0.3229 -0.4356
 7783SOL    HW129185  -0.046   4.467   0.947  0.5375 -0.9463  0.9498
 7783SOL    HW229186   0.049   4.548   1.032  0.8773  0.6283 -0.8577
 7784SOL     OW29187   4.325  10.221  10.097 -0.0842  0.3696 -0.4161
 7784SOL    HW129188   4.265  10.163  10.145  1.5376  0.4835  1.9098
 7784SOL    HW229189   4.386  10.162  10.053  0.0016  0.2771 -0.1751
 7785SOL     OW29190   6.589   0.698   2.021 -0.0973 -0.5248 -0.0655
 7785SOL    HW129191   6.519   0.664   2.077 -0.0937 -1.8360 -0.8106
 7785SOL    HW229192   6.595   0.791   2.044 -1.0697 -0.7129  1.0611
 7786SOL     OW29193   7.604   2.736   7.395 -0.0351  0.2929 -0.4280
 7786SOL    HW129194   7.631   2.693   7.476  2.4499  1.4615 -0.5710
 7786SOL    HW229195   7.515   2.768   7.414  0.7532  1.2398  2.1318
 7787SOL     OW29196   3.145   0.390   5.389  0.2402 -0.0253  0.1074
 7787SOL    HW129197   3.077   0.367   5.452  0.2194  0.0311  0.1058
 7787SOL    HW229198   3.222   0.409   5.443  0.7090 -1.6140  0.0347
 7788SOL     OW29199   1.616   2.890   7.629  0.0195  0.3472  0.5131
 7788SOL    HW129200   1.668   2.960   7.667  1.9768 -1.2370  0.9268
 7788SOL    HW229201   1.530   2.928   7.616  0.6965  2.4640  1.7867
 7789SOL     OW29202   5.213  10.526   3.221 -0.1922 -0.0509  0.1960
 7789SOL    HW129203   5.124  10.561   3.221 -0.9359 -1.8536  0.2658
 7789SOL    HW229204   5.242  10.536   3.130 -0.4821  0.4830  0.1567
 7790SOL     OW29205   3.132   1.824   0.103 -0.8062 -0.0933 -0.3781
 7790SOL    HW129206   3.223   1.802   0.086 -1.0354 -2.7432  1.2162
 7790SOL    HW229207   3.086   1.804   0.022 -0.0915  0.7951 -1.0292
 7791SOL     OW29208   8.604   5.470   3.290  0.4379 -0.1528 -0.6196
 7791SOL    HW129209   8.663   5.428   3.353 -0.1073 -0.8525 -0.5672
 7791SOL    HW229210   8.640   5.447   3.204  1.2230  0.8609 -0.5878
 7792SOL     OW29211   2.784   6.386   5.208 -0.1963 -0.1047 -0.1580
 7792SOL    HW129212   2.785   6.349   5.296  1.9915 -1.9426 -0.8672
 7792SOL    HW229213   2.737   6.320   5.155 -3.5003  1.9608 -0.1269
 7793SOL     OW29214   9.637   3.105   4.135  0.0211 -0.1350  0.7554
 7793SOL    HW129215   9.550   3.066   4.122  1.4319 -2.7018 -2.2839
 7793SOL    HW229216   9.634   3.186   4.083 -0.9506  0.6415  1.9438
 7794SOL     OW29217   5.394   1.914   3.111 -0.0361  0.1632  0.1943
 7794SOL    HW129218   5.477   1.873   3.135  0.2772 -0.0677 -1.1808
 7794SOL    HW229219   5.413   2.008   3.110  0.2572  0.1057 -0.2248
 7795SOL     OW29220   8.955   7.814   6.424 -0.0234  0.2423  0.2951
 7795SOL    HW129221   8.955   7.799   6.329 -0.3896  0.0429  0.3225
 7795SOL    HW229222   9.044   7.793   6.452  0.6678  2.2205 -0.2888
 7796SOL     OW29223   6.868   0.448   9.392 -0.0827 -1.0193 -0.1664
 7796SOL    HW129224   6.893   0.385   9.459 -0.4859  0.0976  1.0772
 7796SOL    HW229225   6.795   0.406   9.346 -3.6772  0.2643  3.7293
 7797SOL     OW29226   0.066   9.576   5.459  0.1343 -0.2679 -0.1086
 7797SOL    HW129227   0.063   9.629   5.379  3.4876  0.6775  0.2455
 7797SOL    HW229228  -0.013   9.522   5.454 -2.2346  2.9741 -1.7106
 7798SOL     OW29229   9.895   1.045   3.459  0.0127 -0.0242 -0.9327
 7798SOL    HW129230   9.826   0.978   3.463 -0.6863  0.7512  1.4515
 7798SOL    HW229231   9.930   1.048   3.548  0.3310  2.4469 -1.0762
 7799SOL     OW29232   0.746  10.529   9.002  0.1299 -0.3260  0.7727
 7799SOL    HW129233   0.796  10.456   8.963  1.1513 -0.2713  1.9223
 7799SOL    HW229234   0.793  10.607   8.972  0.2390 -0.2343  1.1869
 7800SOL     OW29235   9.755   6.175   4.991 -0.0124  0.3795 -0.2743
 7800SOL    HW129236   9.712   6.256   4.964 -1.3563  0.4387  1.8617
 7800SOL    HW229237   9.702   6.105   4.952 -0.5831  0.4901  0.3010
 7801SOL     OW29238   3.369   1.247   8.046  0.3630  0.6521 -0.1731
 7801SOL    HW129239   3.350   1.338   8.024 -0.5330 -0.0248 -2.5424
 7801SOL    HW229240   3.424   1.252   8.124 -1.1065  3.1282  0.8268
 7802SOL     OW29241   4.807   5.232   1.110 -0.1551  0.2037  0.0969
 7802SOL    HW129242   4.791   5.217   1.017  0.5485 -1.5750  0.2174
 7802SOL    HW229243   4.719   5.232   1.150 -0.4228  0.3952 -0.4825
 7803SOL     OW29244   9.468   2.797   3.991 -0.1368  0.3141 -0.6914
 7803SOL    HW129245   9.509   2.742   4.057 -1.4358 -1.8216 -1.5751
 7803SOL    HW229246   9.433   2.872   4.040  0.5337 -0.2895  0.7429
 7804SOL     OW29247   1.707  10.286   2.038  0.0638 -0.6170 -0.1045
 7804SOL    HW129248   1.672  10.361   1.989  1.3383  0.3304  0.3790
 7804SOL    HW229249   1.662  10.290   2.123 -0.8631 -1.2277 -0.5486
 7805SOL     OW29250   2.430   6.402   5.210  0.0794  0.0225  0.0390
 7805SOL    HW129251   2.459   6.325   5.161 -1.7203  0.2950 -1.6204
 7805SOL    HW229252   2.375   6.367   5.280  1.2098 -0.2979  0.7732
 7806SOL     OW29253   4.980   6.985   0.639 -0.0730  0.2860  0.1568
 7806SOL    HW129254   4.965   6.890   0.642 -0.9955  0.3257 -1.6678
 7806SOL    HW229255   4.904   7.022   0.684  0.4396  0.1728  1.1411
 7807SOL     OW29256   4.529  10.710   2.648  0.3512 -0.0957 -0.5886
 7807SOL    HW129257   4.434  10.699   2.644  0.2707  0.2828  0.0872
 7807SOL    HW229258   4.542  10.805   2.647  0.6473 -0.1096  0.6007
 7808SOL     OW29259  10.077   2.190   1.508 -0.0117 -0.4620 -0.2983
 7808SOL    HW129260  10.068   2.159   1.418  1.2919  1.1944 -1.0693
 7808SOL    HW229261  10.135   2.266   1.501  1.8400 -1.5007  2.2024
 7809SOL     OW29262   9.013   4.759   8.411  0.3380  0.5416 -0.1167
 7809SOL    HW129263   9.004   4.833   8.351 -0.9110 -0.1823 -0.8655
 7809SOL    HW229264   8.929   4.714   8.407  0.8905 -0.6356  0.7217
 7810SOL     OW29265   6.894   8.442   9.640 -0.4897  0.1644  0.1981
 7810SOL    HW129266   6.935   8.364   9.602 -0.1739  0.2163  0.4284
 7810SOL    HW229267   6.893   8.426   9.734  2.4075  1.7104  0.6199
 7811SOL     OW29268  10.721   2.393   0.416  0.1197 -0.4684  0.2308
 7811SOL    HW129269  10.813   2.419   0.408 -0.1154  0.5384  0.6532
 7811SOL    HW229270  10.703   2.395   0.510 -0.3628 -0.5816  0.1459
 7812SOL     OW29271   5.296   0.862   4.186  0.0629  0.0811  0.0394
 7812SOL    HW129272   5.249   0.779   4.173 -0.2590  0.4516 -1.4318
 7812SOL    HW229273   5.374   0.854   4.131  0.6634  0.2836  0.8502
 7813SOL     OW29274   5.259   4.862   5.614  0.0562 -0.3362  0.6439
 7813SOL    HW129275   5.245   4.932   5.551  0.5485  0.0339  0.9393
 7813SOL    HW229276   5.353   4.844   5.610 -0.3017 -2.2212 -0.7222
 7814SOL     OW29277   3.759   3.261   6.412 -0.4453  0.0039 -0.0358
 7814SOL    HW129278   3.738   3.210   6.333  3.9469 -1.4816 -0.5261
 7814SOL    HW229279   3.786   3.346   6.379 -0.8855  0.1940  0.0950
 7815SOL     OW29280   0.974   2.923   4.409 -0.3892  0.3071 -0.2492
 7815SOL    HW129281   0.921   2.902   4.332 -0.5494 -1.1685  0.2168
 7815SOL    HW229282   0.931   2.999   4.448  0.9875  2.5298 -2.7931
 7816SOL     OW29283   9.794   2.696   5.211 -0.1793 -0.1249 -0.5490
 7816SOL    HW129284   9.859   2.766   5.220  0.8042 -1.3216  4.0913
 7816SOL    HW229285   9.710   2.741   5.217  0.4121  0.9007  0.6634
 7817SOL     OW29286   9.413   2.919   1.099 -0.4605  0.0414  0.2354
 7817SOL    HW129287   9.458   2.955   1.023 -0.6117  0.5708  0.3927
 7817SOL    HW229288   9.336   2.975   1.111 -1.2841 -0.9833 -0.1583
 7818SOL     OW29289   0.808   0.248  10.574  0.2668 -1.1082  0.2665
 7818SOL    HW129290   0.751   0.324  10.561  1.2996 -0.4415 -0.5257
 7818SOL    HW229291   0.826   0.247  10.668  0.1787 -0.4294  0.2937
 7819SOL     OW29292   7.086   3.145   5.468  0.1223 -0.6742  0.7177
 7819SOL    HW129293   7.165   3.193   5.443 -0.1705 -1.0031 -0.9597
 7819SOL    HW229294   7.015   3.207   5.454 -0.0305 -0.7737  1.0381
 7820SOL     OW29295   7.740   9.310   6.165 -0.1842 -0.0241 -0.0500
 7820SOL    HW129296   7.649   9.309   6.137 -0.2989 -0.4717  0.3415
 7820SOL    HW229297   7.741   9.264   6.249  0.5338 -0.7785 -0.4523
 7821SOL     OW29298   2.956   0.729   5.931 -0.1430  0.2289 -0.4628
 7821SOL    HW129299   2.943   0.670   6.005  0.0793  0.4033 -0.2822
 7821SOL    HW229300   2.873   0.774   5.920 -0.1408  0.2851 -0.2455
 7822SOL     OW29301   1.934   7.648   8.007 -0.2434 -0.2048  0.1790
 7822SOL    HW129302   1.992   7.719   7.981  0.9449 -1.4497 -0.7090
 7822SOL    HW229303   1.890   7.621   7.926 -0.1837 -0.9177  0.3725
 7823SOL     OW29304   4.345   6.826   0.382  0.5925  0.3311  0.2545
 7823SOL    HW129305   4.411   6.884   0.420  0.1398 -0.1055  1.7551
 7823SOL    HW229306   4.395   6.770   0.322  1.8812 -0.9101  2.3717
 7824SOL     OW29307   8.740   8.674   9.015  0.1028  0.6217  0.2436
 7824SOL    HW129308   8.785   8.590   9.005  0.8097  0.8305  1.4802
 7824SOL    HW229309   8.667   8.654   9.073  0.2857  0.8705  0.5556
 7825SOL     OW29310   3.585   7.036   7.169 -0.1018 -0.0781 -0.1119
 7825SOL    HW129311   3.645   7.108   7.191 -0.4362  0.0410  0.4243
 7825SOL    HW229312   3.617   7.004   7.085  0.5674  0.1474  0.0455
 7826SOL     OW29313   5.013   6.018   6.286  0.6126  0.0515  0.6363
 7826SOL    HW129314   5.054   5.940   6.324 -1.9955 -0.0749  3.6039
 7826SOL    HW229315   4.925   5.989   6.261 -0.0712  1.7922  0.9027
 7827SOL     OW29316   6.835   7.819   7.745 -0.0309 -0.4011 -0.2811
 7827SOL    HW129317   6.803   7.794   7.831  0.0090 -0.6520 -0.3386
 7827SOL    HW229318   6.811   7.911   7.736  0.0881 -0.3369  0.0539
 7828SOL     OW29319   1.499   4.194   5.233 -0.0418 -0.0710 -0.1200
 7828SOL    HW129320   1.483   4.109   5.191 -0.2665  0.0983 -0.3747
 7828SOL    HW229321   1.419   4.211   5.283 -0.6916  0.7674 -1.3810
 7829SOL     OW29322   9.828   7.781   3.803 -0.0658 -0.3734  0.6033
 7829SOL    HW129323   9.812   7.738   3.719 -0.9785 -1.3634  1.2476
 7829SOL    HW229324   9.860   7.868   3.780  3.0110 -1.7126 -0.7724
 7830SOL     OW29325   5.085   0.464   1.498  0.4080  0.3416 -0.6274
 7830SOL    HW129326   5.124   0.461   1.585 -0.6141 -0.0650 -0.1778
 7830SOL    HW229327   5.152   0.427   1.440  0.5537 -0.6822  0.1828
 7831SOL     OW29328  10.680   4.934   3.629 -0.9148  0.5000  0.2061
 7831SOL    HW129329  10.667   4.930   3.724 -1.7511 -0.7635  0.0644
 7831SOL    HW229330  10.725   4.852   3.608  0.4705  1.3802 -0.3359
 7832SOL     OW29331   1.042   4.556   7.389  0.3594  0.3639 -0.2723
 7832SOL    HW129332   0.982   4.524   7.456 -1.0273 -0.7704 -1.9703
 7832SOL    HW229333   1.118   4.498   7.394  0.2671  0.2901  0.3053
 7833SOL     OW29334   4.234   7.595  10.461 -0.7404 -0.0008 -0.0673
 7833SOL    HW129335   4.307   7.646  10.495 -1.5490  0.8193  0.4649
 7833SOL    HW229336   4.194   7.555  10.539 -1.5188  0.4404 -0.2338
 7834SOL     OW29337   6.338   9.647   2.737  0.2953 -0.6785 -0.2119
 7834SOL    HW129338   6.351   9.737   2.765  0.0881 -1.4817  2.8067
 7834SOL    HW229339   6.397   9.636   2.662  1.0204  1.6720 -0.0567
 7835SOL     OW29340   1.851   2.795   2.089 -0.1173 -0.1048 -0.3347
 7835SOL    HW129341   1.842   2.743   2.009 -1.4784 -0.6046  0.1198
 7835SOL    HW229342   1.862   2.885   2.057  0.7119 -0.4565 -1.0933
 7836SOL     OW29343   5.434   7.301   8.468  0.1202 -0.3288 -0.1156
 7836SOL    HW129344   5.518   7.254   8.472 -0.3874 -1.1777  1.3526
 7836SOL    HW229345   5.447   7.378   8.523 -0.2551 -0.8306  0.6999
 7837SOL     OW29346   8.793   4.815   4.450  0.1833 -0.6020 -0.0862
 7837SOL    HW129347   8.832   4.765   4.522 -0.6356 -1.5831 -0.3030
 7837SOL    HW229348   8.800   4.758   4.374 -1.9299 -0.9796 -0.0671
 7838SOL     OW29349   0.169   4.262   9.570  0.1186  0.1715 -0.2076
 7838SOL    HW129350   0.120   4.242   9.650  0.4933 -0.5530 -0.1503
 7838SOL    HW229351   0.249   4.305   9.601  0.4972 -0.5584 -0.1470
 7839SOL     OW29352   5.251   9.873   4.052  0.4657 -0.3529 -0.2782
 7839SOL    HW129353   5.214   9.805   4.107 -0.3214  0.5276  0.3104
 7839SOL    HW229354   5.223   9.850   3.963 -2.9279  1.0728  0.2678
 7840SOL     OW29355   4.891   5.861   2.728 -0.0540 -0.3675 -0.3949
 7840SOL    HW129356   4.912   5.773   2.759 -0.8934 -1.0417 -1.6797
 7840SOL    HW229357   4.810   5.884   2.773 -0.1771 -0.5202 -0.5361
 7841SOL     OW29358   7.052   0.975   4.464  0.1161 -0.0039  0.1860
 7841SOL    HW129359   7.007   1.054   4.494 -2.3061 -1.1921 -0.0418
 7841SOL    HW229360   7.143   0.988   4.489 -0.7315  1.5619  2.8587
 7842SOL     OW29361  10.238   7.412   4.156 -0.5165 -0.5485 -0.1615
 7842SOL    HW129362  10.181   7.446   4.087 -0.3450  0.1530  0.0340
 7842SOL    HW229363  10.315   7.379   4.110 -0.3609  0.0058 -0.2962
 7843SOL     OW29364   7.967   8.085   6.345  1.1758  0.7078  0.1766
 7843SOL    HW129365   8.032   8.154   6.347  0.3931  1.5047 -0.8275
 7843SOL    HW229366   7.883   8.132   6.348  0.6347 -0.1895 -0.5835
 7844SOL     OW29367   6.989   0.261   9.564 -0.2540  0.2799 -0.9054
 7844SOL    HW129368   7.034   0.273   9.648  0.2668 -1.4632 -0.9047
 7844SOL    HW229369   6.938   0.180   9.575 -0.2408  0.0678 -2.2487
 7845SOL     OW29370   1.041   2.631   2.933 -0.6110 -0.1717  0.1358
 7845SOL    HW129371   1.084   2.597   2.855 -0.1455  0.1453  0.2502
 7845SOL    HW229372   0.986   2.703   2.901 -0.5696 -0.1661  0.0780
 7846SOL     OW29373   2.821   0.680   4.825  0.4014 -0.1141  0.2380
 7846SOL    HW129374   2.855   0.654   4.739  0.0396 -0.0873  0.0863
 7846SOL    HW229375   2.727   0.667   4.819  0.4436 -0.7643  0.8607
 7847SOL     OW29376  10.226   1.419   8.134 -0.4626 -0.0146 -0.0054
 7847SOL    HW129377  10.258   1.419   8.044 -2.0859 -0.9329 -0.6361
 7847SOL    HW229378  10.214   1.511   8.155 -1.1409  0.1855 -1.1588
 7848SOL     OW29379   7.032   4.735   1.588  0.1305  0.3181  0.5503
 7848SOL    HW129380   7.087   4.812   1.604 -0.1826  0.7919 -0.5714
 7848SOL    HW229381   7.061   4.702   1.503 -1.3182  0.5897 -0.0755
 7849SOL     OW29382   9.990   2.674   1.546  0.0744  0.1349  0.0938
 7849SOL    HW129383  10.018   2.605   1.607  1.8945  0.7016 -0.0465
 7849SOL    HW229384   9.911   2.711   1.586 -0.0583 -1.0136  0.9383
 7850SOL     OW29385   4.155   3.938   9.173 -0.2077 -0.3072  0.0696
 7850SOL    HW129386   4.089   3.899   9.116  2.1061 -3.0525 -0.9206
 7850SOL    HW229387   4.216   3.981   9.114 -0.1123  0.6655  0.8434
 7851SOL     OW29388   5.735   7.157   8.864  0.4246  0.4515  0.5365
 7851SOL    HW129389   5.803   7.102   8.904 -0.0598 -1.1133 -0.6970
 7851SOL    HW229390   5.675   7.177   8.937  0.5917 -0.7060  1.0150
 7852SOL     OW29391   1.792   8.614   4.109  0.2977  0.0876 -0.0581
 7852SOL    HW129392   1.814   8.572   4.025 -0.5189 -0.2862 -0.0974
 7852SOL    HW229393   1.812   8.548   4.175  0.8453  0.3461  0.0427
 7853SOL     OW29394   5.790  10.481   8.084  0.2325 -0.2156  0.1130
 7853SOL    HW129395   5.762  10.400   8.042 -0.4744  0.5365 -0.9354
 7853SOL    HW229396   5.776  10.549   8.018 -1.5805  1.1292  1.7377
 7854SOL     OW29397   7.352   0.526   1.930  0.2400  0.4287  0.4127
 7854SOL    HW129398   7.381   0.435   1.938  0.8603  0.7765  5.0520
 7854SOL    HW229399   7.257   0.522   1.944  0.0938  0.4346 -0.5353
 7855SOL     OW29400   1.965   8.384   6.235 -0.1252  0.7788  0.5439
 7855SOL    HW129401   2.045   8.399   6.286  1.1728 -2.5575 -0.2340
 7855SOL    HW229402   1.992   8.323   6.166 -3.3987 -0.7572  0.4441
 7856SOL     OW29403   8.763   2.756   2.915 -0.5078 -0.4260  0.8431
 7856SOL    HW129404   8.717   2.736   2.997 -1.5886 -2.5774 -0.2330
 7856SOL    HW229405   8.696   2.794   2.859 -0.8043 -2.6429 -0.3844
 7857SOL     OW29406   6.851   8.217   0.359 -0.2372 -0.8534 -0.2290
 7857SOL    HW129407   6.866   8.275   0.285  2.0201 -1.9097 -0.6981
 7857SOL    HW229408   6.771   8.169   0.336 -0.9354  0.5240 -0.8006
 7858SOL     OW29409   3.366   5.532   5.942 -0.0394 -0.0584 -0.0885
 7858SOL    HW129410   3.366   5.572   5.855  1.3854  1.4271  0.5379
 7858SOL    HW229411   3.302   5.582   5.992 -1.9570 -1.8420 -0.6005
 7859SOL     OW29412   5.333   8.278   6.660 -0.5367 -0.5063  0.0079
 7859SOL    HW129413   5.304   8.224   6.734  0.5159 -0.9906  0.0778
 7859SOL    HW229414   5.428   8.287   6.672 -0.7585  2.1118  0.5032
 7860SOL     OW29415  10.215   2.756   0.457 -0.5286  0.1638  0.3453
 7860SOL    HW129416  10.132   2.796   0.433 -1.0415  0.0477  1.7998
 7860SOL    HW229417  10.280   2.798   0.401 -1.7179 -0.8145 -1.8789
 7861SOL     OW29418   2.261   2.463   7.824  0.4329 -0.4690  0.2619
 7861SOL    HW129419   2.190   2.410   7.789 -0.6762  0.4610  1.0241
 7861SOL    HW229420   2.230   2.490   7.910  1.0185  1.2659 -0.0362
 7862SOL     OW29421   8.518   3.649   5.760  0.2202  0.3991 -0.0217
 7862SOL    HW129422   8.450   3.582   5.756 -1.2718  1.8920 -0.3396
 7862SOL    HW229423   8.592   3.605   5.803 -1.2166 -1.0001  1.1195
 7863SOL     OW29424   9.899   4.358   8.118  0.2935  1.1033  0.1215
 7863SOL    HW129425   9.814   4.389   8.149  0.4277  3.1432 -1.3403
 7863SOL    HW229426   9.888   4.263   8.111 -0.9750  0.9926  2.4584
 7864SOL     OW29427   4.766   3.533   0.231  0.1589 -0.0950 -0.3266
 7864SOL    HW129428   4.825   3.540   0.156 -2.3324  0.1695 -2.4005
 7864SOL    HW229429   4.716   3.614   0.230  0.6202  0.3148  2.2493
 7865SOL     OW29430   6.321   6.580   5.066  0.0888 -0.4978 -0.9602
 7865SOL    HW129431   6.416   6.579   5.052  0.3446 -1.7807  0.5618
 7865SOL    HW229432   6.289   6.507   5.011  0.1133 -0.6704 -0.7471
 7866SOL     OW29433   4.109   4.116   9.765 -0.4338 -0.3933  0.1071
 7866SOL    HW129434   4.072   4.180   9.705  0.6104 -0.0926 -0.2429
 7866SOL    HW229435   4.142   4.046   9.708 -1.4773 -1.2248  0.4759
 7867SOL     OW29436   5.663   0.890   4.756  0.5652  0.0081 -0.1698
 7867SOL    HW129437   5.624   0.968   4.716  1.3361  0.5060  0.0097
 7867SOL    HW229438   5.654   0.904   4.850 -0.3148 -0.6684 -0.1450
 7868SOL     OW29439   7.696   9.248   2.172 -0.6002  0.1103  0.2253
 7868SOL    HW129440   7.709   9.174   2.232 -1.2684  0.5642  0.9425
 7868SOL    HW229441   7.702   9.209   2.085 -0.3884 -0.6924  0.5835
 7869SOL     OW29442   0.438   5.257   4.252 -0.3362 -0.4785  0.3658
 7869SOL    HW129443   0.411   5.219   4.335  0.4237  0.1668  0.9243
 7869SOL    HW229444   0.451   5.181   4.195  0.4701 -1.0395  1.2518
 7870SOL     OW29445   3.935   9.931   8.912 -0.0123  0.2637 -0.0324
 7870SOL    HW129446   3.972   9.916   8.825 -0.5562 -1.1282 -0.0550
 7870SOL    HW229447   3.844   9.902   8.904  0.3278 -1.3520  1.3752
 7871SOL     OW29448   5.861   6.154   0.221 -0.6290  0.8602  0.1236
 7871SOL    HW129449   5.948   6.167   0.182  0.3710 -0.9306  1.5857
 7871SOL    HW229450   5.800   6.184   0.154  1.0974  1.2308 -1.3571
 7872SOL     OW29451   1.646   0.134   6.754  0.1969  0.1692  0.0861
 7872SOL    HW129452   1.625   0.203   6.817 -1.2987 -0.9899  0.9373
 7872SOL    HW229453   1.578   0.142   6.687 -1.4375 -1.8662  1.3939
 7873SOL     OW29454   6.729  10.476   8.527 -0.0022 -0.1496 -0.1844
 7873SOL    HW129455   6.808  10.467   8.580  0.6291  0.6123 -0.9633
 7873SOL    HW229456   6.703  10.568   8.539 -0.4767 -0.2634 -0.3254
 7874SOL     OW29457   6.889   3.591   3.096 -0.0938 -0.3704  0.1284
 7874SOL    HW129458   6.932   3.626   3.018  0.0960 -0.2041  0.3045
 7874SOL    HW229459   6.947   3.617   3.168  0.6635 -2.0329  0.1538
 7875SOL     OW29460   4.324   4.818   0.787  0.1707 -0.5767 -1.0265
 7875SOL    HW129461   4.332   4.726   0.762  0.7851 -0.8323  0.0118
 7875SOL    HW229462   4.308   4.864   0.705 -0.5409 -1.6520 -1.5158
 7876SOL     OW29463   6.933   0.064   7.197  0.2132 -0.1568 -0.0690
 7876SOL    HW129464   6.890   0.053   7.112  1.3096 -2.0733 -0.4438
 7876SOL    HW229465   6.907  -0.013   7.247  0.9379  0.0920  0.7116
 7877SOL     OW29466   9.994   0.092   8.272  0.0539  0.3949 -0.0570
 7877SOL    HW129467  10.048   0.099   8.193 -0.2905 -0.8355 -0.4212
 7877SOL    HW229468  10.051   0.124   8.342  0.5615  0.9664 -0.7117
 7878SOL     OW29469   3.727   5.027   0.141  0.6662  0.2699 -0.1759
 7878SOL    HW129470   3.738   5.067   0.055  1.0935 -1.2013 -0.8252
 7878SOL    HW229471   3.773   5.086   0.200  0.1068  1.4605 -0.8885
 7879SOL     OW29472   7.751   3.187   9.336  0.2712  0.9064 -0.6057
 7879SOL    HW129473   7.670   3.237   9.342  0.0971  0.7225 -1.3534
 7879SOL    HW229474   7.788   3.190   9.425 -0.7712  0.6198 -0.1526
 7880SOL     OW29475   0.074   0.983   0.297 -0.4521  0.6269 -0.2966
 7880SOL    HW129476   0.016   0.915   0.331 -0.8051  1.0687  0.0022
 7880SOL    HW229477   0.015   1.043   0.251 -0.3158  1.4056  0.5345
 7881SOL     OW29478   3.211   4.437   6.909 -0.3392 -0.0529  0.0348
 7881SOL    HW129479   3.147   4.367   6.925 -0.0727 -0.8908 -2.1723
 7881SOL    HW229480   3.198   4.461   6.817  1.6752  0.6353 -0.1276
 7882SOL     OW29481   5.658   3.750   9.249  0.1093  0.0889 -0.1460
 7882SOL    HW129482   5.693   3.825   9.296 -1.1575  0.3942  0.3492
 7882SOL    HW229483   5.702   3.674   9.288 -1.2537  0.2854  1.9186
 7883SOL     OW29484   8.950   6.604   9.380 -0.1235 -0.2421 -0.2577
 7883SOL    HW129485   8.917   6.668   9.443  0.2314 -1.0221  0.7512
 7883SOL    HW229486   8.872   6.556   9.352 -0.2048 -0.3010  0.0641
 7884SOL     OW29487   5.198   3.459   3.802 -0.6919 -0.8219  0.4646
 7884SOL    HW129488   5.244   3.505   3.731 -1.0989 -0.3569  0.4995
 7884SOL    HW229489   5.219   3.366   3.788 -1.1326 -0.7843 -0.5313
 7885SOL     OW29490   6.268   8.071   9.634 -0.3357  0.3122 -0.4301
 7885SOL    HW129491   6.225   7.986   9.642 -1.8515  1.1788  1.5326
 7885SOL    HW229492   6.207   8.124   9.584  1.6874 -0.3184 -3.8603
 7886SOL     OW29493   9.424   9.845   5.864 -0.0994 -0.0543 -0.0844
 7886SOL    HW129494   9.375   9.840   5.946 -1.1921 -0.2638 -0.7380
 7886SOL    HW229495   9.369   9.898   5.806 -0.1791 -1.3408 -1.2417
 7887SOL     OW29496   9.655  10.141   7.568 -0.2089  0.4555  0.1255
 7887SOL    HW129497   9.564  10.113   7.571 -0.3378  0.9429  1.8752
 7887SOL    HW229498   9.700  10.086   7.632  0.6698  0.4496 -0.4762
 7888SOL     OW29499  10.405  10.321   5.293 -0.1777  0.7832 -0.2845
 7888SOL    HW129500  10.400  10.366   5.208 -0.0361 -0.8610 -1.2086
 7888SOL    HW229501  10.486  10.354   5.332  0.8008  0.1491 -1.6814
 7889SOL     OW29502   6.897   8.428   4.398  0.0329  0.1141 -0.3953
 7889SOL    HW129503   6.911   8.338   4.429 -0.3298 -0.1340 -0.9431
 7889SOL    HW229504   6.913   8.424   4.304 -1.3552  0.3150 -0.6629
 7890SOL     OW29505   9.710   1.273  10.363 -0.0711  0.2414  0.0393
 7890SOL    HW129506   9.689   1.252  10.454  1.1443 -0.2331  0.2271
 7890SOL    HW229507   9.625   1.281  10.320 -0.6475 -0.4360  1.0125
 7891SOL     OW29508   1.036  10.020  10.563  0.0895  0.1844 -0.2935
 7891SOL    HW129509   0.985   9.942  10.540  0.5501  0.0497 -0.8727
 7891SOL    HW229510   1.083  10.043  10.482  0.3776  0.7414  0.0270
 7892SOL     OW29511   7.122   8.209   6.296 -0.6864  0.0279  0.0616
 7892SOL    HW129512   7.184   8.263   6.246 -0.3393  0.8020  1.2677
 7892SOL    HW229513   7.146   8.119   6.275  0.3036  0.3304 -0.1649
 7893SOL     OW29514   2.381  10.159   3.821 -0.0527 -0.9716  0.3004
 7893SOL    HW129515   2.410  10.068   3.813  0.6878 -0.8058  0.9398
 7893SOL    HW229516   2.301  10.154   3.872  1.0653 -1.1221  2.1189
 7894SOL     OW29517   6.238   3.927   1.486  0.0194  0.2497 -0.2266
 7894SOL    HW129518   6.155   3.908   1.443 -0.4424 -0.2202  0.8485
 7894SOL    HW229519   6.284   3.843   1.487 -0.5164 -0.0597  1.3183
 7895SOL     OW29520  10.358   3.957   7.032  0.2059  0.3381 -0.7364
 7895SOL    HW129521  10.321   4.003   7.107 -0.4708  2.0764 -2.0630
 7895SOL    HW229522  10.452   3.972   7.038  0.0434  1.4897 -0.8627
 7896SOL     OW29523   1.709   7.686   3.306 -0.2198  0.7401  0.3220
 7896SOL    HW129524   1.686   7.609   3.358  1.0227  0.3468  0.3169
 7896SOL    HW229525   1.689   7.761   3.363 -0.8619  0.3950  0.5547
 7897SOL     OW29526   5.882   1.858   9.666 -0.0268  0.0718 -0.0086
 7897SOL    HW129527   5.885   1.865   9.762 -0.9146 -0.2642  0.0567
 7897SOL    HW229528   5.974   1.855   9.639  0.2407 -0.9537  0.9215
 7898SOL     OW29529   2.099   4.976   2.869 -0.7065  0.2107 -0.1424
 7898SOL    HW129530   2.173   5.033   2.849  1.2500 -0.8788  3.1992
 7898SOL    HW229531   2.125   4.890   2.838 -2.2674  0.4144 -2.2470
 7899SOL     OW29532   5.619   9.043   4.017 -0.0205  0.1769  0.0942
 7899SOL    HW129533   5.689   8.978   4.019 -0.3735 -0.2033  1.5300
 7899SOL    HW229534   5.654   9.118   4.066 -0.7791 -0.2176  1.2764
 7900SOL     OW29535   3.573  10.286   1.560  0.0364  0.2660 -0.2123
 7900SOL    HW129536   3.597  10.205   1.516 -0.3758 -0.5693  1.0403
 7900SOL    HW229537   3.640  10.349   1.532  0.8020 -0.6974 -0.6330
 7901SOL     OW29538   0.117   2.256  10.300  0.3726  0.3882 -0.0654
 7901SOL    HW129539   0.136   2.167  10.272  2.3224  0.7219  0.0181
 7901SOL    HW229540   0.033   2.250  10.345  0.7639 -1.5175  0.4911
 7902SOL     OW29541   3.082   1.039   3.744 -0.3233 -0.0688 -0.4982
 7902SOL    HW129542   3.175   1.035   3.723 -0.4850 -1.6418 -1.0286
 7902SOL    HW229543   3.056   1.129   3.722  1.9743  1.9815  3.8333
 7903SOL     OW29544   6.047  10.600   5.474  0.1321  0.0851  0.1980
 7903SOL    HW129545   6.116  10.536   5.454 -0.7771 -0.4050 -1.5408
 7903SOL    HW229546   6.039  10.652   5.394 -0.8477  0.7757  0.7283
 7904SOL     OW29547   5.595   3.480   3.905  0.2575  0.1388  0.2366
 7904SOL    HW129548   5.679   3.496   3.949 -0.4929  0.1507  1.7390
 7904SOL    HW229549   5.617   3.472   3.812  1.8784  0.4147  0.5730
 7905SOL     OW29550   5.622   9.958   4.126 -0.0994  0.0119  0.1376
 7905SOL    HW129551   5.695  10.012   4.097 -0.6397  0.4690 -0.4170
 7905SOL    HW229552   5.658   9.903   4.196  0.6891  0.4386  0.0752
 7906SOL     OW29553   0.297   9.095   9.398 -0.2918  0.2638 -0.3052
 7906SOL    HW129554   0.226   9.156   9.375  1.9006  2.2188 -2.4468
 7906SOL    HW229555   0.273   9.013   9.354 -2.2050  0.1592  0.8031
 7907SOL     OW29556   4.082   0.464   3.159 -0.6041  0.2213  0.5684
 7907SOL    HW129557   4.057   0.400   3.226 -0.5452 -0.0921  0.2950
 7907SOL    HW229558   4.146   0.417   3.105 -1.9906 -0.1539 -0.7901
 7908SOL     OW29559   4.673  10.416  10.674  0.1313  0.5068  0.5299
 7908SOL    HW129560   4.683  10.323  10.693  0.0083  0.6860  1.5094
 7908SOL    HW229561   4.683  10.422  10.579 -1.0083 -0.6510  0.3094
 7909SOL     OW29562   3.784   0.300  10.612  0.1523 -0.5648  0.5947
 7909SOL    HW129563   3.859   0.358  10.605 -1.3947  1.3884 -1.3074
 7909SOL    HW229564   3.806   0.224  10.557  0.7832 -0.0899  0.1864
 7910SOL     OW29565   6.724   0.991   7.493  0.2785 -0.0205 -0.5332
 7910SOL    HW129566   6.793   1.026   7.437  2.0856  1.5011  2.4014
 7910SOL    HW229567   6.668   1.066   7.512  0.5817 -0.0999  0.8085
 7911SOL     OW29568   2.275   8.009   2.208  0.2169 -0.4671  0.1235
 7911SOL    HW129569   2.286   8.065   2.285 -2.1059  0.1125  0.0936
 7911SOL    HW229570   2.304   8.064   2.134  0.0411 -0.0960  0.3283
 7912SOL     OW29571   6.365   9.936   2.865  0.3776  0.2109 -0.5318
 7912SOL    HW129572   6.408  10.019   2.887  2.3360 -0.3706 -1.8908
 7912SOL    HW229573   6.384   9.880   2.940  0.1922  0.5746 -0.2050
 7913SOL     OW29574   6.671   5.857   2.304 -0.0589 -0.3317  0.0111
 7913SOL    HW129575   6.634   5.773   2.332  0.5969 -0.1615  1.4517
 7913SOL    HW229576   6.740   5.875   2.367  0.0972  1.0993 -0.5388
 7914SOL     OW29577   2.281   2.908   1.580 -0.0521  0.4786  0.4435
 7914SOL    HW129578   2.265   2.821   1.544 -0.2343  1.5717 -2.3950
 7914SOL    HW229579   2.244   2.905   1.668 -0.1921 -2.2309  0.3671
 7915SOL     OW29580   1.822   1.606   3.220  0.2032 -0.3325  0.3175
 7915SOL    HW129581   1.748   1.662   3.197  0.1339 -0.7430 -0.5273
 7915SOL    HW229582   1.789   1.517   3.207  1.5792 -0.5250 -2.6678
 7916SOL     OW29583   4.579  10.595   0.690  0.3774 -0.1452  0.5643
 7916SOL    HW129584   4.572  10.679   0.736  0.5656  1.0236 -1.4502
 7916SOL    HW229585   4.515  10.601   0.619 -1.2197 -2.6306  1.6343
 7917SOL     OW29586   6.549   5.458   7.975 -0.2594 -0.1273  0.3636
 7917SOL    HW129587   6.519   5.478   8.064  2.1414  0.0814  1.1840
 7917SOL    HW229588   6.468   5.454   7.923 -2.0059 -2.5776  2.9535
 7918SOL     OW29589   3.046   1.130   6.245  0.0392 -0.7715  0.1415
 7918SOL    HW129590   3.059   1.209   6.295  1.2394 -0.3114 -0.8500
 7918SOL    HW229591   3.088   1.147   6.160 -2.6399 -1.1594 -1.3994
 7919SOL     OW29592   1.494   4.547   3.751  0.2209 -0.5710  0.5615
 7919SOL    HW129593   1.398   4.545   3.755  0.1435  1.4408  0.7612
 7919SOL    HW229594   1.521   4.456   3.766 -1.7049 -1.7335 -2.1839
 7920SOL     OW29595   3.993   4.302   8.828  0.2215 -0.0969 -0.0091
 7920SOL    HW129596   3.998   4.229   8.766  0.4840 -1.4742  1.5643
 7920SOL    HW229597   3.899   4.317   8.841  0.1516  0.6865 -1.2328
 7921SOL     OW29598   9.047   2.283   2.999  0.0198  0.1867 -0.1209
 7921SOL    HW129599   9.073   2.326   2.917 -1.1220  1.3331  0.1013
 7921SOL    HW229600   8.973   2.228   2.974  1.5692 -1.8961 -0.4394
 7922SOL     OW29601   2.102   5.907   3.209  0.1798  0.1507 -0.3375
 7922SOL    HW129602   2.187   5.934   3.243 -0.2351 -0.6266  1.4076
 7922SOL    HW229603   2.070   5.844   3.273 -1.7075  0.4122 -0.9854
 7923SOL     OW29604   9.452  10.309   0.048  0.2698 -0.0176  0.0782
 7923SOL    HW129605   9.546  10.324   0.036  0.1489  3.3927  1.9787
 7923SOL    HW229606   9.439  10.317   0.142 -2.0710  0.7606 -0.2568
 7924SOL     OW29607   7.787   6.546   7.727 -0.1165 -0.0513  0.2730
 7924SOL    HW129608   7.725   6.581   7.663 -0.2198 -1.4974 -0.4701
 7924SOL    HW229609   7.741   6.471   7.766  1.1789 -1.2339 -0.3894
 7925SOL     OW29610   8.109   3.553   1.974 -0.6702  0.1214  0.6113
 7925SOL    HW129611   8.161   3.623   2.012  1.9238 -2.6006  2.5286
 7925SOL    HW229612   8.155   3.528   1.894 -0.8997 -0.1524  0.5594
 7926SOL     OW29613   8.500   2.879   7.107  0.2733  0.6773  0.5946
 7926SOL    HW129614   8.549   2.832   7.040 -2.0581  1.5559 -1.9245
 7926SOL    HW229615   8.516   2.972   7.089 -0.4924  0.9382  1.1783
 7927SOL     OW29616   8.255   6.943   8.027  0.8814  0.3371  0.3455
 7927SOL    HW129617   8.236   6.924   8.119  0.2543 -1.3654 -0.0800
 7927SOL    HW229618   8.168   6.955   7.987  1.0070 -1.0471 -0.3996
 7928SOL     OW29619   6.116   2.260   8.325  0.8209  0.0057 -0.8267
 7928SOL    HW129620   6.024   2.286   8.316 -0.1423 -1.5955  2.8358
 7928SOL    HW229621   6.162   2.342   8.343 -0.6500  0.3874  1.5260
 7929SOL     OW29622   9.535  10.636   2.879 -0.3392 -0.3576 -0.8670
 7929SOL    HW129623   9.475  10.562   2.876 -0.3231 -0.3609 -1.1094
 7929SOL    HW229624   9.479  10.713   2.870 -0.7277 -0.1400  2.2847
 7930SOL     OW29625   0.871   1.297   1.099 -0.1823 -0.2253 -0.2386
 7930SOL    HW129626   0.944   1.358   1.092 -0.7845  0.3962 -1.4297
 7930SOL    HW229627   0.801   1.347   1.141 -0.8690  0.1233 -1.7418
 7931SOL     OW29628   9.327   8.351   3.876 -0.1066 -0.5559  0.2778
 7931SOL    HW129629   9.310   8.316   3.963  0.9824  0.3859  0.8945
 7931SOL    HW229630   9.292   8.285   3.816 -3.1903 -0.0965  1.3776
 7932SOL     OW29631   0.616   2.903   1.260  0.0191  0.3371 -0.7698
 7932SOL    HW129632   0.530   2.873   1.230 -0.2359  2.0856 -1.9430
 7932SOL    HW229633   0.603   2.925   1.352 -0.7655  0.4870 -0.9078
 7933SOL     OW29634   7.862   8.642   3.896 -0.2415  0.0060  0.9613
 7933SOL    HW129635   7.840   8.639   3.989 -0.6015  0.6041  0.9065
 7933SOL    HW229636   7.926   8.573   3.884  0.8487  0.8022  1.9328
 7934SOL     OW29637   8.055   5.343   1.949  0.0173  0.1521  0.0782
 7934SOL    HW129638   8.033   5.277   1.884 -0.9516  0.3529  0.1789
 7934SOL    HW229639   7.975   5.395   1.958  0.7749  1.3939 -0.0565
 7935SOL     OW29640   6.704   5.426   3.508  0.2338 -0.0577  0.7022
 7935SOL    HW129641   6.785   5.403   3.553  0.6093 -1.1300 -0.4406
 7935SOL    HW229642   6.725   5.415   3.415 -1.3009 -0.6169  0.4012
 7936SOL     OW29643   6.918   5.719   4.253  0.3573  0.3100 -0.3034
 7936SOL    HW129644   6.914   5.665   4.332  0.5144  2.1102  1.0008
 7936SOL    HW229645   6.938   5.658   4.183  1.0915 -1.2318  1.1831
 7937SOL     OW29646   2.184   2.246   0.994  0.0426 -0.5772 -0.3960
 7937SOL    HW129647   2.146   2.211   0.914 -2.2207  0.0333  0.3232
 7937SOL    HW229648   2.177   2.175   1.058 -0.1716 -0.3639 -0.1779
 7938SOL     OW29649   6.944   4.600   5.767 -0.9659  0.4454  0.7400
 7938SOL    HW129650   6.849   4.604   5.754 -0.8119  1.0565 -0.3469
 7938SOL    HW229651   6.974   4.537   5.702 -0.4646  1.4744 -0.0656
 7939SOL     OW29652   3.267  10.643   7.195 -0.3725 -0.4223  0.2968
 7939SOL    HW129653   3.191  10.586   7.198 -1.1017  0.5736  1.8370
 7939SOL    HW229654   3.231  10.732   7.194  0.7413  0.0697 -1.4597
 7940SOL     OW29655   2.674   7.330   6.315  0.4534  0.4621  0.5202
 7940SOL    HW129656   2.687   7.250   6.264  2.2781 -0.8991  2.8561
 7940SOL    HW229657   2.758   7.375   6.311  0.5357  0.4919  1.9408
 7941SOL     OW29658   9.122   4.667   3.910  0.1354  0.3049 -0.2068
 7941SOL    HW129659   9.182   4.694   3.840 -0.1724  1.6893  0.0378
 7941SOL    HW229660   9.141   4.726   3.982 -0.2363 -0.4728  0.5513
 7942SOL     OW29661   3.309  10.655   3.651  0.3375 -0.0273  0.6554
 7942SOL    HW129662   3.273  10.740   3.626 -0.1532 -0.4731 -0.2096
 7942SOL    HW229663   3.268  10.635   3.736  0.7792  0.7770  1.0665
 7943SOL     OW29664   6.854   2.569   1.515  0.1070  0.1834 -0.5497
 7943SOL    HW129665   6.869   2.582   1.422 -2.1141 -0.5105 -1.0900
 7943SOL    HW229666   6.857   2.473   1.526 -0.5700  0.2049 -0.1159
 7944SOL     OW29667   4.578   1.223   6.634 -0.4634 -0.5501 -0.2887
 7944SOL    HW129668   4.647   1.161   6.660 -1.4343 -1.5762 -0.1189
 7944SOL    HW229669   4.543   1.187   6.553  0.3202  0.8914 -1.3183
 7945SOL     OW29670   7.666   8.000   4.835  0.3118 -0.0955  0.0287
 7945SOL    HW129671   7.601   7.981   4.903  1.3988 -1.4284  0.7527
 7945SOL    HW229672   7.692   7.913   4.802  0.7633  0.4750 -1.1703
 7946SOL     OW29673   3.084   4.646   3.076  0.2816 -0.2779  0.7059
 7946SOL    HW129674   3.027   4.722   3.086  0.5683 -0.0441  0.5693
 7946SOL    HW229675   3.129   4.638   3.160 -0.2085 -0.6769  0.9381
 7947SOL     OW29676   9.302   3.837   9.231  0.1461 -0.1637  0.1388
 7947SOL    HW129677   9.363   3.891   9.280  0.9634 -1.8523  1.0682
 7947SOL    HW229678   9.358   3.782   9.176 -0.4999 -1.6531  0.9159
 7948SOL     OW29679   7.520   1.346   3.957  0.0743 -0.0363 -0.1657
 7948SOL    HW129680   7.529   1.306   3.870 -1.3391  0.2521 -0.4755
 7948SOL    HW229681   7.485   1.275   4.012 -1.1708  0.3723 -0.3965
 7949SOL     OW29682   9.412   9.069   3.103  0.0322 -0.2114 -0.0220
 7949SOL    HW129683   9.465   9.050   3.025  0.7881 -0.8022  0.6155
 7949SOL    HW229684   9.355   9.141   3.076  0.0395 -0.6268 -1.2225
 7950SOL     OW29685  10.312   8.796   7.449 -0.4256 -0.4138  0.2206
 7950SOL    HW129686  10.301   8.733   7.377  0.3249  0.0647 -0.3233
 7950SOL    HW229687  10.351   8.745   7.520  1.2249 -0.3369 -0.5983
 7951SOL     OW29688   9.798   4.552   7.729  0.1610 -0.1135  0.6867
 7951SOL    HW129689   9.717   4.506   7.706 -0.5022  0.1440  2.3803
 7951SOL    HW229690   9.856   4.483   7.762  0.3852 -0.1917  0.1438
 7952SOL     OW29691   1.899  10.658   6.012 -0.2726  0.2184  0.7812
 7952SOL    HW129692   1.973  10.602   5.989  1.0241  1.2808  2.1971
 7952SOL    HW229693   1.936  10.746   6.018 -1.5476  0.7138  1.9144
 7953SOL     OW29694   7.547   9.842   4.344  0.1593  0.0636 -0.2561
 7953SOL    HW129695   7.560   9.786   4.420 -0.1820 -0.0712 -0.2945
 7953SOL    HW229696   7.536   9.782   4.271 -0.7533  0.1541 -0.2119
 7954SOL     OW29697   8.371   7.513   8.272  0.2158 -0.1171  0.4173
 7954SOL    HW129698   8.436   7.528   8.340  1.6394 -1.2380 -0.6244
 7954SOL    HW229699   8.384   7.586   8.210  0.8428 -0.5968 -0.0312
 7955SOL     OW29700   3.935   3.592   8.431 -0.0528 -0.5096  0.2261
 7955SOL    HW129701   3.970   3.622   8.515 -1.8574  1.8804  0.2444
 7955SOL    HW229702   3.875   3.521   8.454 -0.5673  0.1514  1.0026
 7956SOL     OW29703   2.751   2.852   6.311 -0.0039 -0.5092 -0.3148
 7956SOL    HW129704   2.846   2.860   6.302  0.0818 -1.2784 -0.1212
 7956SOL    HW229705   2.732   2.887   6.398  0.0934 -0.3096 -0.3728
 7957SOL     OW29706   8.381   0.949   8.014 -0.2000 -0.1200 -0.8170
 7957SOL    HW129707   8.403   1.011   7.945 -0.6694  1.9179  0.7624
 7957SOL    HW229708   8.448   0.880   8.007  0.9734  1.0868 -1.9692
 7958SOL     OW29709   1.121   2.577   5.861 -0.0187  0.0531  0.2505
 7958SOL    HW129710   1.169   2.511   5.811 -0.5864 -0.6636  0.6435
 7958SOL    HW229711   1.093   2.532   5.941  1.2226  1.2770  1.4412
 7959SOL     OW29712   1.225   0.856   7.344  0.4368 -0.0803 -0.3741
 7959SOL    HW129713   1.305   0.904   7.366 -1.0045  1.1563  2.7723
 7959SOL    HW229714   1.161   0.924   7.325 -0.7203 -0.8444  0.6451
 7960SOL     OW29715   4.919   9.844   4.086  0.3032  0.3455 -0.2686
 7960SOL    HW129716   4.855   9.862   4.017  1.8592 -0.1086 -1.8989
 7960SOL    HW229717   4.963   9.928   4.100  0.8024  0.1602 -0.7061
 7961SOL     OW29718   7.274   7.850   7.763  0.5466 -0.3718  0.2868
 7961SOL    HW129719   7.338   7.794   7.807  1.5211 -1.3567 -2.1946
 7961SOL    HW229720   7.321   7.932   7.746  0.4069 -0.2524  0.4774
 7962SOL     OW29721   8.165   1.485   8.672 -0.2452 -0.0894 -0.1154
 7962SOL    HW129722   8.131   1.507   8.585  0.5548 -0.8046 -0.6220
 7962SOL    HW229723   8.239   1.427   8.655 -1.6467 -2.3639  1.1104
 7963SOL     OW29724   2.756   1.948   2.421 -0.2234  0.4441  0.3202
 7963SOL    HW129725   2.748   2.042   2.408  0.1028  0.6127  1.2708
 7963SOL    HW229726   2.667   1.915   2.408 -0.1334  0.7026 -1.2008
 7964SOL     OW29727  10.384   4.812   9.842  0.3864 -0.0441 -0.0750
 7964SOL    HW129728  10.451   4.876   9.822  0.7061 -0.4467 -0.3087
 7964SOL    HW229729  10.363   4.771   9.758  1.1820 -1.2057  0.2694
 7965SOL     OW29730   0.855   0.971   4.478 -0.0264  0.1715  0.7149
 7965SOL    HW129731   0.781   0.913   4.461  0.0818  0.1235  0.3873
 7965SOL    HW229732   0.823   1.033   4.544 -0.3411  0.1196  0.6126
 7966SOL     OW29733   7.835   7.975   2.664 -0.0404  0.1461  0.5430
 7966SOL    HW129734   7.843   7.920   2.742 -3.0577  0.7524  1.4526
 7966SOL    HW229735   7.752   8.022   2.677 -1.1744 -0.3577 -3.4256
 7967SOL     OW29736   9.731   8.408   0.155 -0.2643 -0.5209 -0.3726
 7967SOL    HW129737   9.725   8.492   0.201 -0.0315  0.0600 -1.3799
 7967SOL    HW229738   9.653   8.360   0.183  0.1138 -0.3876  1.0029
 7968SOL     OW29739   9.045   4.717   2.431 -0.5961 -0.1213  0.1300
 7968SOL    HW129740   8.971   4.722   2.491  0.6461  0.1321  1.7289
 7968SOL    HW229741   9.122   4.729   2.487  0.6104  0.9071 -1.6343
 7969SOL     OW29742   1.876   3.172   9.663 -0.3639 -1.0656 -0.6451
 7969SOL    HW129743   1.918   3.191   9.579 -0.2492  0.1145 -0.3421
 7969SOL    HW229744   1.837   3.085   9.652  0.1213 -1.1550 -1.7281
 7970SOL     OW29745   2.177   0.967   9.717  0.3102  0.0361  0.1783
 7970SOL    HW129746   2.168   0.885   9.766 -0.7390  0.2844  0.4427
 7970SOL    HW229747   2.205   1.031   9.783 -0.8004  0.3025  0.4193
 7971SOL     OW29748   2.768   9.748   2.999  0.3751 -0.1175  0.0037
 7971SOL    HW129749   2.679   9.724   3.024  0.2071  0.7571  0.2790
 7971SOL    HW229750   2.788   9.825   3.052  1.6764 -0.8958  0.6773
 7972SOL     OW29751  10.501   5.160   2.539  0.4879  0.4743  0.3301
 7972SOL    HW129752  10.546   5.220   2.598  0.8949  1.8144 -1.2606
 7972SOL    HW229753  10.450   5.103   2.596  2.5807  0.2350  2.0841
 7973SOL     OW29754  10.387   0.441   0.867 -0.3647 -0.3042  0.3323
 7973SOL    HW129755  10.388   0.374   0.935 -0.3847 -1.6527 -0.9572
 7973SOL    HW229756  10.320   0.411   0.805  0.6837  0.1151 -1.0378
 7974SOL     OW29757   8.369   6.744   4.650  0.5568 -0.2527  0.6804
 7974SOL    HW129758   8.404   6.739   4.739  2.1034 -0.5242  0.0892
 7974SOL    HW229759   8.437   6.705   4.596 -0.6471 -0.7099 -0.5613
 7975SOL     OW29760   6.885   3.887   0.664 -0.3071  0.6613  0.5912
 7975SOL    HW129761   6.955   3.951   0.677 -1.2027  1.7532  0.2093
 7975SOL    HW229762   6.834   3.890   0.746 -0.7669  0.9878  0.3007
 7976SOL     OW29763   6.338   8.028  10.117 -0.3264  0.0082  0.4957
 7976SOL    HW129764   6.264   8.011  10.058 -0.8706  2.0539  0.5170
 7976SOL    HW229765   6.405   8.068  10.061  0.2695 -0.6475  0.7287
 7977SOL     OW29766   2.111   1.325   9.897 -0.2417  0.0799 -0.6094
 7977SOL    HW129767   2.025   1.364   9.914  0.0395  0.6095 -0.3852
 7977SOL    HW229768   2.117   1.253   9.959 -0.3447  0.3111 -0.3306
 7978SOL     OW29769   8.935   6.488   9.883  0.3103 -0.1384  0.1256
 7978SOL    HW129770   9.020   6.493   9.927  1.2312 -1.7348 -1.3246
 7978SOL    HW229771   8.915   6.394   9.880 -1.7334  0.2336  0.7929
 7979SOL     OW29772   3.742   8.118   5.731 -0.3030  0.2198  0.0434
 7979SOL    HW129773   3.735   8.027   5.704  0.2622 -0.2598  1.4008
 7979SOL    HW229774   3.746   8.167   5.649  0.7687 -1.0923 -0.7439
 7980SOL     OW29775   0.881   6.575   9.379 -0.1585 -0.6810 -0.1895
 7980SOL    HW129776   0.896   6.540   9.467 -0.7711 -3.0999 -0.9703
 7980SOL    HW229777   0.939   6.525   9.322 -0.6783 -0.0491 -1.3265
 7981SOL     OW29778   8.742   1.988  10.566 -0.0462  0.2563  0.2675
 7981SOL    HW129779   8.754   2.056  10.498 -1.4954  0.9222  0.6446
 7981SOL    HW229780   8.830   1.973  10.599  0.4507  1.2421 -0.5201
 7982SOL     OW29781   7.852   9.236   8.071 -0.3286  0.1120  0.8296
 7982SOL    HW129782   7.898   9.172   8.126 -0.3984 -0.5168  0.1744
 7982SOL    HW229783   7.899   9.233   7.988 -2.3354 -1.5420 -0.3327
 7983SOL     OW29784   5.362   5.812  10.493 -0.0396 -0.3792 -0.6286
 7983SOL    HW129785   5.439   5.767  10.528 -0.5179 -0.3389  0.5011
 7983SOL    HW229786   5.314   5.745  10.446  0.0062 -0.7153 -0.2015
 7984SOL     OW29787   6.740   6.416   0.298  0.4223  0.0978  0.5598
 7984SOL    HW129788   6.774   6.426   0.209  0.4840  2.1794  0.7707
 7984SOL    HW229789   6.817   6.426   0.354  0.0918  0.7709  0.9034
 7985SOL     OW29790   5.385   6.490   0.126  0.1540 -0.5441  0.1448
 7985SOL    HW129791   5.431   6.519   0.047  1.0367  0.2850  0.9337
 7985SOL    HW229792   5.305   6.543   0.128 -0.2994 -1.1786 -0.6285
 7986SOL     OW29793   5.467   6.790   1.520  0.4847 -0.5532  0.0156
 7986SOL    HW129794   5.558   6.805   1.549  0.2302  0.5969  0.2902
 7986SOL    HW229795   5.451   6.859   1.455 -0.2909 -0.5496  0.2022
 7987SOL     OW29796   6.502   3.409   4.049  0.8944  0.8039  0.0662
 7987SOL    HW129797   6.547   3.449   4.122  1.5893  1.3571 -0.6510
 7987SOL    HW229798   6.526   3.462   3.973  0.3383  0.1379 -0.5999
 7988SOL     OW29799   8.565   3.538   9.400  0.6594 -0.1974 -0.1393
 7988SOL    HW129800   8.621   3.533   9.477  0.3677 -0.0843  0.0811
 7988SOL    HW229801   8.544   3.631   9.392  0.0021 -0.3129  0.1422
 7989SOL     OW29802   6.436   0.856   4.203 -0.0986 -0.4691  0.1244
 7989SOL    HW129803   6.393   0.890   4.282  0.3425  1.0508 -0.2525
 7989SOL    HW229804   6.373   0.873   4.133  0.2173 -0.2293 -0.1033
 7990SOL     OW29805   6.220   1.370  10.180  0.5373  0.0255  0.4079
 7990SOL    HW129806   6.218   1.463  10.157  1.6870  0.0578  0.3459
 7990SOL    HW229807   6.143   1.333  10.139 -2.0266  1.5797  3.3608
 7991SOL     OW29808   9.717   4.799   9.086 -0.5450  0.1625  1.2648
 7991SOL    HW129809   9.661   4.858   9.136  0.0180  0.6577  1.3329
 7991SOL    HW229810   9.744   4.851   9.010  0.8628  0.4069  1.8975
 7992SOL     OW29811   2.495   0.825   6.530 -0.3246 -0.4527  0.3523
 7992SOL    HW129812   2.529   0.897   6.583 -0.3620  0.1946 -0.4796
 7992SOL    HW229813   2.483   0.753   6.592 -0.2224  0.2322  1.1850
 7993SOL     OW29814   7.704   0.948   8.097  0.4209 -0.1684  0.2622
 7993SOL    HW129815   7.620   0.964   8.140  1.5666 -1.3722  3.2544
 7993SOL    HW229816   7.733   1.034   8.068 -1.9707  0.2076 -1.2043
 7994SOL     OW29817   0.972   4.357   2.598  0.1160 -0.3926 -0.1681
 7994SOL    HW129818   0.891   4.312   2.623  0.6846 -2.0729 -1.1779
 7994SOL    HW229819   0.953   4.395   2.512  0.6725 -1.6595 -0.8777
 7995SOL     OW29820   9.878   9.790   4.668 -1.0948  0.4154  0.1402
 7995SOL    HW129821   9.795   9.764   4.708 -1.0904 -2.0216 -1.2565
 7995SOL    HW229822   9.940   9.723   4.696  0.8018  2.7590  2.0796
 7996SOL     OW29823   0.612   1.670  10.070  0.0388  0.5071 -0.0413
 7996SOL    HW129824   0.694   1.715  10.050  0.8396 -0.9963 -0.2348
 7996SOL    HW229825   0.551   1.701  10.004  0.7020  0.9692 -0.4505
 7997SOL     OW29826   6.005   0.536   0.147 -0.1218 -0.5782 -0.0707
 7997SOL    HW129827   6.036   0.558   0.235  0.7924  1.1124 -0.7727
 7997SOL    HW229828   6.082   0.500   0.103 -0.1534  0.0251 -0.6391
 7998SOL     OW29829   5.882   0.468   3.482  0.2389 -0.3974  0.1673
 7998SOL    HW129830   5.948   0.440   3.545 -2.3286  1.9797  4.3600
 7998SOL    HW229831   5.811   0.405   3.491 -0.0871 -0.1344 -0.5100
 7999SOL     OW29832   8.315  10.447   7.042 -0.2184 -0.6326 -0.1119
 7999SOL    HW129833   8.341  10.473   7.131 -0.2945  0.5256 -0.4028
 7999SOL    HW229834   8.258  10.518   7.012  0.4134 -0.6205 -1.3618
 8000SOL     OW29835   3.330   8.588   4.525  0.0888  0.1546 -0.7027
 8000SOL    HW129836   3.414   8.632   4.539 -0.7773  1.3786  1.0030
 8000SOL    HW229837   3.350   8.495   4.535  1.2954  0.3957 -0.6753
 8001SOL     OW29838   7.739   8.591   3.634 -0.2746  0.1272 -0.1581
 8001SOL    HW129839   7.749   8.616   3.725 -0.5798  1.3857 -0.4556
 8001SOL    HW229840   7.823   8.614   3.594 -0.4807  0.4925 -0.3878
 8002SOL     OW29841   7.966  10.310   4.368 -0.0247 -0.4677 -0.3863
 8002SOL    HW129842   8.057  10.281   4.371 -0.1346 -0.9637 -1.4511
 8002SOL    HW229843   7.952  10.335   4.276 -0.3833  1.5195  0.1614
 8003SOL     OW29844   2.221   8.280   8.030 -0.0936  0.1654 -0.4409
 8003SOL    HW129845   2.283   8.223   7.985  0.2666  1.6374 -1.8991
 8003SOL    HW229846   2.276   8.343   8.077 -0.4867 -0.4506  0.8859
 8004SOL     OW29847   9.969   0.359   4.407 -0.0640  0.2390  0.0009
 8004SOL    HW129848   9.919   0.277   4.410  0.8182 -0.3469 -0.6688
 8004SOL    HW229849   9.953   0.400   4.492 -0.1951 -0.8295  0.5096
 8005SOL     OW29850   9.728   4.039   9.430 -0.0361 -0.5054  0.1446
 8005SOL    HW129851   9.791   4.080   9.371 -0.5705  1.5035  0.8727
 8005SOL    HW229852   9.748   3.946   9.427  1.3271 -0.1965 -1.5399
 8006SOL     OW29853   8.523   4.215   6.004  0.0184  0.1688  0.0598
 8006SOL    HW129854   8.541   4.192   6.095 -0.4287 -1.1691 -0.1717
 8006SOL    HW229855   8.428   4.226   6.000  0.0577  0.4050 -0.2010
 8007SOL     OW29856   7.248   5.743   5.055 -0.0743  0.4394  0.0029
 8007SOL    HW129857   7.252   5.709   4.966 -0.5603 -0.4532  0.3054
 8007SOL    HW229858   7.226   5.667   5.109  0.5989  0.8840  0.9378
 8008SOL     OW29859   0.418   2.686   4.901  0.4162  0.2446  0.2577
 8008SOL    HW129860   0.380   2.747   4.965 -0.7554  1.3824 -1.4262
 8008SOL    HW229861   0.378   2.602   4.922  0.5559  0.4528  1.4260
 8009SOL     OW29862   2.815   4.168   6.794 -0.0036  0.3384 -0.3274
 8009SOL    HW129863   2.882   4.229   6.762  0.4535  0.7887  1.3806
 8009SOL    HW229864   2.750   4.225   6.834  0.0690 -0.2520  0.6456
 8010SOL     OW29865   1.236   3.445   4.291  0.4612 -0.1645 -0.0344
 8010SOL    HW129866   1.254   3.490   4.373  0.5912  0.4009 -0.3697
 8010SOL    HW229867   1.280   3.498   4.225 -0.3129 -0.1720 -0.5637
 8011SOL     OW29868   6.863   9.174   9.473 -0.0169  0.3241  0.1263
 8011SOL    HW129869   6.838   9.087   9.444 -0.0915  0.2658  0.3604
 8011SOL    HW229870   6.826   9.233   9.407 -0.4334  0.2129  0.2513
 8012SOL     OW29871   2.361  10.237   5.672 -0.0335  0.0757 -0.2625
 8012SOL    HW129872   2.442  10.271   5.634  0.4930 -0.2568  0.5249
 8012SOL    HW229873   2.304  10.314   5.680  0.3209  0.3704 -0.5312
 8013SOL     OW29874   6.243   8.511   2.234  0.0350  0.3536  0.5911
 8013SOL    HW129875   6.249   8.604   2.252 -1.0164  0.4450  0.5048
 8013SOL    HW229876   6.309   8.495   2.167  1.0573  0.7953  1.4644
 8014SOL     OW29877   4.815   3.322   6.161  0.2355 -0.0499 -0.0511
 8014SOL    HW129878   4.733   3.273   6.157 -0.0958  0.4194  0.7013
 8014SOL    HW229879   4.794   3.408   6.124 -0.0132  0.5697  1.4586
 8015SOL     OW29880   1.611   3.747   0.911  0.9059 -0.6866  0.0888
 8015SOL    HW129881   1.671   3.820   0.927  0.5363 -0.7524  1.9392
 8015SOL    HW229882   1.542   3.784   0.856  1.5650 -0.0851 -0.3516
 8016SOL     OW29883  10.376   9.285   4.445  0.1184 -0.1373 -0.3632
 8016SOL    HW129884  10.419   9.340   4.380 -0.7313  1.8195  0.6463
 8016SOL    HW229885  10.329   9.219   4.394 -1.7100  2.1811 -1.8731
 8017SOL     OW29886   3.570   8.864   2.538  0.3480  0.1390 -0.5638
 8017SOL    HW129887   3.567   8.948   2.583  2.2423  0.3991 -0.8329
 8017SOL    HW229888   3.533   8.882   2.451 -1.5169  0.0829  0.1875
 8018SOL     OW29889   8.233   0.860   7.018  0.2457  0.2290 -0.0760
 8018SOL    HW129890   8.327   0.863   7.001  0.2449  0.5677 -0.0282
 8018SOL    HW229891   8.223   0.896   7.106  0.2968 -1.9192  0.8696
 8019SOL     OW29892   9.626   8.141   0.277  0.2640  0.0268 -0.4003
 8019SOL    HW129893   9.625   8.173   0.367  0.8110  0.1761 -0.4454
 8019SOL    HW229894   9.687   8.067   0.278  1.9582  1.3465 -1.0828
 8020SOL     OW29895   8.710   8.348   8.990 -0.2527 -0.1665  0.1492
 8020SOL    HW129896   8.712   8.335   9.085  0.6583  2.5179  0.5700
 8020SOL    HW229897   8.618   8.337   8.967 -1.1001  2.2694  1.9379
 8021SOL     OW29898   1.651   7.410   9.173  0.5247 -0.1940  0.1281
 8021SOL    HW129899   1.660   7.317   9.193  0.7340 -0.6164 -1.7120
 8021SOL    HW229900   1.706   7.423   9.096 -0.2389  1.2564 -0.2061
 8022SOL     OW29901   7.674   5.698   7.218 -0.2771 -0.3735 -0.8238
 8022SOL    HW129902   7.754   5.747   7.233 -0.5999  0.1643 -0.8388
 8022SOL    HW229903   7.607   5.764   7.203 -1.0300 -0.7498  0.6263
 8023SOL     OW29904   2.237  10.610   2.817 -0.9518  0.0788 -0.1870
 8023SOL    HW129905   2.260  10.583   2.906  0.8376 -0.4654 -0.7692
 8023SOL    HW229906   2.310  10.664   2.788 -0.4093 -1.5324 -2.0698
 8024SOL     OW29907   3.980   4.016   2.024 -0.3941 -0.0994  0.0626
 8024SOL    HW129908   3.921   3.979   2.089 -1.7467  0.7960 -0.6158
 8024SOL    HW229909   3.932   4.091   1.987  1.0396  0.4766 -0.7258
 8025SOL     OW29910   7.818   7.234   7.522  0.0699  0.0787 -0.0363
 8025SOL    HW129911   7.874   7.157   7.511  0.6000  0.3087  0.8719
 8025SOL    HW229912   7.820   7.251   7.617  0.0869  1.2934 -0.2388
 8026SOL     OW29913   8.430   2.907   4.464 -0.1621  0.3699  0.2201
 8026SOL    HW129914   8.358   2.970   4.467  1.0764  2.0155 -1.7624
 8026SOL    HW229915   8.464   2.914   4.374  1.5132 -1.4492  0.6400
 8027SOL     OW29916   7.106   4.165   8.905  0.0906 -0.1874  0.0031
 8027SOL    HW129917   7.101   4.116   8.987 -0.6892 -2.7558 -1.4697
 8027SOL    HW229918   7.181   4.223   8.916 -0.5320  0.2371  2.8342
 8028SOL     OW29919   1.250   3.072   9.548 -0.0567 -0.0912 -0.0595
 8028SOL    HW129920   1.218   3.162   9.538  1.3622  0.5002  0.5016
 8028SOL    HW229921   1.251   3.037   9.459  1.3378  1.1578 -0.5568
 8029SOL     OW29922   2.603   0.511   7.385 -0.2260  0.4101 -0.7530
 8029SOL    HW129923   2.521   0.462   7.380  0.9737 -1.7286 -0.5779
 8029SOL    HW229924   2.576   0.600   7.408 -2.4702 -0.3033 -0.3671
 8030SOL     OW29925   8.038   9.524   9.044 -0.7377 -0.2865 -0.6260
 8030SOL    HW129926   8.032   9.497   9.135 -1.6570  0.7251 -0.3704
 8030SOL    HW229927   8.006   9.614   9.043  2.6057  1.0235 -1.3800
 8031SOL     OW29928   7.329   3.108   6.661 -0.5925  0.5061  0.1056
 8031SOL    HW129929   7.342   3.194   6.701 -0.4832 -0.1714  1.6129
 8031SOL    HW229930   7.318   3.049   6.736 -0.9683 -0.7432 -0.9048
 8032SOL     OW29931   4.271   1.774   6.819  0.3187  0.0527  0.0501
 8032SOL    HW129932   4.348   1.825   6.794 -0.5863  0.7530 -1.4882
 8032SOL    HW229933   4.208   1.792   6.749 -0.9660 -1.1005  0.8807
 8033SOL     OW29934   7.374   2.921   6.903  0.3351  0.4379 -0.1543
 8033SOL    HW129935   7.463   2.932   6.870  0.4696 -3.5228 -1.5926
 8033SOL    HW229936   7.375   2.838   6.950 -3.0693 -1.2215 -2.5737
 8034SOL     OW29937   9.944   9.528   5.127  0.3281 -0.3881 -0.1111
 8034SOL    HW129938   9.903   9.498   5.208  0.6174 -0.5477 -0.0226
 8034SOL    HW229939  10.004   9.597   5.155  0.0472 -0.0797 -0.2536
 8035SOL     OW29940   6.239   5.276   5.158  0.2964  0.8136 -0.0346
 8035SOL    HW129941   6.226   5.351   5.101  0.4344 -0.6511 -2.1239
 8035SOL    HW229942   6.158   5.269   5.208 -0.2245  1.6096 -0.7306
 8036SOL     OW29943   0.056   9.182   9.258  0.3035 -0.2424  0.2291
 8036SOL    HW129944  -0.020   9.159   9.205 -0.3902  1.9515  0.1802
 8036SOL    HW229945   0.025   9.253   9.315  2.4600  1.1599 -0.2367
 8037SOL     OW29946   9.607   5.004   6.436 -0.3792 -0.3906 -0.0195
 8037SOL    HW129947   9.681   5.050   6.474 -1.0076 -1.5557  2.8119
 8037SOL    HW229948   9.615   4.914   6.467 -2.1946 -0.9023 -0.8521
 8038SOL     OW29949   7.444   3.825   9.845 -0.3285 -0.0025  0.0891
 8038SOL    HW129950   7.400   3.803   9.927 -1.6814 -1.4149 -0.9607
 8038SOL    HW229951   7.494   3.904   9.865 -0.2077 -0.5907  2.4014
 8039SOL     OW29952   2.462  10.675   7.435  0.3246  0.3740  0.2209
 8039SOL    HW129953   2.527  10.674   7.505  1.0979  1.7830 -0.4300
 8039SOL    HW229954   2.390  10.620   7.468  1.7037 -1.0015  1.0584
 8040SOL     OW29955   3.445  10.217   7.388  0.1189 -0.2324  0.3038
 8040SOL    HW129956   3.520  10.222   7.328  0.4798 -0.1297  0.7630
 8040SOL    HW229957   3.410  10.306   7.390  1.1455  0.1703  1.5612
 8041SOL     OW29958   6.946   0.988   0.246  0.3091  0.4768 -0.0211
 8041SOL    HW129959   6.993   1.042   0.310  0.6008  0.3334 -0.1132
 8041SOL    HW229960   7.011   0.925   0.215  0.0962  0.3739 -0.2622
 8042SOL     OW29961   4.489   5.853   4.901  0.0966 -0.0245 -0.0320
 8042SOL    HW129962   4.542   5.931   4.920 -0.2193  0.6608 -1.8209
 8042SOL    HW229963   4.456   5.867   4.813  0.6411 -2.5373 -0.7257
 8043SOL     OW29964   2.571   1.991   8.384  0.2845 -0.3463  0.1584
 8043SOL    HW129965   2.629   1.949   8.321 -1.4843 -0.7683 -1.2811
 8043SOL    HW229966   2.500   2.028   8.330  0.0650  1.6304  1.6766
 8044SOL     OW29967   0.200   2.421   4.579  0.2948 -0.4349 -0.0605
 8044SOL    HW129968   0.209   2.347   4.640  1.8700  0.3096  0.6680
 8044SOL    HW229969   0.137   2.479   4.621 -1.3883 -1.5618 -0.8989
 8045SOL     OW29970  10.612   0.011   9.970 -0.3108  0.1523 -0.4730
 8045SOL    HW129971  10.562   0.076   9.920  0.9945  0.7008 -1.1152
 8045SOL    HW229972  10.690  -0.005   9.918  0.3127 -0.4998  0.6129
 8046SOL     OW29973   5.345   5.283   1.494  0.5748 -0.4859  0.0473
 8046SOL    HW129974   5.416   5.346   1.502  1.5775 -1.4584 -0.9086
 8046SOL    HW229975   5.367   5.213   1.555 -0.6770  0.1528  1.3132
 8047SOL     OW29976   7.107   9.830   5.173  0.2124 -0.3110  0.5010
 8047SOL    HW129977   7.019   9.792   5.178  0.7016 -1.4525  0.6681
 8047SOL    HW229978   7.101   9.894   5.102 -0.1741 -1.9891 -1.0532
 8048SOL     OW29979   0.125   8.885   4.101 -0.6070  0.5707 -0.0214
 8048SOL    HW129980   0.173   8.962   4.132 -1.8785  2.5267 -2.5960
 8048SOL    HW229981   0.056   8.920   4.045 -1.8268 -2.4319 -0.5870
 8049SOL     OW29982   7.697   6.441   9.297 -0.0621 -0.3903  0.0780
 8049SOL    HW129983   7.715   6.369   9.237  0.2485  0.1091 -0.4339
 8049SOL    HW229984   7.708   6.403   9.384  2.5655 -0.3742 -0.1610
 8050SOL     OW29985  10.519   8.033   0.213 -0.0489 -0.7789 -0.0283
 8050SOL    HW129986  10.574   8.010   0.288  1.1915 -2.8427 -1.4465
 8050SOL    HW229987  10.487   7.949   0.180 -1.5936  0.1684 -1.0846
 8051SOL     OW29988   6.349   9.335   4.599  0.4724  0.3269 -0.2002
 8051SOL    HW129989   6.396   9.418   4.594 -0.3092  0.9043  1.3607
 8051SOL    HW229990   6.407   9.272   4.557  2.2438  1.1752  0.8524
 8052SOL     OW29991  10.413   2.092   6.762  0.6382  0.6494  0.3275
 8052SOL    HW129992  10.373   2.036   6.695  1.4808  0.1115  0.2599
 8052SOL    HW229993  10.348   2.096   6.832  0.3755 -0.0367  0.1327
 8053SOL     OW29994   8.010   0.859   2.882 -0.7401  0.3905 -0.3176
 8053SOL    HW129995   8.018   0.934   2.942  0.3280  0.1924 -0.1884
 8053SOL    HW229996   7.948   0.889   2.815 -2.0722  0.5748  0.9319
 8054SOL     OW29997   4.455   2.779  10.655  0.0787 -0.1215  0.4478
 8054SOL    HW129998   4.456   2.871  10.683 -1.1490  0.5739 -1.5347
 8054SOL    HW229999   4.544   2.749  10.669  0.6280  1.5271  0.7539
 8055SOL     OW30000  10.363   8.452   3.185  0.0569  0.0552 -0.1628
 8055SOL    HW130001  10.446   8.406   3.184  0.0686  0.0595  0.4924
 8055SOL    HW230002  10.297   8.383   3.189 -0.0619 -0.0342 -2.2585
 8056SOL     OW30003   5.561   5.217   7.091 -0.5370 -0.0962  0.0187
 8056SOL    HW130004   5.574   5.227   6.997 -1.3222  0.2574 -0.0593
 8056SOL    HW230005   5.649   5.205   7.126 -0.1521  0.6343 -0.6623
 8057SOL     OW30006   4.946   3.107   8.595  0.1029  0.3251 -0.1399
 8057SOL    HW130007   4.897   3.027   8.616  0.0971  0.6202  1.0289
 8057SOL    HW230008   5.013   3.078   8.533  0.6540 -0.7813  0.9172
 8058SOL     OW30009  10.709   3.539   8.026  0.1075  0.0347 -0.3827
 8058SOL    HW130010  10.629   3.592   8.034  0.3843  0.8777 -2.5036
 8058SOL    HW230011  10.683   3.465   7.970 -0.0156 -1.6274  1.7388
 8059SOL     OW30012   7.429  10.238   4.220  1.2208 -0.1908  0.1210
 8059SOL    HW130013   7.500  10.174   4.229 -0.1626 -1.6576  1.1683
 8059SOL    HW230014   7.361  10.207   4.280 -0.6044  0.7704 -1.3386
 8060SOL     OW30015   9.648   6.289   9.321 -0.8114 -0.0320  0.0825
 8060SOL    HW130016   9.703   6.288   9.243 -1.7729 -1.7026 -0.6278
 8060SOL    HW230017   9.558   6.286   9.288 -1.2616  0.1178  1.2429
 8061SOL     OW30018   5.311   4.365   6.655 -0.1011 -0.1544 -0.4988
 8061SOL    HW130019   5.311   4.429   6.727  0.7181 -0.6212 -0.0736
 8061SOL    HW230020   5.343   4.415   6.579  0.2091  0.0363 -0.2474
 8062SOL     OW30021   4.702   8.936   9.067  0.3281 -0.4561 -0.0501
 8062SOL    HW130022   4.609   8.956   9.072  0.4936  0.2888  4.7211
 8062SOL    HW230023   4.709   8.843   9.087  0.6208 -0.5971 -0.7710
 8063SOL     OW30024   6.878   1.162   6.258 -0.6704  0.4814 -0.2438
 8063SOL    HW130025   6.797   1.123   6.223 -0.9376  0.6967  0.1240
 8063SOL    HW230026   6.888   1.122   6.344  0.0967 -0.2039 -0.6397
 8064SOL     OW30027   2.457   3.143   2.402 -0.4013  0.0288 -0.3074
 8064SOL    HW130028   2.442   3.161   2.495  0.6000  2.4880 -0.5572
 8064SOL    HW230029   2.552   3.137   2.394 -0.4455  0.4852 -1.2591
 8065SOL     OW30030   2.995  10.203   8.606  0.3437 -0.4098 -0.7666
 8065SOL    HW130031   2.947  10.206   8.688 -0.4582 -1.4462 -1.1718
 8065SOL    HW230032   2.930  10.228   8.540  1.7153  3.4692 -0.8563
 8066SOL     OW30033   6.085   3.593   2.200  0.1550  0.0733  0.1922
 8066SOL    HW130034   6.153   3.630   2.144  2.1846 -0.7793  1.9877
 8066SOL    HW230035   6.024   3.666   2.214  0.5561  0.8106 -1.5959
 8067SOL     OW30036   0.165   3.570   0.197 -0.2445  0.6127  0.3273
 8067SOL    HW130037   0.107   3.598   0.126 -0.5262  2.5119  1.2188
 8067SOL    HW230038   0.109   3.572   0.275  0.1593 -1.0216  0.6803
 8068SOL     OW30039   6.340   9.316  10.241 -1.0764  0.4565 -0.1239
 8068SOL    HW130040   6.316   9.406  10.220  1.5279  0.7054 -2.6259
 8068SOL    HW230041   6.327   9.268  10.159  0.0773 -0.8696  0.4331
 8069SOL     OW30042   6.141   8.095   4.873  0.0678 -0.2557 -0.6603
 8069SOL    HW130043   6.202   8.024   4.853 -2.2549 -3.0453  1.1200
 8069SOL    HW230044   6.187   8.150   4.936  0.6914 -2.5842  1.0539
 8070SOL     OW30045   7.806   6.242   9.096 -0.0630 -0.6869 -0.3812
 8070SOL    HW130046   7.838   6.160   9.134  0.4499  0.4212  1.7544
 8070SOL    HW230047   7.886   6.295   9.084 -0.3880 -0.4726 -1.6891
 8071SOL     OW30048   1.243   3.758   7.886 -0.9208  0.8095  0.2610
 8071SOL    HW130049   1.230   3.669   7.918  1.3980  1.3408  3.0894
 8071SOL    HW230050   1.321   3.753   7.831 -0.3514  1.1992  1.0221
 8072SOL     OW30051   5.658   0.100   1.998  0.0909  0.3381  0.9201
 8072SOL    HW130052   5.578   0.099   1.945  0.8463  0.5015 -0.2637
 8072SOL    HW230053   5.673   0.008   2.020  0.0399  0.2007  0.4039
 8073SOL     OW30054   0.264   9.434   5.886 -0.4232  0.2745 -0.9306
 8073SOL    HW130055   0.310   9.501   5.835  0.9052 -0.6106 -0.9510
 8073SOL    HW230056   0.307   9.352   5.861 -2.2851 -0.6643 -1.2350
 8074SOL     OW30057   4.446   4.168   3.954 -0.7644  0.2669 -0.4589
 8074SOL    HW130058   4.399   4.250   3.939 -2.4990 -0.7829 -1.1751
 8074SOL    HW230059   4.377   4.102   3.958  0.5629 -1.1360  0.3491
 8075SOL     OW30060   7.845   1.673   0.082 -0.2078 -0.2039  0.8769
 8075SOL    HW130061   7.923   1.655   0.135  1.2471 -0.2697 -1.1578
 8075SOL    HW230062   7.817   1.587   0.050  1.4131  0.0900 -1.6568
 8076SOL     OW30063   4.446   5.364   9.967  0.5823  0.6188 -0.3487
 8076SOL    HW130064   4.529   5.403   9.995  1.2478 -0.2051 -1.1183
 8076SOL    HW230065   4.465   5.325   9.882 -0.1923 -0.8704  0.1269
 8077SOL     OW30066   1.032   0.416  10.139  0.4600 -0.2843 -0.3976
 8077SOL    HW130067   1.109   0.392  10.190 -0.8505 -2.4464  0.7093
 8077SOL    HW230068   0.988   0.483  10.191 -0.0760 -1.3968  0.6292
 8078SOL     OW30069   1.397   3.294   8.079  0.2151 -0.1148  0.3468
 8078SOL    HW130070   1.470   3.266   8.135  0.3303 -0.6646 -0.0645
 8078SOL    HW230071   1.320   3.252   8.119  0.3970 -1.1082 -0.3077
 8079SOL     OW30072   6.532   2.488   1.199  0.2021 -0.6296 -0.5704
 8079SOL    HW130073   6.572   2.545   1.265 -1.0795 -0.6069  0.2359
 8079SOL    HW230074   6.489   2.547   1.138  0.6814 -0.6706 -0.9430
 8080SOL     OW30075   4.303   4.369   2.722 -0.3079 -0.1317 -0.9112
 8080SOL    HW130076   4.321   4.353   2.814  1.3945 -0.8562 -1.3300
 8080SOL    HW230077   4.335   4.458   2.707  0.0300 -0.2534 -0.9330
 8081SOL     OW30078   9.909   3.207   5.426  0.1203 -0.1292 -0.1230
 8081SOL    HW130079   9.993   3.220   5.470  0.9083 -0.0032 -1.5820
 8081SOL    HW230080   9.912   3.265   5.350 -1.5089  0.2456  0.0551
 8082SOL     OW30081   0.216   8.927   9.207  0.3815  0.0100  0.4636
 8082SOL    HW130082   0.182   8.978   9.134 -0.2292  1.2801  1.5864
 8082SOL    HW230083   0.301   8.895   9.176 -0.2211 -0.1876 -1.0774
 8083SOL     OW30084   7.000   3.332  10.342 -0.3621  0.4131  0.2449
 8083SOL    HW130085   6.996   3.384  10.423  1.3540 -1.1930  1.4350
 8083SOL    HW230086   7.091   3.339  10.314 -0.1118 -1.7791  0.3741
 8084SOL     OW30087   1.676   1.959   2.891  0.2071  0.6435 -0.0168
 8084SOL    HW130088   1.721   1.884   2.851  0.6551  0.2513  1.1511
 8084SOL    HW230089   1.597   1.971   2.839 -1.3045 -2.3992  1.2676
 8085SOL     OW30090   1.526   8.035  10.104 -0.0958  0.2690  0.0432
 8085SOL    HW130091   1.558   7.973  10.169  0.0701 -0.1506 -0.4338
 8085SOL    HW230092   1.574   8.013  10.024 -0.6457  0.4666 -0.3441
 8086SOL     OW30093   9.792   0.690   7.607  0.1687  0.2197 -0.1024
 8086SOL    HW130094   9.763   0.695   7.516 -0.7379  1.4233  0.2333
 8086SOL    HW230095   9.722   0.641   7.652 -0.6098  1.7298  0.3940
 8087SOL     OW30096   4.504   4.257   9.735  0.2315 -0.1176 -0.3024
 8087SOL    HW130097   4.560   4.181   9.751 -0.7831 -1.0429 -0.9693
 8087SOL    HW230098   4.501   4.303   9.818  0.1977 -1.2749  0.3586
 8088SOL     OW30099   3.672   8.644   8.159  0.4006  0.0069 -0.2128
 8088SOL    HW130100   3.721   8.562   8.157  0.1604 -0.1507  0.4127
 8088SOL    HW230101   3.617   8.641   8.080  1.2483  0.1085 -0.8268
 8089SOL     OW30102   7.473   4.820   8.499 -0.2083  0.4306 -0.6108
 8089SOL    HW130103   7.388   4.820   8.455 -0.3818  0.9293 -0.2888
 8089SOL    HW230104   7.466   4.890   8.564 -0.4875 -1.2574  1.2595
 8090SOL     OW30105   4.929   3.758   8.063  0.2477 -0.4626 -0.3885
 8090SOL    HW130106   5.012   3.714   8.046  0.6329 -0.3337  1.0616
 8090SOL    HW230107   4.945   3.811   8.141 -1.0356  0.0032 -0.4175
 8091SOL     OW30108   6.484   7.184   9.839 -0.0369 -0.0053 -0.2344
 8091SOL    HW130109   6.396   7.153   9.814  0.8813 -2.1683 -1.0301
 8091SOL    HW230110   6.519   7.224   9.760 -0.3927  1.1505  0.1740
 8092SOL     OW30111   3.053   4.474   4.799 -0.1922  0.5792 -0.2519
 8092SOL    HW130112   3.071   4.551   4.852 -2.4597  1.0028 -0.0026
 8092SOL    HW230113   2.974   4.436   4.837 -1.7306  0.7041 -3.0835
 8093SOL     OW30114   5.704   1.895   2.357 -0.3908 -0.2769 -0.2842
 8093SOL    HW130115   5.784   1.864   2.400  0.0892  0.8494 -0.3421
 8093SOL    HW230116   5.713   1.867   2.266  1.1863  2.0240 -0.9213
 8094SOL     OW30117   1.954  10.378   2.227  0.0451  0.3327 -0.9980
 8094SOL    HW130118   1.975  10.361   2.135  0.8072  0.3173 -0.8291
 8094SOL    HW230119   1.867  10.341   2.239  0.7582 -1.5164 -1.2093
 8095SOL     OW30120   3.856   1.108   7.028 -0.3748  0.1374 -0.1422
 8095SOL    HW130121   3.947   1.092   7.052 -0.3023 -0.2855 -0.6582
 8095SOL    HW230122   3.808   1.034   7.066 -0.6706  0.9350  1.0632
 8096SOL     OW30123   0.753   1.518   8.138 -0.3300 -0.4537  0.1020
 8096SOL    HW130124   0.740   1.506   8.044 -0.4923 -1.7466  0.2726
 8096SOL    HW230125   0.848   1.514   8.150 -0.3341 -0.7187  0.0442
 8097SOL     OW30126  10.200   9.587   6.910  0.6666  0.0829 -0.3904
 8097SOL    HW130127  10.239   9.502   6.891  2.7371  0.8507  0.1993
 8097SOL    HW230128  10.162   9.615   6.826  0.4811 -1.1396 -0.7349
 8098SOL     OW30129   6.919   1.075   5.952 -0.3628  0.4995 -0.0751
 8098SOL    HW130130   6.843   1.096   6.007  0.5278 -0.4551  1.5946
 8098SOL    HW230131   6.937   0.983   5.971  1.3514  0.7746 -0.2664
 8099SOL     OW30132   7.833   6.706   9.294  0.5346  0.1581  0.4026
 8099SOL    HW130133   7.833   6.615   9.323 -0.4981  0.5054  1.6025
 8099SOL    HW230134   7.798   6.755   9.369 -0.7223  1.3176 -0.8855
 8100SOL     OW30135   4.737   8.440   9.732  0.1409  0.4582 -0.2177
 8100SOL    HW130136   4.770   8.503   9.667 -2.3095  1.7428 -0.3379
 8100SOL    HW230137   4.772   8.472   9.815  4.5612 -2.0355 -0.7847
 8101SOL     OW30138   8.567   1.753   7.836  0.1727  0.1055 -0.1198
 8101SOL    HW130139   8.563   1.707   7.752 -0.9098  0.9814 -0.5749
 8101SOL    HW230140   8.541   1.843   7.816  3.0628  1.2185  0.5949
 8102SOL     OW30141   2.315   0.662   3.035 -0.3367 -0.3563 -0.3346
 8102SOL    HW130142   2.353   0.659   2.947  1.0758 -2.6638  0.2641
 8102SOL    HW230143   2.307   0.570   3.061  0.5223  0.2655  2.4584
 8103SOL     OW30144  10.319  10.167   8.248 -0.2844  0.2574 -0.0640
 8103SOL    HW130145  10.279  10.207   8.324  1.4627 -0.3885  1.2771
 8103SOL    HW230146  10.386  10.230   8.220 -0.7792  0.4045 -0.9882
 8104SOL     OW30147   0.965   0.038   6.230 -0.2753  0.2028  0.5067
 8104SOL    HW130148   0.927  -0.001   6.308 -1.6553 -1.8345 -1.0932
 8104SOL    HW230149   1.046  -0.011   6.215 -0.8678 -0.5566 -0.2580
 8105SOL     OW30150   1.276   9.436   5.283 -0.2601 -0.1582  0.1783
 8105SOL    HW130151   1.331   9.403   5.354  2.0369  0.1636 -1.3695
 8105SOL    HW230152   1.288   9.531   5.285 -0.0201 -0.1624 -0.7628
 8106SOL     OW30153   5.056   7.591   3.628  0.6863 -0.1816  0.2460
 8106SOL    HW130154   5.044   7.632   3.542 -2.4015 -1.3487 -0.0186
 8106SOL    HW230155   5.139   7.625   3.659  0.3582  2.8981 -1.7635
 8107SOL     OW30156  10.522   0.068   7.350  0.1486 -0.2113  0.2416
 8107SOL    HW130157  10.593   0.128   7.327  0.6386 -0.5491  0.8570
 8107SOL    HW230158  10.556  -0.019   7.330 -0.7221 -0.2865 -1.0753
 8108SOL     OW30159   7.783   0.867   7.056  0.7190 -0.0707 -0.2129
 8108SOL    HW130160   7.811   0.924   6.984  0.0664 -0.7202 -1.0133
 8108SOL    HW230161   7.816   0.909   7.135  0.5834  1.2111 -0.8081
 8109SOL     OW30162   8.810   4.336   1.128  0.4920 -0.1776  0.7952
 8109SOL    HW130163   8.783   4.246   1.107  1.9613 -0.4113 -0.2267
 8109SOL    HW230164   8.875   4.358   1.062  1.1500  1.1667  1.8347
 8110SOL     OW30165   8.219   5.058   1.222 -1.0243 -0.3787 -0.0792
 8110SOL    HW130166   8.221   4.967   1.254 -0.1109 -0.6239 -0.7683
 8110SOL    HW230167   8.280   5.058   1.148  0.0040  1.0975  0.7097
 8111SOL     OW30168   3.848   2.273   7.374  0.1601 -0.4577 -0.2757
 8111SOL    HW130169   3.846   2.326   7.453 -0.0974 -0.2900 -0.3945
 8111SOL    HW230170   3.913   2.205   7.393  0.0929 -0.4260  0.0827
 8112SOL     OW30171   0.515   4.473   3.025  0.1713  0.1303 -0.0570
 8112SOL    HW130172   0.592   4.436   2.981  0.2050  0.8514 -0.6297
 8112SOL    HW230173   0.551   4.531   3.092  0.1386  1.0176 -0.7977
 8113SOL     OW30174   0.142   7.483   0.510  0.3338 -0.0156  0.4260
 8113SOL    HW130175   0.163   7.397   0.548  0.2762 -0.5203 -0.6571
 8113SOL    HW230176   0.065   7.467   0.455  1.6878  0.1869 -1.6510
 8114SOL     OW30177   4.819   4.823   0.615  0.0764 -0.1955  0.4027
 8114SOL    HW130178   4.889   4.817   0.550 -0.7413  0.5634 -0.5706
 8114SOL    HW230179   4.864   4.814   0.699  1.0334 -2.1725 -0.2701
 8115SOL     OW30180   4.182   8.277   7.473  0.3482  0.0636 -0.3101
 8115SOL    HW130181   4.192   8.186   7.444  1.5971  0.5856 -1.6498
 8115SOL    HW230182   4.251   8.288   7.539  0.6692  0.2341 -0.6718
 8116SOL     OW30183  10.420   7.332   4.535 -0.3174  0.6178 -0.1752
 8116SOL    HW130184  10.466   7.260   4.492  0.8911  0.6158  1.0465
 8116SOL    HW230185  10.476   7.408   4.522  0.1917  0.5666  1.5542
 8117SOL     OW30186   0.899  10.013   5.339 -0.4616 -0.2590  0.4906
 8117SOL    HW130187   0.919   9.937   5.283 -1.0848 -0.3177  0.3484
 8117SOL    HW230188   0.915  10.088   5.283 -0.6265 -0.3067  0.3782
 8118SOL     OW30189   0.521   5.707   2.608  0.3367  0.2942  0.2025
 8118SOL    HW130190   0.525   5.612   2.617  1.0237  0.4859  2.5694
 8118SOL    HW230191   0.468   5.736   2.683 -2.4774  1.6313 -2.0884
 8119SOL     OW30192   1.501   0.101   1.956  0.4604 -0.0240  0.1744
 8119SOL    HW130193   1.538   0.186   1.933  0.0831 -0.4458 -2.2478
 8119SOL    HW230194   1.576   0.047   1.978  0.9372  0.2896 -0.6303
 8120SOL     OW30195   1.835   2.276   3.253  0.2513 -0.2465 -0.6258
 8120SOL    HW130196   1.880   2.339   3.198 -1.3416  0.6162 -1.0063
 8120SOL    HW230197   1.779   2.329   3.310  0.9557 -1.1795  1.0197
 8121SOL     OW30198   4.063   0.300   7.191  0.3813  0.1197  0.4044
 8121SOL    HW130199   4.025   0.359   7.127  1.8721  1.0005  0.2831
 8121SOL    HW230200   4.103   0.357   7.256  1.1984 -0.7461  0.6954
 8122SOL     OW30201   3.336   1.837   7.065 -0.6533  0.1921  0.0510
 8122SOL    HW130202   3.306   1.771   7.003 -1.8096  0.7322  0.0079
 8122SOL    HW230203   3.388   1.787   7.129 -1.5730 -0.7967  0.0716
 8123SOL     OW30204   1.414  10.103   1.266  0.2821 -0.3111 -0.7330
 8123SOL    HW130205   1.501  10.143   1.266 -0.5862  1.7085 -0.0806
 8123SOL    HW230206   1.373  10.136   1.187 -1.0417  1.5961  0.6584
 8124SOL     OW30207   1.188   1.237   0.082 -0.5210 -0.0899 -0.1177
 8124SOL    HW130208   1.203   1.325   0.116 -0.7637  0.6318 -1.8312
 8124SOL    HW230209   1.165   1.249  -0.010 -0.5529 -1.9434 -0.3961
 8125SOL     OW30210   0.825   0.361   8.012  0.1567 -0.0114  0.1584
 8125SOL    HW130211   0.912   0.355   7.972 -0.4424 -0.4480 -1.1348
 8125SOL    HW230212   0.807   0.455   8.016  1.2618  0.1878  1.8192
 8126SOL     OW30213   7.624   2.232   1.227 -0.3931 -0.2429  0.0934
 8126SOL    HW130214   7.555   2.259   1.288  0.6252 -0.2058  1.2695
 8126SOL    HW230215   7.688   2.303   1.230  1.3368 -1.7351  1.6774
 8127SOL     OW30216   9.987   8.405   7.806 -0.3187  0.5411  0.8344
 8127SOL    HW130217  10.003   8.389   7.899 -0.6670  0.5165  0.8924
 8127SOL    HW230218   9.945   8.325   7.775  1.7365 -0.3320  0.1513
 8128SOL     OW30219   6.324   2.286  10.459  0.1782 -0.8090 -0.5814
 8128SOL    HW130220   6.275   2.367  10.442 -0.5526 -1.3505 -1.0789
 8128SOL    HW230221   6.266   2.235  10.516  0.3018 -1.3207 -0.9166
 8129SOL     OW30222   6.629   7.200   2.926 -0.3097 -0.5230  0.6268
 8129SOL    HW130223   6.537   7.218   2.906 -0.0462  1.1011  0.7760
 8129SOL    HW230224   6.630   7.107   2.950 -2.1695 -0.2367  2.0811
 8130SOL     OW30225  10.503   8.261   9.751 -0.5885 -0.4551 -0.3221
 8130SOL    HW130226  10.563   8.210   9.696  0.5339 -0.9043  1.2387
 8130SOL    HW230227  10.417   8.224   9.733 -0.0822 -1.3950 -0.8948
 8131SOL     OW30228   6.343   4.429   8.692  0.0771 -0.2505 -0.3241
 8131SOL    HW130229   6.390   4.505   8.727  1.0097 -0.8944 -0.1392
 8131SOL    HW230230   6.342   4.443   8.597 -1.1108  0.7380 -0.1974
 8132SOL     OW30231   2.587  10.710   7.896 -0.0678 -0.1655 -0.5766
 8132SOL    HW130232   2.576  10.644   7.965  0.3959 -0.6518 -0.9638
 8132SOL    HW230233   2.524  10.779   7.919  0.8237  0.2013  0.9421
 8133SOL     OW30234   9.226   0.663  10.206  0.4652  0.0250  0.4127
 8133SOL    HW130235   9.202   0.592  10.266  2.5836 -1.8144 -0.8067
 8133SOL    HW230236   9.309   0.696  10.240  0.2955  0.8594  0.0411
 8134SOL     OW30237   7.833   7.944   0.813 -0.0499  0.7659  0.1225
 8134SOL    HW130238   7.761   7.989   0.767  1.5690  2.2302 -1.1403
 8134SOL    HW230239   7.850   7.998   0.890  0.5774  1.1922 -0.3112
 8135SOL     OW30240   7.420   6.470   0.712  0.1788  0.1825  0.1825
 8135SOL    HW130241   7.412   6.511   0.799  0.4966  0.1194  0.2407
 8135SOL    HW230242   7.439   6.378   0.730 -0.0902  0.0989  0.0472
 8136SOL     OW30243   0.167   5.414   2.867  0.0935  0.5788 -0.0550
 8136SOL    HW130244   0.162   5.504   2.837 -0.5667  0.0537 -1.6829
 8136SOL    HW230245   0.241   5.411   2.927  2.0573  1.5867 -2.3108
 8137SOL     OW30246   2.560   3.077   0.433 -0.2821  0.1790  0.0216
 8137SOL    HW130247   2.638   3.029   0.463 -0.2351  0.5209  0.4694
 8137SOL    HW230248   2.558   3.064   0.339 -0.4791 -1.0100  0.1693
 8138SOL     OW30249   6.709   4.528   1.203 -0.1435 -0.4263 -0.0150
 8138SOL    HW130250   6.690   4.620   1.220 -0.0862 -0.6465  1.3162
 8138SOL    HW230251   6.770   4.529   1.129  0.2937  0.6382  0.3488
 8139SOL     OW30252   2.159   0.172   9.722  0.3134  0.4678  0.2166
 8139SOL    HW130253   2.169   0.126   9.805 -0.2191  0.5682  0.3353
 8139SOL    HW230254   2.178   0.106   9.655 -1.0030 -0.0814  0.3647
 8140SOL     OW30255   9.233   7.131   6.027 -0.0247 -0.7776  0.6770
 8140SOL    HW130256   9.196   7.051   6.064  0.6758 -1.2374  0.4083
 8140SOL    HW230257   9.321   7.136   6.065 -0.0848 -0.1139  0.7232
 8141SOL     OW30258   2.949   8.212   2.390 -0.2976  0.4264 -0.0883
 8141SOL    HW130259   2.871   8.262   2.414 -1.2008 -0.5821 -0.8216
 8141SOL    HW230260   3.001   8.273   2.338 -0.3231  1.2847  0.8611
 8142SOL     OW30261   5.857  10.346  10.595 -0.2065  0.6999 -0.2284
 8142SOL    HW130262   5.770  10.363  10.630  0.4419  0.4223  1.6374
 8142SOL    HW230263   5.864  10.404  10.519 -1.3372  2.1534  0.7096
 8143SOL     OW30264   9.911   5.541   0.394 -0.0427 -0.3402  0.0176
 8143SOL    HW130265   9.840   5.513   0.336  1.0361 -1.1966 -0.9344
 8143SOL    HW230266   9.976   5.580   0.336  1.2029 -1.4798  0.5847
 8144SOL     OW30267   5.077   5.756  10.427 -0.0552  0.6221 -0.1193
 8144SOL    HW130268   5.016   5.782  10.357 -1.2620  1.6089  1.2360
 8144SOL    HW230269   5.055   5.665  10.444 -0.1795  0.5581 -0.5957
 8145SOL     OW30270   4.710   9.645   0.125 -0.2065 -0.3878  0.4262
 8145SOL    HW130271   4.628   9.611   0.161 -0.3725 -2.3091 -1.5452
 8145SOL    HW230272   4.775   9.578   0.147 -0.2538 -1.4896 -2.3498
 8146SOL     OW30273  10.635   4.465   1.879 -0.2306 -0.4215  0.2630
 8146SOL    HW130274  10.712   4.437   1.928  0.4711 -1.5153 -1.3937
 8146SOL    HW230275  10.581   4.386   1.872 -0.8930  0.0156  0.2623
 8147SOL     OW30276   9.068   2.433  10.036 -0.2438  0.2772  0.5980
 8147SOL    HW130277   9.072   2.442  10.131  0.9905  0.6553  0.5332
 8147SOL    HW230278   9.013   2.506  10.007 -1.1029 -0.1756  1.0536
 8148SOL     OW30279   8.107   4.816   8.055 -0.4331  0.1121 -0.4413
 8148SOL    HW130280   8.165   4.876   8.007 -1.0325  0.9205 -0.1791
 8148SOL    HW230281   8.024   4.819   8.008 -1.0027  0.8399  0.5668
 8149SOL     OW30282   4.648   8.564   6.754 -0.0757 -0.6079  0.4507
 8149SOL    HW130283   4.558   8.575   6.726 -0.0796  1.5801  1.1327
 8149SOL    HW230284   4.643   8.558   6.850  0.5253 -0.2443  0.5100
 8150SOL     OW30285   2.563   9.365   1.777 -0.1973 -0.2828 -0.0861
 8150SOL    HW130286   2.601   9.285   1.742 -0.9119 -0.6724  0.0024
 8150SOL    HW230287   2.476   9.339   1.808 -1.6810  1.0519 -2.6892
 8151SOL     OW30288   4.446   8.801   2.341  0.4405 -0.6300 -0.4194
 8151SOL    HW130289   4.510   8.854   2.389 -0.3835  0.0752 -0.0821
 8151SOL    HW230290   4.435   8.846   2.257  1.7062 -1.7366 -1.2172
 8152SOL     OW30291   0.683   5.192   0.132 -0.2645  0.2470 -0.2411
 8152SOL    HW130292   0.631   5.124   0.176 -0.0187  0.6670  0.7178
 8152SOL    HW230293   0.641   5.202   0.046  0.2279 -1.7558 -0.7753
 8153SOL     OW30294   2.301   0.274  10.348 -0.0370 -0.3940  0.5426
 8153SOL    HW130295   2.221   0.324  10.365  0.0337 -0.4406  1.0045
 8153SOL    HW230296   2.280   0.185  10.375  0.3141 -0.3175  1.0616
 8154SOL     OW30297   1.694   3.461   2.274 -0.2106 -0.5042 -0.2522
 8154SOL    HW130298   1.656   3.544   2.244  0.2672  0.2826  1.1994
 8154SOL    HW230299   1.683   3.402   2.200 -0.3594  0.9122 -1.4229
 8155SOL     OW30300   8.285   6.294   7.891 -0.2074 -0.3882 -0.6898
 8155SOL    HW130301   8.259   6.325   7.805 -0.8752 -1.8233 -1.0358
 8155SOL    HW230302   8.374   6.262   7.879 -0.0995 -0.0793 -0.7148
 8156SOL     OW30303   0.115   4.840   1.394 -0.1908  0.4168  0.1110
 8156SOL    HW130304   0.170   4.904   1.351 -1.8301  0.7705 -1.6157
 8156SOL    HW230305   0.043   4.824   1.332 -2.5878  0.7481  2.5780
 8157SOL     OW30306   2.057   2.387   6.288  0.3707 -0.4524  0.0365
 8157SOL    HW130307   2.110   2.309   6.273  0.6156 -0.5337  1.2023
 8157SOL    HW230308   1.973   2.352   6.321  0.2166 -0.2520 -0.1438
 8158SOL     OW30309   8.545   2.794   4.209  0.2242 -0.3088 -0.4052
 8158SOL    HW130310   8.451   2.794   4.231 -0.4894 -1.1898 -3.1113
 8158SOL    HW230311   8.571   2.702   4.214  0.5120 -0.2829 -1.2857
 8159SOL     OW30312   0.687   6.467  10.530 -0.3022 -0.5751 -0.4136
 8159SOL    HW130313   0.620   6.437  10.592  0.4248  0.5558  1.0002
 8159SOL    HW230314   0.733   6.387  10.504 -0.7836 -1.1085  0.3146
 8160SOL     OW30315   8.551   8.082  10.442 -0.0436 -0.2118 -0.4378
 8160SOL    HW130316   8.595   8.007  10.481 -1.9316 -1.3423 -0.3591
 8160SOL    HW230317   8.619   8.148  10.433  2.0334 -2.3888 -1.7853
 8161SOL     OW30318   5.357  10.608   1.617 -0.8997  0.0132  0.0486
 8161SOL    HW130319   5.398  10.527   1.587  0.4064  0.9842 -0.9053
 8161SOL    HW230320   5.264  10.596   1.599 -0.4640 -0.4289 -2.2016
 8162SOL     OW30321   4.315   5.256  10.211 -0.9102  0.3752  0.4214
 8162SOL    HW130322   4.379   5.285  10.146 -1.1929 -0.8465 -0.4307
 8162SOL    HW230323   4.255   5.198  10.163 -2.0141  0.6184  1.4384
 8163SOL     OW30324  10.497   9.755   7.588 -0.2973  0.2078  0.1481
 8163SOL    HW130325  10.559   9.725   7.521 -0.3409  0.5214 -0.0343
 8163SOL    HW230326  10.412   9.723   7.558 -0.1151 -0.9628  0.8409
 8164SOL     OW30327   7.974   9.618   7.260  0.0752 -0.3259 -0.0615
 8164SOL    HW130328   7.891   9.636   7.216  0.3439 -0.1467 -0.4957
 8164SOL    HW230329   7.963   9.655   7.348 -0.0187  0.3867 -0.3706
 8165SOL     OW30330   1.641   9.211   2.699 -0.1700 -0.1509 -0.5870
 8165SOL    HW130331   1.687   9.208   2.783 -1.3183  0.3036  0.0933
 8165SOL    HW230332   1.567   9.151   2.710 -0.1317 -0.3562 -1.4059
 8166SOL     OW30333   6.376   6.126   1.629  0.6128  0.0368  0.0200
 8166SOL    HW130334   6.409   6.164   1.547 -0.9690  0.7408 -0.3264
 8166SOL    HW230335   6.428   6.166   1.697  0.9150  0.6214 -0.5463
 8167SOL     OW30336   2.150   9.067   0.034  0.5716 -1.0355  0.2249
 8167SOL    HW130337   2.064   9.108   0.020  0.5692 -1.4544 -1.1253
 8167SOL    HW230338   2.193   9.073  -0.052  2.1490 -0.2803  1.0306
 8168SOL     OW30339   6.813   0.827   1.754 -0.3103  0.7758  0.2525
 8168SOL    HW130340   6.824   0.740   1.793  1.2960  1.3820  1.2683
 8168SOL    HW230341   6.837   0.815   1.662  1.0588  0.3351  0.6317
 8169SOL     OW30342   7.624  10.373   6.943  0.0171 -0.4146  0.2848
 8169SOL    HW130343   7.642  10.438   7.011  0.2929 -0.4597  0.2543
 8169SOL    HW230344   7.692  10.307   6.954 -1.4347 -1.7790  1.6509
 8170SOL     OW30345   2.219   1.635   5.668 -0.0873 -0.5000 -0.2483
 8170SOL    HW130346   2.142   1.636   5.725 -1.0429  2.0767 -1.3926
 8170SOL    HW230347   2.286   1.682   5.717 -0.3296  0.1268 -0.5031
 8171SOL     OW30348   3.668   6.348   2.179  0.0465  0.1323  0.2883
 8171SOL    HW130349   3.599   6.351   2.112 -0.6631 -1.7126  0.8947
 8171SOL    HW230350   3.644   6.418   2.240 -0.8738 -0.0083  0.1043
 8172SOL     OW30351   2.677   8.815   0.823 -0.0721  0.2716  0.0489
 8172SOL    HW130352   2.701   8.754   0.753  1.9847 -0.1920  1.0935
 8172SOL    HW230353   2.743   8.884   0.818 -0.6895  0.9297  0.7224
 8173SOL     OW30354   7.328   9.446   4.540 -0.6929 -0.2972 -0.3021
 8173SOL    HW130355   7.272   9.486   4.473 -0.5401  0.6508  0.1121
 8173SOL    HW230356   7.277   9.452   4.620 -0.0985  0.3664  0.0364
 8174SOL     OW30357   2.300   7.328   7.551  0.0845 -0.1390  0.1490
 8174SOL    HW130358   2.245   7.250   7.553 -0.3331  0.1494  0.1773
 8174SOL    HW230359   2.334   7.332   7.462  0.0650 -0.3259  0.1346
 8175SOL     OW30360   5.916   1.734   8.258 -0.3818 -0.6655  0.3966
 8175SOL    HW130361   5.989   1.768   8.207  0.9203 -1.0072  1.9483
 8175SOL    HW230362   5.924   1.639   8.253  1.9127 -0.8656  3.8679
 8176SOL     OW30363   8.213   1.055   9.724  0.0531 -0.2347 -0.3592
 8176SOL    HW130364   8.161   0.998   9.667  1.5739 -1.6396 -0.4043
 8176SOL    HW230365   8.271   1.102   9.664  1.3299 -1.3737 -0.0799
 8177SOL     OW30366   1.261   6.704  10.330 -0.1708  0.6315  0.1716
 8177SOL    HW130367   1.295   6.721  10.418 -3.6198  1.8122  1.4618
 8177SOL    HW230368   1.276   6.610  10.317  0.2250  0.3674  2.1590
 8178SOL     OW30369   5.835   6.290   1.187 -0.1532 -0.0301 -0.3462
 8178SOL    HW130370   5.838   6.323   1.097 -1.2452  0.0053 -0.3850
 8178SOL    HW230371   5.867   6.362   1.240  0.0077  0.1327 -0.6595
 8179SOL     OW30372   2.493   3.272   7.895 -0.4192  0.3004 -0.0905
 8179SOL    HW130373   2.472   3.281   7.988 -0.6620  0.2174 -0.1373
 8179SOL    HW230374   2.477   3.359   7.859  1.0540  0.7214  0.2153
 8180SOL     OW30375   8.294   0.164   0.439  0.0440 -0.5964 -0.4979
 8180SOL    HW130376   8.348   0.137   0.365  2.2200  1.3445  0.2709
 8180SOL    HW230377   8.311   0.097   0.506  2.9422  0.8212  0.3171
 8181SOL     OW30378   9.903   5.686   9.943  0.0868  0.4866  0.5197
 8181SOL    HW130379   9.901   5.737  10.024 -0.6359 -0.2627  0.9786
 8181SOL    HW230380   9.917   5.596   9.971 -0.8343  0.1305 -0.1334
 8182SOL     OW30381  10.048   6.678   0.869  0.4165  0.0688 -0.4095
 8182SOL    HW130382   9.996   6.672   0.948 -1.6528 -0.4007 -1.7248
 8182SOL    HW230383  10.068   6.771   0.860 -0.6766  0.3436 -0.1367
 8183SOL     OW30384   2.877   8.476   8.602 -0.1860 -0.3779 -0.2906
 8183SOL    HW130385   2.788   8.475   8.638  0.4360 -0.5809  1.3111
 8183SOL    HW230386   2.934   8.475   8.679  1.2101 -0.9692 -1.2947
 8184SOL     OW30387   0.116  10.401   8.845  0.0828 -0.0505  0.1917
 8184SOL    HW130388   0.187  10.372   8.788 -0.2092  1.7057 -1.1195
 8184SOL    HW230389   0.141  10.488   8.873 -1.8990  0.9728 -0.9771
 8185SOL     OW30390   4.273   5.012   7.061  1.0137  0.0265  0.3930
 8185SOL    HW130391   4.278   4.959   7.140  1.9464 -0.6120 -0.0764
 8185SOL    HW230392   4.364   5.030   7.038  0.8535 -1.1985 -1.4314
 8186SOL     OW30393   9.011   8.686   0.405  0.9674 -0.0354  0.6391
 8186SOL    HW130394   9.078   8.752   0.424  0.6736  0.3670  0.3109
 8186SOL    HW230395   8.980   8.709   0.317 -0.0222  0.1438  1.0288
 8187SOL     OW30396   4.046   4.111   0.029 -0.5237  0.2458 -0.2097
 8187SOL    HW130397   4.080   4.032  -0.013 -0.0090 -0.1294  0.8819
 8187SOL    HW230398   3.952   4.110   0.011 -0.4939 -0.5344 -0.3395
 8188SOL     OW30399  10.576   6.465   2.407 -0.0935  0.0977 -0.1170
 8188SOL    HW130400  10.553   6.406   2.479  0.1503 -0.3054 -0.3655
 8188SOL    HW230401  10.500   6.460   2.348 -0.4391  0.6850  0.2678
 8189SOL     OW30402   0.505   1.148   2.631 -0.3848 -0.3107  0.3020
 8189SOL    HW130403   0.501   1.084   2.702 -0.0322 -0.3345  0.2982
 8189SOL    HW230404   0.577   1.119   2.575 -1.1831 -0.7637 -0.5227
 8190SOL     OW30405   8.155   0.813   8.566  0.0350  0.1739  0.3307
 8190SOL    HW130406   8.224   0.791   8.503 -0.6440 -1.4526  0.1096
 8190SOL    HW230407   8.203   0.843   8.643  0.8901  2.1132 -0.8802
 8191SOL     OW30408   0.430   0.680   0.522  0.3765 -0.5108 -0.3688
 8191SOL    HW130409   0.453   0.724   0.441 -2.6988 -1.0144 -1.6359
 8191SOL    HW230410   0.351   0.723   0.552  1.5905 -0.1120  2.6413
 8192SOL     OW30411   7.279   9.637   5.300 -0.2145  0.6651  0.0273
 8192SOL    HW130412   7.259   9.544   5.292  1.1445  0.3256  0.3074
 8192SOL    HW230413   7.224   9.679   5.233 -0.1116 -0.4478 -0.7856
 8193SOL     OW30414   5.724   0.238   8.798  0.1849  0.6196  0.7510
 8193SOL    HW130415   5.676   0.245   8.715  1.5058  2.0264  0.0642
 8193SOL    HW230416   5.711   0.147   8.825 -1.5410  0.5311 -0.1909
 8194SOL     OW30417   4.892   6.510   1.974  0.2649 -0.0276  0.3029
 8194SOL    HW130418   4.982   6.500   1.945 -0.1358  0.4240 -1.2065
 8194SOL    HW230419   4.843   6.531   1.894 -1.4285 -1.7074  0.8048
 8195SOL     OW30420   2.157   0.900   6.845 -0.4813 -0.3262 -0.0408
 8195SOL    HW130421   2.188   0.978   6.892 -0.0161 -0.8033  0.4559
 8195SOL    HW230422   2.162   0.925   6.753  1.4254 -0.3807  0.0125
 8196SOL     OW30423   8.485   3.987   6.254  0.1432 -1.0166 -0.2272
 8196SOL    HW130424   8.498   3.965   6.162  1.2244 -0.4950 -0.2164
 8196SOL    HW230425   8.487   4.083   6.256 -0.4949 -1.0021  0.2670
 8197SOL     OW30426  10.684   0.361   0.248 -0.5076 -0.6227  0.3471
 8197SOL    HW130427  10.693   0.425   0.318  1.1323 -0.9870  0.5161
 8197SOL    HW230428  10.698   0.411   0.168 -0.4354 -0.5557  0.4023
 8198SOL     OW30429   6.947   4.157   6.364 -0.5028  0.2815  0.0604
 8198SOL    HW130430   6.927   4.192   6.451  0.3136 -0.8719  0.7432
 8198SOL    HW230431   6.926   4.064   6.370 -0.5530  0.2124 -1.0196
 8199SOL     OW30432   0.944   3.056   5.942 -0.8132 -0.2523  0.2086
 8199SOL    HW130433   0.954   3.075   5.849 -0.0920 -1.8025 -0.0718
 8199SOL    HW230434   0.999   3.120   5.987 -0.8641  0.2570 -0.4451
 8200SOL     OW30435   9.224   0.849   9.840 -0.0262 -0.5728  0.5020
 8200SOL    HW130436   9.139   0.892   9.841 -0.6589 -1.7314 -0.4294
 8200SOL    HW230437   9.265   0.880   9.759  0.3419 -0.2014  0.8296
 8201SOL     OW30438   7.544   6.618   3.916 -0.8771  0.3772 -0.0543
 8201SOL    HW130439   7.479   6.626   3.846  0.0193  0.8587 -0.8756
 8201SOL    HW230440   7.605   6.552   3.883  0.8433  2.2416 -0.8588
 8202SOL     OW30441   6.119   0.174   2.391 -0.2462  0.5393  0.3178
 8202SOL    HW130442   6.041   0.161   2.337  0.3391  0.8929 -0.6448
 8202SOL    HW230443   6.111   0.108   2.460 -0.9813  0.0186 -0.2405
 8203SOL     OW30444   4.910   6.771   7.419 -0.0616  0.1090 -0.2199
 8203SOL    HW130445   4.928   6.691   7.369 -3.2645  0.2520 -1.8846
 8203SOL    HW230446   4.951   6.756   7.504 -1.4737 -3.8554 -0.0183
 8204SOL     OW30447   6.611   1.491   4.759 -0.3006  0.5345 -0.2123
 8204SOL    HW130448   6.591   1.450   4.675  0.1854  0.1537 -0.1466
 8204SOL    HW230449   6.549   1.452   4.821  0.0662 -0.0134 -0.1784
 8205SOL     OW30450   0.699   9.806   6.720  0.1952 -0.6362  0.1953
 8205SOL    HW130451   0.658   9.791   6.805 -0.0377  0.6061  0.3253
 8205SOL    HW230452   0.723   9.719   6.689 -1.5566 -1.3070  0.6148
 8206SOL     OW30453   7.843   9.680   7.512  0.2954  0.5269 -0.3331
 8206SOL    HW130454   7.770   9.728   7.552  1.0106  0.2957  1.3323
 8206SOL    HW230455   7.920   9.732   7.533  0.8801 -0.4511  0.0157
 8207SOL     OW30456   1.026   0.068   8.314 -0.3773  0.1013 -0.1625
 8207SOL    HW130457   0.932   0.067   8.332 -0.3747 -2.1052 -0.0604
 8207SOL    HW230458   1.034   0.037   8.224  0.2828 -0.5345  0.1003
 8208SOL     OW30459   2.864   3.560   5.045  0.5970 -0.5941 -0.0681
 8208SOL    HW130460   2.857   3.477   5.091  1.2426 -0.9302 -0.5598
 8208SOL    HW230461   2.895   3.622   5.111 -1.0674 -0.4435  0.6131
 8209SOL     OW30462   1.303   2.375   0.610 -0.4125 -0.0060 -0.5549
 8209SOL    HW130463   1.254   2.428   0.673  2.3132  1.7094  0.2928
 8209SOL    HW230464   1.317   2.432   0.535  1.2122 -0.0277 -0.2996
 8210SOL     OW30465   4.489   7.723   2.258  0.2573  0.0049  0.1336
 8210SOL    HW130466   4.407   7.771   2.248 -0.0164 -0.5920 -0.5046
 8210SOL    HW230467   4.523   7.752   2.343 -0.7764 -0.0019  0.5552
 8211SOL     OW30468  10.468   1.799   6.951  0.0877  0.3725 -0.4486
 8211SOL    HW130469  10.433   1.829   6.867 -1.9156  1.0989  0.5883
 8211SOL    HW230470  10.494   1.880   6.996  0.5148  0.0374 -0.0837
 8212SOL     OW30471   5.887   0.614  10.524 -0.6064  0.4043  0.2754
 8212SOL    HW130472   5.876   0.672  10.600 -2.6444  0.9265 -0.3526
 8212SOL    HW230473   5.891   0.674  10.450 -1.4700 -0.2101 -0.2717
 8213SOL     OW30474   1.700   0.061   9.430  0.2339  0.1343 -0.0023
 8213SOL    HW130475   1.712   0.069   9.336  0.7442 -0.1409  0.0376
 8213SOL    HW230476   1.772   0.111   9.469  1.5175 -1.7745  0.2296
 8214SOL     OW30477   3.552   0.441   1.192  0.1845  0.0736  0.8626
 8214SOL    HW130478   3.566   0.463   1.284  1.4243  1.1632  0.4260
 8214SOL    HW230479   3.508   0.517   1.156  0.8259  0.1634  0.2665
 8215SOL     OW30480   3.731   4.192   0.346 -0.7128  0.7193  0.3087
 8215SOL    HW130481   3.688   4.126   0.401  0.7449 -0.3807  0.1698
 8215SOL    HW230482   3.759   4.144   0.268 -0.6813  1.7762 -0.3492
 8216SOL     OW30483   0.707   3.286   6.796 -0.2748 -0.7471  0.0736
 8216SOL    HW130484   0.720   3.301   6.889  0.8742  1.0533 -0.3387
 8216SOL    HW230485   0.637   3.346   6.771  0.7419  0.2062 -0.5714
 8217SOL     OW30486   3.340   3.188   9.917  0.4506 -0.0451 -0.5522
 8217SOL    HW130487   3.391   3.151   9.845  0.1150  2.0331 -1.9119
 8217SOL    HW230488   3.394   3.259   9.950  0.6432 -1.0119  1.3777
 8218SOL     OW30489   1.783   0.302   0.974 -0.7438  0.1848 -0.4663
 8218SOL    HW130490   1.786   0.215   1.013 -1.7011  0.0689 -0.6388
 8218SOL    HW230491   1.705   0.343   1.011 -1.0356  0.4880 -1.3907
 8219SOL     OW30492   8.825   6.823   0.267  0.7456 -0.2779  0.5149
 8219SOL    HW130493   8.768   6.893   0.236  0.3575 -0.7075  0.2466
 8219SOL    HW230494   8.854   6.852   0.353 -0.6110 -0.4595  1.0578
 8220SOL     OW30495  10.038   8.822   2.450 -0.1189  0.1801 -0.5133
 8220SOL    HW130496  10.065   8.892   2.390  0.0656  0.1199 -0.4990
 8220SOL    HW230497   9.963   8.858   2.496 -0.7760 -0.0606 -1.3587
 8221SOL     OW30498   9.094   6.231  10.149 -0.0549 -0.4994 -0.0435
 8221SOL    HW130499   9.087   6.323  10.175  0.8283 -0.3083 -0.4562
 8221SOL    HW230500   9.006   6.209  10.117  0.1038  0.6552 -1.3839
 8222SOL     OW30501   6.077   5.696  10.439 -0.1765  0.1927  0.4315
 8222SOL    HW130502   6.090   5.645  10.518 -0.6070  0.2937  0.5702
 8222SOL    HW230503   6.123   5.778  10.456 -0.2698  0.2151  0.5815
 8223SOL     OW30504   4.403   6.610   1.702  0.2681  0.3325 -0.0057
 8223SOL    HW130505   4.363   6.625   1.616  0.8411 -0.8355 -0.4960
 8223SOL    HW230506   4.329   6.596   1.761 -0.0924 -1.1750 -0.7774
 8224SOL     OW30507   3.273   2.143   8.416  0.6711  0.7690 -0.1981
 8224SOL    HW130508   3.195   2.138   8.360  1.4746 -0.4346 -1.2715
 8224SOL    HW230509   3.266   2.067   8.473  0.5431  1.2479  0.4390
 8225SOL     OW30510   1.365   5.642  10.035 -0.4280 -0.8451  0.3949
 8225SOL    HW130511   1.412   5.725  10.045 -1.9435  0.0995  0.0362
 8225SOL    HW230512   1.434   5.576  10.035  0.9690  0.5188 -0.8258
 8226SOL     OW30513   8.358   4.577   0.318 -0.0577  0.5290 -0.6285
 8226SOL    HW130514   8.298   4.611   0.385 -1.6401  0.2196 -1.8179
 8226SOL    HW230515   8.435   4.634   0.324 -0.2808  0.7184  1.1953
 8227SOL     OW30516   2.586   4.373   1.664 -0.2110 -0.0585  0.0912
 8227SOL    HW130517   2.624   4.315   1.598 -0.0533 -0.2553  0.3512
 8227SOL    HW230518   2.505   4.405   1.625 -0.4280 -0.6571  0.0491
 8228SOL     OW30519   6.234   3.051   5.521 -0.5441 -0.5575 -0.4997
 8228SOL    HW130520   6.319   3.038   5.563 -0.8174 -0.8737 -0.0379
 8228SOL    HW230521   6.230   3.145   5.503 -0.2087 -0.4988 -0.2816
 8229SOL     OW30522  10.417   5.908   0.095  0.0144  0.8628 -0.1169
 8229SOL    HW130523  10.356   5.964   0.143 -1.3301 -0.1995 -0.5282
 8229SOL    HW230524  10.432   5.833   0.154 -0.5044  0.2553 -0.7439
 8230SOL     OW30525   1.232   1.479   3.164 -0.0589  0.2712 -0.3821
 8230SOL    HW130526   1.175   1.460   3.089  0.2687 -0.9924 -0.3254
 8230SOL    HW230527   1.249   1.394   3.203 -0.9973  0.9920  1.7332
 8231SOL     OW30528   0.280   7.099   4.399 -0.2558 -0.2197 -0.0428
 8231SOL    HW130529   0.240   7.167   4.345 -3.5074 -2.8542 -1.2895
 8231SOL    HW230530   0.318   7.147   4.473 -0.2829  3.0711 -1.9609
 8232SOL     OW30531   6.466   2.797   6.176  0.3375 -0.1084 -0.2414
 8232SOL    HW130532   6.516   2.790   6.257  0.0725 -0.3663 -0.0979
 8232SOL    HW230533   6.391   2.852   6.200 -0.4114 -1.2108  0.0246
 8233SOL     OW30534   1.876   7.929   0.325 -0.0889  0.3554  0.3277
 8233SOL    HW130535   1.959   7.902   0.364 -1.0076  0.9627  2.9631
 8233SOL    HW230536   1.872   8.024   0.341 -0.5056  0.6455 -1.3894
 8234SOL     OW30537   1.121   3.551   7.183 -0.1918 -0.3580 -0.0583
 8234SOL    HW130538   1.207   3.560   7.142 -0.3634  0.5267 -0.2288
 8234SOL    HW230539   1.140   3.521   7.272  0.2833 -0.3676 -0.1606
 8235SOL     OW30540   5.218   7.067   2.723  0.0945  0.3863  0.0126
 8235SOL    HW130541   5.129   7.090   2.694 -0.4274 -2.2894 -0.7633
 8235SOL    HW230542   5.275   7.121   2.668 -0.9965  1.9667  0.3412
 8236SOL     OW30543  10.551   0.822   3.167  0.6913 -0.1015  0.0136
 8236SOL    HW130544  10.560   0.754   3.100  0.0515 -0.0740 -0.1090
 8236SOL    HW230545  10.466   0.805   3.207  0.5571  0.5793  0.0287
 8237SOL     OW30546   9.531   1.068   7.763 -0.2953 -0.2915 -0.0699
 8237SOL    HW130547   9.444   1.067   7.803 -0.3012  0.4267 -0.0505
 8237SOL    HW230548   9.591   1.054   7.836 -0.3720 -0.3982 -0.0267
 8238SOL     OW30549   4.201   9.372   0.819  0.1631  1.0968 -0.2855
 8238SOL    HW130550   4.247   9.451   0.846 -0.8391  1.8773 -0.8109
 8238SOL    HW230551   4.259   9.332   0.754  1.1756  0.7973  0.7521
 8239SOL     OW30552   2.002   6.189   4.217  0.3537  0.3012 -0.1345
 8239SOL    HW130553   1.928   6.138   4.248 -0.2633 -0.1044 -2.1011
 8239SOL    HW230554   2.016   6.159   4.127  2.2170  1.1393 -0.1825
 8240SOL     OW30555   3.911   2.571   1.599 -0.1063  0.1324 -0.0673
 8240SOL    HW130556   3.838   2.609   1.649 -0.1496  0.5199 -0.4194
 8240SOL    HW230557   3.905   2.612   1.513 -0.3509 -0.9236 -0.5729
 8241SOL     OW30558   2.290   7.292   5.455 -0.0672  0.2007  0.0016
 8241SOL    HW130559   2.279   7.287   5.359 -0.6177 -0.3050  0.0812
 8241SOL    HW230560   2.343   7.371   5.469  1.2379 -0.5015 -0.8046
 8242SOL     OW30561  10.206   3.236   2.895  0.1316  0.4696 -0.7486
 8242SOL    HW130562  10.241   3.274   2.975  0.1250 -3.2540  1.2138
 8242SOL    HW230563  10.113   3.224   2.912 -0.1382  0.7831 -1.8617
 8243SOL     OW30564   7.258   4.250   8.576  0.0483 -0.1474  0.6075
 8243SOL    HW130565   7.181   4.279   8.625 -0.3518 -0.5030  0.2006
 8243SOL    HW230566   7.321   4.222   8.643 -0.3080 -0.1728  0.9307
 8244SOL     OW30567   2.516   3.197   5.798  0.1543  0.1014  0.0912
 8244SOL    HW130568   2.429   3.234   5.815  0.9133  1.5441  1.0192
 8244SOL    HW230569   2.566   3.216   5.877  1.5345 -0.0531 -0.7157
 8245SOL     OW30570   9.289   3.316   1.621 -0.1377 -0.7862  0.2155
 8245SOL    HW130571   9.296   3.246   1.556  3.3024 -1.5023  1.1757
 8245SOL    HW230572   9.270   3.271   1.703  2.8948 -0.8596  0.9980
 8246SOL     OW30573   1.877   3.918   0.979  0.2589  0.0918  0.0859
 8246SOL    HW130574   1.842   3.993   1.028 -0.1113 -0.6114  0.9106
 8246SOL    HW230575   1.910   3.859   1.046  1.1433 -0.2008 -0.5913
 8247SOL     OW30576   2.086   0.661  10.523 -0.1643  0.1646  0.4622
 8247SOL    HW130577   2.046   0.609  10.593 -0.6609  2.0845  1.6762
 8247SOL    HW230578   2.038   0.744  10.525  0.8439  0.8153 -1.1540
 8248SOL     OW30579   7.235   8.528   9.175  1.0940 -0.1274 -0.1964
 8248SOL    HW130580   7.147   8.490   9.175  0.9605 -0.0502  2.9518
 8248SOL    HW230581   7.293   8.452   9.172  0.8667 -0.3357  0.3676
 8249SOL     OW30582   0.243   9.608   7.019 -0.3708 -0.1874 -0.7118
 8249SOL    HW130583   0.149   9.624   7.009 -0.6847 -1.0388  0.6929
 8249SOL    HW230584   0.266   9.650   7.102  0.6295  0.5189 -1.3251
 8250SOL     OW30585   8.369   9.074   5.775  0.3606 -0.1445 -0.3816
 8250SOL    HW130586   8.284   9.110   5.749 -0.7224 -0.9141  1.9088
 8250SOL    HW230587   8.348   8.993   5.822  2.3033  0.0450  0.9098
 8251SOL     OW30588   5.585   9.665   1.548 -0.2063 -0.5625 -0.4044
 8251SOL    HW130589   5.526   9.620   1.488  0.1507 -0.9252 -0.4874
 8251SOL    HW230590   5.547   9.649   1.635 -0.5204 -0.3471 -0.5032
 8252SOL     OW30591   1.411   3.733   7.254  0.5453 -0.5601  0.0134
 8252SOL    HW130592   1.396   3.661   7.193 -0.3150  0.3473 -0.9036
 8252SOL    HW230593   1.499   3.764   7.234  0.6799 -0.9694 -0.0194
 8253SOL     OW30594   0.110   6.289   3.565  0.2815  0.4436 -0.4237
 8253SOL    HW130595   0.132   6.376   3.534 -0.0361  0.3704 -0.8640
 8253SOL    HW230596   0.189   6.258   3.608  0.1571  1.2428  0.4020
 8254SOL     OW30597   4.111   1.241   0.629  0.1000  0.1220 -0.5860
 8254SOL    HW130598   4.028   1.196   0.612  0.3403  0.1141 -1.8699
 8254SOL    HW230599   4.089   1.308   0.693 -0.5899 -0.8063  0.1891
 8255SOL     OW30600   4.866   9.901   3.344  0.1878  0.4460 -0.4322
 8255SOL    HW130601   4.808   9.836   3.306  1.1188 -0.1425 -0.8961
 8255SOL    HW230602   4.931   9.850   3.393  1.4891  0.9411 -1.5895
 8256SOL     OW30603   8.349   5.519   6.191  0.9469 -0.0514  0.1652
 8256SOL    HW130604   8.402   5.517   6.111  0.8484 -1.3935  0.1197
 8256SOL    HW230605   8.275   5.576   6.168  0.9989 -0.3016 -0.6584
 8257SOL     OW30606   5.006   0.807   8.822  0.4992  0.7069  0.4487
 8257SOL    HW130607   5.024   0.797   8.728  2.2352 -0.1826  0.8251
 8257SOL    HW230608   5.090   0.786   8.864 -0.3251  0.8224  2.2181
 8258SOL     OW30609   1.332   7.587   9.633 -0.4442  0.4016  0.2601
 8258SOL    HW130610   1.384   7.507   9.645  0.1661  0.9166  1.1780
 8258SOL    HW230611   1.378   7.636   9.565 -0.8306 -0.0258 -0.3182
 8259SOL     OW30612   1.863   4.668   0.654  0.0551  0.3900  0.2978
 8259SOL    HW130613   1.854   4.717   0.572 -2.4770  0.7573  0.7131
 8259SOL    HW230614   1.861   4.735   0.723  1.6358  0.0397  0.7341
 8260SOL     OW30615   4.900   5.446   0.139  0.1205  0.2178 -0.5503
 8260SOL    HW130616   4.841   5.371   0.142  1.4593 -0.8756 -0.5876
 8260SOL    HW230617   4.981   5.414   0.178  0.6171  1.7591 -0.2601
 8261SOL     OW30618   3.096   3.929   3.199  0.5718 -0.5304 -0.2649
 8261SOL    HW130619   3.031   3.938   3.268 -1.1053 -0.3421 -1.7905
 8261SOL    HW230620   3.045   3.918   3.119  2.3716  1.7503 -1.8632
 8262SOL     OW30621   4.894   6.310   4.720  0.1389 -0.6122  0.0690
 8262SOL    HW130622   4.849   6.256   4.784 -0.6055 -0.8159 -0.6092
 8262SOL    HW230623   4.827   6.333   4.656  1.0185 -1.0056 -1.0267
 8263SOL     OW30624   6.540   2.621   1.790  0.2163 -0.2564  1.1448
 8263SOL    HW130625   6.629   2.651   1.776  1.0564 -1.4194  3.3994
 8263SOL    HW230626   6.498   2.690   1.841 -0.7291  0.9856 -1.1892
 8264SOL     OW30627   0.370   7.750   9.341  0.3148 -0.8357 -0.2711
 8264SOL    HW130628   0.416   7.823   9.382 -0.4894 -1.3314  1.5985
 8264SOL    HW230629   0.297   7.790   9.294  0.9815 -0.2987 -0.8784
 8265SOL     OW30630   5.241   8.984   4.903 -0.0244  0.4394 -0.6115
 8265SOL    HW130631   5.236   9.072   4.939  1.7371  0.5881 -0.6260
 8265SOL    HW230632   5.225   8.996   4.809 -0.1067  0.6904 -0.5670
 8266SOL     OW30633   0.708   4.055   8.832  0.0858  0.1130  0.3142
 8266SOL    HW130634   0.767   4.068   8.758 -1.4908  0.8622 -0.8543
 8266SOL    HW230635   0.676   3.966   8.822  0.0138  0.1528  0.1812
 8267SOL     OW30636   5.625   5.881   8.237 -0.3917 -0.2347  0.2415
 8267SOL    HW130637   5.592   5.959   8.281 -0.4763 -1.3826  2.3391
 8267SOL    HW230638   5.642   5.819   8.307  2.7447 -1.0293 -1.0495
 8268SOL     OW30639   5.645   9.955   2.566 -0.2170  0.0474  0.1753
 8268SOL    HW130640   5.724  10.006   2.545  0.2162 -0.5703  0.2649
 8268SOL    HW230641   5.622   9.913   2.483 -0.6542  0.4961  0.0688
 8269SOL     OW30642   9.232   4.859   1.037  0.1234 -0.5620 -0.0664
 8269SOL    HW130643   9.306   4.916   1.017  0.1811  0.6396  2.9777
 8269SOL    HW230644   9.165   4.882   0.973  0.9626  1.3497 -0.3129
 8270SOL     OW30645   1.606   0.047   5.689  0.1408 -0.0708 -0.1319
 8270SOL    HW130646   1.686   0.089   5.657  0.3732  1.1977  1.9425
 8270SOL    HW230647   1.636  -0.037   5.724  0.8972  1.0439  2.0487
 8271SOL     OW30648   8.610   7.291   9.021 -0.2319 -0.1004  0.0286
 8271SOL    HW130649   8.601   7.250   8.934 -0.3389  0.0707 -0.0422
 8271SOL    HW230650   8.601   7.218   9.082 -1.2184 -0.0750 -0.0730
 8272SOL     OW30651   9.342   1.046   8.764  0.2767 -0.1007 -0.4425
 8272SOL    HW130652   9.291   1.110   8.715 -1.0506  0.5523  1.6254
 8272SOL    HW230653   9.393   1.098   8.826  1.8193 -0.8888 -1.0212
 8273SOL     OW30654   6.476  10.718   2.327 -0.3342  0.3808  0.1321
 8273SOL    HW130655   6.541  10.753   2.388 -1.7301  0.6384  1.5518
 8273SOL    HW230656   6.527  10.689   2.251  1.4205  0.5785  1.1766
 8274SOL     OW30657   1.854   2.459   3.988  0.4518 -0.3836  0.1516
 8274SOL    HW130658   1.942   2.485   4.015  0.9838  0.3807 -2.0799
 8274SOL    HW230659   1.868   2.380   3.935  0.2132  1.2446 -2.5160
 8275SOL     OW30660   3.318   0.756   2.972 -0.1347 -0.1035  0.2923
 8275SOL    HW130661   3.232   0.794   2.955  0.1769  2.1583  3.0366
 8275SOL    HW230662   3.379   0.816   2.928  0.1712  0.1331  1.0303
 8276SOL     OW30663   0.543   9.329   3.011  0.2591 -0.0356  0.5821
 8276SOL    HW130664   0.612   9.263   3.022 -0.2668 -0.5876  0.5769
 8276SOL    HW230665   0.487   9.319   3.088 -1.1009 -1.1408 -0.5020
 8277SOL     OW30666   9.246   0.020   5.047  0.1156  0.4540  0.1453
 8277SOL    HW130667   9.281   0.025   4.958 -0.0020  0.5255  0.1040
 8277SOL    HW230668   9.194   0.099   5.057 -0.8361 -0.1257 -0.1260
 8278SOL     OW30669   4.964   0.543   4.331  0.2124 -0.2820 -0.3198
 8278SOL    HW130670   5.047   0.559   4.377 -0.3504 -0.7162  0.8739
 8278SOL    HW230671   4.910   0.496   4.394 -0.5036 -1.1227 -1.5173
 8279SOL     OW30672   7.071   7.038   8.712  0.0671 -0.0754 -0.4026
 8279SOL    HW130673   7.038   7.098   8.645  0.4414  0.0479 -0.4747
 8279SOL    HW230674   7.074   6.953   8.668  0.5721  0.0567 -0.6228
 8280SOL     OW30675   6.284   2.569  10.350 -0.2777  0.2427 -0.1180
 8280SOL    HW130676   6.293   2.598  10.259 -1.4710  2.2851  0.3551
 8280SOL    HW230677   6.339   2.629  10.400 -1.2687  0.4837  0.7145
 8281SOL     OW30678   0.330   9.612   0.177  0.1832  0.5460  0.4147
 8281SOL    HW130679   0.294   9.535   0.219  1.2327  1.2309  2.7432
 8281SOL    HW230680   0.264   9.638   0.113 -0.1678 -2.2523 -0.4926
 8282SOL     OW30681   0.215   4.595   7.179  0.5533  0.1304  0.4850
 8282SOL    HW130682   0.226   4.638   7.094  0.6127 -2.9366 -1.1748
 8282SOL    HW230683   0.286   4.631   7.233  3.6180 -1.2576 -2.2912
 8283SOL     OW30684   8.863  10.346   3.227  0.2064 -0.1180 -0.2367
 8283SOL    HW130685   8.898  10.324   3.141  0.1407  0.7640 -0.5017
 8283SOL    HW230686   8.932  10.397   3.269  0.6519 -1.4059  0.6502
 8284SOL     OW30687   3.890   8.483   7.877  0.5674 -0.5012 -0.2379
 8284SOL    HW130688   3.908   8.434   7.797  1.1302  0.8781 -0.9949
 8284SOL    HW230689   3.813   8.536   7.855  1.0542  0.2933 -0.0769
 8285SOL     OW30690   2.874   4.872   4.882 -0.2541 -0.0713  0.0528
 8285SOL    HW130691   2.957   4.883   4.928  0.1225  0.9254 -0.8259
 8285SOL    HW230692   2.872   4.943   4.818 -0.9053 -1.1951 -1.2425
 8286SOL     OW30693   3.689   1.033   4.901  0.4860 -0.0526  0.2453
 8286SOL    HW130694   3.619   1.073   4.850  0.9318 -0.6381 -0.8568
 8286SOL    HW230695   3.678   0.939   4.887  1.5423 -0.1486 -0.0194
 8287SOL     OW30696   5.558   1.830   0.478  0.0593 -0.3503 -0.6746
 8287SOL    HW130697   5.515   1.855   0.396  1.1919  1.2400 -0.8205
 8287SOL    HW230698   5.544   1.905   0.536  1.8302 -0.1405 -0.4487
 8288SOL     OW30699   8.260   8.786   9.105  0.0012 -0.6469 -0.3458
 8288SOL    HW130700   8.256   8.878   9.079  1.3136 -0.3274  0.4694
 8288SOL    HW230701   8.246   8.737   9.024 -0.2831  0.2682 -0.8647
 8289SOL     OW30702   7.893   8.416   7.167  0.0106 -0.5245 -0.5895
 8289SOL    HW130703   7.809   8.462   7.171  0.1333 -0.0438 -2.5157
 8289SOL    HW230704   7.909   8.388   7.257 -2.9613 -1.9927 -0.3866
 8290SOL     OW30705   6.421   3.016   8.845  0.2658 -0.0634 -0.1882
 8290SOL    HW130706   6.464   3.095   8.879  0.5097  0.2115 -1.1107
 8290SOL    HW230707   6.449   2.946   8.904  1.8658  0.1374 -0.6708
 8291SOL     OW30708   6.065   7.964   8.754 -0.1244  0.0638  0.4072
 8291SOL    HW130709   6.080   7.912   8.675 -0.9445 -0.5230  0.6293
 8291SOL    HW230710   6.152   7.969   8.795  0.0423 -0.7933  0.1776
 8292SOL     OW30711   3.566   9.229   6.242  0.3277 -0.0812  0.5919
 8292SOL    HW130712   3.653   9.267   6.243  0.0459  0.5981  2.4147
 8292SOL    HW230713   3.516   9.284   6.181  0.9344  0.0298  0.1846
 8293SOL     OW30714   8.357   5.408   2.644 -0.0533 -0.5200 -0.5928
 8293SOL    HW130715   8.334   5.481   2.702  3.0109  0.2911 -0.1785
 8293SOL    HW230716   8.324   5.435   2.558 -0.2359  0.6943 -0.1703
 8294SOL     OW30717   8.792   2.938   4.180  0.1971 -0.6057 -0.6440
 8294SOL    HW130718   8.706   2.906   4.207  0.0652 -1.1035 -1.6356
 8294SOL    HW230719   8.847   2.928   4.258 -0.3240 -1.4742 -0.3767
 8295SOL     OW30720  10.052   3.944   8.883  0.0297  0.1379 -0.1170
 8295SOL    HW130721  10.085   3.905   8.964  1.4183  1.3754 -0.0426
 8295SOL    HW230722  10.011   4.026   8.911  0.3319  0.4734 -0.6438
 8296SOL     OW30723   1.205   2.768  10.425  0.0305  0.5347  0.5202
 8296SOL    HW130724   1.298   2.753  10.441 -0.3979  0.3018  3.4065
 8296SOL    HW230725   1.180   2.832  10.492 -1.7814  0.9993 -0.5453
 8297SOL     OW30726   3.416   8.203   8.509 -0.0042 -0.0798 -0.4002
 8297SOL    HW130727   3.495   8.180   8.558  0.0837 -3.0178 -1.7147
 8297SOL    HW230728   3.448   8.237   8.426 -0.1580  1.3970  0.1254
 8298SOL     OW30729   2.936   0.540   9.019 -0.0198  0.0982  0.2862
 8298SOL    HW130730   2.915   0.629   8.989 -3.6099 -0.5551  0.3401
 8298SOL    HW230731   2.879   0.483   8.968  0.7978 -2.0078  1.5765
 8299SOL     OW30732   5.766   5.006   5.656  0.2771 -0.2896 -0.1652
 8299SOL    HW130733   5.799   5.094   5.643  2.5594 -0.6882  2.0951
 8299SOL    HW230734   5.672   5.017   5.667  0.5033  1.8642  0.0214
 8300SOL     OW30735   4.245   4.886   2.515 -0.1902 -0.8790 -0.0236
 8300SOL    HW130736   4.258   4.798   2.551  2.9440 -1.2307 -1.5895
 8300SOL    HW230737   4.222   4.940   2.590 -0.1189 -2.6696  1.3622
 8301SOL     OW30738   1.089   9.484   0.602  0.0698  0.2282 -0.3977
 8301SOL    HW130739   1.059   9.435   0.679  3.1473  0.4451  1.1164
 8301SOL    HW230740   1.091   9.420   0.531 -1.0890 -0.4394  0.1430
 8302SOL     OW30741   4.106   8.214   3.546  0.0568 -0.0484  0.0780
 8302SOL    HW130742   4.146   8.300   3.532  0.0608 -0.0561  0.0392
 8302SOL    HW230743   4.023   8.233   3.589 -1.0694  0.1775 -2.0581
 8303SOL     OW30744   5.518   0.403   2.576  0.1909 -0.4185 -0.5273
 8303SOL    HW130745   5.483   0.488   2.603  2.1002 -0.0229  0.9027
 8303SOL    HW230746   5.612   0.417   2.568  0.6831 -2.6146  0.6487
 8304SOL     OW30747   5.093   2.252   2.635 -0.2279 -0.1923  0.6907
 8304SOL    HW130748   4.998   2.242   2.634 -0.3921  0.5472 -2.3942
 8304SOL    HW230749   5.126   2.164   2.617 -0.4604 -0.0566 -0.4676
 8305SOL     OW30750   7.475   6.618   1.447  0.0743  0.1312  0.1011
 8305SOL    HW130751   7.409   6.558   1.412 -0.6512  0.7150  0.4356
 8305SOL    HW230752   7.426   6.679   1.502  0.7745  1.0907 -0.2960
 8306SOL     OW30753   5.587  10.080   8.979 -0.2732 -0.6799  0.2274
 8306SOL    HW130754   5.582   9.995   8.934 -2.0039 -0.2356 -0.4967
 8306SOL    HW230755   5.680  10.091   8.999  0.0034 -2.7268  0.3120
 8307SOL     OW30756   3.579   7.556   8.445  0.3291 -0.5256  0.1798
 8307SOL    HW130757   3.565   7.467   8.410  1.8673 -1.1307  1.0157
 8307SOL    HW230758   3.671   7.556   8.473  0.5968  1.6171 -0.5776
 8308SOL     OW30759   8.617   7.545  10.115 -0.0590  0.0069 -0.1801
 8308SOL    HW130760   8.539   7.536  10.061  0.3891 -0.0296 -0.8249
 8308SOL    HW230761   8.687   7.504  10.065  0.3012 -0.3256  0.5756
 8309SOL     OW30762   9.568   5.169   2.098 -0.1529  0.6758 -0.3139
 8309SOL    HW130763   9.478   5.200   2.104 -0.4486 -0.4611  2.0691
 8309SOL    HW230764   9.572   5.094   2.157  1.3426 -1.9070 -3.4455
 8310SOL     OW30765   8.273   8.907   1.705  0.1834 -0.1399 -0.5430
 8310SOL    HW130766   8.251   8.867   1.621 -0.1134 -1.0930 -0.0363
 8310SOL    HW230767   8.221   8.857   1.769  0.1417  0.7882  0.1662
 8311SOL     OW30768  10.333   8.328   3.770  0.1349  0.1765  0.0273
 8311SOL    HW130769  10.410   8.385   3.760 -0.3765  0.6913 -1.2206
 8311SOL    HW230770  10.262   8.387   3.791 -0.4265  0.0605 -1.3882
 8312SOL     OW30771   5.888   0.596   9.892 -0.6137 -0.5199 -0.4162
 8312SOL    HW130772   5.923   0.550   9.816  0.3722  2.4289 -1.8965
 8312SOL    HW230773   5.960   0.652   9.922 -2.3844  1.8700 -0.3223
 8313SOL     OW30774   0.308   2.712   1.836  0.6898 -0.0876 -0.4063
 8313SOL    HW130775   0.279   2.622   1.847  0.1278  0.0043 -1.0556
 8313SOL    HW230776   0.295   2.753   1.921  2.6529 -1.0746  0.4364
 8314SOL     OW30777  10.589   0.429   5.704  0.3731  0.6436 -0.6542
 8314SOL    HW130778  10.519   0.485   5.739  1.4128 -0.5019  3.7674
 8314SOL    HW230779  10.667   0.483   5.707  0.6597  0.2094 -0.3228
 8315SOL     OW30780   9.441   1.963   2.792  0.2931  0.0618 -0.0801
 8315SOL    HW130781   9.395   1.995   2.714 -0.5691 -1.3965 -0.1998
 8315SOL    HW230782   9.525   1.930   2.759  0.9150  1.5356 -0.0437
 8316SOL     OW30783   2.134   3.011  10.444 -0.4345  0.0457  0.1654
 8316SOL    HW130784   2.191   3.057  10.382 -0.8493 -1.8927 -1.7716
 8316SOL    HW230785   2.127   3.071  10.519  0.2218  2.4342 -1.5619
 8317SOL     OW30786   0.251   2.524   0.434  0.3328 -0.0012  0.4812
 8317SOL    HW130787   0.307   2.597   0.460  1.7291 -0.7422 -0.3439
 8317SOL    HW230788   0.299   2.446   0.463  1.0256 -0.7801 -2.4354
 8318SOL     OW30789   8.093   0.601   4.100  0.0529  0.9061 -0.3317
 8318SOL    HW130790   8.071   0.694   4.099  1.6844  1.3220 -1.3887
 8318SOL    HW230791   8.186   0.597   4.075  0.7766 -0.8336  2.1350
 8319SOL     OW30792   2.785   8.915  10.495  0.1025  0.1829 -0.3115
 8319SOL    HW130793   2.763   8.915  10.588  0.9206  0.0545 -0.1047
 8319SOL    HW230794   2.849   8.844  10.486  1.9848  1.8346 -0.4828
 8320SOL     OW30795   4.528   8.413  10.531 -0.3381 -0.9298 -0.4770
 8320SOL    HW130796   4.441   8.404  10.568 -0.4965 -0.2243 -0.6644
 8320SOL    HW230797   4.575   8.334  10.559 -0.0885  0.0728  2.2268
 8321SOL     OW30798   9.260  10.201   2.396 -0.3839  0.4397  0.1733
 8321SOL    HW130799   9.175  10.230   2.427 -0.0015  2.9645 -0.8776
 8321SOL    HW230800   9.323  10.240   2.456  0.1079  0.2616 -0.2141
 8322SOL     OW30801   6.428   6.058   7.660  0.4339  0.0053 -0.2279
 8322SOL    HW130802   6.443   5.982   7.604 -0.4900 -0.1235 -0.3179
 8322SOL    HW230803   6.428   6.132   7.600  1.2390  0.0759 -0.1528
 8323SOL     OW30804   1.970   5.879  10.064 -0.2091  0.2504 -0.0555
 8323SOL    HW130805   1.963   5.787  10.038 -0.9051  0.6774 -1.5001
 8323SOL    HW230806   2.017   5.920   9.992  1.8610  0.7242  1.4525
 8324SOL     OW30807   4.767   9.882  10.453  0.8783  0.2582 -0.5583
 8324SOL    HW130808   4.686   9.848  10.416  1.5518 -0.7166 -1.1928
 8324SOL    HW230809   4.746   9.971  10.482 -0.2731  0.1921 -1.1694
 8325SOL     OW30810   5.088   2.476   7.061  0.0635 -0.7172 -0.6257
 8325SOL    HW130811   5.082   2.512   6.973  1.2854 -1.5640 -1.0680
 8325SOL    HW230812   5.021   2.524   7.110 -0.8932 -0.4860 -2.0827
 8326SOL     OW30813   9.237   1.695   8.205  0.0959  0.4341 -0.0840
 8326SOL    HW130814   9.142   1.693   8.191 -0.0414  1.1780  0.6858
 8326SOL    HW230815   9.255   1.786   8.231  1.1197  0.4876 -0.9032
 8327SOL     OW30816   7.364   8.121   7.716  0.3276 -0.5876 -0.0694
 8327SOL    HW130817   7.399   8.196   7.667  0.1478  0.0193  0.7088
 8327SOL    HW230818   7.355   8.153   7.806 -3.7799 -0.0924 -0.4581
 8328SOL     OW30819   7.730   9.171   1.906  0.2766 -0.2216  0.3343
 8328SOL    HW130820   7.685   9.105   1.853 -1.2844  1.2942 -0.3388
 8328SOL    HW230821   7.811   9.129   1.933  1.4387 -0.9432 -3.6632
 8329SOL     OW30822   4.756   9.492   3.903 -0.0147  0.0763 -0.0670
 8329SOL    HW130823   4.695   9.424   3.874  1.1340 -0.6645 -0.8506
 8329SOL    HW230824   4.756   9.485   3.998 -0.2627 -0.7259 -0.1186
 8330SOL     OW30825   5.877   8.772   3.127  0.0060  0.1099  0.7558
 8330SOL    HW130826   5.859   8.848   3.182 -1.4677  0.6962 -0.4463
 8330SOL    HW230827   5.791   8.747   3.093  0.9775  1.1485 -2.9632
 8331SOL     OW30828   7.729   8.204   7.351  0.0639  0.0095 -0.4059
 8331SOL    HW130829   7.809   8.244   7.386  0.0361  0.2639 -0.6289
 8331SOL    HW230830   7.756   8.169   7.266 -0.1518  0.4271 -0.6494
 8332SOL     OW30831   2.978   7.308   0.761  0.0306 -0.2507  0.1052
 8332SOL    HW130832   2.916   7.301   0.688 -0.5812  0.0035  0.5928
 8332SOL    HW230833   3.062   7.284   0.723 -0.3645 -0.5954 -0.5709
 8333SOL     OW30834   5.839   2.646   9.378 -0.4566 -0.0762 -0.1159
 8333SOL    HW130835   5.871   2.634   9.289  0.1454 -1.4645  0.2740
 8333SOL    HW230836   5.909   2.614   9.434 -1.0276  0.3123  0.8544
 8334SOL     OW30837   3.971   3.820   7.172 -0.7434 -0.1575  0.6172
 8334SOL    HW130838   4.050   3.856   7.214  0.2974 -1.9763  0.3458
 8334SOL    HW230839   3.982   3.841   7.079 -0.6767 -0.2131  0.6120
 8335SOL     OW30840   0.709   5.659   3.421 -0.0511  0.1374 -0.0127
 8335SOL    HW130841   0.692   5.594   3.490 -0.6988 -2.1007 -2.1308
 8335SOL    HW230842   0.764   5.613   3.358  1.3356  2.4343 -0.5581
 8336SOL     OW30843   1.385   3.299   2.733 -0.4889  0.7053  0.5348
 8336SOL    HW130844   1.329   3.353   2.678 -0.4562 -0.0530 -0.2589
 8336SOL    HW230845   1.459   3.275   2.676 -1.1916 -1.3208  0.4090
 8337SOL     OW30846   7.238   9.143   4.181  0.0315  0.0088  0.3578
 8337SOL    HW130847   7.143   9.133   4.194 -0.3323 -1.0660 -2.5312
 8337SOL    HW230848   7.274   9.057   4.200 -0.1496 -0.7374 -2.3332
 8338SOL     OW30849   0.344   7.007   2.832 -0.6593  0.8691  0.6898
 8338SOL    HW130850   0.402   6.963   2.770 -1.6671  0.4823 -0.0078
 8338SOL    HW230851   0.373   7.098   2.832 -1.6110  1.2313 -1.5714
 8339SOL     OW30852   5.226   9.459   5.661  0.0655 -0.2104  0.3280
 8339SOL    HW130853   5.195   9.369   5.670 -2.2746  0.2426 -1.9755
 8339SOL    HW230854   5.148   9.510   5.641  1.6461  1.8906 -1.0406
 8340SOL     OW30855   1.733   0.075   3.482 -0.3827  0.5167  0.0398
 8340SOL    HW130856   1.719  -0.015   3.452  0.5200  0.1061  0.7724
 8340SOL    HW230857   1.706   0.129   3.408  1.6742 -0.4484 -1.5500
 8341SOL     OW30858   2.841   5.360  10.319 -0.0019  0.2108  0.2835
 8341SOL    HW130859   2.772   5.422  10.294  1.3898  1.2140 -1.2192
 8341SOL    HW230860   2.793   5.280  10.340 -1.7019  1.1437  0.1911
 8342SOL     OW30861   0.259   9.347  10.196  0.2126 -0.0706 -0.2639
 8342SOL    HW130862   0.202   9.407  10.245  1.9451 -0.4528  2.4769
 8342SOL    HW230863   0.329   9.403  10.164  0.3969 -0.1939 -0.0799
 8343SOL     OW30864   5.101   0.600   3.855 -0.2528 -0.9234 -0.1395
 8343SOL    HW130865   5.111   0.596   3.950 -1.0315  0.5428  0.0335
 8343SOL    HW230866   5.006   0.606   3.841 -0.1916 -1.7668 -1.0612
 8344SOL     OW30867   5.954   7.748   5.307  0.1748  0.2580  0.4027
 8344SOL    HW130868   5.997   7.748   5.221  0.1760  0.2398  0.4034
 8344SOL    HW230869   6.027   7.754   5.369  0.1059  2.1214  0.3604
 8345SOL     OW30870   9.393   0.907   1.252 -0.0590 -0.0834  0.5824
 8345SOL    HW130871   9.379   0.920   1.346  2.2836 -1.7829  1.2683
 8345SOL    HW230872   9.313   0.865   1.221 -0.8049  0.3479  1.8463
 8346SOL     OW30873   3.245   8.726   3.199 -0.3141  0.3303  0.0417
 8346SOL    HW130874   3.317   8.789   3.204 -1.2311  1.5729 -1.3992
 8346SOL    HW230875   3.275   8.651   3.249  1.1354  1.6165  1.2109
 8347SOL     OW30876   7.352   8.006   1.741  0.4696 -0.0955  0.3331
 8347SOL    HW130877   7.282   8.056   1.782  0.2677 -0.5596  0.5645
 8347SOL    HW230878   7.341   8.020   1.647 -0.3182 -0.6711  0.3320
 8348SOL     OW30879   2.188   9.529   6.978 -0.1912 -0.1020 -0.2131
 8348SOL    HW130880   2.205   9.523   7.072 -0.4846  0.6991 -0.1003
 8348SOL    HW230881   2.271   9.555   6.940 -0.1654 -0.0624 -0.1298
 8349SOL     OW30882   5.140   6.763   6.199  0.0952  0.2514 -0.6944
 8349SOL    HW130883   5.217   6.817   6.214  0.1476  0.3575 -1.2959
 8349SOL    HW230884   5.175   6.680   6.166 -0.0513  0.4124 -1.2755
 8350SOL     OW30885   6.978   5.721   1.871 -0.5069 -0.3317  0.3089
 8350SOL    HW130886   6.971   5.735   1.776 -2.1417  0.8035  0.5581
 8350SOL    HW230887   7.071   5.703   1.886 -0.5164 -2.6129 -1.7486
 8351SOL     OW30888   8.966   3.324   6.790 -0.1083 -0.0497 -0.4172
 8351SOL    HW130889   9.051   3.296   6.823 -1.1754 -0.2583  2.3856
 8351SOL    HW230890   8.981   3.341   6.697  3.4462  1.7147  0.3099
 8352SOL     OW30891   0.170   4.139   2.151 -0.0942 -0.1095 -0.5822
 8352SOL    HW130892   0.262   4.123   2.171 -0.3155  0.1756  0.7419
 8352SOL    HW230893   0.148   4.218   2.201 -0.7079  0.6256 -1.9526
 8353SOL     OW30894  10.254   3.526   8.264 -0.5770 -0.7830 -0.2353
 8353SOL    HW130895  10.162   3.544   8.282 -0.7879 -1.9689 -0.0565
 8353SOL    HW230896  10.288   3.608   8.228 -1.8723 -0.5629 -0.9998
 8354SOL     OW30897   7.096   7.037   1.596 -0.6254  0.4382 -0.4019
 8354SOL    HW130898   7.074   7.120   1.640 -1.0719  1.0080 -1.6540
 8354SOL    HW230899   7.095   6.972   1.666 -1.8656  1.2225  0.3466
 8355SOL     OW30900   5.937   7.130   0.119  0.0567 -0.0608 -0.0579
 8355SOL    HW130901   5.860   7.091   0.161  1.6257 -1.6044  1.5607
 8355SOL    HW230902   5.936   7.096   0.030  0.3965 -2.4860  0.7894
 8356SOL     OW30903   6.110   1.523   0.605 -0.6610  0.2621  0.0369
 8356SOL    HW130904   6.088   1.430   0.606 -2.3878  0.6337  0.2687
 8356SOL    HW230905   6.045   1.563   0.663  0.4351  1.5404  0.4284
 8357SOL     OW30906   7.812   7.495   2.547  0.0447 -0.4158  0.6297
 8357SOL    HW130907   7.907   7.503   2.559  0.2103 -0.7753 -0.3506
 8357SOL    HW230908   7.775   7.564   2.602  1.0075  1.5183 -1.0200
 8358SOL     OW30909   1.924   2.919   6.285  0.2368  0.2570 -0.0476
 8358SOL    HW130910   1.951   2.974   6.211  1.0619  0.2439  0.2253
 8358SOL    HW230911   1.964   2.834   6.267  0.1956  0.1707  0.2623
 8359SOL     OW30912   1.488   0.453   2.902  0.4095  0.4858 -0.2543
 8359SOL    HW130913   1.562   0.514   2.901  1.4790 -0.7832 -0.5425
 8359SOL    HW230914   1.525   0.369   2.875 -1.1110 -0.2222 -0.2453
 8360SOL     OW30915   7.378   3.239   0.106 -0.2866  0.0948 -0.2991
 8360SOL    HW130916   7.362   3.218   0.014 -1.9116  0.0220 -0.0279
 8360SOL    HW230917   7.363   3.156   0.153 -1.2782  0.5326  0.1974
 8361SOL     OW30918   9.022   1.292   5.642  0.2336  0.3058 -0.1358
 8361SOL    HW130919   9.108   1.296   5.684 -0.0306  2.3371  0.3313
 8361SOL    HW230920   9.037   1.328   5.554  0.0772 -0.4726 -0.4893
 8362SOL     OW30921   4.087  10.666   1.854 -0.0288 -0.1216  0.5720
 8362SOL    HW130922   4.011  10.609   1.845 -1.1401  1.4790 -1.2177
 8362SOL    HW230923   4.080  10.703   1.942 -1.4163  0.0845  0.3898
 8363SOL     OW30924   4.980   2.456   1.566  0.4182 -0.1890 -0.2619
 8363SOL    HW130925   4.923   2.404   1.623 -0.4464  0.3213 -0.6404
 8363SOL    HW230926   5.041   2.499   1.626  0.5763 -0.9337  0.1264
 8364SOL     OW30927   9.454   2.330   0.388 -0.1388  0.7115  0.3411
 8364SOL    HW130928   9.477   2.367   0.473  0.7841 -0.0823  0.4529
 8364SOL    HW230929   9.365   2.362   0.371 -1.1909 -0.7872  2.5374
 8365SOL     OW30930   2.846   5.388   0.902 -0.0886  0.5678 -0.2485
 8365SOL    HW130931   2.771   5.437   0.869 -1.3596 -1.9744 -1.3471
 8365SOL    HW230932   2.812   5.336   0.974  0.7861 -0.0986 -0.2943
 8366SOL     OW30933   0.258   2.888   3.680 -0.1726  0.0885 -0.7280
 8366SOL    HW130934   0.174   2.933   3.685 -0.1679  0.1479 -1.1503
 8366SOL    HW230935   0.288   2.903   3.591  0.2850  0.0625 -0.5805
 8367SOL     OW30936  10.535   9.713   8.235  0.4897  0.1073  0.5807
 8367SOL    HW130937  10.571   9.625   8.242 -0.9990 -0.5101  0.8567
 8367SOL    HW230938  10.456   9.711   8.289 -0.1923  1.2771 -0.3277
 8368SOL     OW30939   0.484   1.976   1.659  0.6767  0.4372  0.2544
 8368SOL    HW130940   0.502   2.024   1.740  1.3440 -1.4322  1.2946
 8368SOL    HW230941   0.556   1.912   1.653 -0.6226 -1.0217 -0.5308
 8369SOL     OW30942   9.180   2.487   4.762 -0.3602  0.1886  0.4944
 8369SOL    HW130943   9.269   2.456   4.775 -0.2389  0.9446  1.5799
 8369SOL    HW230944   9.180   2.524   4.674  0.2114 -0.4058  0.2341
 8370SOL     OW30945   3.017   9.042   1.354 -0.2301  0.6576  0.1660
 8370SOL    HW130946   3.064   9.053   1.271  0.7978  0.3675  0.6934
 8370SOL    HW230947   2.979   9.129   1.371  1.2332  1.2853  0.3761
 8371SOL     OW30948   0.818  10.515   1.464  0.0750  0.4451 -0.1061
 8371SOL    HW130949   0.821  10.422   1.483  1.1990  0.2823 -1.0109
 8371SOL    HW230950   0.787  10.555   1.546  0.7599 -0.5892  0.6841
 8372SOL     OW30951   6.559   9.573   5.296 -0.0873 -0.1475  0.0458
 8372SOL    HW130952   6.495   9.595   5.229 -0.8108 -0.3804  0.6516
 8372SOL    HW230953   6.638   9.549   5.247 -0.5137 -0.0408 -0.7075
 8373SOL     OW30954   9.935   3.152   5.042 -0.2969  0.0225 -0.0901
 8373SOL    HW130955   9.979   3.136   4.958  0.8658 -1.0281  0.6906
 8373SOL    HW230956   9.859   3.093   5.041 -0.2799  0.0053 -0.4035
 8374SOL     OW30957   2.146   6.567   3.611  0.0094 -0.4536 -1.0816
 8374SOL    HW130958   2.212   6.509   3.573 -0.8140 -1.8824 -0.3956
 8374SOL    HW230959   2.113   6.520   3.687 -0.3427  1.1444 -0.1890
 8375SOL     OW30960   3.223  10.724   9.327 -0.0509 -0.1058 -0.1516
 8375SOL    HW130961   3.295  10.737   9.388 -1.4046  0.5874  1.3575
 8375SOL    HW230962   3.244  10.781   9.252  0.8070  0.3211  0.4085
 8376SOL     OW30963   2.355   8.356  10.062 -0.8754  0.2786 -0.7676
 8376SOL    HW130964   2.365   8.379   9.970  0.1401 -0.7566 -0.9521
 8376SOL    HW230965   2.334   8.262  10.061 -0.7428  0.2303  0.0556
 8377SOL     OW30966   2.576   2.946   1.528  0.0531  0.8709 -0.0076
 8377SOL    HW130967   2.570   2.978   1.438 -2.5037  0.0212 -0.2094
 8377SOL    HW230968   2.485   2.941   1.558  0.7229 -0.6421  1.9877
 8378SOL     OW30969   6.795   3.931   5.097 -0.2821 -0.2090  0.1447
 8378SOL    HW130970   6.777   4.006   5.153 -1.0221 -0.0378 -0.3100
 8378SOL    HW230971   6.742   3.946   5.019  1.4507  0.0738 -1.0489
 8379SOL     OW30972   0.032   4.601   1.206  0.1831  0.4214  0.1455
 8379SOL    HW130973   0.103   4.632   1.262 -0.2945  1.2191  0.3298
 8379SOL    HW230974  -0.047   4.632   1.249 -0.3003 -0.6842  0.0829
 8380SOL     OW30975   0.155   1.255   6.238 -0.3556 -0.2040  0.2644
 8380SOL    HW130976   0.209   1.332   6.225 -0.8170  0.4678  1.9864
 8380SOL    HW230977   0.181   1.194   6.169 -0.6330  1.8125 -1.7244
 8381SOL     OW30978   2.138   4.345   5.092 -0.1124 -0.2936 -0.4161
 8381SOL    HW130979   2.126   4.437   5.116  1.3505 -0.2417  0.2085
 8381SOL    HW230980   2.109   4.296   5.168  1.4798 -0.2410  0.2522
 8382SOL     OW30981   5.825   5.217   7.174 -0.2370  0.4718 -0.2327
 8382SOL    HW130982   5.865   5.213   7.087 -0.6628 -2.4930 -0.4009
 8382SOL    HW230983   5.889   5.176   7.232 -1.2074 -0.3895  0.2619
 8383SOL     OW30984  10.592   5.499   6.389 -0.2709 -0.0283  0.0650
 8383SOL    HW130985  10.574   5.506   6.296  0.2911 -1.4516 -0.1710
 8383SOL    HW230986  10.506   5.496   6.430 -0.5423 -0.8727 -0.5406
 8384SOL     OW30987   5.779   4.417   7.992 -0.0016  0.2686 -0.0419
 8384SOL    HW130988   5.831   4.473   8.050 -0.3317 -0.4382  0.9653
 8384SOL    HW230989   5.747   4.347   8.049 -0.6939 -0.2124 -0.9987
 8385SOL     OW30990   0.623   8.435   9.953 -0.3648  0.0526  0.7842
 8385SOL    HW130991   0.706   8.392   9.932 -0.2741  0.8236 -0.5854
 8385SOL    HW230992   0.622   8.439  10.049  0.5235 -1.2053  0.8777
 8386SOL     OW30993   8.475   7.142   3.577 -0.0358 -0.2466  0.0832
 8386SOL    HW130994   8.439   7.087   3.647 -1.5356  2.2527  1.4233
 8386SOL    HW230995   8.552   7.183   3.616 -1.4802  1.9893  0.7908
 8387SOL     OW30996   3.936   5.168   9.742  0.1809 -0.8002 -0.1793
 8387SOL    HW130997   3.910   5.260   9.751  0.2415 -0.8097  0.0912
 8387SOL    HW230998   3.869   5.129   9.686  0.5483 -0.4149 -0.9068
 8388SOL     OW30999   5.023   4.172   2.138 -0.0261  0.1521  0.6452
 8388SOL    HW131000   4.948   4.227   2.160 -1.2935 -1.0311 -0.5487
 8388SOL    HW231001   5.096   4.233   2.131 -1.0076  1.4275  1.1585
 8389SOL     OW31002   1.980   7.886  10.235 -0.2866  0.4140 -0.0358
 8389SOL    HW131003   1.918   7.875  10.307 -0.0143  1.2427  0.3411
 8389SOL    HW231004   2.019   7.800  10.222  0.2168  0.4276  1.3217
 8390SOL     OW31005  10.352   5.590   0.890 -0.0229 -0.3689  0.3825
 8390SOL    HW131006  10.363   5.495   0.892 -0.4108 -0.4076  1.4876
 8390SOL    HW231007  10.272   5.604   0.838  1.9677 -0.3942 -2.9257
 8391SOL     OW31008   8.083   5.754   1.444 -0.4426 -0.2257 -0.0931
 8391SOL    HW131009   8.105   5.718   1.358 -0.7957  1.5727 -0.9966
 8391SOL    HW231010   8.024   5.689   1.483 -1.8232 -0.2277 -2.0353
 8392SOL     OW31011   0.303   2.706   4.230 -0.2326 -0.2213  0.6240
 8392SOL    HW131012   0.335   2.694   4.141 -1.0194  0.5714  0.2220
 8392SOL    HW231013   0.277   2.618   4.259  0.3749 -0.5362  0.2129
 8393SOL     OW31014   3.408   3.917   5.437  0.0279 -0.4774  0.4856
 8393SOL    HW131015   3.353   3.963   5.373  2.5422 -1.8895 -3.0070
 8393SOL    HW231016   3.382   3.954   5.521 -4.0632  1.0497 -1.1725
 8394SOL     OW31017   1.294   8.596   1.500 -0.0849  0.0417 -0.1389
 8394SOL    HW131018   1.295   8.583   1.406 -1.6563 -0.0387 -0.1749
 8394SOL    HW231019   1.373   8.647   1.518  0.7929 -0.8471 -1.3364
 8395SOL     OW31020   2.583   9.132   3.608  0.1653  0.2578 -0.4494
 8395SOL    HW131021   2.664   9.183   3.607  0.0706  0.4740  0.8810
 8395SOL    HW231022   2.541   9.152   3.525  1.4717  0.1382 -1.1635
 8396SOL     OW31023   0.394   5.165   0.513  0.0342  0.4119 -0.5580
 8396SOL    HW131024   0.350   5.229   0.457  0.8455  0.4428 -1.1852
 8396SOL    HW231025   0.424   5.097   0.452  1.1178  0.5532 -0.2036
 8397SOL     OW31026   3.631   7.231  10.724  0.4140 -0.0982 -0.5508
 8397SOL    HW131027   3.643   7.136  10.728  0.2800 -0.0784  1.1326
 8397SOL    HW231028   3.538   7.243  10.706 -0.4542 -0.3748  3.0544
 8398SOL     OW31029   9.629   6.943   9.054 -0.3375 -0.0754  0.4473
 8398SOL    HW131030   9.565   6.886   9.013 -0.3999  0.4729 -0.2546
 8398SOL    HW231031   9.587   6.975   9.134 -1.1859  0.7354 -0.2969
 8399SOL     OW31032   6.921   7.062   7.772 -0.3517 -0.1473  0.2326
 8399SOL    HW131033   6.987   7.103   7.828  1.6747 -1.3656 -1.1668
 8399SOL    HW231034   6.958   6.978   7.747 -1.6788 -0.1605 -1.9884
 8400SOL     OW31035   5.748   9.246   7.140 -0.6642 -0.1415 -0.1773
 8400SOL    HW131036   5.744   9.340   7.124  1.1697 -0.3817 -2.7674
 8400SOL    HW231037   5.689   9.231   7.213 -2.4646  2.7581 -0.8833
 8401SOL     OW31038   7.104  10.438   7.766  0.1175 -0.3711 -0.1396
 8401SOL    HW131039   7.123  10.391   7.685 -1.7856  1.0974 -1.5306
 8401SOL    HW231040   7.131  10.529   7.748 -0.2375 -0.0467  0.8959
 8402SOL     OW31041   3.010   4.356   6.695  0.1116  0.2065  0.1399
 8402SOL    HW131042   2.972   4.375   6.610  0.1800  0.7467  0.2318
 8402SOL    HW231043   3.098   4.323   6.675 -0.0455 -0.1232 -0.0193
 8403SOL     OW31044   2.140   8.388   2.612 -0.3348 -0.6855  1.0182
 8403SOL    HW131045   2.112   8.350   2.528 -0.8389  0.9256  0.4115
 8403SOL    HW231046   2.064   8.438   2.642  0.5434  0.5125  1.3437
 8404SOL     OW31047  10.105   5.827   4.538  0.3838  0.4765  0.3666
 8404SOL    HW131048  10.113   5.763   4.468  0.7173  0.8913  0.0130
 8404SOL    HW231049  10.024   5.874   4.519 -0.3860 -0.4847  1.1851
 8405SOL     OW31050   8.407   2.936   0.714 -0.6225  0.9845 -0.1998
 8405SOL    HW131051   8.438   2.983   0.636 -1.0595  2.4377  0.4688
 8405SOL    HW231052   8.480   2.941   0.776 -0.7206  0.8816 -0.0762
 8406SOL     OW31053   2.254   2.049   7.743  0.3319 -0.0052  0.3947
 8406SOL    HW131054   2.344   2.046   7.711 -0.2200 -0.7465 -1.1738
 8406SOL    HW231055   2.260   2.097   7.826  1.8892  1.5361 -0.5507
 8407SOL     OW31056   9.038   1.907   1.628  0.1683 -0.1921  0.2412
 8407SOL    HW131057   9.104   1.926   1.561  1.0488 -1.5727  0.6760
 8407SOL    HW231058   8.958   1.948   1.595  1.0954  1.0532 -0.5631
 8408SOL     OW31059   7.861   4.799   0.114  0.4541  0.3676  0.5470
 8408SOL    HW131060   7.945   4.842   0.099  1.4521 -1.5181  0.3401
 8408SOL    HW231061   7.872   4.713   0.073 -2.0368  0.5280 -0.5917
 8409SOL     OW31062   8.799   4.463   9.536  0.5417 -0.2073 -0.0332
 8409SOL    HW131063   8.758   4.550   9.545  0.7493 -0.2958  2.6300
 8409SOL    HW231064   8.763   4.428   9.454 -0.6795  1.7962 -0.4328
 8410SOL     OW31065   1.947   9.726   7.089 -1.0641  0.0520 -0.3551
 8410SOL    HW131066   1.947   9.687   7.176 -0.3283 -0.6300 -0.6506
 8410SOL    HW231067   2.023   9.785   7.089 -0.9488 -0.0906 -0.5837
 8411SOL     OW31068   9.522   8.891   5.143  0.0127 -0.1338 -0.0093
 8411SOL    HW131069   9.564   8.809   5.169 -1.7374 -1.5774 -1.4245
 8411SOL    HW231070   9.430   8.879   5.167 -0.3815  1.1605 -0.8169
 8412SOL     OW31071   8.173   2.412   5.694 -0.3824  0.0248  1.0743
 8412SOL    HW131072   8.118   2.339   5.725 -1.7025  0.0717 -0.9389
 8412SOL    HW231073   8.114   2.488   5.695 -0.1494  0.2455 -0.4023
 8413SOL     OW31074   1.620   1.757   2.539  0.0885  0.1814  0.4558
 8413SOL    HW131075   1.525   1.765   2.543  0.1703  0.6740  1.5073
 8413SOL    HW231076   1.643   1.703   2.615  1.0637  4.2202  3.3518
 8414SOL     OW31077   9.666   0.633   3.009 -0.0610  0.5764 -0.2314
 8414SOL    HW131078   9.730   0.701   2.985  0.1560  0.8961  1.1950
 8414SOL    HW231079   9.698   0.554   2.964  2.3980  0.2704  1.7978
 8415SOL     OW31080   5.255   0.682   5.525  0.1623  0.6687  0.4595
 8415SOL    HW131081   5.275   0.652   5.436  1.9036 -0.4218  1.1789
 8415SOL    HW231082   5.168   0.647   5.543  1.6318 -3.2394  0.8527
 8416SOL     OW31083   3.326   6.025   0.925  0.0107 -0.3546 -0.2038
 8416SOL    HW131084   3.268   5.965   0.877  0.1473 -0.2844 -0.4630
 8416SOL    HW231085   3.277   6.107   0.929 -0.2041 -0.5041  0.2106
 8417SOL     OW31086   2.232   6.464   0.967 -0.2613 -0.4089 -0.2368
 8417SOL    HW131087   2.220   6.559   0.963  1.9165 -0.0230  0.7426
 8417SOL    HW231088   2.148   6.427   0.938 -1.2516  1.7961 -0.3415
 8418SOL     OW31089  10.085   0.939   4.159  0.0839 -0.3991  0.0750
 8418SOL    HW131090  10.091   1.008   4.093 -1.4300 -0.5717 -0.2698
 8418SOL    HW231091  10.170   0.895   4.155  0.2595  0.0157 -1.2798
 8419SOL     OW31092   1.646  10.647  10.180  0.2840 -0.3525  0.3747
 8419SOL    HW131093   1.717  10.659  10.243  2.8350 -1.6346 -2.0662
 8419SOL    HW231094   1.634  10.733  10.140  0.7337 -0.2206  0.5237
 8420SOL     OW31095   6.423   4.122   0.258 -0.2899 -0.0620  0.1404
 8420SOL    HW131096   6.370   4.198   0.233 -2.5815 -2.1184 -1.8525
 8420SOL    HW231097   6.499   4.125   0.200 -0.3253  0.7427  0.1318
 8421SOL     OW31098   0.738   8.334   3.454 -0.8031  1.0920  0.2235
 8421SOL    HW131099   0.817   8.365   3.499  0.3158 -0.2966 -0.6917
 8421SOL    HW231100   0.738   8.380   3.371  0.3999 -0.6045 -0.7808
 8422SOL     OW31101   8.033   6.118   2.654  0.2913  0.1390  0.3338
 8422SOL    HW131102   8.110   6.160   2.693  0.0811  0.2939  0.5832
 8422SOL    HW231103   8.004   6.056   2.721  0.8076 -0.6703 -0.1635
 8423SOL     OW31104   4.280   8.073  10.032 -0.0019  0.5775  0.7480
 8423SOL    HW131105   4.220   8.131  10.077  0.3353 -0.1283  2.1609
 8423SOL    HW231106   4.305   8.120   9.952 -3.8598  0.1507 -0.9378
 8424SOL     OW31107   5.069   7.921   6.869  0.2167  0.4133  0.0842
 8424SOL    HW131108   5.044   7.885   6.784 -1.1180  0.7124  0.3331
 8424SOL    HW231109   5.139   7.983   6.849  0.1252  0.2480 -0.7625
 8425SOL     OW31110   1.351   3.308   8.737  0.2016 -0.0562 -0.4114
 8425SOL    HW131111   1.438   3.274   8.758  0.4066  0.8552  0.2720
 8425SOL    HW231112   1.367   3.377   8.672  0.5224  3.0507  2.6874
 8426SOL     OW31113   1.933   6.787   0.992 -0.3053  0.2027  0.5526
 8426SOL    HW131114   1.971   6.813   0.908 -1.2003 -1.1854 -0.3361
 8426SOL    HW231115   1.969   6.700   1.009 -1.2135 -0.1255  0.8863
 8427SOL     OW31116   5.163   3.898   4.708  0.3793 -0.1663  0.3215
 8427SOL    HW131117   5.240   3.942   4.746 -0.0084 -1.6654  3.1091
 8427SOL    HW231118   5.101   3.893   4.780 -1.8056 -0.3311 -1.4781
 8428SOL     OW31119  10.568   4.146   7.853  0.1702 -0.0918 -0.4510
 8428SOL    HW131120  10.497   4.204   7.824  1.6706  1.5528 -1.0421
 8428SOL    HW231121  10.634   4.206   7.889  0.7611 -1.6698  1.2038
 8429SOL     OW31122   3.589   2.577   8.043  0.4372 -0.3325  0.0761
 8429SOL    HW131123   3.582   2.533   8.128  2.8139 -0.7549  0.1127
 8429SOL    HW231124   3.681   2.601   8.036 -0.1101  1.5799 -1.4864
 8430SOL     OW31125   5.055   0.475   7.168 -0.1920  0.2600  0.1735
 8430SOL    HW131126   5.135   0.501   7.213 -0.8869  0.9396  1.0374
 8430SOL    HW231127   5.022   0.555   7.128 -1.7067  0.5482  1.8553
 8431SOL     OW31128   4.331   0.645   2.613 -0.1810  0.0777 -0.1327
 8431SOL    HW131129   4.256   0.703   2.623  0.5445  0.9440  0.5086
 8431SOL    HW231130   4.396   0.696   2.565  0.6623  0.0235  0.8849
 8432SOL     OW31131   0.832   9.796   2.141  0.2303 -0.5240 -0.0092
 8432SOL    HW131132   0.837   9.871   2.082  0.3666 -0.2313  0.3698
 8432SOL    HW231133   0.761   9.817   2.202  0.8342 -0.3000  0.6385
 8433SOL     OW31134   7.000   3.255   7.120 -0.5177 -0.1617 -0.5286
 8433SOL    HW131135   6.981   3.304   7.040  1.0157  0.7197 -0.3966
 8433SOL    HW231136   7.050   3.179   7.091 -1.6807 -0.9376 -0.5823
 8434SOL     OW31137   8.162   6.802   7.121  0.0684  0.2882 -0.2567
 8434SOL    HW131138   8.095   6.766   7.180  0.4681  0.6469  0.4253
 8434SOL    HW231139   8.139   6.895   7.113 -0.5925  0.0411 -1.5139
 8435SOL     OW31140   5.697   2.727   8.603  0.2395 -0.0914 -0.2144
 8435SOL    HW131141   5.683   2.687   8.517 -0.1590 -1.8137  0.5939
 8435SOL    HW231142   5.778   2.687   8.635  0.4552  0.6283  0.1573
 8436SOL     OW31143   2.569   2.359   8.522 -0.1449 -0.1813  0.1203
 8436SOL    HW131144   2.610   2.340   8.606 -1.0174  0.9409  0.8226
 8436SOL    HW231145   2.475   2.365   8.541 -0.6766 -2.5160 -1.4237
 8437SOL     OW31146   3.641   2.219   6.459 -0.0271 -0.1816 -0.1782
 8437SOL    HW131147   3.590   2.237   6.380 -1.6964 -0.9065  0.6685
 8437SOL    HW231148   3.715   2.167   6.429 -0.6973 -0.5445 -1.2581
 8438SOL     OW31149   7.055   0.736   0.874  0.0228 -0.3910  0.1871
 8438SOL    HW131150   7.070   0.784   0.955  0.5634  0.2190 -0.2570
 8438SOL    HW231151   6.992   0.789   0.825  0.6539 -0.0988 -0.3256
 8439SOL     OW31152   7.248   3.052  10.234 -0.9516 -0.6009 -0.0256
 8439SOL    HW131153   7.167   3.103  10.227  1.0022  2.7848  0.1730
 8439SOL    HW231154   7.258   3.037  10.328  0.5421  2.5513  0.4397
 8440SOL     OW31155  10.064  10.110   3.572  0.0400  0.0266  0.1298
 8440SOL    HW131156  10.097  10.050   3.506 -0.3785 -0.4219  0.3263
 8440SOL    HW231157   9.970  10.114   3.557 -0.1896 -0.7584  1.2289
 8441SOL     OW31158  10.564   4.102   9.151 -0.6357  0.0294 -0.2490
 8441SOL    HW131159  10.513   4.131   9.227 -0.9478 -0.5121 -0.2459
 8441SOL    HW231160  10.620   4.177   9.130 -1.1169  0.4780  0.0213
 8442SOL     OW31161   3.487   5.651  10.375  0.5974 -0.0467  0.3215
 8442SOL    HW131162   3.567   5.694  10.406  0.4723  0.5974 -0.2157
 8442SOL    HW231163   3.475   5.577  10.434  0.2024  1.2909  1.9974
 8443SOL     OW31164   1.240   3.673   1.972  0.6840  0.7904 -0.3542
 8443SOL    HW131165   1.261   3.724   2.051  1.1970  1.9760 -1.2271
 8443SOL    HW231166   1.275   3.586   1.990  0.0378  0.7806  1.0652
 8444SOL     OW31167   3.595   8.661   4.525 -0.6816 -0.7353 -0.2002
 8444SOL    HW131168   3.653   8.705   4.463  0.4834 -1.4121  0.3774
 8444SOL    HW231169   3.649   8.592   4.564 -1.4621 -0.4843  1.3881
 8445SOL     OW31170   1.755   9.526   0.987  0.0482 -0.0486 -0.3071
 8445SOL    HW131171   1.752   9.617   0.955  1.5985  0.2163  0.2175
 8445SOL    HW231172   1.822   9.484   0.933  0.2532 -0.5275  0.3106
 8446SOL     OW31173  10.361   0.981   7.884  0.2108  0.1509  0.0111
 8446SOL    HW131174  10.418   1.037   7.936 -0.1989  1.6984 -1.1223
 8446SOL    HW231175  10.403   0.979   7.797  1.0129 -2.5509  0.3575
 8447SOL     OW31176   0.579   4.922   1.649 -0.0612 -0.2540 -0.0295
 8447SOL    HW131177   0.606   4.886   1.564  1.4409  1.3931 -0.3117
 8447SOL    HW231178   0.549   5.010   1.628  0.2409  0.1350  1.1580
 8448SOL     OW31179   2.577   8.418   2.526  0.0877  0.2429 -0.0184
 8448SOL    HW131180   2.510   8.483   2.546  0.6352  0.5238  0.9671
 8448SOL    HW231181   2.600   8.381   2.611  0.4143 -0.6184 -0.4710
 8449SOL     OW31182   4.729   4.453   2.830 -0.1107 -0.1787 -0.3442
 8449SOL    HW131183   4.645   4.427   2.867  0.4360 -0.3704  0.7772
 8449SOL    HW231184   4.724   4.425   2.738 -1.4423  0.2381 -0.4220
 8450SOL     OW31185   8.757   9.267   0.550 -0.1279 -0.2714  0.7572
 8450SOL    HW131186   8.788   9.357   0.561  1.3628 -0.8775  1.8418
 8450SOL    HW231187   8.740   9.237   0.640 -3.4884 -0.1635  0.2766
 8451SOL     OW31188   3.781   6.156   5.907  0.1495 -0.3893  0.2237
 8451SOL    HW131189   3.848   6.116   5.852 -0.0351 -0.7931  0.2916
 8451SOL    HW231190   3.760   6.090   5.973 -0.4772 -0.3594  0.0644
 8452SOL     OW31191   9.258   5.852   0.385 -0.7011  0.2512 -0.2419
 8452SOL    HW131192   9.243   5.946   0.386  1.0351  0.5604  0.9430
 8452SOL    HW231193   9.344   5.840   0.425  0.5156 -1.6070 -3.0474
 8453SOL     OW31194   2.566   6.843   2.545  0.6306 -0.5294 -0.2155
 8453SOL    HW131195   2.538   6.802   2.627 -0.9319  0.5526 -0.1549
 8453SOL    HW231196   2.560   6.774   2.480  2.0386 -1.4468  0.5923
 8454SOL     OW31197   9.719   9.846   7.916  0.1727 -0.5495 -0.0649
 8454SOL    HW131198   9.746   9.826   8.006  1.0127 -0.0850 -0.2055
 8454SOL    HW231199   9.727   9.941   7.909  1.7092 -0.7267 -1.1130
 8455SOL     OW31200   7.271   1.995   6.711  0.3033 -0.6720 -0.5130
 8455SOL    HW131201   7.191   2.034   6.746  0.4837 -0.3288 -0.4818
 8455SOL    HW231202   7.324   2.069   6.681 -0.2332 -1.0081 -2.3904
 8456SOL     OW31203   5.781   7.005   3.112 -0.1818 -0.1656 -0.3621
 8456SOL    HW131204   5.697   6.959   3.106 -0.2399 -0.2267  0.7168
 8456SOL    HW231205   5.814   7.008   3.022 -1.3512 -0.1144 -0.8007
 8457SOL     OW31206   2.339  10.690   9.009  0.3543  0.5703 -0.1659
 8457SOL    HW131207   2.343  10.651   8.922  3.8605  0.7063 -0.2132
 8457SOL    HW231208   2.295  10.625   9.062 -3.4779  1.2040 -2.2434
 8458SOL     OW31209   7.168  10.141   6.787 -0.0339  0.0015  0.1857
 8458SOL    HW131210   7.239  10.199   6.760 -0.2857  0.4277  0.4232
 8458SOL    HW231211   7.096  10.161   6.727 -1.4861  2.7836  2.5774
 8459SOL     OW31212   2.225   3.823   3.926  1.0016  0.1055  0.1094
 8459SOL    HW131213   2.151   3.855   3.979 -0.6141 -1.1287 -1.2703
 8459SOL    HW231214   2.251   3.741   3.968 -0.7158 -1.2175 -1.2726
 8460SOL     OW31215   8.332   6.711   3.962 -0.1685 -0.4030 -0.2211
 8460SOL    HW131216   8.268   6.667   3.906  0.9763 -1.5888 -0.6356
 8460SOL    HW231217   8.331   6.662   4.044 -0.9045  0.5494  0.3712
 8461SOL     OW31218   8.120   3.526   6.937 -0.1697 -0.8045 -0.3758
 8461SOL    HW131219   8.143   3.576   7.015  1.3761 -1.6741 -0.2418
 8461SOL    HW231220   8.165   3.570   6.866 -2.0705  0.3597 -0.9424
 8462SOL     OW31221   5.364   1.636   9.866 -0.3322 -0.3755 -0.3397
 8462SOL    HW131222   5.300   1.647   9.795  0.0346  0.2751 -0.5809
 8462SOL    HW231223   5.412   1.719   9.868  0.5832 -0.8875 -0.2467
 8463SOL     OW31224   0.536   9.403   0.429  0.5663 -0.1083 -0.1646
 8463SOL    HW131225   0.550   9.319   0.473  0.6643 -0.2564 -0.4693
 8463SOL    HW231226   0.455   9.391   0.380  0.1614  0.2438  0.4104
 8464SOL     OW31227   8.720   4.065   2.551 -0.2952  0.2671  0.0233
 8464SOL    HW131228   8.725   4.020   2.467  2.4672 -2.8011  1.5889
 8464SOL    HW231229   8.806   4.052   2.590 -1.6785  0.7766  3.6781
 8465SOL     OW31230   5.221  10.338   2.769 -0.2299 -0.5381 -0.6889
 8465SOL    HW131231   5.135  10.297   2.762 -0.5687  0.1072 -0.4027
 8465SOL    HW231232   5.271  10.278   2.825 -1.4296  0.5197  1.6827
 8466SOL     OW31233   5.727   9.139   6.623 -0.2624  0.4974 -0.2765
 8466SOL    HW131234   5.750   9.048   6.642  0.2359  0.7814  0.5303
 8466SOL    HW231235   5.632   9.138   6.611  0.0178 -0.6200 -3.2396
 8467SOL     OW31236   0.299   8.724   5.795  0.3562  0.6050 -0.2879
 8467SOL    HW131237   0.225   8.666   5.813 -0.5291  0.9561 -2.5622
 8467SOL    HW231238   0.340   8.687   5.716  1.4551  1.5202 -0.1782
 8468SOL     OW31239   1.507   8.412   7.725  0.5370 -0.1873  0.0504
 8468SOL    HW131240   1.440   8.413   7.793  0.6676 -0.8924  0.1997
 8468SOL    HW231241   1.586   8.382   7.770  0.7502 -0.1531 -0.2993
 8469SOL     OW31242   3.336  10.239   2.361  0.2296  0.4858  0.6619
 8469SOL    HW131243   3.425  10.271   2.348  1.5059 -2.8702  0.1002
 8469SOL    HW231244   3.300  10.233   2.272  0.8094 -1.4688  0.5107
 8470SOL     OW31245   6.233   3.186  10.489 -0.2800 -0.4455  0.4850
 8470SOL    HW131246   6.259   3.275  10.512  0.4539 -0.1342 -1.4221
 8470SOL    HW231247   6.209   3.190  10.397 -0.8791 -2.0969  0.5322
 8471SOL     OW31248   9.423   1.477   1.519  0.5794  0.1578  0.0219
 8471SOL    HW131249   9.349   1.531   1.491  1.2938  1.3603  0.3442
 8471SOL    HW231250   9.450   1.516   1.603  1.7585 -0.0575 -0.2355
 8472SOL     OW31251   9.791   1.346   4.614 -0.1163 -0.6470 -0.2135
 8472SOL    HW131252   9.709   1.296   4.616 -1.1729  0.9886 -0.7813
 8472SOL    HW231253   9.788   1.400   4.693  0.3449 -0.4571 -0.3199
 8473SOL     OW31254   5.259   7.419   6.171  0.3348  0.8031  0.0755
 8473SOL    HW131255   5.297   7.442   6.256  0.6624  0.8443 -0.0818
 8473SOL    HW231256   5.308   7.342   6.143 -0.9836 -0.3175  0.7573
 8474SOL     OW31257   3.719   8.308   9.624  0.0977  0.0679 -0.2196
 8474SOL    HW131258   3.686   8.256   9.698  0.0452  0.7890  0.2746
 8474SOL    HW231259   3.680   8.267   9.547 -0.0256 -0.5600  0.1698
 8475SOL     OW31260   8.737   9.976   7.208 -0.5911  0.0421 -0.1300
 8475SOL    HW131261   8.815   9.965   7.154  0.6345  1.1788  1.2768
 8475SOL    HW231262   8.688   9.895   7.197 -1.1846  0.7367 -3.9874
 8476SOL     OW31263  10.463   3.648   2.874 -0.3301  0.6490  0.0810
 8476SOL    HW131264  10.442   3.720   2.934  0.5249  2.2779 -1.4913
 8476SOL    HW231265  10.558   3.646   2.870 -0.3617  0.2019 -0.7630
 8477SOL     OW31266   1.682   0.578   7.202  0.2561 -0.0844 -0.0537
 8477SOL    HW131267   1.687   0.583   7.107 -0.4272 -2.9898 -0.3195
 8477SOL    HW231268   1.740   0.506   7.226 -0.3882 -0.0900  1.6164
 8478SOL     OW31269   2.186   3.895   7.331  0.4223 -0.4031  0.3897
 8478SOL    HW131270   2.209   3.881   7.423  2.0647 -0.5855 -0.0213
 8478SOL    HW231271   2.263   3.866   7.283  0.2838  1.3631 -0.9588
 8479SOL     OW31272  10.371   9.995   4.416  0.5366  0.5180  0.8385
 8479SOL    HW131273  10.292   9.942   4.421  0.7801  0.2204  1.8241
 8479SOL    HW231274  10.357  10.067   4.477  0.7013  0.9122  0.4168
 8480SOL     OW31275   8.308   2.012   5.068  0.0202  0.5084  0.2542
 8480SOL    HW131276   8.242   2.027   5.135 -1.5390 -0.6609 -0.9328
 8480SOL    HW231277   8.261   2.022   4.985  2.0702  2.8821 -0.7905
 8481SOL     OW31278   5.987   9.013   1.791  0.3622 -0.2720  0.5420
 8481SOL    HW131279   6.078   9.042   1.785  0.2306  0.2378  0.8635
 8481SOL    HW231280   5.982   8.937   1.734  1.0155 -0.3717  0.6026
 8482SOL     OW31281   9.761   2.633   6.587  0.6932  0.0493  0.2356
 8482SOL    HW131282   9.779   2.628   6.493 -1.1212  1.5785 -0.2585
 8482SOL    HW231283   9.783   2.723   6.611 -0.5718  0.2231  0.8371
 8483SOL     OW31284   3.010   6.133   8.794  0.1792 -0.5178  0.4672
 8483SOL    HW131285   2.967   6.057   8.754  0.8515 -1.0035  0.6432
 8483SOL    HW231286   3.052   6.098   8.872  0.8982 -0.0572  0.2920
 8484SOL     OW31287   6.701   6.749   6.566 -0.1675 -0.0844  0.1823
 8484SOL    HW131288   6.747   6.774   6.486  0.0454 -0.4431  0.1864
 8484SOL    HW231289   6.678   6.657   6.551 -2.4696  0.5497 -0.5651
 8485SOL     OW31290  10.497   3.693  10.410  0.3480 -0.0183  0.3857
 8485SOL    HW131291  10.451   3.650  10.482  0.3846  1.7186  1.5300
 8485SOL    HW231292  10.443   3.770  10.390  1.1524  0.3650 -0.3670
 8486SOL     OW31293   7.159   7.087   6.835 -0.2646 -1.1116  0.9317
 8486SOL    HW131294   7.066   7.097   6.813  0.0015  0.5097  0.4292
 8486SOL    HW231295   7.159   7.033   6.913 -1.8444  1.0202  2.5324
 8487SOL     OW31296   3.608   2.204   9.911  0.0826 -0.1101  0.9046
 8487SOL    HW131297   3.664   2.265   9.863  1.6963 -1.0313  1.5316
 8487SOL    HW231298   3.626   2.222  10.003 -0.0551 -0.9603  1.1067
 8488SOL     OW31299   7.261   1.464   9.652  0.7865 -0.1885 -0.0307
 8488SOL    HW131300   7.268   1.412   9.572  3.4758 -1.2120  0.7619
 8488SOL    HW231301   7.338   1.440   9.703  0.2942  2.0481  1.9425
 8489SOL     OW31302   1.523   1.360   0.385  0.2719  0.3478  0.1251
 8489SOL    HW131303   1.524   1.267   0.362 -0.3497 -0.1821  2.0527
 8489SOL    HW231304   1.573   1.402   0.315 -0.7986 -1.2010 -1.6759
 8490SOL     OW31305   3.258   4.205   6.260  0.0818  0.3837 -0.2862
 8490SOL    HW131306   3.298   4.141   6.319  1.2183  0.8626 -0.5122
 8490SOL    HW231307   3.279   4.290   6.300 -0.6702  0.6521 -0.4455
 8491SOL     OW31308   4.451   7.505   8.219 -0.3416 -0.1719 -0.4999
 8491SOL    HW131309   4.418   7.576   8.275 -0.0158 -0.0287 -0.4869
 8491SOL    HW231310   4.523   7.545   8.170 -0.1868 -0.4797 -0.5285
 8492SOL     OW31311   4.320   1.323  10.115 -0.0224 -0.0212 -0.0798
 8492SOL    HW131312   4.274   1.390  10.065  1.2355  2.1051  1.4537
 8492SOL    HW231313   4.413   1.346  10.107  0.3683 -0.9464  1.3431
 8493SOL     OW31314   6.750   1.928  10.004  0.0466  0.2500 -0.4613
 8493SOL    HW131315   6.677   1.909   9.944  0.2411  0.1160 -0.6547
 8493SOL    HW231316   6.757   1.850  10.059 -0.6253  0.6668  0.2517
 8494SOL     OW31317   7.664   0.486   7.067  0.4780  0.0059 -0.4422
 8494SOL    HW131318   7.647   0.408   7.014  3.4349 -0.7875 -0.3742
 8494SOL    HW231319   7.594   0.486   7.133 -2.2971  0.0629 -3.1530
 8495SOL     OW31320   2.788   6.437   3.120 -0.2880 -0.2886  0.1600
 8495SOL    HW131321   2.796   6.411   3.028 -0.4316  1.8779 -0.5298
 8495SOL    HW231322   2.759   6.358   3.165  2.0856 -2.0878 -1.2264
 8496SOL     OW31323   8.990   5.850   0.262 -0.5735  0.2952 -0.0764
 8496SOL    HW131324   8.981   5.780   0.197 -0.8409  0.2481  0.0071
 8496SOL    HW231325   9.067   5.827   0.313  0.4054  1.0112 -1.2039
 8497SOL     OW31326   0.177   6.907   1.446 -0.4063  0.0153  0.6303
 8497SOL    HW131327   0.221   6.856   1.513  0.5280 -0.4597 -0.3117
 8497SOL    HW231328   0.239   6.910   1.373 -0.8683  1.5846  0.2469
 8498SOL     OW31329   9.225   3.946   1.710  0.0420  0.6633  0.1240
 8498SOL    HW131330   9.286   4.017   1.728 -0.9803  1.0932  2.1284
 8498SOL    HW231331   9.186   3.924   1.795 -0.1741 -1.8506 -0.5242
 8499SOL     OW31332   9.029   9.832   1.084 -0.0335 -0.0499 -0.6573
 8499SOL    HW131333   8.949   9.841   1.031  0.5539  1.0423 -1.3997
 8499SOL    HW231334   9.100   9.851   1.023  0.8066 -1.0041 -0.0037
 8500SOL     OW31335   5.253   1.217   3.761 -0.0858  0.4047  0.1680
 8500SOL    HW131336   5.258   1.263   3.845  1.2154  2.3403 -0.8957
 8500SOL    HW231337   5.318   1.147   3.767 -0.2925  0.2734  0.9133
 8501SOL     OW31338   5.754   3.648   6.131 -0.6470 -0.1748  0.1352
 8501SOL    HW131339   5.704   3.701   6.193 -0.0927 -1.1328  1.4395
 8501SOL    HW231340   5.832   3.700   6.113 -1.7945  1.0860 -1.4960
 8502SOL     OW31341   6.764   9.019   0.824  0.3213 -0.0342  0.5537
 8502SOL    HW131342   6.733   8.932   0.800  2.4899 -0.2559 -1.8834
 8502SOL    HW231343   6.686   9.064   0.857 -2.1433 -1.2785 -2.9551
 8503SOL     OW31344   5.582   2.274   7.409 -0.6274  0.0147  1.0283
 8503SOL    HW131345   5.609   2.239   7.494  1.4168 -1.6248 -0.2018
 8503SOL    HW231346   5.643   2.345   7.391  0.1127 -0.7865  0.2175
 8504SOL     OW31347   5.382   6.981   3.794  0.5687 -0.5793  0.0514
 8504SOL    HW131348   5.356   7.013   3.880  0.5129 -0.9842  0.1882
 8504SOL    HW231349   5.340   7.041   3.732  0.2745 -0.5268  0.2972
 8505SOL     OW31350   1.928   4.442   1.472  0.3191  0.0636  0.1480
 8505SOL    HW131351   2.013   4.404   1.454 -1.0916 -4.3648  1.5601
 8505SOL    HW231352   1.866   4.386   1.427 -2.0216  1.2647  1.6412
 8506SOL     OW31353   3.057  10.582   5.498 -0.0589  0.3583  0.5708
 8506SOL    HW131354   3.041  10.659   5.443  1.6417  1.5212  1.6140
 8506SOL    HW231355   3.032  10.610   5.586  0.2021 -0.4327  0.9041
 8507SOL     OW31356  10.166   8.152   2.449  0.0967  0.2386  0.0622
 8507SOL    HW131357  10.213   8.227   2.485 -0.7721  0.5914  0.4661
 8507SOL    HW231358  10.098   8.190   2.393  0.9257 -0.2835 -1.3798
 8508SOL     OW31359   4.589   6.254   6.420  0.4627  0.2335 -0.4542
 8508SOL    HW131360   4.500   6.288   6.419  0.4544  0.2103 -0.4701
 8508SOL    HW231361   4.603   6.226   6.511 -0.3007 -1.7755 -0.8891
 8509SOL     OW31362   4.020   8.954   2.571  0.3172  0.2340 -0.6067
 8509SOL    HW131363   4.099   8.900   2.579 -0.3338 -0.5177  1.4485
 8509SOL    HW231364   3.976   8.945   2.656 -1.0839  2.0558 -1.0713
 8510SOL     OW31365   2.076   6.033   9.498  0.4287  0.2195  0.2933
 8510SOL    HW131366   2.139   6.069   9.437 -0.2655  1.0597  0.0494
 8510SOL    HW231367   1.999   6.090   9.491 -0.6860 -1.2406 -0.0401
 8511SOL     OW31368   8.259  10.313   7.728  0.4028  0.5099  0.1689
 8511SOL    HW131369   8.330  10.283   7.785  0.4947  4.6608  2.5926
 8511SOL    HW231370   8.304  10.351   7.652  0.6265  0.7320  0.4128
 8512SOL     OW31371   0.707   9.442   5.816 -0.0073 -0.2751  0.0036
 8512SOL    HW131372   0.658   9.524   5.818 -0.1376 -0.3641  0.3544
 8512SOL    HW231373   0.692   9.408   5.727  0.1861  0.1634 -0.1986
 8513SOL     OW31374   2.409   5.305   4.287 -0.3204 -0.4348 -0.2848
 8513SOL    HW131375   2.398   5.399   4.297  0.0942 -0.3707 -0.4217
 8513SOL    HW231376   2.456   5.294   4.204 -1.7462 -0.8477 -1.0587
 8514SOL     OW31377   5.985   7.476   6.931 -0.2696  0.1899  0.7847
 8514SOL    HW131378   6.061   7.432   6.969 -0.4733  0.4265  1.4853
 8514SOL    HW231379   6.019   7.559   6.897 -0.3445  0.6779  1.8490
 8515SOL     OW31380   7.599   9.374   3.814 -0.0125  0.0862 -0.1340
 8515SOL    HW131381   7.681   9.370   3.862  0.2827  0.5444 -0.5858
 8515SOL    HW231382   7.531   9.382   3.882  0.3506  0.1579  0.2226
 8516SOL     OW31383   3.218   5.707   6.110  0.2432  0.1119 -0.1700
 8516SOL    HW131384   3.155   5.771   6.144 -0.9881 -1.2367  0.1844
 8516SOL    HW231385   3.284   5.699   6.179 -0.6450 -0.4090  0.6414
 8517SOL     OW31386   5.768   0.980   3.540 -0.3932  0.2594 -0.6829
 8517SOL    HW131387   5.729   0.893   3.534  0.4256 -0.1663  0.0079
 8517SOL    HW231388   5.745   1.010   3.628  1.2171 -0.2124 -0.0555
 8518SOL     OW31389  10.349   0.213   2.900 -0.2266 -0.2741  0.5972
 8518SOL    HW131390  10.388   0.126   2.887  0.7704  0.2320  0.0468
 8518SOL    HW231391  10.400   0.271   2.842  0.3517  0.9984  2.2935
 8519SOL     OW31392   7.944   0.931   8.264  0.0779  0.1851 -0.1939
 8519SOL    HW131393   7.860   0.916   8.220  0.7462  0.8615 -1.7374
 8519SOL    HW231394   7.940   1.022   8.292  0.1751  0.1200  0.0349
 8520SOL     OW31395   4.511   8.350  10.018  0.0979 -0.0954  0.0152
 8520SOL    HW131396   4.574   8.392   9.960 -0.7988 -0.7305 -1.4893
 8520SOL    HW231397   4.444   8.314   9.959 -0.9142 -0.6918  1.4544
 8521SOL     OW31398   9.174   1.916   4.646 -0.2785 -0.0825  0.6297
 8521SOL    HW131399   9.193   1.973   4.572 -2.3292  0.5716  0.5420
 8521SOL    HW231400   9.081   1.895   4.637 -0.0300 -1.9291  1.7125
 8522SOL     OW31401   5.211   1.994   0.850 -0.0031 -0.0753  0.0690
 8522SOL    HW131402   5.270   1.950   0.912  1.3285  1.7150  0.1614
 8522SOL    HW231403   5.124   1.982   0.887  0.7344  0.7174  2.2019
 8523SOL     OW31404   6.233  10.705   1.658  0.3913  0.5997 -0.0550
 8523SOL    HW131405   6.284  10.706   1.739 -2.5256  1.5004  1.9740
 8523SOL    HW231406   6.192  10.791   1.655  0.6952  0.7304 -2.7756
 8524SOL     OW31407  10.594   1.019   7.374 -0.3778 -0.6188 -0.4806
 8524SOL    HW131408  10.516   1.065   7.343 -0.4017  0.9092  1.6753
 8524SOL    HW231409  10.570   0.988   7.461  1.7998  1.0299  0.7973
 8525SOL     OW31410   4.138   2.709  10.056 -0.1218 -0.4159 -0.6542
 8525SOL    HW131411   4.206   2.744  10.114 -0.3867 -2.7281  1.1983
 8525SOL    HW231412   4.146   2.614  10.065 -1.6599 -0.8066 -2.7559
 8526SOL     OW31413   1.175   2.660   3.524 -0.0880 -0.6168 -0.0278
 8526SOL    HW131414   1.203   2.672   3.615 -0.6555 -1.5950  0.2872
 8526SOL    HW231415   1.098   2.716   3.515  0.2694 -0.1188 -0.0711
 8527SOL     OW31416  10.058  10.468   5.724 -0.0589 -0.1878  0.4608
 8527SOL    HW131417  10.135  10.458   5.780 -0.1735  3.3680  1.4983
 8527SOL    HW231418  10.093  10.485   5.637  0.2994  0.1917  0.6774
 8528SOL     OW31419   6.038   3.410   1.547  0.2203 -0.0403  0.1361
 8528SOL    HW131420   6.096   3.482   1.524  0.4246 -0.2793 -0.1030
 8528SOL    HW231421   6.094   3.345   1.589  0.1637 -0.3493 -0.2578
 8529SOL     OW31422   5.161   1.422   5.403 -0.0269 -0.1689 -0.0413
 8529SOL    HW131423   5.209   1.370   5.340  0.6390 -0.2623  0.5370
 8529SOL    HW231424   5.140   1.503   5.356  1.9561  0.4980  0.1142
 8530SOL     OW31425   0.718   7.033   2.552 -0.0049 -0.2157  0.0549
 8530SOL    HW131426   0.707   7.126   2.568  0.9317  0.0319 -0.6665
 8530SOL    HW231427   0.794   7.009   2.605  1.3943  0.0160 -1.7693
 8531SOL     OW31428   3.135   4.024   9.085  0.4164  0.1954  0.2844
 8531SOL    HW131429   3.213   3.987   9.046 -0.4977 -0.1075 -1.3393
 8531SOL    HW231430   3.141   4.001   9.178  1.1451 -1.7867 -0.2115
 8532SOL     OW31431   8.229   2.730   5.704  0.5127 -0.0268 -0.1965
 8532SOL    HW131432   8.284   2.762   5.633  0.9227 -1.4427 -0.5358
 8532SOL    HW231433   8.270   2.649   5.732 -1.7134 -1.4710 -0.8529
 8533SOL     OW31434   7.728   3.204   3.583 -0.0635 -0.4920 -0.1214
 8533SOL    HW131435   7.741   3.110   3.572  1.6136 -0.3289  0.1433
 8533SOL    HW231436   7.815   3.237   3.604 -0.4855  1.2280 -0.9361
 8534SOL     OW31437   1.271   3.765   2.230 -0.4858 -0.2276 -0.2510
 8534SOL    HW131438   1.241   3.856   2.231 -0.4094 -0.2038  0.0686
 8534SOL    HW231439   1.215   3.721   2.294 -1.3137 -0.6633 -1.2535
 8535SOL     OW31440   0.846   4.582   0.382  0.4605 -0.1272  0.0699
 8535SOL    HW131441   0.872   4.544   0.298 -1.1593 -0.8694 -0.1338
 8535SOL    HW231442   0.882   4.522   0.448  1.2977  0.1807 -0.0922
 8536SOL     OW31443   3.629   0.077   8.519  0.1722  0.5438 -0.0110
 8536SOL    HW131444   3.654   0.084   8.427  0.1798 -1.5165 -0.1977
 8536SOL    HW231445   3.703   0.113   8.567  2.3677 -2.7501 -0.6613
 8537SOL     OW31446   4.343   0.403   0.760  0.8117  0.1943 -0.4154
 8537SOL    HW131447   4.331   0.496   0.744 -0.3586 -0.1416 -1.7646
 8537SOL    HW231448   4.435   0.386   0.743  1.2135  1.2452  0.6737
 8538SOL     OW31449   0.759  10.047   7.415 -0.5272  0.2142  0.0226
 8538SOL    HW131450   0.846  10.084   7.430 -0.9325  0.9630  0.6004
 8538SOL    HW231451   0.716  10.052   7.501 -0.9667 -0.6173 -0.1431
 8539SOL     OW31452   1.283   2.709   3.060  0.2619 -0.5137  0.1530
 8539SOL    HW131453   1.331   2.742   2.984  0.8824  1.0074  1.1650
 8539SOL    HW231454   1.202   2.673   3.023  1.0765 -0.9143 -1.3358
 8540SOL     OW31455   9.166   8.520   7.662 -0.1335  0.1497  0.0563
 8540SOL    HW131456   9.135   8.452   7.602 -1.1542  0.4117  0.2651
 8540SOL    HW231457   9.094   8.532   7.724  1.4064 -1.1347  2.2612
 8541SOL     OW31458   4.471   8.735   9.005 -0.3266 -0.1521 -0.2264
 8541SOL    HW131459   4.410   8.807   9.022  2.4343  2.0399  1.2004
 8541SOL    HW231460   4.510   8.716   9.090  1.4314 -0.9903 -1.1677
 8542SOL     OW31461  10.226   0.335   7.160  1.0347 -0.0242  0.2872
 8542SOL    HW131462  10.205   0.263   7.220 -2.0526  1.3045  1.0377
 8542SOL    HW231463  10.215   0.297   7.073 -0.4838 -0.5405  0.6674
 8543SOL     OW31464   2.368   9.974   6.704 -0.1495 -0.1000 -0.2848
 8543SOL    HW131465   2.326   9.892   6.727 -0.7549  0.4597  0.6697
 8543SOL    HW231466   2.359   9.981   6.609  0.6113 -1.4983 -0.4905
 8544SOL     OW31467   2.968   2.792   6.088 -0.2766  0.0538  0.2544
 8544SOL    HW131468   3.040   2.737   6.118  0.2066  0.7030  0.3090
 8544SOL    HW231469   2.988   2.879   6.124 -1.1343  0.2201  0.3478
 8545SOL     OW31470   4.221   6.247   1.231 -0.0503  0.2026 -0.5191
 8545SOL    HW131471   4.310   6.263   1.200  0.9112 -0.8671  1.4979
 8545SOL    HW231472   4.198   6.325   1.282  0.2943 -0.0882  0.0955
 8546SOL     OW31473   3.347   4.224   0.301 -0.2566  0.1066 -0.1258
 8546SOL    HW131474   3.414   4.255   0.361  1.5179 -2.0535 -0.8716
 8546SOL    HW231475   3.379   4.247   0.214 -1.1164  0.1628 -0.4422
 8547SOL     OW31476   8.118  10.620   5.412  0.3831 -0.6527 -0.1611
 8547SOL    HW131477   8.090  10.698   5.364  1.0977  0.1874  0.7510
 8547SOL    HW231478   8.043  10.597   5.466  1.1961  1.3967  2.0322
 8548SOL     OW31479   0.804   5.190   9.905 -0.5652  0.0493  0.0067
 8548SOL    HW131480   0.857   5.126   9.952 -1.1662  0.0918  0.7515
 8548SOL    HW231481   0.855   5.211   9.827 -1.1247 -2.6367 -1.1760
 8549SOL     OW31482  10.148   0.861   1.158 -0.0125  0.2659 -0.6018
 8549SOL    HW131483  10.160   0.814   1.075  0.7639 -0.5819 -0.0310
 8549SOL    HW231484  10.202   0.940   1.149  1.1038 -0.4573 -0.4309
 8550SOL     OW31485   3.450   3.221   6.461 -0.2306  0.4069 -0.3280
 8550SOL    HW131486   3.448   3.305   6.506 -0.2318  0.3519 -0.2229
 8550SOL    HW231487   3.542   3.209   6.437 -0.3348  0.7266 -0.9000
 8551SOL     OW31488  10.650   3.849   5.810  0.3426 -0.3821 -0.1128
 8551SOL    HW131489  10.680   3.843   5.719 -1.6029  0.1923 -0.8337
 8551SOL    HW231490  10.604   3.933   5.815  0.1544 -0.5447  1.3294
 8552SOL     OW31491   1.472  10.025   5.400 -0.6979 -0.4664 -0.1711
 8552SOL    HW131492   1.507   9.982   5.322 -0.7900 -0.9617  0.0596
 8552SOL    HW231493   1.383   9.992   5.408  0.0987 -2.3908  1.5618
 8553SOL     OW31494   5.528   3.462   5.497 -0.0245 -0.6527  0.4524
 8553SOL    HW131495   5.614   3.459   5.540  0.1404  0.5219  0.2235
 8553SOL    HW231496   5.480   3.389   5.536 -0.2391  0.8917  3.3484
 8554SOL     OW31497   6.469   3.679   3.433  0.2434  0.3648 -0.3925
 8554SOL    HW131498   6.441   3.669   3.342  2.2551  0.8635 -1.1207
 8554SOL    HW231499   6.440   3.766   3.458 -3.3235 -0.9621  0.6694
 8555SOL     OW31500   4.630   3.794   7.125  0.5123  0.2065  0.3951
 8555SOL    HW131501   4.649   3.877   7.170  0.2945  0.3879  0.1516
 8555SOL    HW231502   4.684   3.796   7.046 -2.1095  1.7567 -1.5128
 8556SOL     OW31503   5.488   6.867   7.472 -0.6217  0.1105 -0.6511
 8556SOL    HW131504   5.488   6.869   7.567  0.5058 -1.9179 -0.5472
 8556SOL    HW231505   5.397   6.851   7.448 -1.0829  1.5755 -0.0003
 8557SOL     OW31506   4.090   5.924   6.420  0.2718  0.3616  0.7378
 8557SOL    HW131507   4.078   5.851   6.481  0.2163 -0.8786 -0.6838
 8557SOL    HW231508   4.182   5.948   6.430  0.6678 -0.8592  0.2399
 8558SOL     OW31509  10.145   9.718   2.234 -0.3829  0.3979 -0.2151
 8558SOL    HW131510  10.141   9.788   2.168  0.0112  0.5086 -0.1214
 8558SOL    HW231511  10.204   9.751   2.301  0.0880 -0.1740 -0.3427
 8559SOL     OW31512   4.985   1.456   8.189 -0.7917 -0.5045  0.0666
 8559SOL    HW131513   4.940   1.538   8.166  0.4927 -0.1282 -1.2275
 8559SOL    HW231514   4.994   1.460   8.284  2.9776  2.9526 -0.1716
 8560SOL     OW31515   2.408   0.522   7.173  0.3054  0.0727 -0.6008
 8560SOL    HW131516   2.405   0.615   7.192  1.9941  0.2204 -0.9661
 8560SOL    HW231517   2.339   0.510   7.107 -2.4411  0.3409  1.9817
 8561SOL     OW31518   8.084   3.274   8.652  0.7149  0.1578  0.3518
 8561SOL    HW131519   8.091   3.364   8.620  1.7613  1.0653  2.8362
 8561SOL    HW231520   8.132   3.222   8.588  0.6037  1.4471 -0.8352
 8562SOL     OW31521   0.050   3.526   8.768  0.1643  0.1144 -0.2772
 8562SOL    HW131522  -0.036   3.568   8.768 -0.1369 -0.4943 -0.2208
 8562SOL    HW231523   0.111   3.597   8.788 -0.2765  0.6458 -0.7924
 8563SOL     OW31524   7.755   6.519   0.971 -0.5120  0.1091 -0.3403
 8563SOL    HW131525   7.774   6.483   1.058 -0.6963 -0.8503 -0.6837
 8563SOL    HW231526   7.688   6.585   0.987 -0.7254 -0.2341  0.2162
 8564SOL     OW31527   9.714   3.185   6.105 -0.4221 -0.0181 -0.0622
 8564SOL    HW131528   9.672   3.156   6.024 -1.3644 -1.6411  0.9575
 8564SOL    HW231529   9.661   3.259   6.134 -1.3203 -0.6954  0.0833
 8565SOL     OW31530   9.359   8.576   0.559  0.5215  0.4937 -0.4692
 8565SOL    HW131531   9.302   8.535   0.625 -1.8044  2.1413 -1.3138
 8565SOL    HW231532   9.358   8.514   0.486 -1.7908  1.2646 -1.1802
 8566SOL     OW31533   3.113   5.072   6.666  0.1517  1.0301 -0.1018
 8566SOL    HW131534   3.205   5.050   6.680 -0.6046 -0.7562  3.2184
 8566SOL    HW231535   3.085   5.112   6.748 -1.9022  2.2255 -1.3026
 8567SOL     OW31536   0.615   0.150   5.250 -0.0755 -0.1889  0.2908
 8567SOL    HW131537   0.630   0.073   5.305  1.9971 -0.7524 -0.9507
 8567SOL    HW231538   0.630   0.118   5.161 -0.6050  1.3500 -0.3799
 8568SOL     OW31539   6.286   1.451   1.368 -0.2231 -0.2541  0.6621
 8568SOL    HW131540   6.213   1.474   1.311  0.2518  1.6895  0.7653
 8568SOL    HW231541   6.253   1.464   1.456 -0.6134 -2.2087  0.8587
 8569SOL     OW31542   7.813   4.531   6.481 -0.2937 -0.0198 -0.4970
 8569SOL    HW131543   7.731   4.543   6.432  0.3776  0.7008 -1.4873
 8569SOL    HW231544   7.827   4.615   6.525 -0.4216 -0.3636  0.2082
 8570SOL     OW31545   0.717   4.065   8.169  0.3917  0.0016 -0.8692
 8570SOL    HW131546   0.757   4.056   8.083  0.1075  1.8425 -1.2437
 8570SOL    HW231547   0.648   4.130   8.157  1.0847  1.1684  0.9732
 8571SOL     OW31548   1.222   2.838   4.323  0.7698  0.0025 -0.3518
 8571SOL    HW131549   1.148   2.889   4.356 -0.7414 -1.2423 -1.6539
 8571SOL    HW231550   1.206   2.749   4.356  2.6401  0.0158  0.7617
 8572SOL     OW31551   4.123   0.472   3.959 -0.4828  0.3084  0.6136
 8572SOL    HW131552   4.177   0.393   3.957  1.3868  1.2446  4.5052
 8572SOL    HW231553   4.150   0.522   3.881  1.8411 -0.7909  0.6264
 8573SOL     OW31554   6.971   9.056   6.073  0.3669 -0.2416 -0.4122
 8573SOL    HW131555   7.013   9.077   6.157 -0.4897 -0.5548  0.1168
 8573SOL    HW231556   6.894   9.112   6.070  0.9475  0.5237 -1.4929
 8574SOL     OW31557   4.302   2.582   8.833 -0.3437 -0.4037  0.2676
 8574SOL    HW131558   4.269   2.617   8.916 -1.3553 -1.3073  0.2611
 8574SOL    HW231559   4.390   2.552   8.854 -0.7887 -1.1285  1.1727
 8575SOL     OW31560   5.013   4.953   8.467 -0.4048 -0.2371  0.9183
 8575SOL    HW131561   5.039   5.034   8.510 -0.2560  0.3916 -0.3055
 8575SOL    HW231562   4.925   4.970   8.434 -0.3877 -0.5795  0.6814
 8576SOL     OW31563   7.151   5.622   2.529 -0.3899  0.2353 -0.4698
 8576SOL    HW131564   7.168   5.710   2.563 -0.1630  0.6433 -1.5684
 8576SOL    HW231565   7.132   5.636   2.436 -2.8215 -0.6290 -0.1665
 8577SOL     OW31566   9.042   1.700   7.109 -0.2710  0.6300 -0.1605
 8577SOL    HW131567   9.095   1.775   7.083 -0.0132  0.3992 -0.3071
 8577SOL    HW231568   8.960   1.738   7.141 -0.1489  0.9711 -0.2511
 8578SOL     OW31569   5.514  10.636   9.760  0.3179  0.1265 -0.7683
 8578SOL    HW131570   5.423  10.608   9.774  0.2218  0.4504 -0.7269
 8578SOL    HW231571   5.559  10.557   9.730  0.6177 -0.7110  1.6487
 8579SOL     OW31572   9.029   3.201   2.619  0.2107 -0.3372 -0.3764
 8579SOL    HW131573   9.038   3.291   2.588  2.2856 -0.4522 -0.1993
 8579SOL    HW231574   9.049   3.206   2.712  1.7442 -1.1695 -0.6337
 8580SOL     OW31575   1.130   9.918   3.916 -0.1686  0.0388 -0.4261
 8580SOL    HW131576   1.125   9.827   3.943 -1.6984  0.0028 -0.7334
 8580SOL    HW231577   1.196   9.957   3.973  1.3584 -1.4996 -1.0804
 8581SOL     OW31578  10.444   6.468   0.164 -0.3852 -0.0387  0.4715
 8581SOL    HW131579  10.495   6.387   0.157  2.9368  1.7661  1.4578
 8581SOL    HW231580  10.380   6.462   0.093  0.5955 -2.9078 -0.3255
 8582SOL     OW31581   2.980   3.158   9.514 -0.7545 -0.4239 -0.4556
 8582SOL    HW131582   3.056   3.136   9.459  0.0227  1.4311 -0.2204
 8582SOL    HW231583   2.983   3.095   9.586  2.5103  1.4420  1.2726
 8583SOL     OW31584   8.972   7.805   4.877  0.2889 -0.7780  0.5660
 8583SOL    HW131585   8.971   7.859   4.956  1.1165 -0.3556  0.3032
 8583SOL    HW231586   8.907   7.845   4.819  1.2695  0.2753  0.1642
 8584SOL     OW31587   1.262   3.426   2.225 -0.0876  0.5234 -0.0144
 8584SOL    HW131588   1.187   3.474   2.260  1.1354  1.3234  1.6600
 8584SOL    HW231589   1.307   3.391   2.302 -0.2552 -2.3742 -1.1099
 8585SOL     OW31590   6.683   8.919   9.495  0.7211 -0.1600  0.5835
 8585SOL    HW131591   6.743   8.891   9.425  0.4378 -2.1723  1.0939
 8585SOL    HW231592   6.710   8.868   9.572 -0.9151 -0.2809  1.1183
 8586SOL     OW31593   1.670  10.641   7.775  0.1213  0.0223  0.2113
 8586SOL    HW131594   1.660  10.684   7.859 -1.4415 -1.5666  0.8979
 8586SOL    HW231595   1.705  10.554   7.795  0.2630 -0.1861 -0.8359
 8587SOL     OW31596   9.644   1.399   5.251 -0.2510 -0.0818 -0.0496
 8587SOL    HW131597   9.740   1.400   5.240 -0.1866  0.5348  0.5255
 8587SOL    HW231598   9.630   1.435   5.338 -0.9276 -1.7744  0.5734
 8588SOL     OW31599   6.026   7.974   1.121  0.2036  0.4213 -0.0296
 8588SOL    HW131600   5.999   8.027   1.046  1.7463  0.2739 -0.7132
 8588SOL    HW231601   5.944   7.956   1.168 -0.4388  2.9032 -0.0821
 8589SOL     OW31602   8.390   1.328   8.690 -0.1852  0.2286  0.2308
 8589SOL    HW131603   8.464   1.322   8.750 -0.5050  0.7559  0.6816
 8589SOL    HW231604   8.314   1.305   8.743 -0.1691 -2.1268 -0.6576
 8590SOL     OW31605   7.463   4.771   5.187  0.0796  0.6628  0.3090
 8590SOL    HW131606   7.434   4.726   5.267  0.4377  0.9149  0.5872
 8590SOL    HW231607   7.533   4.829   5.217  1.5153 -0.5891 -0.4746
 8591SOL     OW31608   9.528  10.492   9.538 -0.1735 -0.5798 -0.2740
 8591SOL    HW131609   9.474  10.466   9.613  0.5897 -1.6944 -0.0923
 8591SOL    HW231610   9.508  10.426   9.471  0.4319 -0.5924 -0.4421
 8592SOL     OW31611  10.274   8.140   8.009  0.0387 -0.0982 -0.3001
 8592SOL    HW131612  10.277   8.097   7.923  1.7863  0.5706 -0.6183
 8592SOL    HW231613  10.350   8.104   8.056  0.9222  1.8174 -0.1959
 8593SOL     OW31614   6.652   5.681   3.665  0.6979  0.0917  0.5145
 8593SOL    HW131615   6.676   5.632   3.586 -1.4430  0.3910 -0.3947
 8593SOL    HW231616   6.723   5.744   3.676  0.4456  0.9362 -1.9963
 8594SOL     OW31617  10.162   0.311   1.653  0.2594 -0.0178 -0.4846
 8594SOL    HW131618  10.098   0.263   1.706  0.2723  0.8362  0.3243
 8594SOL    HW231619  10.235   0.250   1.642  0.3067 -0.1771  0.5814
 8595SOL     OW31620   1.636   8.862  10.155  0.0128  0.6282 -0.1692
 8595SOL    HW131621   1.648   8.862  10.250  1.6501  1.3430 -0.3406
 8595SOL    HW231622   1.702   8.923  10.123  2.0972 -2.3163 -2.0259
 8596SOL     OW31623   7.740   0.952   9.617 -0.2410  0.2635  0.4060
 8596SOL    HW131624   7.705   1.024   9.566  1.2876 -0.1352 -1.2736
 8596SOL    HW231625   7.751   0.880   9.554  0.5964 -0.6320  1.5214
 8597SOL     OW31626   7.579   5.077   0.022 -0.0540  0.0124 -0.0565
 8597SOL    HW131627   7.639   5.080   0.097 -0.2828  2.3660  0.1237
 8597SOL    HW231628   7.624   5.023  -0.043  0.6968 -1.0738  1.3029
 8598SOL     OW31629   6.488   7.120   0.925 -0.9023  0.1590 -0.1362
 8598SOL    HW131630   6.464   7.132   1.017 -0.8655  0.2306 -0.1360
 8598SOL    HW231631   6.582   7.104   0.927 -1.0017 -0.4250 -0.1104
 8599SOL     OW31632   9.487   1.309  10.207 -0.3192  0.0147  0.2806
 8599SOL    HW131633   9.529   1.382  10.162  1.1096 -1.6223 -1.2225
 8599SOL    HW231634   9.439   1.263  10.139 -1.4709 -0.2903  1.2608
 8600SOL     OW31635  10.199   5.280   3.293  0.1130 -0.3596  0.0384
 8600SOL    HW131636  10.147   5.282   3.212 -0.1990  0.3410  0.2480
 8600SOL    HW231637  10.195   5.370   3.326 -1.2351 -1.0248  1.7796
 8601SOL     OW31638   5.703   6.627   5.203 -0.3272  0.2461 -0.3721
 8601SOL    HW131639   5.716   6.624   5.298  0.0741 -2.2469 -0.4197
 8601SOL    HW231640   5.610   6.609   5.191 -0.5451  1.3686 -0.4566
 8602SOL     OW31641   6.918   8.478   1.736  0.5219  0.3337  0.3448
 8602SOL    HW131642   6.877   8.468   1.821  1.1639 -1.3672  0.4864
 8602SOL    HW231643   6.985   8.546   1.749  1.0661 -0.3855  1.3761
 8603SOL     OW31644   7.909   5.876   4.261 -0.2407  0.3289  0.8476
 8603SOL    HW131645   7.874   5.957   4.225  1.6639  0.6577 -0.3824
 8603SOL    HW231646   7.927   5.896   4.353 -1.9102  0.5566  1.1552
 8604SOL     OW31647   6.494  10.455   6.628  0.3250  0.3462  0.5751
 8604SOL    HW131648   6.589  10.455   6.633  0.3929  0.4165 -0.4521
 8604SOL    HW231649   6.472  10.535   6.578 -0.1030 -0.9366 -1.4131
 8605SOL     OW31650   3.517   7.889   2.749 -0.0273  0.0452 -0.2950
 8605SOL    HW131651   3.454   7.931   2.808 -0.5817 -0.6221 -0.4068
 8605SOL    HW231652   3.579   7.845   2.807  0.1685  0.4521 -0.1912
 8606SOL     OW31653   1.325   9.677   8.339  0.0033  0.0906  0.8134
 8606SOL    HW131654   1.387   9.604   8.330  1.1998  1.3175 -2.1472
 8606SOL    HW231655   1.265   9.648   8.407  0.2289 -3.8092 -0.3603
 8607SOL     OW31656   2.194   4.193   7.225  0.0724 -0.0930 -0.2987
 8607SOL    HW131657   2.108   4.159   7.200 -0.6750  0.1596  1.7148
 8607SOL    HW231658   2.256   4.130   7.188 -1.0631 -1.1912 -0.4264
 8608SOL     OW31659   4.774   8.167   9.676 -0.1435 -0.3483  0.3563
 8608SOL    HW131660   4.740   8.135   9.592  2.5181  0.5054 -1.1933
 8608SOL    HW231661   4.745   8.258   9.680 -1.4937 -0.7993  1.1075
 8609SOL     OW31662   6.571   8.222   1.768  0.1680  0.5493 -0.6563
 8609SOL    HW131663   6.611   8.282   1.705 -2.5748  1.6955 -1.4528
 8609SOL    HW231664   6.506   8.173   1.716  1.0489 -1.8600  0.3671
 8610SOL     OW31665  10.608   2.508   9.940  0.3015  0.2679  0.1521
 8610SOL    HW131666  10.645   2.457   9.868  1.5309  1.0056  0.2290
 8610SOL    HW231667  10.554   2.446   9.988  1.2110 -0.8034 -0.1527
 8611SOL     OW31668   5.339   0.368   2.007 -0.2317 -0.5030 -0.4550
 8611SOL    HW131669   5.340   0.322   1.923 -0.2820 -1.2332 -0.0647
 8611SOL    HW231670   5.386   0.449   1.991  1.9072 -1.7082 -0.5908
 8612SOL     OW31671   3.398   1.767   3.855 -0.1766  0.2471 -0.1170
 8612SOL    HW131672   3.443   1.843   3.818 -0.9527  0.8145  0.0798
 8612SOL    HW231673   3.454   1.693   3.833 -0.0091  0.7222 -1.3640
 8613SOL     OW31674   8.664   3.229   2.111 -0.2417 -0.0732  0.5058
 8613SOL    HW131675   8.726   3.156   2.113  1.6040  1.4305  1.2424
 8613SOL    HW231676   8.620   3.225   2.196 -1.6215 -1.4373 -0.2049
 8614SOL     OW31677   5.493   6.367   2.100  0.2544 -0.1602  0.1356
 8614SOL    HW131678   5.575   6.416   2.105  0.4821 -0.4591 -0.5764
 8614SOL    HW231679   5.495   6.325   2.014 -1.1750  0.7692 -0.3808
 8615SOL     OW31680   5.860  10.260   3.401  0.4161 -0.4815  0.5011
 8615SOL    HW131681   5.906  10.289   3.480  1.1607 -0.7602  0.1760
 8615SOL    HW231682   5.826  10.173   3.424 -2.0583  0.6898  1.5711
 8616SOL     OW31683  10.283   8.109   9.748 -0.3033  0.6636  0.5520
 8616SOL    HW131684  10.314   8.018   9.742 -0.8069  0.5610 -1.1513
 8616SOL    HW231685  10.202   8.110   9.697 -1.7470  1.5190  2.7245
 8617SOL     OW31686   6.416   6.150   8.100 -0.3941  0.2207 -0.3993
 8617SOL    HW131687   6.478   6.099   8.048  0.2648 -0.1668  0.7173
 8617SOL    HW231688   6.471   6.211   8.150 -0.9570  0.3272  0.1050
 8618SOL     OW31689   5.245   4.070   5.801  0.0903 -0.6215  0.2018
 8618SOL    HW131690   5.308   4.000   5.784  0.3645 -0.5183  0.7582
 8618SOL    HW231691   5.170   4.025   5.841  0.4730 -0.5338  1.0249
 8619SOL     OW31692   4.965   9.613   5.556  0.6837 -0.0657  0.0778
 8619SOL    HW131693   4.954   9.678   5.625 -0.1162 -2.1519  2.0614
 8619SOL    HW231694   4.879   9.572   5.547  0.9099 -0.2384 -1.8252
 8620SOL     OW31695   6.353   2.229   9.310 -0.6793 -0.1499 -0.7822
 8620SOL    HW131696   6.444   2.202   9.315 -1.3107 -2.2334  2.2638
 8620SOL    HW231697   6.312   2.167   9.249 -0.3897 -0.3274 -0.7944
 8621SOL     OW31698   2.931   8.678   4.521 -0.5552 -0.1562  0.4402
 8621SOL    HW131699   3.024   8.660   4.505  0.0561  1.4624  1.8466
 8621SOL    HW231700   2.915   8.647   4.610 -1.2999 -0.1712  0.3052
 8622SOL     OW31701  10.438   4.923   3.492 -0.3190  0.2444  0.2241
 8622SOL    HW131702  10.413   5.013   3.514  0.7232  0.6600 -0.2504
 8622SOL    HW231703  10.528   4.914   3.523 -0.3474 -0.5784  0.1012
 8623SOL     OW31704   6.826   2.488   5.980 -0.1203 -0.3678  0.2032
 8623SOL    HW131705   6.742   2.445   5.963  0.1406 -0.9272  0.3036
 8623SOL    HW231706   6.880   2.463   5.905  0.4124 -1.2179  0.8583
 8624SOL     OW31707   7.996  10.459   7.361 -0.4563 -0.0706 -0.0151
 8624SOL    HW131708   8.001  10.383   7.303  1.5134 -0.1231  0.1724
 8624SOL    HW231709   7.976  10.532   7.302 -1.5161 -0.5875 -0.3118
 8625SOL     OW31710   4.826   0.060   4.981  0.1571  0.0408 -0.1514
 8625SOL    HW131711   4.751   0.087   5.033 -0.7547 -1.1112 -0.8384
 8625SOL    HW231712   4.802   0.080   4.891  0.3963 -0.9476 -0.4413
 8626SOL     OW31713   2.495   5.169   4.972  0.4628  0.6382  0.4380
 8626SOL    HW131714   2.414   5.122   4.953  0.5477 -0.5260  2.6455
 8626SOL    HW231715   2.550   5.155   4.894  0.2539 -2.5028  0.7292
 8627SOL     OW31716   9.380   4.412   5.227 -0.0494 -0.8678 -0.9927
 8627SOL    HW131717   9.471   4.388   5.241 -0.5701 -2.2825  0.2355
 8627SOL    HW231718   9.352   4.451   5.310 -0.3025  0.5485 -1.7043
 8628SOL     OW31719   8.995   5.831   0.788  0.1260 -1.0376  0.0357
 8628SOL    HW131720   9.028   5.785   0.710  1.5300  0.0334 -0.0361
 8628SOL    HW231721   9.070   5.880   0.821 -0.6205 -0.9444  1.7047
 8629SOL     OW31722  10.578   6.716   0.410  0.2358  0.0094 -0.1881
 8629SOL    HW131723  10.631   6.642   0.380  0.0909  0.7291 -2.3990
 8629SOL    HW231724  10.507   6.722   0.346 -0.7696  0.9715  0.9753
 8630SOL     OW31725   5.816   9.295   7.467  0.3610 -1.0745 -0.1062
 8630SOL    HW131726   5.798   9.316   7.559  1.6756  1.2411 -0.2981
 8630SOL    HW231727   5.734   9.258   7.434 -0.8483  0.0941  1.4341
 8631SOL     OW31728   0.427  10.095   6.121  0.4597  0.0405  0.2512
 8631SOL    HW131729   0.517  10.123   6.111 -0.0626  1.4931 -0.5950
 8631SOL    HW231730   0.405  10.117   6.212  0.7486  0.3176  0.2532
 8632SOL     OW31731   6.000   7.173   0.782  0.1052 -0.0780  0.1189
 8632SOL    HW131732   6.056   7.112   0.831  0.8072  1.7395  1.7047
 8632SOL    HW231733   5.962   7.230   0.849  0.1950  1.7960 -1.3395
 8633SOL     OW31734   3.391   3.845   8.433 -0.0944  0.4638  0.2510
 8633SOL    HW131735   3.322   3.910   8.423 -0.3733  0.1624  0.1984
 8633SOL    HW231736   3.472   3.893   8.417 -0.1034  1.3282  2.4012
 8634SOL     OW31737   5.807   1.028   5.587  0.1614  0.1060 -0.4281
 8634SOL    HW131738   5.735   1.011   5.527 -0.8859  0.8254  0.5961
 8634SOL    HW231739   5.883   1.039   5.530 -0.5345 -0.5560 -1.5294
 8635SOL     OW31740   7.315   0.045   3.367 -0.3971  0.3510  0.2293
 8635SOL    HW131741   7.301  -0.046   3.392 -2.4778  1.0676  2.0142
 8635SOL    HW231742   7.244   0.065   3.307 -1.2930  1.3563  1.5695
 8636SOL     OW31743   0.159   0.211   0.372 -0.8459 -0.0790 -0.4535
 8636SOL    HW131744   0.139   0.292   0.326 -2.0493 -0.8724 -1.3977
 8636SOL    HW231745   0.128   0.226   0.461  2.6354  1.9271  0.5958
 8637SOL     OW31746  10.456   5.153   9.232 -0.3453  0.5545  0.6025
 8637SOL    HW131747  10.518   5.225   9.219  0.8043 -0.4736  0.2248
 8637SOL    HW231748  10.446   5.147   9.327  2.3307 -1.0004  0.8955
 8638SOL     OW31749   7.599   4.492   0.105  0.1891  0.3414 -0.0078
 8638SOL    HW131750   7.568   4.413   0.060 -1.7499  1.3475 -0.5582
 8638SOL    HW231751   7.691   4.474   0.124  0.0025 -1.7396 -0.7764
 8639SOL     OW31752   3.331  10.513   8.719 -0.2568  0.1057  0.2513
 8639SOL    HW131753   3.263  10.509   8.786 -0.3672  1.1927  0.2234
 8639SOL    HW231754   3.388  10.438   8.738 -2.5697 -2.1190 -0.9880
 8640SOL     OW31755   5.908   0.129   0.322 -0.0564 -0.7455  0.2519
 8640SOL    HW131756   5.878   0.143   0.412 -0.2562  0.7612 -0.0247
 8640SOL    HW231757   5.994   0.170   0.319 -1.0445  1.4057 -0.8386
 8641SOL     OW31758   7.040   8.699   9.904  0.5194 -0.0213  0.3950
 8641SOL    HW131759   6.978   8.630   9.927  0.9528 -0.5219  0.0871
 8641SOL    HW231760   6.987   8.778   9.898 -0.0654 -0.4190  0.2690
 8642SOL     OW31761   3.772   0.864   8.492 -0.0684  0.1303 -0.0070
 8642SOL    HW131762   3.847   0.820   8.451  0.2366 -1.1702  1.8204
 8642SOL    HW231763   3.808   0.908   8.569 -1.2507 -1.3054  1.4511
 8643SOL     OW31764   3.965   0.952   3.675  0.1109  0.8375  0.3065
 8643SOL    HW131765   3.871   0.965   3.693 -0.3762 -1.2927 -0.5046
 8643SOL    HW231766   3.973   0.963   3.581  0.6714  0.9105  0.3591
 8644SOL     OW31767   2.494   2.823   9.631 -0.5079  0.4491 -0.2925
 8644SOL    HW131768   2.504   2.774   9.549 -0.7060  1.3344 -0.8548
 8644SOL    HW231769   2.541   2.905   9.615 -0.3646  0.5398  0.5637
 8645SOL     OW31770   9.639   1.884   9.885 -0.0905  0.1982  0.5733
 8645SOL    HW131771   9.699   1.835   9.941 -0.5755  0.8708  1.7272
 8645SOL    HW231772   9.695   1.927   9.821  0.4536 -0.8058  0.3654
 8646SOL     OW31773  10.340   1.700   0.198  0.4268 -0.3189  0.3641
 8646SOL    HW131774  10.256   1.715   0.154  0.3985 -1.2003  0.0812
 8646SOL    HW231775  10.324   1.722   0.289 -0.5031 -1.7093  0.5686
 8647SOL     OW31776   2.630   0.444   8.878 -0.0266  0.3251  0.1357
 8647SOL    HW131777   2.694   0.389   8.832  0.6002  2.2593 -1.4494
 8647SOL    HW231778   2.557   0.385   8.898  1.3592 -1.4694  0.1717
 8648SOL     OW31779   0.119   7.864   2.390 -0.0604  0.3832  0.2429
 8648SOL    HW131780   0.040   7.880   2.442 -0.1943 -1.3766  0.6315
 8648SOL    HW231781   0.094   7.889   2.301 -0.3453  1.8766  0.7149
 8649SOL     OW31782   3.292   9.780   4.921  0.1148  0.0729 -0.0230
 8649SOL    HW131783   3.361   9.845   4.926 -0.8246  1.2201 -1.2771
 8649SOL    HW231784   3.211   9.831   4.910 -0.7715 -1.2658  0.0371
 8650SOL     OW31785   6.098   9.730   3.418 -0.4384 -0.0435  0.1861
 8650SOL    HW131786   6.166   9.674   3.455 -0.8653 -0.3638  0.5099
 8650SOL    HW231787   6.017   9.680   3.432 -0.7239  0.2869 -0.2787
 8651SOL     OW31788   3.509   9.075  10.195  0.0842 -0.2329 -0.1032
 8651SOL    HW131789   3.533   8.991  10.155  2.1927 -0.1612  0.8893
 8651SOL    HW231790   3.481   9.052  10.284  0.9096  0.1249  0.2538
 8652SOL     OW31791   3.545   6.064   1.910  0.0947 -0.2905 -0.6520
 8652SOL    HW131792   3.470   6.036   1.858  0.3385 -1.3451 -0.4444
 8652SOL    HW231793   3.600   6.113   1.849  0.2485 -1.2850 -1.3219
 8653SOL     OW31794   9.384   1.611   6.985  0.5431 -0.0840 -0.3780
 8653SOL    HW131795   9.382   1.697   7.028  0.4489 -0.4545  0.3587
 8653SOL    HW231796   9.356   1.630   6.895 -1.2156  0.3970  0.2371
 8654SOL     OW31797  10.219   0.613   1.971  0.5112  0.1696  0.6758
 8654SOL    HW131798  10.214   0.709   1.970 -0.9171  0.1176  0.5873
 8654SOL    HW231799  10.164   0.587   2.045 -0.4414 -0.6216 -0.2721
 8655SOL     OW31800   6.753   0.254   5.411  0.1656  0.7704  0.1138
 8655SOL    HW131801   6.728   0.303   5.490 -1.8002 -0.7203  0.4793
 8655SOL    HW231802   6.671   0.239   5.365  0.6870 -1.9238 -0.1033
 8656SOL     OW31803   0.145   4.422  10.202  0.7676 -0.2079  0.4472
 8656SOL    HW131804   0.178   4.512  10.202  1.2719 -0.3844  0.1348
 8656SOL    HW231805   0.170   4.388  10.117 -0.4427 -0.2909  0.1121
 8657SOL     OW31806   0.488   0.461   9.523 -0.2146  0.2177  0.5496
 8657SOL    HW131807   0.484   0.366   9.513 -0.7983  0.4716 -2.3256
 8657SOL    HW231808   0.581   0.480   9.538  0.6148 -0.5957 -2.7805
 8658SOL     OW31809   1.675   9.191   7.624  0.3022  0.5338 -0.3831
 8658SOL    HW131810   1.745   9.176   7.688 -0.0054 -0.2637 -0.2201
 8658SOL    HW231811   1.708   9.151   7.543  0.7375  1.6389 -0.7635
 8659SOL     OW31812   8.255   1.522  10.468  0.4062  0.9737  0.0321
 8659SOL    HW131813   8.295   1.435  10.467  0.4989  1.0032  1.0514
 8659SOL    HW231814   8.167   1.507  10.432  0.0275  0.2462  1.1932
 8660SOL     OW31815   0.515  10.237   4.985  0.5864  0.3857  0.1129
 8660SOL    HW131816   0.563  10.307   5.029  0.4802  0.6100 -0.1267
 8660SOL    HW231817   0.424  10.249   5.012  0.6167  0.1304  0.3423
 8661SOL     OW31818   7.413   8.456   8.129 -0.2518  0.1733  0.2312
 8661SOL    HW131819   7.468   8.382   8.156 -1.8048 -0.8011  0.7965
 8661SOL    HW231820   7.395   8.504   8.210 -0.7848  0.1050  0.1556
 8662SOL     OW31821  10.269   1.081   6.721  0.1472  0.7315 -0.2887
 8662SOL    HW131822  10.257   1.007   6.780  0.6052  0.7870 -0.1251
 8662SOL    HW231823  10.355   1.067   6.681  0.4615  1.4246  0.1112
 8663SOL     OW31824   8.939  10.555   8.675 -0.5067 -0.0574 -0.3299
 8663SOL    HW131825   8.983  10.495   8.615 -0.9809  0.0248 -0.7713
 8663SOL    HW231826   8.854  10.514   8.691 -0.3871 -0.0744  0.2866
 8664SOL     OW31827   7.992   7.135   8.443 -0.4904  0.5525 -0.1117
 8664SOL    HW131828   7.918   7.180   8.484 -1.1508  0.5971 -1.3267
 8664SOL    HW231829   7.987   7.046   8.476 -1.5209  0.3683 -0.7279
 8665SOL     OW31830   8.821   6.431   0.989  0.3359 -0.2386  0.0173
 8665SOL    HW131831   8.801   6.515   1.031 -0.3164 -0.2833 -0.1943
 8665SOL    HW231832   8.737   6.401   0.954  0.5502 -1.0143  0.1489
 8666SOL     OW31833   1.526   4.230  10.333  0.0182  0.0381 -0.1823
 8666SOL    HW131834   1.575   4.229  10.415 -0.5414 -0.8998  0.1539
 8666SOL    HW231835   1.555   4.151  10.287 -0.6313 -0.1382 -0.2946
 8667SOL     OW31836   8.902   6.274  10.685  0.0432 -0.4515 -0.2867
 8667SOL    HW131837   8.906   6.268  10.589  0.4813 -1.1074 -0.2296
 8667SOL    HW231838   8.956   6.202  10.716  0.9951  0.5473  0.4605
 8668SOL     OW31839   7.216   8.564   9.731  0.8018 -0.4974  0.0372
 8668SOL    HW131840   7.123   8.579   9.718  0.9344 -0.0765 -0.4484
 8668SOL    HW231841   7.248   8.642   9.776  1.1145 -0.1651 -0.7388
 8669SOL     OW31842  10.109   8.444   3.882  0.7277 -0.1629  0.3940
 8669SOL    HW131843  10.054   8.386   3.829  0.3992  1.4866 -1.1396
 8669SOL    HW231844  10.125   8.394   3.962 -0.2597 -2.0117 -0.4934
 8670SOL     OW31845   8.875   8.258   6.819  0.7409  0.1674 -0.3030
 8670SOL    HW131846   8.847   8.337   6.864 -0.9443 -0.9062  0.6440
 8670SOL    HW231847   8.795   8.221   6.782  1.5385 -0.8894 -1.0344
 8671SOL     OW31848   4.058   1.093   1.431  0.6960  0.0065 -0.0884
 8671SOL    HW131849   4.024   1.183   1.436  1.6716  0.3392  0.8161
 8671SOL    HW231850   4.144   1.102   1.391 -0.0385 -0.7852 -1.9518
 8672SOL     OW31851   5.300  10.455   0.605 -0.0680 -0.2923  0.4242
 8672SOL    HW131852   5.241  10.528   0.622  0.5721 -0.0861  2.0040
 8672SOL    HW231853   5.257  10.403   0.537 -1.7318  0.2029  1.0571
 8673SOL     OW31854   9.566   8.504   4.892  0.0264 -0.5100  0.6217
 8673SOL    HW131855   9.609   8.459   4.819  1.8320  3.7527 -1.2761
 8673SOL    HW231856   9.620   8.484   4.968  2.3671  0.3812 -0.6845
 8674SOL     OW31857   0.083   0.761  10.588  0.4137 -0.5038 -0.4434
 8674SOL    HW131858   0.110   0.761  10.680  2.0243  0.2712 -0.8945
 8674SOL    HW231859   0.020   0.832  10.581  0.8091 -0.1190 -0.0807
 8675SOL     OW31860   7.056   6.614   7.035 -0.1967  0.1043 -0.1701
 8675SOL    HW131861   7.051   6.531   6.988  2.3052  1.2247 -2.7104
 8675SOL    HW231862   6.978   6.662   7.007 -0.3545 -0.4309 -0.6609
 8676SOL     OW31863   4.249   3.443   8.382  0.2958 -0.2089 -0.1899
 8676SOL    HW131864   4.279   3.356   8.357  0.5609 -0.8771  2.1631
 8676SOL    HW231865   4.154   3.437   8.384  0.3024 -0.3518 -0.3347
 8677SOL     OW31866   5.070   6.728   2.194  0.6298 -0.0738  0.4134
 8677SOL    HW131867   5.019   6.802   2.160  0.3832  0.4834  1.9245
 8677SOL    HW231868   5.105   6.685   2.116 -1.1835  0.2155 -0.6326
 8678SOL     OW31869   8.067   1.301   5.609  0.0014 -0.2207 -0.1737
 8678SOL    HW131870   8.152   1.277   5.647 -0.0990  0.6035  0.5886
 8678SOL    HW231871   8.007   1.233   5.639  0.3318 -0.6601 -0.4960
 8679SOL     OW31872   5.896   8.230   8.994  0.1900  0.7792 -0.8759
 8679SOL    HW131873   5.862   8.154   8.946 -0.1640 -0.9218  1.8593
 8679SOL    HW231874   5.990   8.216   8.997  0.0191 -0.2328  0.6080
 8680SOL     OW31875  10.664  10.176   9.264 -0.4010  0.0782 -0.4089
 8680SOL    HW131876  10.753  10.179   9.298 -1.1279  0.5964  1.5899
 8680SOL    HW231877  10.675  10.161   9.170  1.8174  1.6025 -0.4693
 8681SOL     OW31878   6.596   3.674   4.447 -0.0524  1.0307 -0.1511
 8681SOL    HW131879   6.624   3.600   4.393 -0.2688 -0.2880  1.4494
 8681SOL    HW231880   6.507   3.693   4.418 -0.6203 -0.4685  0.4932
 8682SOL     OW31881   1.767   4.246   2.100  0.2235 -0.4035 -0.2281
 8682SOL    HW131882   1.698   4.257   2.034 -0.0886 -0.1572  0.1390
 8682SOL    HW231883   1.793   4.154   2.092  0.3182 -0.3292 -0.8214
 8683SOL     OW31884   6.958   6.418   4.351  0.2158  0.1896 -0.1927
 8683SOL    HW131885   6.906   6.338   4.345  1.2264 -0.6513  1.4870
 8683SOL    HW231886   7.048   6.388   4.358  1.0178  1.6234 -2.9754
 8684SOL     OW31887   8.124   2.797   5.366 -0.4194  0.4889  0.5910
 8684SOL    HW131888   8.182   2.796   5.290 -1.1952 -0.7397 -0.0035
 8684SOL    HW231889   8.183   2.805   5.441  0.5323 -0.8003  0.0026
 8685SOL     OW31890   3.067   2.738   0.588 -0.0278 -0.1736 -0.5187
 8685SOL    HW131891   3.037   2.741   0.498  1.2402  1.9204 -0.9349
 8685SOL    HW231892   3.148   2.687   0.585  0.8199  1.1339 -0.8819
 8686SOL     OW31893   2.068   7.362   8.411 -0.2416  0.1379 -0.5628
 8686SOL    HW131894   2.068   7.388   8.318 -2.6314  0.2235 -0.5984
 8686SOL    HW231895   1.976   7.370   8.438  0.3530 -0.1903  1.7442
 8687SOL     OW31896   7.885   3.626   2.902 -0.3206  0.0944  0.6180
 8687SOL    HW131897   7.902   3.533   2.891  1.5414  0.3982  0.6991
 8687SOL    HW231898   7.942   3.669   2.838 -1.7282  1.1747  0.0216
 8688SOL     OW31899   6.814   6.028   0.998 -0.2893  0.0628  0.2442
 8688SOL    HW131900   6.891   6.085   0.996  0.1835 -0.5341  0.7895
 8688SOL    HW231901   6.825   5.971   0.922 -0.7317  0.6488 -0.2672
 8689SOL     OW31902   3.514   6.155   6.783  0.2501  0.0754 -0.4425
 8689SOL    HW131903   3.507   6.117   6.870  1.7831  0.3528 -0.1763
 8689SOL    HW231904   3.507   6.250   6.798 -0.2132  0.0922 -0.7224
 8690SOL     OW31905   6.726   9.369   6.550  0.5913 -0.7435  0.1893
 8690SOL    HW131906   6.798   9.395   6.608  1.5674  0.5129 -1.5009
 8690SOL    HW231907   6.724   9.436   6.482 -1.6222 -1.2411 -0.3286
 8691SOL     OW31908   6.290   7.800   5.769  0.0768 -0.6595 -0.4351
 8691SOL    HW131909   6.245   7.716   5.771  0.3023 -0.7761  0.5755
 8691SOL    HW231910   6.221   7.863   5.748 -0.4152 -0.9277  0.3099
 8692SOL     OW31911   7.807  10.394   8.870  0.0506 -0.3325  0.0970
 8692SOL    HW131912   7.878  10.411   8.932 -0.2344  0.7258  0.1413
 8692SOL    HW231913   7.737  10.356   8.923  0.6539 -1.6146  0.0130
 8693SOL     OW31914   4.687   9.229   9.437  0.5780 -0.3436 -0.2116
 8693SOL    HW131915   4.661   9.138   9.418  1.5045 -0.3708 -1.5390
 8693SOL    HW231916   4.611   9.281   9.414 -0.4928 -0.8607  1.9542
 8694SOL     OW31917   0.772   2.913   8.567  0.3965  0.0971  0.0170
 8694SOL    HW131918   0.850   2.900   8.514  0.3957 -0.6027  0.1773
 8694SOL    HW231919   0.710   2.846   8.536  0.4093 -0.3416  0.9064
 8695SOL     OW31920   9.384   1.679   5.512 -0.3763 -0.0919  0.4883
 8695SOL    HW131921   9.448   1.687   5.583 -1.1532 -0.1110  1.2050
 8695SOL    HW231922   9.299   1.685   5.555 -0.8743  1.1888 -0.5968
 8696SOL     OW31923   8.432   0.666   6.136 -0.1509 -0.5501 -0.3629
 8696SOL    HW131924   8.402   0.584   6.177 -0.6192  1.1483  3.0710
 8696SOL    HW231925   8.503   0.696   6.193 -0.6817  1.9113 -0.9021
 8697SOL     OW31926   8.131   9.488   9.923  0.8400 -0.8541  0.3853
 8697SOL    HW131927   8.120   9.394   9.909  2.3029 -0.6983 -2.7237
 8697SOL    HW231928   8.168   9.520   9.841  0.6848  2.4192  1.4464
 8698SOL     OW31929   9.100   1.030   0.965  0.2176 -0.1516  0.6327
 8698SOL    HW131930   9.132   1.117   0.990  1.8194 -1.3097  2.8597
 8698SOL    HW231931   9.030   1.049   0.901  0.7549  2.7304  0.7341
 8699SOL     OW31932   8.820   6.033   8.636  0.0971 -0.3514  0.3461
 8699SOL    HW131933   8.899   6.073   8.601  0.2663 -0.1280  0.9631
 8699SOL    HW231934   8.850   5.951   8.676 -0.0931 -0.6066 -0.0303
 8700SOL     OW31935   5.175   9.835   2.163 -0.5873  0.1948  0.0118
 8700SOL    HW131936   5.128   9.846   2.081 -1.1941  1.8472  0.5531
 8700SOL    HW231937   5.118   9.779   2.216 -0.3317 -0.6238 -0.5560
 8701SOL     OW31938   0.034   8.511   2.281  0.3314  0.8911 -0.3151
 8701SOL    HW131939  -0.032   8.547   2.340 -0.0305  0.0424 -0.1971
 8701SOL    HW231940   0.029   8.416   2.292 -0.5323  0.6069 -2.5275
 8702SOL     OW31941   8.437   8.596   2.495  0.1834 -0.3043 -0.1455
 8702SOL    HW131942   8.477   8.633   2.574  0.4454 -0.2997 -0.2781
 8702SOL    HW231943   8.343   8.610   2.506  0.0736 -1.5928  0.8553
 8703SOL     OW31944   9.975   8.161   1.653  0.1929 -0.2486  0.6864
 8703SOL    HW131945   9.894   8.181   1.699  0.1175 -0.1271  0.4988
 8703SOL    HW231946   9.951   8.157   1.561  0.1241 -1.6298  0.7435
 8704SOL     OW31947   3.482   3.263   6.200  0.2810 -0.4778 -0.6978
 8704SOL    HW131948   3.431   3.325   6.148  0.6406 -0.2718 -0.8133
 8704SOL    HW231949   3.433   3.254   6.282 -0.4083 -0.9876 -1.1619
 8705SOL     OW31950  10.647   6.790  10.632  0.4289 -0.4857  0.2893
 8705SOL    HW131951  10.614   6.742  10.556  3.3255 -0.5393 -1.0773
 8705SOL    HW231952  10.643   6.727  10.704 -2.0464 -0.5449  0.1951
 8706SOL     OW31953   2.171   7.328   4.416  0.2891  0.3766 -0.5010
 8706SOL    HW131954   2.183   7.288   4.502 -0.9061 -0.4635 -0.6955
 8706SOL    HW231955   2.140   7.417   4.434 -0.0170  0.1822 -0.0616
 8707SOL     OW31956   2.282   9.012   7.236  0.2309  0.6993  0.3126
 8707SOL    HW131957   2.202   9.018   7.184  2.0955 -2.6333 -3.4586
 8707SOL    HW231958   2.272   8.932   7.287  0.4889  1.2260  1.2069
 8708SOL     OW31959   9.129   0.800   6.240  0.1517  0.2497 -0.4336
 8708SOL    HW131960   9.044   0.760   6.226  1.0365 -2.2097  0.5898
 8708SOL    HW231961   9.125   0.883   6.193 -2.2967 -0.4291 -1.5704
 8709SOL     OW31962   4.148   2.383   5.635  0.5802 -0.1448 -0.1429
 8709SOL    HW131963   4.201   2.324   5.689  1.2835 -0.5848 -1.2675
 8709SOL    HW231964   4.153   2.467   5.680  1.9475 -0.2648 -0.0074
 8710SOL     OW31965   6.560   7.039   4.295  0.1563 -0.1064 -0.3779
 8710SOL    HW131966   6.489   7.102   4.301 -0.8888 -1.1550 -1.2884
 8710SOL    HW231967   6.541   6.988   4.217  0.2346 -2.4059  1.0069
 8711SOL     OW31968   1.587   2.033   5.540 -0.3808  0.0716  0.0670
 8711SOL    HW131969   1.669   1.984   5.546  0.2182  0.9643 -0.5451
 8711SOL    HW231970   1.600   2.091   5.464 -1.2074  0.9018  0.5430
 8712SOL     OW31971   4.013   5.184   5.774  0.1526  0.3535 -0.0209
 8712SOL    HW131972   3.989   5.101   5.732 -0.2670  0.9548 -1.0068
 8712SOL    HW231973   4.107   5.177   5.789  0.1825 -0.1616 -0.4165
 8713SOL     OW31974   1.584   8.870   6.933  0.3853  0.1293  0.3591
 8713SOL    HW131975   1.491   8.895   6.932  0.4470  0.7253  3.1218
 8713SOL    HW231976   1.630   8.950   6.906  0.1851  0.4984  1.0906
 8714SOL     OW31977   3.383   3.638   7.015 -0.5845  0.4305  0.3701
 8714SOL    HW131978   3.362   3.692   7.092  0.6517  0.6936  0.5443
 8714SOL    HW231979   3.454   3.685   6.971  0.8508 -1.2397  0.7704
 8715SOL     OW31980   9.737   7.116   2.173  0.1219 -0.5790 -0.3383
 8715SOL    HW131981   9.728   7.072   2.088  2.0710 -0.3357 -0.7079
 8715SOL    HW231982   9.749   7.045   2.235 -2.6329 -0.8554  0.0269
 8716SOL     OW31983   5.295   5.471  10.555 -0.1250  0.2459  0.1421
 8716SOL    HW131984   5.387   5.497  10.558  0.5254 -1.8889  2.2093
 8716SOL    HW231985   5.262   5.507  10.472  2.6312  0.8034 -0.8199
 8717SOL     OW31986   5.597   1.328   2.864 -0.1984 -0.5259 -0.2430
 8717SOL    HW131987   5.665   1.334   2.931 -1.8709  1.6589  1.4385
 8717SOL    HW231988   5.558   1.415   2.863 -1.7994 -1.1951 -2.4236
 8718SOL     OW31989   4.227   9.748   8.673 -0.3304  0.1843 -0.1317
 8718SOL    HW131990   4.215   9.815   8.741  0.7255 -2.3032  2.7496
 8718SOL    HW231991   4.308   9.773   8.629  1.3501 -0.2746  2.4597
 8719SOL     OW31992   1.191   1.818   1.031 -0.3953 -0.4135  0.4430
 8719SOL    HW131993   1.118   1.788   0.976  0.0963 -0.2450 -0.3127
 8719SOL    HW231994   1.148   1.862   1.105 -1.0787  1.4737 -1.0017
 8720SOL     OW31995   2.822   6.727   4.105  0.6448  0.1642  0.6028
 8720SOL    HW131996   2.870   6.702   4.026  1.3426  1.6806  0.5029
 8720SOL    HW231997   2.806   6.821   4.094 -3.1744 -0.3440  0.1780
 8721SOL     OW31998   7.538   4.734   0.903  0.1994 -0.1912 -0.0639
 8721SOL    HW131999   7.543   4.641   0.880 -0.0754 -0.1569 -0.2664
 8721SOL    HW232000   7.610   4.747   0.965  1.9255  0.0318 -1.9946
 8722SOL     OW32001   7.605  10.373   4.663 -0.0950  0.2417 -0.3741
 8722SOL    HW132002   7.688  10.388   4.707 -0.3298 -0.3798  0.2969
 8722SOL    HW232003   7.546  10.342   4.732 -1.0092  1.0964 -0.7509
 8723SOL     OW32004   7.794   9.811   2.542 -0.1933  0.0830 -0.2685
 8723SOL    HW132005   7.835   9.739   2.495  0.8929 -0.6297  1.6666
 8723SOL    HW232006   7.798   9.885   2.482  0.6000 -0.9278 -1.4939
 8724SOL     OW32007   8.443   9.584   2.514 -0.0093 -0.3703  0.3991
 8724SOL    HW132008   8.495   9.504   2.522  1.0426  0.2904  0.3509
 8724SOL    HW232009   8.507   9.655   2.524 -0.9389  0.4633  0.5308
 8725SOL     OW32010   3.508   0.953   9.417  0.0903  1.2981 -0.4025
 8725SOL    HW132011   3.480   0.963   9.508 -0.5416  0.6969 -0.5181
 8725SOL    HW232012   3.430   0.972   9.365  0.0251  0.1647 -0.7549
 8726SOL     OW32013   3.656   9.322   9.614 -0.4343  0.0371  0.1062
 8726SOL    HW132014   3.572   9.354   9.648  1.1548  3.0352  1.6759
 8726SOL    HW232015   3.719   9.344   9.682  1.8031 -1.2032 -1.4330
 8727SOL     OW32016   0.584   1.128   1.997 -0.7003  0.0403 -0.1615
 8727SOL    HW132017   0.635   1.054   1.963 -1.2842 -1.5896  2.2653
 8727SOL    HW232018   0.650   1.191   2.024 -0.1536 -0.0102 -1.2889
 8728SOL     OW32019   2.661   2.784   0.383 -0.1512  0.7155  0.0510
 8728SOL    HW132020   2.748   2.815   0.358  0.6289 -1.3364  0.0791
 8728SOL    HW232021   2.672   2.691   0.399 -2.5911  0.1698 -1.0144
 8729SOL     OW32022   8.320   0.755   3.246  0.3782 -0.6623  0.0446
 8729SOL    HW132023   8.406   0.725   3.276  0.6441  1.6699  1.9521
 8729SOL    HW232024   8.276   0.676   3.217  2.5664 -2.1755  0.5820
 8730SOL     OW32025   4.832   0.641   7.819  0.3658  0.9237  0.2436
 8730SOL    HW132026   4.786   0.725   7.814 -0.1774  0.8595  2.7391
 8730SOL    HW232027   4.925   0.664   7.825  0.1879  1.4082  1.3713
 8731SOL     OW32028   9.413   0.435   5.753  0.4830  0.4477 -0.0668
 8731SOL    HW132029   9.483   0.382   5.792  0.2416  1.1132  1.3381
 8731SOL    HW232030   9.459   0.498   5.697  1.0012  0.7140  0.6441
 8732SOL     OW32031  10.088   4.917   3.783  0.0436  0.6764  0.2128
 8732SOL    HW132032  10.104   4.822   3.782 -1.6329  0.3653 -0.0786
 8732SOL    HW232033  10.014   4.928   3.843 -0.4750  1.6626 -0.5895
 8733SOL     OW32034   6.450   6.898   0.071  0.2026 -0.2090 -0.3129
 8733SOL    HW132035   6.389   6.883  -0.002  1.5271  2.7047 -2.1766
 8733SOL    HW232036   6.528   6.847   0.047  0.7930  1.0758 -1.2152
 8734SOL     OW32037   0.996   7.467   2.915 -0.8459 -0.1601 -0.0880
 8734SOL    HW132038   1.053   7.391   2.924  1.5605  1.6506  0.9939
 8734SOL    HW232039   0.958   7.479   3.002 -0.4308  0.4243  0.0206
 8735SOL     OW32040   3.801   1.183   8.592 -0.0742 -0.1611 -0.1881
 8735SOL    HW132041   3.711   1.209   8.610 -0.1909 -0.6854  0.0272
 8735SOL    HW232042   3.824   1.125   8.665  0.1747 -0.6295 -0.6298
 8736SOL     OW32043   1.468   6.184   3.335  0.3224  0.2854 -0.6938
 8736SOL    HW132044   1.411   6.147   3.267  3.3138 -0.2895 -3.1130
 8736SOL    HW232045   1.485   6.111   3.395 -3.2756  1.0874  1.5831
 8737SOL     OW32046   5.811   7.277   9.188  0.0996  0.6306 -0.3240
 8737SOL    HW132047   5.886   7.306   9.239  1.9341 -0.4001 -2.3250
 8737SOL    HW232048   5.759   7.356   9.174  0.5475  1.2832  1.4314
 8738SOL     OW32049   4.534   4.874   4.135  0.3184 -0.5466 -0.4539
 8738SOL    HW132050   4.618   4.874   4.180 -0.7086  0.5590  1.6078
 8738SOL    HW232051   4.491   4.793   4.164 -0.7401  0.6347  1.4768
 8739SOL     OW32052   2.373   1.284   4.255 -0.0130 -0.0514 -0.3641
 8739SOL    HW132053   2.285   1.320   4.265 -0.6442 -1.4643 -0.6106
 8739SOL    HW232054   2.371   1.201   4.304  0.9779 -0.4249 -0.9305
 8740SOL     OW32055   4.918   9.582   7.831  0.3319 -0.0451 -0.6283
 8740SOL    HW132056   4.896   9.492   7.809 -1.5109  0.5140 -1.2241
 8740SOL    HW232057   5.005   9.595   7.795  0.4652 -1.4583 -0.8713
 8741SOL     OW32058   8.410  10.085   3.515 -0.0503 -0.0665 -0.1476
 8741SOL    HW132059   8.455  10.170   3.518 -2.4771  1.2916  0.4934
 8741SOL    HW232060   8.416  10.057   3.424  0.2928  1.0766 -0.4871
 8742SOL     OW32061  10.431   4.237   2.107 -0.2106 -0.2410 -0.2325
 8742SOL    HW132062  10.511   4.194   2.076 -0.8552 -2.0121  0.4223
 8742SOL    HW232063  10.362   4.172   2.092 -1.3695  0.8744  0.1203
 8743SOL     OW32064   1.805   1.141   6.662  0.4961 -0.1767 -0.0043
 8743SOL    HW132065   1.746   1.212   6.688  0.3825 -0.3573  0.2372
 8743SOL    HW232066   1.761   1.100   6.587 -0.1034 -0.8343  0.6887
 8744SOL     OW32067   6.794   6.733   2.302 -0.5971 -0.4476 -0.3985
 8744SOL    HW132068   6.717   6.731   2.359 -0.2299 -2.0886  0.1143
 8744SOL    HW232069   6.855   6.792   2.346 -0.5093 -1.3037  0.6738
 8745SOL     OW32070   5.688   4.470   0.268 -0.6739  0.3135  0.0760
 8745SOL    HW132071   5.605   4.435   0.301 -1.0882 -0.8036 -1.9829
 8745SOL    HW232072   5.670   4.492   0.176  1.6527 -1.3832 -0.8804
 8746SOL     OW32073   7.560   8.026   5.233  0.2856 -0.2173 -0.1698
 8746SOL    HW132074   7.546   8.077   5.154  0.3941  1.3187  0.7667
 8746SOL    HW232075   7.640   8.062   5.272  0.5864 -1.3691  0.3164
 8747SOL     OW32076   3.275   9.955   5.367 -0.3014  0.4035 -0.1562
 8747SOL    HW132077   3.314   9.979   5.284 -0.3429 -0.3070 -0.3830
 8747SOL    HW232078   3.235   9.870   5.352 -0.5171  0.3746  0.5239
 8748SOL     OW32079  10.697   3.963   0.610 -0.1691 -0.4819  0.1368
 8748SOL    HW132080  10.684   3.869   0.600 -1.9232 -0.2035 -0.6362
 8748SOL    HW232081  10.710   3.995   0.520  0.0623  0.0562  0.3560
 8749SOL     OW32082   6.840   9.230   3.193  0.3399 -0.1901 -0.1891
 8749SOL    HW132083   6.749   9.222   3.163 -0.2814  1.2145  1.1545
 8749SOL    HW232084   6.858   9.147   3.237 -0.8677  0.0667  0.8756
 8750SOL     OW32085   7.670  10.580  10.187  0.0129 -0.3583  0.0396
 8750SOL    HW132086   7.703  10.647  10.247 -0.9506  0.1222  0.0411
 8750SOL    HW232087   7.625  10.517  10.243  0.1212 -0.5249 -0.0598
 8751SOL     OW32088   8.264   2.308   1.352  0.2609 -1.1479 -0.1038
 8751SOL    HW132089   8.171   2.290   1.365 -0.2466  1.4994  0.6121
 8751SOL    HW232090   8.309   2.234   1.392 -1.5333 -2.0153  0.4057
 8752SOL     OW32091   1.425   8.038   0.820 -0.5747  0.1199 -0.1651
 8752SOL    HW132092   1.517   8.045   0.842 -0.4262 -0.3577 -0.6017
 8752SOL    HW232093   1.406   8.117   0.768 -0.9784  1.3537  1.7567
 8753SOL     OW32094   4.332   0.447   9.906  0.4049 -0.0550  0.0272
 8753SOL    HW132095   4.259   0.508   9.898  0.2460 -0.2317  0.1034
 8753SOL    HW232096   4.326   0.393   9.827 -0.2597 -0.8298  0.5925
 8754SOL     OW32097   0.541   8.163   3.432 -0.5912 -0.4537 -0.2855
 8754SOL    HW132098   0.602   8.236   3.446 -1.3118 -0.2716  2.3976
 8754SOL    HW232099   0.462   8.204   3.397 -0.6467 -0.0865  0.2657
 8755SOL     OW32100   1.884   8.228   0.024  0.3617 -0.2925 -0.0722
 8755SOL    HW132101   1.809   8.194   0.072 -1.5819  1.0185 -2.0466
 8755SOL    HW232102   1.935   8.150   0.000 -1.3502 -1.3796 -0.2788
 8756SOL     OW32103   7.515   3.351   6.426 -0.5573  0.7122 -0.1708
 8756SOL    HW132104   7.422   3.357   6.403 -0.6146 -0.0084 -0.1413
 8756SOL    HW232105   7.559   3.407   6.361 -0.7879 -0.7385 -1.6424
 8757SOL     OW32106   2.458   0.736   0.797  0.6341 -0.4407 -0.8452
 8757SOL    HW132107   2.519   0.698   0.860  1.0836  0.2148 -0.8705
 8757SOL    HW232108   2.372   0.724   0.837  0.7249 -1.7150 -0.9806
 8758SOL     OW32109   3.383  10.323   7.954  0.2325  0.5829 -0.3546
 8758SOL    HW132110   3.456  10.276   7.995 -0.3437  1.2311  1.5418
 8758SOL    HW232111   3.415  10.346   7.867  1.6899 -0.5332 -0.1511
 8759SOL     OW32112   4.742   1.451   2.501  0.1393  0.2942  0.0092
 8759SOL    HW132113   4.757   1.529   2.556 -0.9176  1.0952 -0.8177
 8759SOL    HW232114   4.824   1.402   2.508  1.4679  2.2781 -0.7307
 8760SOL     OW32115   6.985  10.258   5.915 -0.4164  0.1056  0.0942
 8760SOL    HW132116   6.972  10.325   5.847 -0.4685 -0.2063 -0.2046
 8760SOL    HW232117   7.043  10.194   5.875 -1.4168 -0.7062 -0.1031
 8761SOL     OW32118   4.680   7.610   5.341  0.6523 -0.2115  0.3741
 8761SOL    HW132119   4.770   7.634   5.318  1.0928 -2.7023 -0.7832
 8761SOL    HW232120   4.627   7.645   5.270  0.8586  0.1331  0.3867
 8762SOL     OW32121   6.572   3.451  10.518 -0.1480  0.1049 -0.1977
 8762SOL    HW132122   6.626   3.406  10.453 -0.4731  0.3907 -0.6664
 8762SOL    HW232123   6.483   3.444  10.484 -0.0390  2.6290 -1.2185
 8763SOL     OW32124   3.247   6.586   0.554 -0.3704  0.2135  0.1740
 8763SOL    HW132125   3.324   6.608   0.502  0.6058 -0.0471  1.4603
 8763SOL    HW232126   3.269   6.502   0.594 -0.5215  1.0310  2.0695
 8764SOL     OW32127   1.785   9.436   6.536 -0.0229  0.6395 -0.1519
 8764SOL    HW132128   1.754   9.415   6.448 -0.6555  0.3548  0.1408
 8764SOL    HW232129   1.845   9.365   6.557  1.6962  1.7132 -1.1281
 8765SOL     OW32130   9.157   9.116   8.048  0.7455  0.0765  0.7955
 8765SOL    HW132131   9.206   9.086   7.971  1.1342  1.4137  0.4957
 8765SOL    HW232132   9.065   9.103   8.024  0.8817 -0.1239  0.3631
 8766SOL     OW32133   7.251   7.785   3.569 -0.1413  0.1062 -0.9155
 8766SOL    HW132134   7.178   7.745   3.522 -0.6369 -0.7528  0.5219
 8766SOL    HW232135   7.211   7.825   3.646  0.8371  0.0938 -0.3815
 8767SOL     OW32136   9.212   7.429   1.311 -0.5826 -0.3603  0.0613
 8767SOL    HW132137   9.139   7.377   1.278  0.6659 -1.2737 -1.3877
 8767SOL    HW232138   9.277   7.364   1.338  0.5399  0.4248 -0.6789
 8768SOL     OW32139  10.272   4.901   7.358  0.1029  0.1654  0.2906
 8768SOL    HW132140  10.276   4.956   7.280  1.8352 -0.8241 -0.3731
 8768SOL    HW232141  10.362   4.871   7.371 -0.4923 -1.2038  1.5716
 8769SOL     OW32142   9.344   4.972   0.143 -0.4077  0.4423  0.0206
 8769SOL    HW132143   9.390   4.890   0.162 -2.0779 -0.1815  1.6878
 8769SOL    HW232144   9.275   4.946   0.082 -0.8138  0.6279  0.3973
 8770SOL     OW32145   5.443   3.674   1.000  0.0418 -0.1311  0.4665
 8770SOL    HW132146   5.451   3.719   0.916 -3.3619  0.6702  0.4292
 8770SOL    HW232147   5.402   3.738   1.058  0.2710 -1.3898  2.0875
 8771SOL     OW32148   5.896   4.541   9.198 -0.0825  0.9812  0.0242
 8771SOL    HW132149   5.851   4.625   9.202 -1.9088 -0.0098  1.2030
 8771SOL    HW232150   5.856   4.488   9.267  0.8378 -0.9501 -0.8509
 8772SOL     OW32151   7.392  10.131   7.143  0.3939 -0.1061 -0.2604
 8772SOL    HW132152   7.409  10.172   7.059 -0.3472 -1.4145 -1.0889
 8772SOL    HW232153   7.332  10.059   7.123  0.6107 -0.7741  1.3064
 8773SOL     OW32154   0.631   8.180   8.199  0.2145  0.1668  0.5781
 8773SOL    HW132155   0.715   8.215   8.227  0.4419  0.3583 -0.3150
 8773SOL    HW232156   0.571   8.200   8.271  0.7711  0.6580  0.9081
 8774SOL     OW32157   8.991   9.187   7.521  0.0808  0.0599 -0.3747
 8774SOL    HW132158   8.983   9.273   7.562 -1.2499 -0.1425 -0.1587
 8774SOL    HW232159   8.902   9.153   7.519  0.5499 -1.2219 -0.6640
 8775SOL     OW32160  10.482   4.980   3.141 -0.1723 -0.1210 -0.7954
 8775SOL    HW132161  10.392   4.980   3.174  0.2739 -0.1357  0.4627
 8775SOL    HW232162  10.487   5.055   3.082 -0.5781  0.8311  0.3571
 8776SOL     OW32163   0.886   5.613   0.514 -0.4792 -0.3849  0.1523
 8776SOL    HW132164   0.812   5.591   0.458 -0.9721  1.7499 -0.1333
 8776SOL    HW232165   0.852   5.681   0.573  1.5656  1.6999 -0.9027
 8777SOL     OW32166   3.892   6.721   8.800  0.0393  0.3136 -0.3550
 8777SOL    HW132167   3.981   6.689   8.784  0.1289 -1.0054  2.2408
 8777SOL    HW232168   3.864   6.676   8.880 -2.6949  1.2783 -0.6496
 8778SOL     OW32169   7.290   4.354   2.135  0.1206  0.0909 -0.4815
 8778SOL    HW132170   7.199   4.330   2.119 -0.1889 -0.0631  1.2522
 8778SOL    HW232171   7.338   4.271   2.134  0.1170  0.0926 -0.7044
 8779SOL     OW32172   5.698   8.309   5.889 -0.0903  0.2944 -0.1362
 8779SOL    HW132173   5.773   8.348   5.844 -0.9374  0.7031 -1.2318
 8779SOL    HW232174   5.637   8.382   5.901  0.2021  0.2583  1.9338
 8780SOL     OW32175   5.326   9.588   0.583  0.2896  0.4440 -0.2462
 8780SOL    HW132176   5.319   9.493   0.590 -0.3199  0.5119  0.0712
 8780SOL    HW232177   5.346   9.617   0.672  0.1662  0.6417 -0.2831
 8781SOL     OW32178   9.316   8.506   3.278  0.2250  0.1056 -0.3829
 8781SOL    HW132179   9.257   8.561   3.331 -1.3707 -0.7565 -1.1855
 8781SOL    HW232180   9.383   8.566   3.246  0.3465  0.9422  1.3354
 8782SOL     OW32181   0.341   6.764   5.320  0.6664  0.3010 -0.7470
 8782SOL    HW132182   0.414   6.747   5.260  1.5293  1.4081 -0.0553
 8782SOL    HW232183   0.282   6.821   5.272  0.6109 -0.0240 -1.0647
 8783SOL     OW32184   3.387   3.606   0.459  0.1174  0.3194  0.0454
 8783SOL    HW132185   3.393   3.627   0.365 -0.8043  1.1967  0.1645
 8783SOL    HW232186   3.327   3.532   0.463 -0.6812  0.9488  0.0061
 8784SOL     OW32187   4.504   8.886   3.989 -0.0008 -0.2045  0.1130
 8784SOL    HW132188   4.550   8.963   4.022 -0.6279  0.5687 -0.7778
 8784SOL    HW232189   4.497   8.828   4.065  1.3169  0.1973  0.5615
 8785SOL     OW32190   8.898   9.791   1.795  0.1873 -0.3660 -0.1965
 8785SOL    HW132191   8.994   9.788   1.799  0.1564 -0.1725  1.2775
 8785SOL    HW232192   8.877   9.778   1.703  1.6285 -0.6240 -0.5066
 8786SOL     OW32193   6.366  10.311   1.694  0.2386  0.1881  0.1022
 8786SOL    HW132194   6.394  10.261   1.771  1.6541 -0.2446 -0.6491
 8786SOL    HW232195   6.272  10.321   1.705  0.6569  1.9885  2.9559
 8787SOL     OW32196   4.535   4.272   1.655 -0.7696  0.3141 -0.3987
 8787SOL    HW132197   4.618   4.251   1.611 -0.2974  0.1202  0.5419
 8787SOL    HW232198   4.481   4.312   1.588  1.4506  4.0629 -0.2349
 8788SOL     OW32199   8.540   7.994   3.415 -0.3267  0.2031 -0.0103
 8788SOL    HW132200   8.522   7.901   3.402  0.0736 -0.0335  1.0763
 8788SOL    HW232201   8.549   8.029   3.326  0.8108 -1.0427 -0.4135
 8789SOL     OW32202   3.534   2.001   4.068 -0.3070 -0.0664  0.2781
 8789SOL    HW132203   3.549   1.913   4.034 -0.7354  0.0430 -0.2068
 8789SOL    HW232204   3.613   2.050   4.045  0.1134 -0.4303  0.9241
 8790SOL     OW32205   8.410   4.248  10.571  0.0079  0.2533  0.0541
 8790SOL    HW132206   8.375   4.319  10.625  0.7028  1.9093 -1.5688
 8790SOL    HW232207   8.435   4.290  10.489 -1.8031 -2.2840 -1.9672
 8791SOL     OW32208   6.527   1.328   5.602  0.4477  0.2379  0.6958
 8791SOL    HW132209   6.459   1.265   5.579  2.9872 -2.0502 -1.2856
 8791SOL    HW232210   6.550   1.370   5.519  1.5505  0.8292  1.2810
 8792SOL     OW32211   3.402   4.442   4.672 -0.0211 -0.2738 -0.6021
 8792SOL    HW132212   3.373   4.525   4.710 -0.5932 -0.4929 -0.5619
 8792SOL    HW232213   3.359   4.375   4.724  0.1664 -0.5967 -0.8559
 8793SOL     OW32214   6.525   2.716   4.363  0.2490  0.5410  0.4236
 8793SOL    HW132215   6.603   2.676   4.400  1.2970  0.9479 -1.2348
 8793SOL    HW232216   6.464   2.724   4.437  0.8004 -2.0526  1.2702
 8794SOL     OW32217   7.295   0.231   5.751  0.4959  0.4357  0.3721
 8794SOL    HW132218   7.246   0.310   5.774  0.2794  0.7928 -1.2102
 8794SOL    HW232219   7.312   0.240   5.657  0.0813 -1.6187  0.0753
 8795SOL     OW32220   4.110   8.677   9.247 -0.4264 -0.1874  0.0740
 8795SOL    HW132221   4.096   8.771   9.259  2.1017  0.0426  2.2449
 8795SOL    HW232222   4.205   8.668   9.238 -0.5746 -2.5404  0.2785
 8796SOL     OW32223   8.085   1.419  10.209 -0.1270 -0.9884 -0.2431
 8796SOL    HW132224   8.048   1.333  10.192 -0.1991 -0.5071 -2.9170
 8796SOL    HW232225   8.179   1.409  10.190  0.1183 -0.7960  0.8058
 8797SOL     OW32226   2.035   4.807   7.767 -0.0722 -0.4662  0.2153
 8797SOL    HW132227   2.043   4.764   7.682  0.3796  0.5223 -0.2593
 8797SOL    HW232228   1.960   4.866   7.757 -1.8204 -2.3375  1.4170
 8798SOL     OW32229   1.756   7.405   0.408 -0.0328 -0.6394  0.5158
 8798SOL    HW132230   1.745   7.385   0.315  1.5743 -1.1173  0.4078
 8798SOL    HW232231   1.816   7.338   0.440  1.3163  0.9212  1.3518
 8799SOL     OW32232   7.539   4.285   2.381  0.2753  0.2870  0.7314
 8799SOL    HW132233   7.497   4.358   2.426 -0.6925  1.6294 -2.1109
 8799SOL    HW232234   7.477   4.212   2.388 -1.1899  1.3356 -0.7911
 8800SOL     OW32235   7.571   8.491   3.464 -0.5350 -0.1458 -0.7505
 8800SOL    HW132236   7.571   8.545   3.385  1.1159 -1.9020 -2.0512
 8800SOL    HW232237   7.633   8.535   3.523 -1.3756  0.8857 -0.6012
 8801SOL     OW32238   2.290   5.339  10.404 -0.0679 -0.0211  0.0439
 8801SOL    HW132239   2.209   5.310  10.362  0.2072 -0.5522 -0.1142
 8801SOL    HW232240   2.290   5.434  10.391  0.3415 -0.2400 -1.7427
 8802SOL     OW32241   2.617   8.338   0.622 -0.1356  0.3200 -0.3222
 8802SOL    HW132242   2.528   8.321   0.652  0.0371  0.8696  0.5557
 8802SOL    HW232243   2.669   8.340   0.703  0.4621  1.1813 -0.7159
 8803SOL     OW32244   7.646   2.331   3.765 -0.4324 -0.4757 -0.2040
 8803SOL    HW132245   7.644   2.325   3.860 -0.9031 -0.4729 -0.2095
 8803SOL    HW232246   7.724   2.282   3.739  0.4295  0.6178  0.2519
 8804SOL     OW32247   7.638   4.908   5.978 -0.1135  0.4315  0.2699
 8804SOL    HW132248   7.589   4.925   6.058 -0.8318  2.9347 -0.6067
 8804SOL    HW232249   7.571   4.885   5.913 -0.0824  2.6385 -0.6193
 8805SOL     OW32250   0.364   7.970   3.079 -0.0592  0.2719 -0.1642
 8805SOL    HW132251   0.351   7.933   2.992 -3.2157  0.1795  0.2248
 8805SOL    HW232252   0.301   7.924   3.135  0.9394  1.2414  1.9063
 8806SOL     OW32253   2.730   4.353   6.257 -0.4953 -0.6676 -0.1599
 8806SOL    HW132254   2.790   4.307   6.198 -1.1530 -0.3469 -1.1057
 8806SOL    HW232255   2.643   4.316   6.237 -0.6767 -0.8888  0.9496
 8807SOL     OW32256   3.658   7.268   1.937  0.5344 -0.3646  0.1381
 8807SOL    HW132257   3.725   7.202   1.918  0.7584 -0.0131 -0.2957
 8807SOL    HW232258   3.651   7.268   2.032  0.9223 -0.6284  0.1669
 8808SOL     OW32259   9.736   4.534   3.567 -0.2875  0.0012 -0.2442
 8808SOL    HW132260   9.743   4.629   3.562 -1.2772  0.1259  0.4817
 8808SOL    HW232261   9.803   4.502   3.507 -0.0529  1.1552 -0.6229
 8809SOL     OW32262   6.097   9.229   2.211 -0.2037 -0.3042 -0.1491
 8809SOL    HW132263   6.031   9.260   2.149 -1.1051  0.3836  1.1242
 8809SOL    HW232264   6.077   9.274   2.293  2.3175  0.5574  0.1039
 8810SOL     OW32265   5.837   0.192   0.844 -0.1972 -0.4779 -0.2876
 8810SOL    HW132266   5.923   0.159   0.871  0.5254  1.0937 -0.5471
 8810SOL    HW232267   5.799   0.229   0.924  0.2771  0.6916 -0.5874
 8811SOL     OW32268   5.985   1.145   7.773 -0.1235 -0.4926  0.8516
 8811SOL    HW132269   6.068   1.103   7.792  0.4216 -0.6697 -1.5483
 8811SOL    HW232270   5.919   1.086   7.808  0.7076 -0.1334  3.1984
 8812SOL     OW32271   6.954  10.038   2.331 -0.7336 -0.6951 -0.2751
 8812SOL    HW132272   6.902  10.086   2.396  1.1041 -2.9733  3.1909
 8812SOL    HW232273   7.039  10.081   2.332 -0.1804 -1.7668  0.1592
 8813SOL     OW32274   2.926   3.823   4.636  0.2342 -0.1449  0.2018
 8813SOL    HW132275   2.862   3.779   4.691  0.0333 -1.4273 -0.9917
 8813SOL    HW232276   2.895   3.807   4.547  1.0218  1.1174 -0.3154
 8814SOL     OW32277   3.821   1.551   2.672  0.5199 -0.3578 -0.3783
 8814SOL    HW132278   3.733   1.587   2.658  0.4699 -0.6007 -0.6964
 8814SOL    HW232279   3.816   1.461   2.641  1.3837  0.1763 -2.2654
 8815SOL     OW32280  10.622  10.037   2.899 -0.4494 -0.4555  0.1337
 8815SOL    HW132281  10.563  10.006   2.967 -0.9153 -1.5651 -0.7460
 8815SOL    HW232282  10.681  10.097   2.944  0.2471 -2.3160  1.8709
 8816SOL     OW32283   6.368   9.706   6.039 -0.3889 -0.2507 -0.2427
 8816SOL    HW132284   6.405   9.759   6.109  0.4935 -0.7683 -0.2991
 8816SOL    HW232285   6.366   9.765   5.963 -1.4184  0.3313  0.2267
 8817SOL     OW32286   8.974   6.216   3.630  0.4349 -0.5151 -0.3227
 8817SOL    HW132287   8.931   6.251   3.552  0.0645  0.3600  0.2535
 8817SOL    HW232288   9.046   6.277   3.648  0.0267 -0.2473  0.4662
 8818SOL     OW32289   8.862  10.454  10.391 -0.0597  0.0063 -0.2255
 8818SOL    HW132290   8.796  10.399  10.350 -0.1010 -0.3015  0.2344
 8818SOL    HW232291   8.820  10.487  10.470  0.7201 -1.2032  0.7440
 8819SOL     OW32292  10.260   4.033   3.354 -0.1083  0.1261 -0.1836
 8819SOL    HW132293  10.271   3.957   3.411  1.1375  0.5198  0.1232
 8819SOL    HW232294  10.229   3.996   3.271 -2.9416 -0.3664  0.9517
 8820SOL     OW32295   0.005   9.379   4.018 -0.7045 -0.3402  0.4729
 8820SOL    HW132296  -0.073   9.342   3.978 -0.2237 -0.2980 -0.5536
 8820SOL    HW232297   0.075   9.363   3.954 -0.3828  1.9083  0.1602
 8821SOL     OW32298   4.949   1.262   2.541 -0.1315  0.1604  0.1866
 8821SOL    HW132299   5.011   1.280   2.470 -0.2829 -1.7275 -0.4664
 8821SOL    HW232300   5.004   1.234   2.615 -0.1405 -0.4139 -0.0260
 8822SOL     OW32301   1.283  10.292   4.607 -0.1233  0.4574  0.2828
 8822SOL    HW132302   1.364  10.334   4.633  0.4703 -0.7204  0.4239
 8822SOL    HW232303   1.302  10.253   4.522 -0.4690 -0.0113  0.4121
 8823SOL     OW32304   3.205   6.452   5.555 -0.1248  1.1439  0.0445
 8823SOL    HW132305   3.118   6.437   5.518 -0.0208 -0.2994  0.3091
 8823SOL    HW232306   3.263   6.457   5.478 -0.1395 -0.1802 -0.0733
 8824SOL     OW32307   7.308   1.461   4.735  0.4417 -0.1662 -0.0073
 8824SOL    HW132308   7.372   1.486   4.668  0.4711 -0.9751 -0.2998
 8824SOL    HW232309   7.282   1.372   4.710  0.7783 -0.6546  1.3038
 8825SOL     OW32310   8.978   9.687   3.395 -0.6720  0.1925  0.3625
 8825SOL    HW132311   8.912   9.634   3.350 -1.0049  1.7716 -1.1337
 8825SOL    HW232312   9.059   9.673   3.346 -1.1894  2.4641 -1.3314
 8826SOL     OW32313  10.347   2.754   1.586  0.1139 -0.1487  0.2297
 8826SOL    HW132314  10.384   2.826   1.637  2.8141 -0.7335 -0.7631
 8826SOL    HW232315  10.263   2.788   1.554  0.5455  1.9323  1.1504
 8827SOL     OW32316   3.059   2.122   8.264  0.1142 -0.2885 -0.7983
 8827SOL    HW132317   3.020   2.174   8.334 -0.3190 -0.1907 -1.1067
 8827SOL    HW232318   3.014   2.038   8.268 -1.2120  0.3193 -2.0953
 8828SOL     OW32319   2.980   2.553   7.086  0.1301  0.2711 -0.0806
 8828SOL    HW132320   2.930   2.518   7.159 -0.1846  0.8142 -0.0313
 8828SOL    HW232321   3.026   2.477   7.049 -1.8065 -0.5123 -0.9906
 8829SOL     OW32322   8.902   7.655   8.104  0.2589  0.2488 -0.1222
 8829SOL    HW132323   8.916   7.567   8.070 -2.3979  0.2539 -1.4665
 8829SOL    HW232324   8.897   7.710   8.025 -1.7241  0.9647  0.4375
 8830SOL     OW32325   8.633   2.767   4.598  0.0311  0.0563 -0.1015
 8830SOL    HW132326   8.560   2.816   4.561 -0.6314  0.5024  1.7116
 8830SOL    HW232327   8.606   2.675   4.593 -0.3762  0.1705 -0.0221
 8831SOL     OW32328   6.432   7.394   0.415 -0.3087 -0.2561  0.1124
 8831SOL    HW132329   6.438   7.333   0.341  0.0540  0.0579 -0.1254
 8831SOL    HW232330   6.358   7.363   0.466 -2.2674  1.0319 -1.7961
 8832SOL     OW32331   3.065   5.539   0.018  0.0690 -0.6856  1.0026
 8832SOL    HW132332   3.158   5.550   0.001  0.3037  1.2692  3.0297
 8832SOL    HW232333   3.061   5.481   0.094 -0.2390  0.3097  1.7777
 8833SOL     OW32334   8.870   8.489   6.381 -0.7284 -0.1370  0.2659
 8833SOL    HW132335   8.878   8.553   6.310  1.8093  1.2762  1.6886
 8833SOL    HW232336   8.820   8.534   6.449 -1.2817 -0.6846  0.2269
 8834SOL     OW32337   5.477   0.071   6.322  0.2621  0.3095  0.2943
 8834SOL    HW132338   5.402   0.015   6.302  0.0520  1.0383 -1.0562
 8834SOL    HW232339   5.538   0.057   6.250 -0.6057  3.1876 -1.1656
 8835SOL     OW32340   0.672   0.538   8.531 -0.4935  0.4814 -0.0396
 8835SOL    HW132341   0.694   0.601   8.463  0.7697  0.7485  0.5804
 8835SOL    HW232342   0.596   0.576   8.575  1.3359  2.6098  1.5281
 8836SOL     OW32343   4.791   8.479  10.011  0.3389  0.0839 -0.4130
 8836SOL    HW132344   4.885   8.474   9.996  0.5298 -0.1857  0.7816
 8836SOL    HW232345   4.782   8.484  10.106 -0.8197  0.9192 -0.5463
 8837SOL     OW32346   8.522   7.329   2.875  0.1157  0.2263  0.1410
 8837SOL    HW132347   8.441   7.354   2.920 -0.8537 -0.2880 -1.2524
 8837SOL    HW232348   8.588   7.389   2.910 -0.7527  0.3842  1.6179
 8838SOL     OW32349   2.813   0.785   2.243  0.4946 -0.4097 -0.1600
 8838SOL    HW132350   2.832   0.729   2.318 -1.0671 -0.6794  0.0610
 8838SOL    HW232351   2.851   0.870   2.265  1.7336 -1.0087  0.0743
 8839SOL     OW32352   1.778   5.373  10.334 -0.6804  0.1836  0.0853
 8839SOL    HW132353   1.866   5.400  10.309  0.3826 -1.5054  1.7350
 8839SOL    HW232354   1.735   5.454  10.362  0.2848  1.0360 -0.8043
 8840SOL     OW32355   3.955   6.895  10.216 -0.0174  0.0174 -0.0745
 8840SOL    HW132356   3.948   6.820  10.275 -0.4335  0.6024  0.6328
 8840SOL    HW232357   4.032   6.876  10.163  0.6801 -0.2913  1.0123
 8841SOL     OW32358   5.657   9.136  10.598 -0.5251  0.1969 -0.1161
 8841SOL    HW132359   5.698   9.156  10.682 -0.2536 -1.8108  0.2557
 8841SOL    HW232360   5.728   9.104  10.543 -1.0033 -0.0952 -0.5739
 8842SOL     OW32361   2.328   1.016   3.604 -0.0693 -0.6648  0.3323
 8842SOL    HW132362   2.410   1.062   3.622 -0.4752  0.0442  0.4148
 8842SOL    HW232363   2.354   0.942   3.549  0.6427 -0.5247  0.4650
 8843SOL     OW32364   0.681   8.126   2.201 -0.2848 -0.0132 -0.1624
 8843SOL    HW132365   0.651   8.046   2.243 -0.8543  0.7638  0.9588
 8843SOL    HW232366   0.615   8.192   2.224 -1.2518  0.2330 -3.1824
 8844SOL     OW32367   6.406   4.654   3.631  0.2566  0.3088 -0.2873
 8844SOL    HW132368   6.385   4.734   3.582 -0.7500  0.4659  0.3612
 8844SOL    HW232369   6.398   4.584   3.567  3.6503  0.8861 -1.5244
 8845SOL     OW32370   8.331   7.244   8.316  0.3658  0.4332  0.0404
 8845SOL    HW132371   8.349   7.330   8.278 -1.5255  0.4713 -0.9317
 8845SOL    HW232372   8.280   7.263   8.394  0.7789  0.2117  0.3664
 8846SOL     OW32373   9.647   2.172   6.654  0.4187 -0.1569 -0.2134
 8846SOL    HW132374   9.614   2.086   6.626 -3.0192  1.8772 -3.3025
 8846SOL    HW232375   9.692   2.206   6.577  0.5811  1.3093  0.5023
 8847SOL     OW32376   4.796   6.416   6.316  0.4028 -0.0792 -0.4645
 8847SOL    HW132377   4.722   6.363   6.343  0.4837  0.3241  0.5664
 8847SOL    HW232378   4.771   6.450   6.230 -1.2625  1.2789  0.5173
 8848SOL     OW32379   6.283   1.646   2.182 -0.3685 -0.3527 -0.9450
 8848SOL    HW132380   6.322   1.583   2.121 -1.4254 -2.0252  0.0384
 8848SOL    HW232381   6.317   1.621   2.268 -1.2816  0.0406 -0.4589
 8849SOL     OW32382   8.674   4.787   2.734 -0.1239 -0.9629 -0.8530
 8849SOL    HW132383   8.726   4.738   2.798 -0.4110  2.1065  2.0283
 8849SOL    HW232384   8.589   4.744   2.734 -0.9413  0.2415  2.9167
 8850SOL     OW32385   9.314   7.519   7.818  0.3641 -0.0591 -0.2093
 8850SOL    HW132386   9.291   7.545   7.729  0.4961 -1.3993 -0.6604
 8850SOL    HW232387   9.243   7.460   7.844 -0.6883  1.7695  1.3198
 8851SOL     OW32388   3.952   7.670   1.908  0.0456  0.3494  0.1930
 8851SOL    HW132389   3.885   7.697   1.845 -1.4693  0.7868  1.9176
 8851SOL    HW232390   3.919   7.700   1.992  2.8002  1.3169  1.0539
 8852SOL     OW32391   0.077   7.837  10.367 -0.8350 -0.2184  0.7485
 8852SOL    HW132392   0.140   7.885  10.420  0.3704 -1.7072  0.7520
 8852SOL    HW232393   0.083   7.876  10.280 -1.3015  0.8703  1.1884
 8853SOL     OW32394   2.436   2.705   4.664  0.5241 -0.1705  0.6461
 8853SOL    HW132395   2.502   2.637   4.681 -0.1680 -0.5731  1.8457
 8853SOL    HW232396   2.485   2.787   4.669  1.2578 -0.5439 -0.2155
 8854SOL     OW32397   6.211   4.967   2.326 -0.3081  0.4658  0.2084
 8854SOL    HW132398   6.295   4.988   2.365 -0.1879  1.1241 -0.3965
 8854SOL    HW232399   6.155   4.943   2.400  0.5011 -0.3253  0.5829
 8855SOL     OW32400  10.266   6.426  10.085 -0.1847  0.3767  0.1167
 8855SOL    HW132401  10.258   6.417   9.990 -0.4424 -0.2104  0.1866
 8855SOL    HW232402  10.353   6.391  10.106 -0.0919  0.5900  0.0872
 8856SOL     OW32403   7.487   2.302  10.142  0.2879 -0.4350  0.2546
 8856SOL    HW132404   7.412   2.354  10.112  1.3725  1.3318  0.4937
 8856SOL    HW232405   7.506   2.243  10.069  0.2404  0.8741 -0.8435
 8857SOL     OW32406   8.093   8.593   7.049 -0.3604 -0.0308 -0.1626
 8857SOL    HW132407   8.175   8.545   7.061  0.3876  1.1666 -0.3101
 8857SOL    HW232408   8.029   8.546   7.103  0.4993 -0.7787  0.2287
 8858SOL     OW32409   6.448   2.097   0.449 -0.1287  0.3153  0.0801
 8858SOL    HW132410   6.474   2.125   0.361 -0.9302 -0.1753 -0.3220
 8858SOL    HW232411   6.375   2.153   0.472  0.7405  1.1615  0.8897
 8859SOL     OW32412   0.265   0.336   6.966 -0.0238  0.4350  0.2931
 8859SOL    HW132413   0.263   0.332   6.870 -1.0145  0.4634  0.3088
 8859SOL    HW232414   0.300   0.251   6.992 -1.0880 -0.1319 -0.0593
 8860SOL     OW32415   7.921   3.888  10.353  0.2298 -0.4994 -0.3261
 8860SOL    HW132416   7.864   3.914  10.281  0.1989 -0.1891 -0.1897
 8860SOL    HW232417   8.005   3.869  10.310 -0.1893 -1.7195 -0.6230
 8861SOL     OW32418   5.811   6.949   0.978  0.3209 -0.0257  0.0651
 8861SOL    HW132419   5.825   7.043   0.977 -0.1645  0.0517  0.0358
 8861SOL    HW232420   5.897   6.911   0.998  0.8857  0.3351 -1.5226
 8862SOL     OW32421   5.887   1.922  10.563 -0.0849  0.1016 -0.4107
 8862SOL    HW132422   5.828   1.997  10.554  0.3137  0.3363 -1.1315
 8862SOL    HW232423   5.829   1.846  10.568 -0.4633  0.3820 -0.4910
 8863SOL     OW32424   4.281   0.761   8.486 -0.5496 -0.2305 -0.1807
 8863SOL    HW132425   4.336   0.827   8.443  0.7580 -0.8685  0.4553
 8863SOL    HW232426   4.214   0.739   8.421 -0.0046  0.5108 -1.0127
 8864SOL     OW32427   3.714   1.713   8.256 -0.5204 -0.2645  0.4938
 8864SOL    HW132428   3.685   1.681   8.342  2.5278 -1.9354  1.0717
 8864SOL    HW232429   3.707   1.808   8.262 -2.7016 -0.4452  1.6458
 8865SOL     OW32430   4.978   7.340   0.236 -0.5930  0.2041  0.1232
 8865SOL    HW132431   5.011   7.251   0.250 -0.0724  0.6379  1.9587
 8865SOL    HW232432   5.013   7.366   0.151 -2.0555 -1.8945 -1.1975
 8866SOL     OW32433   8.128   1.754   4.106  0.5282  0.6391  0.1960
 8866SOL    HW132434   8.039   1.733   4.135  0.6693 -0.0677  0.1414
 8866SOL    HW232435   8.180   1.677   4.131  0.6541 -0.0553 -1.9893
 8867SOL     OW32436   5.276   0.662   6.279  0.1763  0.6425 -0.6965
 8867SOL    HW132437   5.233   0.644   6.363  0.6835  1.2719 -0.2953
 8867SOL    HW232438   5.369   0.668   6.300  0.8133 -2.7694 -1.8727
 8868SOL     OW32439   0.063   2.193   8.959 -0.1946 -0.1674  0.1087
 8868SOL    HW132440   0.147   2.239   8.965 -0.9729  1.3098  0.2149
 8868SOL    HW232441   0.057   2.164   8.868  0.0323  0.5278 -0.1333
 8869SOL     OW32442   7.572   4.164   7.074  0.4437 -0.2903  0.5630
 8869SOL    HW132443   7.587   4.083   7.123  0.2228 -1.2302 -0.8472
 8869SOL    HW232444   7.486   4.195   7.104  0.6232 -0.4515  1.2660
 8870SOL     OW32445   9.618   2.449   9.293 -0.3863  0.0029 -0.0634
 8870SOL    HW132446   9.703   2.411   9.316 -1.2249 -2.2310 -0.5045
 8870SOL    HW232447   9.572   2.458   9.377  0.2363  1.2443  0.1796
 8871SOL     OW32448   8.954   1.833   9.396 -0.0370  0.6588 -0.6055
 8871SOL    HW132449   8.966   1.813   9.489 -1.2748  2.2986 -0.0417
 8871SOL    HW232450   8.919   1.751   9.359  2.4415 -0.7035 -0.1289
 8872SOL     OW32451   3.409   2.088   4.853 -0.1352  0.2659  0.8009
 8872SOL    HW132452   3.328   2.095   4.803 -0.4153  3.9148  1.5347
 8872SOL    HW232453   3.479   2.093   4.788 -0.4659 -0.3495  0.3896
 8873SOL     OW32454   4.481   5.371   4.368  0.3909  0.8516  0.1530
 8873SOL    HW132455   4.442   5.374   4.281 -0.0078 -1.8563  0.1556
 8873SOL    HW232456   4.575   5.364   4.351  0.2878 -0.0732 -0.1083
 8874SOL     OW32457  10.464   3.090   5.527  0.5272 -0.4923  0.2393
 8874SOL    HW132458  10.528   3.044   5.473 -0.9042 -0.8505 -1.2073
 8874SOL    HW232459  10.402   3.022   5.554 -0.0359  0.0929  0.4373
 8875SOL     OW32460   5.339   0.372   5.942  0.0143 -0.3982 -0.3988
 8875SOL    HW132461   5.412   0.313   5.926 -1.8225 -2.9587  0.1838
 8875SOL    HW232462   5.328   0.373   6.037 -0.5609  0.1905 -0.4637
 8876SOL     OW32463   6.329   7.778   8.026 -0.2012 -0.3149  0.0388
 8876SOL    HW132464   6.290   7.861   7.998 -0.3289  0.0089  1.1391
 8876SOL    HW232465   6.422   7.799   8.039 -0.2875 -0.2591  0.5998
 8877SOL     OW32466   7.054   8.496   6.546  0.5807  0.6568  0.7641
 8877SOL    HW132467   6.999   8.419   6.532  1.5673 -0.0841  0.8497
 8877SOL    HW232468   7.132   8.462   6.589  0.8011  1.7957  1.3114
 8878SOL     OW32469   7.583   0.685   3.808  0.7283 -0.3922 -0.0173
 8878SOL    HW132470   7.591   0.594   3.783 -1.0693 -0.5606 -0.1108
 8878SOL    HW232471   7.615   0.688   3.899 -1.0943 -1.5494  0.7133
 8879SOL     OW32472  10.585   7.436   1.425 -0.1789 -0.0252  0.0939
 8879SOL    HW132473  10.559   7.399   1.341  3.5804 -2.9628 -0.0639
 8879SOL    HW232474  10.630   7.518   1.403 -0.0557 -0.2973 -0.6866
 8880SOL     OW32475   7.477   5.101   3.831 -0.8727 -0.7884 -0.1175
 8880SOL    HW132476   7.489   5.050   3.910 -0.8195 -1.0905 -0.3210
 8880SOL    HW232477   7.565   5.134   3.810 -1.0772  0.2592  0.5980
 8881SOL     OW32478   9.641  10.663   7.108  0.3341 -0.4447  0.2435
 8881SOL    HW132479   9.699  10.738   7.119  1.7447 -1.0218 -2.5020
 8881SOL    HW232480   9.558  10.701   7.080  1.1021  0.1146 -1.3503
 8882SOL     OW32481   3.458   3.208   5.763  0.1158  0.0137  0.0919
 8882SOL    HW132482   3.545   3.219   5.803  0.6974  0.7730 -1.3140
 8882SOL    HW232483   3.402   3.267   5.812  0.1194 -1.2190  1.6883
 8883SOL     OW32484   5.805   4.942   4.659 -0.0050 -0.0512 -0.6129
 8883SOL    HW132485   5.861   4.963   4.584  1.7613  1.5534  1.0533
 8883SOL    HW232486   5.853   4.876   4.708 -1.2719 -1.2841 -0.9905
 8884SOL     OW32487   9.775   2.185   5.230 -0.2193  0.2072 -0.1170
 8884SOL    HW132488   9.764   2.160   5.138  0.4622 -1.7120  0.2616
 8884SOL    HW232489   9.752   2.106   5.279  1.6838  0.4214  1.2379
 8885SOL     OW32490   7.430   2.617   6.121 -0.1820  0.3705 -0.7688
 8885SOL    HW132491   7.335   2.629   6.121 -0.0809  1.4400  0.8230
 8885SOL    HW232492   7.465   2.705   6.114  0.7624 -0.1369 -3.5587
 8886SOL     OW32493   1.483   3.855   4.144 -0.1262  0.1007 -0.1890
 8886SOL    HW132494   1.546   3.786   4.123 -1.0380 -0.7949 -0.0503
 8886SOL    HW232495   1.425   3.816   4.210 -0.5107  1.0859  0.0805
 8887SOL     OW32496   5.602   2.385   7.887  0.1636 -0.1413  0.3554
 8887SOL    HW132497   5.627   2.335   7.809  0.3000 -0.6623  0.7285
 8887SOL    HW232498   5.666   2.457   7.891  0.8411 -0.7455  0.5968
 8888SOL     OW32499   4.302   4.120   8.958 -0.0753  0.0757  0.9451
 8888SOL    HW132500   4.285   4.211   8.932 -0.3743 -0.0805  0.5969
 8888SOL    HW232501   4.397   4.111   8.950 -0.1166  0.1457  0.2603
 8889SOL     OW32502   7.502   8.234   3.594 -0.0473  0.8437  0.5022
 8889SOL    HW132503   7.451   8.179   3.535 -0.6785 -0.4915  2.2117
 8889SOL    HW232504   7.540   8.301   3.537 -0.5520 -0.4105 -1.4064
 8890SOL     OW32505   8.851   3.141   6.975  0.4059 -0.0290  0.0293
 8890SOL    HW132506   8.774   3.093   6.945  1.8245 -1.8117 -1.0107
 8890SOL    HW232507   8.865   3.209   6.909 -1.2204  1.4790  1.1478
 8891SOL     OW32508   4.953   2.197   5.891  0.5769 -0.6516  0.0310
 8891SOL    HW132509   5.010   2.261   5.849  0.2241  0.1991  0.8148
 8891SOL    HW232510   4.873   2.196   5.838  0.4365 -0.1595  0.2322
 8892SOL     OW32511   8.137   1.856   4.585  0.0261  0.1596  0.2909
 8892SOL    HW132512   8.101   1.770   4.607  0.7624 -0.0446  0.7272
 8892SOL    HW232513   8.189   1.841   4.506  2.0396 -0.3088  1.6275
 8893SOL     OW32514   1.954   4.509   0.076  0.1811  0.0524 -0.3741
 8893SOL    HW132515   1.904   4.473   0.002  0.2244  1.6744 -1.2418
 8893SOL    HW232516   2.008   4.437   0.106 -0.3277 -0.8362 -1.5105
 8894SOL     OW32517   3.405   5.038   4.313  0.2349 -0.1382 -0.3475
 8894SOL    HW132518   3.471   5.019   4.247  0.9204 -1.5974  0.7009
 8894SOL    HW232519   3.426   5.126   4.344  1.6110 -0.5303 -0.1292
 8895SOL     OW32520   1.997   8.283   9.962 -0.0845 -0.6437  0.5090
 8895SOL    HW132521   1.940   8.206   9.962 -0.3441 -0.4771 -1.1092
 8895SOL    HW232522   2.029   8.289   9.872  1.8889 -0.2768  1.1826
 8896SOL     OW32523   4.562   1.097   7.111  0.3157  0.2297 -0.2643
 8896SOL    HW132524   4.518   1.014   7.097  0.3181  0.0635  0.6541
 8896SOL    HW232525   4.498   1.163   7.082 -0.5173 -0.0100  0.9581
 8897SOL     OW32526   8.320   5.938   3.974  0.0010  0.6171 -0.1661
 8897SOL    HW132527   8.228   5.914   3.987 -0.1067  0.2227 -1.4893
 8897SOL    HW232528   8.370   5.861   4.001  0.0879  1.4493  2.2649
 8898SOL     OW32529   9.173   2.853   4.096 -0.0257 -0.4776  0.1861
 8898SOL    HW132530   9.181   2.758   4.109 -1.2590 -0.5247  0.7405
 8898SOL    HW232531   9.088   2.865   4.055  0.6332  0.3143 -1.0071
 8899SOL     OW32532   6.441   6.373   0.910  0.3902  0.3468 -0.4507
 8899SOL    HW132533   6.465   6.433   0.839 -0.1546 -0.1944 -1.1126
 8899SOL    HW232534   6.345   6.376   0.912  0.3284 -0.9548 -0.9037
 8900SOL     OW32535   3.661   9.321   4.762  0.0100 -0.0446  0.0161
 8900SOL    HW132536   3.569   9.347   4.762  0.3469  1.2810 -1.4097
 8900SOL    HW232537   3.659   9.230   4.791 -1.8567 -0.3859 -0.9873
 8901SOL     OW32538   6.148   3.648  10.259 -0.2796 -0.1476 -0.0722
 8901SOL    HW132539   6.071   3.699  10.234 -0.2667 -0.7251 -1.3956
 8901SOL    HW232540   6.113   3.572  10.304 -0.7516 -1.6662 -2.7784
 8902SOL     OW32541   3.537   4.932   9.742  0.1326 -0.3089 -0.7850
 8902SOL    HW132542   3.494   4.944   9.827  1.5709  1.4178 -0.2492
 8902SOL    HW232543   3.581   5.015   9.726 -0.9788 -0.1857 -3.7636
 8903SOL     OW32544   9.414   7.373   8.242  0.2681  0.1928 -0.0639
 8903SOL    HW132545   9.499   7.337   8.269  0.6825  0.7755 -0.5504
 8903SOL    HW232546   9.437   7.450   8.190 -0.5632  0.2974 -0.2834
 8904SOL     OW32547   1.030   2.990   3.295  0.5052  0.1812  0.7541
 8904SOL    HW132548   1.049   3.071   3.246 -1.4197  0.1474 -0.1462
 8904SOL    HW232549   1.111   2.940   3.291  0.5928  0.3545 -2.1693
 8905SOL     OW32550   1.358   7.662   5.658  0.2816  0.2978  0.5362
 8905SOL    HW132551   1.272   7.676   5.619  0.1522 -0.0486  0.6883
 8905SOL    HW232552   1.364   7.567   5.669  0.7831  0.3000  0.3063
 8906SOL     OW32553   8.516   1.110   8.525  0.1063  0.3146  0.1929
 8906SOL    HW132554   8.486   1.143   8.610 -0.9427  2.4761 -0.9320
 8906SOL    HW232555   8.439   1.067   8.487 -0.0724  1.2529 -0.5352
 8907SOL     OW32556   7.568   4.388   5.813  0.1839  0.0829  0.1456
 8907SOL    HW132557   7.581   4.317   5.876 -0.1751 -0.5150 -0.4337
 8907SOL    HW232558   7.645   4.384   5.756 -0.7822 -1.2053 -1.1511
 8908SOL     OW32559   3.358   8.143   9.764 -0.3612 -0.2318 -0.8101
 8908SOL    HW132560   3.418   8.096   9.706  0.4336 -0.1602 -0.0605
 8908SOL    HW232561   3.353   8.231   9.727  0.9280  0.1036 -0.2144
 8909SOL     OW32562   2.879   8.459  10.121  0.0403  0.1546 -0.4023
 8909SOL    HW132563   2.942   8.416  10.064 -0.2168 -0.5797 -0.1423
 8909SOL    HW232564   2.796   8.452  10.074 -0.1094 -0.1604 -0.0961
 8910SOL     OW32565   2.724   4.706   1.358 -0.2538  0.2690  1.0090
 8910SOL    HW132566   2.735   4.753   1.276 -0.3541 -1.3218  0.0486
 8910SOL    HW232567   2.677   4.626   1.334 -0.2919 -0.2254  2.6113
 8911SOL     OW32568   8.037   4.859   5.817 -0.4943  0.7786  0.3059
 8911SOL    HW132569   7.978   4.827   5.886  0.5678  0.4127  1.0680
 8911SOL    HW232570   8.098   4.787   5.802 -0.7748  0.8161 -1.1123
 8912SOL     OW32571   3.868  10.645   0.451  0.1397  0.0763 -0.3946
 8912SOL    HW132572   3.780  10.675   0.472 -0.0517 -0.4730 -0.3815
 8912SOL    HW232573   3.855  10.561   0.407  0.6779 -0.2648  0.0823
 8913SOL     OW32574   6.966   3.315   8.601  0.4482 -0.4210  0.1363
 8913SOL    HW132575   6.995   3.400   8.568 -1.0123 -1.1951 -3.5921
 8913SOL    HW232576   6.890   3.336   8.655 -1.1533  0.6654 -2.3335
 8914SOL     OW32577   7.372   4.707  10.234  0.3216  0.2724  0.2352
 8914SOL    HW132578   7.379   4.802  10.218  1.6302  0.1061 -0.2961
 8914SOL    HW232579   7.330   4.673  10.156 -0.5820  0.4621  0.6274
 8915SOL     OW32580   0.234   8.872   8.463  0.2824  0.2966  0.1355
 8915SOL    HW132581   0.298   8.801   8.462  1.0810  1.0069 -0.4299
 8915SOL    HW232582   0.161   8.838   8.514  1.0130 -0.6165  0.5964
 8916SOL     OW32583   3.398   9.920   9.103 -0.3885 -0.1434 -0.1270
 8916SOL    HW132584   3.353   9.992   9.145 -0.0414  0.0789 -0.1304
 8916SOL    HW232585   3.463   9.962   9.046 -0.3771 -0.4514 -0.3481
 8917SOL     OW32586   7.372   9.903   7.001 -0.2818  0.3600 -0.1690
 8917SOL    HW132587   7.318   9.929   6.927 -0.6352  0.5925  0.1718
 8917SOL    HW232588   7.391   9.810   6.985 -1.4515  0.0576  0.1282
 8918SOL     OW32589   1.735   7.504   6.741 -0.1897 -0.1611  0.3635
 8918SOL    HW132590   1.710   7.443   6.811  2.1968 -1.8925 -0.1653
 8918SOL    HW232591   1.652   7.524   6.697 -1.7575  0.8274  3.4303
 8919SOL     OW32592   5.499   1.945   5.366  0.3143  0.3385  0.4561
 8919SOL    HW132593   5.480   1.979   5.454 -0.1938 -2.5513  1.5705
 8919SOL    HW232594   5.496   1.850   5.376 -0.7018 -0.1089 -2.9183
 8920SOL     OW32595   8.701  10.615   2.628 -0.1969  0.0028 -0.4350
 8920SOL    HW132596   8.639  10.545   2.648 -0.6505  0.1134 -1.3852
 8920SOL    HW232597   8.660  10.694   2.662  0.5260 -0.2302  1.0511
 8921SOL     OW32598   2.096   5.117   5.132  0.4242 -0.4078  0.7344
 8921SOL    HW132599   2.051   5.197   5.103  0.2482  0.2125  2.5432
 8921SOL    HW232600   2.146   5.088   5.056 -2.3699 -0.6680 -1.1575
 8922SOL     OW32601   7.921  10.505   4.540 -0.1054 -0.2925 -0.1941
 8922SOL    HW132602   7.833  10.531   4.515  0.0188  0.9303  0.6048
 8922SOL    HW232603   7.944  10.437   4.476 -1.4914 -0.4129 -0.6006
 8923SOL     OW32604   2.934   7.076   9.295 -0.0381  0.1848  0.0118
 8923SOL    HW132605   2.924   6.981   9.286  1.1221 -0.2985  2.6703
 8923SOL    HW232606   2.849   7.111   9.269 -0.4659 -1.5582 -1.1399
 8924SOL     OW32607   6.420   8.943   1.238  0.4084 -0.7497  0.6686
 8924SOL    HW132608   6.502   8.913   1.279  1.6903  1.5007 -0.1084
 8924SOL    HW232609   6.446   8.968   1.149 -1.0955  0.1654  0.4628
 8925SOL     OW32610   6.688   9.833   4.529  0.4086  0.2337 -0.0060
 8925SOL    HW132611   6.607   9.831   4.581 -0.2373  1.1942 -0.9359
 8925SOL    HW232612   6.729   9.748   4.546 -0.8529 -0.3197  0.4061
 8926SOL     OW32613   6.412   8.991   3.495  0.2604 -0.3954 -0.8027
 8926SOL    HW132614   6.437   9.074   3.455  1.1318  0.1784  0.8207
 8926SOL    HW232615   6.462   8.988   3.577  0.5729 -2.7115 -1.0066
 8927SOL     OW32616   7.581  10.574   9.930 -0.3888 -0.3837 -0.6709
 8927SOL    HW132617   7.594  10.591  10.023 -0.5932  1.5154 -0.9586
 8927SOL    HW232618   7.627  10.491   9.914 -1.2064 -1.2645  1.3034
 8928SOL     OW32619   9.568   6.821   4.647  0.2936  0.0837  0.3070
 8928SOL    HW132620   9.570   6.882   4.721 -1.2146 -0.0457  0.4971
 8928SOL    HW232621   9.551   6.876   4.571  2.1679  0.2561 -0.0301
 8929SOL     OW32622   3.543   7.349   6.371 -0.3129 -0.2295 -0.2313
 8929SOL    HW132623   3.469   7.315   6.421  0.3779 -1.7535 -0.1874
 8929SOL    HW232624   3.517   7.339   6.279 -0.5869  0.2526 -0.2090
 8930SOL     OW32625   3.640   4.281   0.689  0.0317  0.0254  0.2698
 8930SOL    HW132626   3.630   4.197   0.733  1.7962 -0.4395 -0.1313
 8930SOL    HW232627   3.653   4.259   0.597 -0.1129  0.7710  0.0639
 8931SOL     OW32628   0.453   3.344   2.517 -0.5601  0.2209  0.2751
 8931SOL    HW132629   0.495   3.389   2.444  0.4928 -0.5844  0.3613
 8931SOL    HW232630   0.406   3.271   2.477 -0.0091 -0.2015  0.3815
 8932SOL     OW32631   4.453   4.974   8.626 -0.4037  0.1994  0.0210
 8932SOL    HW132632   4.474   5.067   8.638  2.4415  0.1020 -2.8373
 8932SOL    HW232633   4.369   4.975   8.579 -0.6949  1.2581  0.5096
 8933SOL     OW32634   5.652   7.330   6.529 -0.0941  0.6880 -0.4564
 8933SOL    HW132635   5.660   7.388   6.453 -0.2302 -0.2829 -1.2251
 8933SOL    HW232636   5.669   7.243   6.495 -0.2410  0.2209  0.6204
 8934SOL     OW32637  10.388   6.986   4.983  0.3486  0.1690 -0.3468
 8934SOL    HW132638  10.293   6.976   4.993  0.4375  0.1004  0.4810
 8934SOL    HW232639  10.409   7.069   5.026  0.9979 -1.0341  1.8377
 8935SOL     OW32640   2.029   6.173  10.115  0.3935  0.5140  0.4954
 8935SOL    HW132641   2.103   6.183  10.175  1.9890 -1.2992 -1.0646
 8935SOL    HW232642   2.058   6.110  10.050 -2.4470 -0.0921 -0.3560
 8936SOL     OW32643   2.278   8.553   2.227  0.6009  0.0956 -0.5528
 8936SOL    HW132644   2.209   8.503   2.183 -0.4029  1.1292 -0.1864
 8936SOL    HW232645   2.304   8.498   2.301 -0.1028 -0.1418 -0.4745
 8937SOL     OW32646   3.199   8.104   2.007 -0.1321 -0.3772 -0.3988
 8937SOL    HW132647   3.270   8.110   2.071 -1.2816 -1.8708  1.1135
 8937SOL    HW232648   3.131   8.052   2.051 -1.0876 -1.2801 -2.7610
 8938SOL     OW32649  10.648   2.037   0.714  0.0548  0.7757  0.2515
 8938SOL    HW132650  10.696   2.004   0.638  0.8863 -0.5431  1.3084
 8938SOL    HW232651  10.556   2.018   0.695  0.2733  0.2514 -0.3145
 8939SOL     OW32652   0.400   1.520   1.604  0.0965  0.3293  0.4184
 8939SOL    HW132653   0.316   1.521   1.558 -0.0384 -0.8139  0.6141
 8939SOL    HW232654   0.463   1.548   1.538 -0.4631  1.5112  0.3560
 8940SOL     OW32655   0.321   9.485   5.434  0.3064  0.5045  0.1186
 8940SOL    HW132656   0.252   9.549   5.451 -1.1973 -0.7418 -1.1113
 8940SOL    HW232657   0.275   9.405   5.410  2.1272 -1.0793  1.5386
 8941SOL     OW32658   6.504   8.842   5.909  0.5272 -0.3749  0.5339
 8941SOL    HW132659   6.411   8.822   5.912 -0.3646  3.0098 -0.5559
 8941SOL    HW232660   6.520   8.867   5.819  3.2450 -3.4609 -0.0334
 8942SOL     OW32661   1.750   0.292  10.536 -0.3794  0.0643  0.2516
 8942SOL    HW132662   1.835   0.327  10.565 -0.5398 -0.6251  1.6233
 8942SOL    HW232663   1.689   0.318  10.605 -1.0464 -0.5153 -0.1102
 8943SOL     OW32664  10.686   7.588   8.610  0.0856 -0.1506 -0.1811
 8943SOL    HW132665  10.683   7.557   8.700 -0.4644  0.9194  0.1946
 8943SOL    HW232666  10.776   7.571   8.582  0.5170  0.2822  0.8664
 8944SOL     OW32667   6.474   4.375   2.267 -0.4435  0.3041  0.3333
 8944SOL    HW132668   6.545   4.407   2.211 -0.5275  0.5050  0.3431
 8944SOL    HW232669   6.420   4.322   2.208 -1.0335  1.2402 -0.0010
 8945SOL     OW32670   9.080   1.436   7.725 -0.0413  0.9579 -0.5450
 8945SOL    HW132671   9.165   1.455   7.765  0.4136 -0.9381 -0.5439
 8945SOL    HW232672   9.046   1.361   7.773 -0.9363  0.6124 -1.6645
 8946SOL     OW32673   2.217   3.927   1.654  0.2684  0.2358 -0.4159
 8946SOL    HW132674   2.293   3.889   1.696 -0.1794 -0.0597  0.1376
 8946SOL    HW232675   2.156   3.946   1.725  0.3140  1.6207 -0.7233
 8947SOL     OW32676   4.376   1.300   9.699 -0.3351  0.0317  0.1666
 8947SOL    HW132677   4.335   1.312   9.613  1.9194  0.8972 -0.8784
 8947SOL    HW232678   4.331   1.362   9.756 -0.6876  0.7410 -0.8581
 8948SOL     OW32679   0.236   1.827   0.494 -0.4058 -0.1998 -0.6105
 8948SOL    HW132680   0.329   1.849   0.498 -0.4675 -0.1137  1.0178
 8948SOL    HW232681   0.222   1.769   0.569 -2.1608  1.8692  0.8037
 8949SOL     OW32682   9.046   9.269   2.492  0.6218  0.2738  0.0978
 8949SOL    HW132683   9.046   9.214   2.571 -1.0112  1.7429  1.1729
 8949SOL    HW232684   9.100   9.345   2.516  1.1437  0.1542 -0.6599
 8950SOL     OW32685   2.553   7.669   1.590 -0.6527 -0.5227  0.5362
 8950SOL    HW132686   2.608   7.742   1.561  0.5507 -1.5566  0.1062
 8950SOL    HW232687   2.612   7.615   1.643 -1.5559 -1.1289  0.9485
 8951SOL     OW32688   3.591   3.010   7.331 -0.5315 -0.1110  0.1237
 8951SOL    HW132689   3.606   3.103   7.347 -0.8022  0.0791 -0.6675
 8951SOL    HW232690   3.665   2.966   7.373 -0.3148  0.4707  0.3630
 8952SOL     OW32691   5.204   6.377   6.428 -0.0839  0.2267  0.6628
 8952SOL    HW132692   5.245   6.367   6.514 -0.4289 -1.9446  0.6295
 8952SOL    HW232693   5.118   6.338   6.438 -0.6020  1.0457 -0.3783
 8953SOL     OW32694   9.651  10.172   4.460 -0.6016  0.4196 -0.3546
 8953SOL    HW132695   9.662  10.078   4.446  1.2461  0.5262  0.1352
 8953SOL    HW232696   9.607  10.178   4.545 -0.0497 -0.0094 -0.0295
 8954SOL     OW32697   8.594   4.963   4.371 -0.3601 -0.1642  0.7262
 8954SOL    HW132698   8.538   4.969   4.448  0.3187 -0.9356  1.2971
 8954SOL    HW232699   8.673   4.918   4.402 -0.4817 -1.4068 -0.6512
 8955SOL     OW32700   7.002   9.716   9.889 -0.5377 -0.0021 -0.2552
 8955SOL    HW132701   6.951   9.795   9.869  1.2289  0.8091 -1.8135
 8955SOL    HW232702   7.012   9.718   9.985 -2.6774  0.2310  0.0201
 8956SOL     OW32703   2.475   5.586   8.100  0.5220  0.0090 -0.2032
 8956SOL    HW132704   2.502   5.648   8.032  2.1481 -0.2962  0.1219
 8956SOL    HW232705   2.422   5.639   8.160  0.0560  0.5560 -1.0791
 8957SOL     OW32706   9.815   1.368   5.697  0.3098 -0.0406 -0.4255
 8957SOL    HW132707   9.881   1.423   5.739 -0.3993  0.6539 -0.1972
 8957SOL    HW232708   9.857   1.337   5.617  0.4918  1.3870 -0.8985
 8958SOL     OW32709   4.403  10.168   9.778 -0.0351  0.0452  0.3356
 8958SOL    HW132710   4.455  10.130   9.849  0.1484 -0.2411  0.0519
 8958SOL    HW232711   4.406  10.262   9.794  0.3221  0.0092  0.4905
 8959SOL     OW32712   5.001   0.677   5.302 -0.1814 -0.4378  0.5228
 8959SOL    HW132713   5.027   0.601   5.354 -0.7076  0.2122  1.7848
 8959SOL    HW232714   5.080   0.730   5.295 -0.2489 -0.2454  1.1761
 8960SOL     OW32715   9.776   7.451  10.628  0.1040  0.0906 -0.4032
 8960SOL    HW132716   9.856   7.404  10.604  0.4795  1.3626 -1.7574
 8960SOL    HW232717   9.718   7.442  10.552  0.7567  2.9727 -1.3522
 8961SOL     OW32718   5.254   7.779   4.018 -0.4938 -0.6683  0.0945
 8961SOL    HW132719   5.343   7.787   4.051 -0.2495  0.8408 -0.8547
 8961SOL    HW232720   5.222   7.697   4.056  1.1267 -1.0089  0.8132
 8962SOL     OW32721   9.780   3.251   8.560  0.1695 -0.1270 -0.3314
 8962SOL    HW132722   9.743   3.280   8.643  0.0718  2.1527 -1.0790
 8962SOL    HW232723   9.768   3.326   8.501  1.1921 -1.2680 -2.1057
 8963SOL     OW32724   9.385   9.073   6.245  0.4837 -0.3165 -0.4150
 8963SOL    HW132725   9.334   9.139   6.293 -0.0443 -1.0463  0.0319
 8963SOL    HW232726   9.420   9.121   6.170 -0.5781  0.2773 -0.5521
 8964SOL     OW32727   2.590   2.266   9.043  0.5569  0.6581 -0.5182
 8964SOL    HW132728   2.589   2.247   9.137  1.8111 -0.0290 -0.6215
 8964SOL    HW232729   2.521   2.211   9.007  1.2630 -0.4462 -0.2241
 8965SOL     OW32730   8.496   3.163   4.362 -0.2454 -0.0710 -0.5313
 8965SOL    HW132731   8.470   3.171   4.270 -0.3458  0.0051 -0.4977
 8965SOL    HW232732   8.566   3.228   4.372 -0.8119  0.5191 -0.3488
 8966SOL     OW32733   0.412   1.749   7.299 -0.9164  0.6946 -0.1645
 8966SOL    HW132734   0.389   1.687   7.369  1.9867 -0.5840 -0.1959
 8966SOL    HW232735   0.355   1.725   7.226 -1.2941 -0.5630  0.5193
 8967SOL     OW32736   2.602   0.438   1.767 -0.0926 -0.5109 -0.0609
 8967SOL    HW132737   2.523   0.398   1.801  0.1215 -2.0216 -1.2438
 8967SOL    HW232738   2.576   0.478   1.684  0.4069 -1.2147 -0.5722
 8968SOL     OW32739   7.521   8.993   9.005  0.0799 -0.8228  0.0448
 8968SOL    HW132740   7.587   9.043   9.054  0.1240 -0.2834 -0.5565
 8968SOL    HW232741   7.570   8.954   8.932 -0.1951 -0.7123 -0.2002
 8969SOL     OW32742   3.869   7.572   6.794 -0.1824 -0.2088  0.1414
 8969SOL    HW132743   3.950   7.621   6.806 -0.3499  0.0410  0.2690
 8969SOL    HW232744   3.881   7.525   6.711  0.6818 -1.3297  0.8677
 8970SOL     OW32745   8.743   0.218   1.375 -0.3666 -0.0993  0.0816
 8970SOL    HW132746   8.759   0.124   1.364 -0.7225 -0.0127 -1.2823
 8970SOL    HW232747   8.648   0.227   1.372 -0.4068  0.1747  1.4908
 8971SOL     OW32748   6.688   2.110   0.581  0.0750  0.2022 -0.2377
 8971SOL    HW132749   6.737   2.163   0.518  0.8841  0.8846  0.9197
 8971SOL    HW232750   6.600   2.102   0.543 -1.2125  5.2318  0.9637
 8972SOL     OW32751   5.756   6.882   2.845 -0.0399  0.1363 -0.2209
 8972SOL    HW132752   5.803   6.799   2.840  0.1302  0.0825  1.6169
 8972SOL    HW232753   5.815   6.945   2.803 -0.4641 -0.7191 -2.2701
 8973SOL     OW32754   6.628   3.950   7.036  0.2777 -0.4056  0.0742
 8973SOL    HW132755   6.677   3.870   7.018  0.8132  0.0036 -0.3263
 8973SOL    HW232756   6.572   3.928   7.110  1.0468 -0.8943  0.5181
 8974SOL     OW32757   2.762   6.380   7.620  0.4408  0.1486  0.3390
 8974SOL    HW132758   2.711   6.329   7.684  0.4959 -0.7521 -0.3118
 8974SOL    HW232759   2.739   6.471   7.638 -1.0713 -0.2055  0.3438
 8975SOL     OW32760   0.906   7.804   9.831 -0.0645  0.4661  0.0136
 8975SOL    HW132761   0.919   7.773   9.921  0.0736  1.7126  0.4460
 8975SOL    HW232762   0.814   7.832   9.829 -0.6465 -1.3911 -0.8353
 8976SOL     OW32763   5.274   5.982   8.539 -0.0671  0.2091  0.1450
 8976SOL    HW132764   5.313   5.921   8.601 -0.6388  1.0018  1.3109
 8976SOL    HW232765   5.180   5.965   8.544 -0.2769  1.4411  0.7908
 8977SOL     OW32766   9.225   8.558   4.705 -0.1951  0.3326  0.1388
 8977SOL    HW132767   9.244   8.468   4.730  0.1142  0.8962  2.1046
 8977SOL    HW232768   9.219   8.605   4.788  1.2776  2.4588 -0.8877
 8978SOL     OW32769   3.218   7.815   9.743 -0.6846  0.0188  1.0350
 8978SOL    HW132770   3.231   7.841   9.651 -1.1525  0.3527  1.0599
 8978SOL    HW232771   3.153   7.877   9.776  0.6907  0.9543  2.0625
 8979SOL     OW32772   6.198   3.635   1.539  0.4785  0.7197  0.0252
 8979SOL    HW132773   6.283   3.665   1.573  0.6272  1.4203 -0.9143
 8979SOL    HW232774   6.142   3.627   1.616  1.6033 -0.5113  0.7635
 8980SOL     OW32775   2.941   0.416   4.188 -0.0267  0.3099  0.9093
 8980SOL    HW132776   2.879   0.466   4.241 -0.1934  1.0718  0.0189
 8980SOL    HW232777   2.929   0.449   4.099 -0.4296 -1.5844  0.1990
 8981SOL     OW32778   1.620   4.660   9.789  0.4039  0.4983 -0.1779
 8981SOL    HW132779   1.700   4.659   9.842 -0.6868  3.8766  1.8602
 8981SOL    HW232780   1.565   4.592   9.826  1.0571  0.4264  0.6848
 8982SOL     OW32781  10.471   7.423   7.003  0.1040  0.4151 -0.0792
 8982SOL    HW132782  10.507   7.347   6.958  1.0165  0.1281  1.1044
 8982SOL    HW232783  10.547   7.473   7.031 -0.4580  0.9101  0.5949
 8983SOL     OW32784   2.462   2.816   8.280  0.1314  0.3278  0.0915
 8983SOL    HW132785   2.440   2.807   8.188 -1.3352 -0.8139  0.5104
 8983SOL    HW232786   2.467   2.910   8.295 -1.5848  0.5914 -0.7459
 8984SOL     OW32787   8.699   8.132   9.563  0.5239  0.2667  0.0949
 8984SOL    HW132788   8.712   8.224   9.539 -0.5630  0.2295 -0.7330
 8984SOL    HW232789   8.642   8.097   9.494  0.6168 -0.9356  0.6004
 8985SOL     OW32790   4.911   0.428   5.623  0.3648  0.3261  0.0083
 8985SOL    HW132791   4.846   0.384   5.679  2.0284 -2.9188 -0.3518
 8985SOL    HW232792   4.986   0.443   5.680  0.4884  1.0719 -0.3398
 8986SOL     OW32793   1.559   4.644   7.592 -0.1507  0.0416  0.2187
 8986SOL    HW132794   1.651   4.617   7.601  0.0749 -0.5630 -2.9538
 8986SOL    HW232795   1.548   4.710   7.661  2.9524  0.7871  0.1857
 8987SOL     OW32796   6.349   9.206   6.756  0.1885  0.2668 -0.0022
 8987SOL    HW132797   6.348   9.112   6.738  1.2949  0.4198 -1.0310
 8987SOL    HW232798   6.331   9.246   6.670 -1.0924  0.9975  0.5806
 8988SOL     OW32799   4.593   5.825   2.375 -0.6093  0.4545  0.3403
 8988SOL    HW132800   4.525   5.843   2.310  1.4419 -1.9437 -2.7739
 8988SOL    HW232801   4.672   5.867   2.340  0.3265  0.1751  1.9784
 8989SOL     OW32802   2.055   9.718   2.555  0.4138 -0.3044 -0.2996
 8989SOL    HW132803   2.049   9.695   2.462  1.3567 -0.3695 -0.3564
 8989SOL    HW232804   2.118   9.656   2.591  1.4179  0.8479 -0.0048
 8990SOL     OW32805   4.927   2.766   1.646  0.3739 -0.0065 -0.0318
 8990SOL    HW132806   4.854   2.714   1.612 -0.0683  0.6732 -0.1437
 8990SOL    HW232807   5.005   2.714   1.626 -0.1545 -1.3964  1.2955
 8991SOL     OW32808   5.361   0.547   3.784 -0.2468  0.0379 -0.4082
 8991SOL    HW132809   5.276   0.556   3.826 -0.5183 -0.4029 -0.8441
 8991SOL    HW232810   5.357   0.607   3.709  0.5319  1.4237  0.6158
 8992SOL     OW32811   7.883   5.613   4.792 -0.3819  0.0279 -0.7268
 8992SOL    HW132812   7.944   5.559   4.842 -0.3836 -0.1742 -0.9422
 8992SOL    HW232813   7.892   5.582   4.702 -0.5921  0.1935 -0.8046
 8993SOL     OW32814   7.574  10.376   9.634 -0.1109 -0.1608 -0.2463
 8993SOL    HW132815   7.612  10.368   9.721 -0.8664 -0.8319  0.0344
 8993SOL    HW232816   7.644  10.415   9.581 -0.1018  1.5564  0.9552
 8994SOL     OW32817   6.482   8.702   7.327 -0.1311  0.4581 -0.0443
 8994SOL    HW132818   6.542   8.757   7.276 -0.1193 -0.9307 -1.5964
 8994SOL    HW232819   6.447   8.640   7.264 -2.0746  0.2673  1.1464
 8995SOL     OW32820   6.751   2.197   7.781 -0.7031  0.2449 -0.0090
 8995SOL    HW132821   6.770   2.119   7.833 -0.2278  0.9355  0.8834
 8995SOL    HW232822   6.668   2.177   7.737 -0.1872 -1.0624 -0.4191
 8996SOL     OW32823   0.085   8.923   1.264  0.1780 -0.0092 -0.1000
 8996SOL    HW132824   0.079   8.940   1.358 -1.5373  0.8901 -0.3283
 8996SOL    HW232825   0.148   8.987   1.232  1.3301 -0.8038  0.5197
 8997SOL     OW32826   5.625   7.340   9.415  0.0461 -0.0258 -0.5394
 8997SOL    HW132827   5.551   7.281   9.399 -0.1833  0.4214 -1.1677
 8997SOL    HW232828   5.697   7.282   9.441 -0.7772 -0.3849  1.0488
 8998SOL     OW32829   8.309   9.398   4.368 -0.2269  0.1688 -0.7296
 8998SOL    HW132830   8.269   9.344   4.436  1.1967 -0.7700 -0.5694
 8998SOL    HW232831   8.251   9.389   4.292 -0.0293 -1.6626 -0.7145
 8999SOL     OW32832   9.458   9.209   9.203 -0.5941  0.4755 -0.1137
 8999SOL    HW132833   9.381   9.266   9.194 -0.6371  0.4666  0.1609
 8999SOL    HW232834   9.462   9.190   9.297 -0.6021 -0.0058 -0.2086
 9000SOL     OW32835   1.754   5.963   9.387  0.2534  0.1964  0.1953
 9000SOL    HW132836   1.734   5.876   9.422  0.2928  0.9850  2.2798
 9000SOL    HW232837   1.792   5.946   9.301 -0.1599 -1.8206  0.3730
 9001SOL     OW32838   5.225   1.106   8.960 -0.2715  0.0162 -0.1595
 9001SOL    HW132839   5.153   1.118   9.022 -1.6855 -0.6812 -1.5823
 9001SOL    HW232840   5.284   1.044   9.004 -0.9492 -0.0354  0.7118
 9002SOL     OW32841  10.321   5.654   9.705 -0.3133  0.2377  0.4932
 9002SOL    HW132842  10.367   5.588   9.653 -0.7884  1.1237 -1.1294
 9002SOL    HW232843  10.297   5.609   9.786 -0.1835 -1.4229 -0.3526
 9003SOL     OW32844   0.084   2.494   7.587  0.2888  0.2681 -0.0600
 9003SOL    HW132845   0.138   2.417   7.604  1.0063  0.7087 -0.2585
 9003SOL    HW232846   0.148   2.565   7.574 -0.3590  1.0097  0.6596
 9004SOL     OW32847   6.689   0.448   2.201 -0.0777 -0.2847 -0.3941
 9004SOL    HW132848   6.680   0.541   2.218  3.0377 -0.2291  1.5902
 9004SOL    HW232849   6.778   0.437   2.168 -0.0627 -2.6448  0.2199
 9005SOL     OW32850   8.552   5.182   2.968  0.0804  0.4124  0.3681
 9005SOL    HW132851   8.482   5.118   2.966 -1.5044  2.0622  0.1539
 9005SOL    HW232852   8.578   5.192   2.876  0.0992  0.3032  0.3621
 9006SOL     OW32853   4.069  10.376   8.844 -0.2776  0.4299  0.4605
 9006SOL    HW132854   4.023  10.317   8.904  0.7194  1.0405  1.8536
 9006SOL    HW232855   4.114  10.438   8.900  0.6579  1.0530 -0.9241
 9007SOL     OW32856   2.690   6.440   8.120  0.4318 -0.3677  0.6309
 9007SOL    HW132857   2.754   6.426   8.190  1.1681 -0.6942 -0.0868
 9007SOL    HW232858   2.711   6.527   8.086  1.4908 -1.0609 -0.5781
 9008SOL     OW32859   3.411   7.057   4.982  0.1554  0.1519 -0.2721
 9008SOL    HW132860   3.394   6.987   4.920  0.8230  1.1440 -1.6440
 9008SOL    HW232861   3.420   7.135   4.927  1.2908  0.9740  1.0316
 9009SOL     OW32862   8.988   7.907   4.298  0.2926  0.0605  0.1391
 9009SOL    HW132863   8.983   7.823   4.253  3.3665  0.1000 -0.4731
 9009SOL    HW232864   9.015   7.886   4.387  2.5436  0.3653 -0.4007
 9010SOL     OW32865   3.415   6.128   0.559  0.2419  0.8822 -0.4163
 9010SOL    HW132866   3.442   6.038   0.572 -0.6984  0.7568  0.9145
 9010SOL    HW232867   3.460   6.177   0.628  1.1304  1.5375 -1.4216
 9011SOL     OW32868   3.253   3.176   5.354 -0.0531  0.4065  0.3392
 9011SOL    HW132869   3.166   3.185   5.393 -0.3922 -0.0992 -0.2903
 9011SOL    HW232870   3.297   3.259   5.376  1.1224 -1.1562  4.9739
 9012SOL     OW32871   3.011   6.042   7.957 -0.1960  0.3933 -0.1718
 9012SOL    HW132872   2.949   6.091   8.011 -2.4124  0.5561 -2.6911
 9012SOL    HW232873   3.071   6.109   7.924 -1.2877  0.9661 -1.0695
 9013SOL     OW32874   0.236   0.172   4.892  0.2834  0.0848 -0.2582
 9013SOL    HW132875   0.228   0.188   4.986  3.1182 -0.1865  0.1266
 9013SOL    HW232876   0.244   0.077   4.885 -1.3675 -0.0203 -0.9563
 9014SOL     OW32877   6.168   9.693   6.304 -0.4706  0.1209  0.2374
 9014SOL    HW132878   6.242   9.713   6.246  0.2141  0.8538  1.3287
 9014SOL    HW232879   6.107   9.766   6.290 -0.1055  0.5294  0.7563
 9015SOL     OW32880   7.116   1.204   3.364 -0.1945  0.0484 -0.4151
 9015SOL    HW132881   7.207   1.234   3.357  0.1210 -0.8165 -0.0873
 9015SOL    HW232882   7.100   1.157   3.282 -0.9967  1.8556 -1.3594
 9016SOL     OW32883   0.932   6.197   5.962 -0.2730  0.4659  0.0118
 9016SOL    HW132884   0.978   6.121   5.997 -2.5908 -0.8641  0.3928
 9016SOL    HW232885   0.942   6.190   5.867 -0.5525 -0.3876  0.0436
 9017SOL     OW32886   3.435   6.039   0.154 -0.6633 -0.0716 -0.6510
 9017SOL    HW132887   3.477   6.108   0.104 -0.2190 -1.4431 -2.2519
 9017SOL    HW232888   3.341   6.059   0.150 -0.5706  0.1996 -1.4812
 9018SOL     OW32889   2.525   7.347   2.186  0.4370  0.4945  0.5417
 9018SOL    HW132890   2.597   7.295   2.222  0.8109  0.6075 -0.0147
 9018SOL    HW232891   2.453   7.285   2.175  1.0408 -0.0432 -0.6009
 9019SOL     OW32892  10.066   9.331   3.055 -0.6988  0.5750 -0.5638
 9019SOL    HW132893  10.095   9.353   3.143 -0.6135 -1.8332  0.0836
 9019SOL    HW232894   9.978   9.368   3.048 -1.0196  0.1400  0.8414
 9020SOL     OW32895   9.973  10.178   9.250  0.0072  0.3706 -0.6539
 9020SOL    HW132896  10.019  10.215   9.175 -0.2832 -0.8170 -1.4387
 9020SOL    HW232897   9.971  10.249   9.314  1.5429  0.9437 -1.1996
 9021SOL     OW32898   4.772   3.681   9.357 -0.2313 -0.3689  0.1107
 9021SOL    HW132899   4.694   3.716   9.400 -0.5676 -0.1240 -0.6984
 9021SOL    HW232900   4.754   3.588   9.346 -0.9200 -0.1047 -1.1490
 9022SOL     OW32901   3.257   1.072   9.385  0.7106  0.0612  0.1929
 9022SOL    HW132902   3.295   1.137   9.445 -1.2656  0.4207  1.1777
 9022SOL    HW232903   3.164   1.072   9.408 -0.2332  0.5027 -3.1890
 9023SOL     OW32904   5.153   2.871   3.226  0.1626 -0.4324 -0.5417
 9023SOL    HW132905   5.227   2.812   3.217 -0.2220 -1.0943  0.4792
 9023SOL    HW232906   5.082   2.816   3.260 -0.9605  0.0671 -1.9409
 9024SOL     OW32907   9.812   6.687   4.561 -0.3319 -0.0758 -0.0366
 9024SOL    HW132908   9.724   6.722   4.573 -0.2557  0.3436 -0.7062
 9024SOL    HW232909   9.857   6.751   4.507 -0.3061 -1.3513 -1.5938
 9025SOL     OW32910   2.612   4.074   2.343 -0.4376 -0.2713  0.6734
 9025SOL    HW132911   2.574   4.003   2.291  1.3055 -0.5708 -0.2758
 9025SOL    HW232912   2.620   4.038   2.431 -1.0752 -0.6600  0.5793
 9026SOL     OW32913  10.307   2.166   2.555  0.1209 -0.0943  0.4476
 9026SOL    HW132914  10.335   2.163   2.464  0.9597  0.9737  0.6497
 9026SOL    HW232915  10.360   2.235   2.594  0.8824 -1.5427  2.1293
 9027SOL     OW32916   0.933   7.502   2.647  0.2353  0.4485  0.0447
 9027SOL    HW132917   0.967   7.584   2.612  1.2366  0.2583  0.5618
 9027SOL    HW232918   0.981   7.487   2.728 -0.9497  0.0774  0.7153
 9028SOL     OW32919   7.530   7.058   9.629  0.6010  0.2602 -0.3298
 9028SOL    HW132920   7.485   7.137   9.599 -1.5846 -0.3952  0.9572
 9028SOL    HW232921   7.466   6.988   9.617  1.6203 -0.9099  0.7686
 9029SOL     OW32922   7.996   9.442   8.232  0.1142  0.4486  0.3732
 9029SOL    HW132923   7.928   9.375   8.227 -0.7016  1.1839  1.1878
 9029SOL    HW232924   8.073   9.396   8.263  0.0775 -0.4549 -0.8152
 9030SOL     OW32925   5.214   1.010   8.432  0.3493 -0.5532  0.2418
 9030SOL    HW132926   5.220   1.008   8.528 -0.5996  0.1824  0.3288
 9030SOL    HW232927   5.265   1.087   8.407 -1.0910  0.4607  0.3260
 9031SOL     OW32928   5.868   8.816  10.576 -0.0478 -0.0696 -0.1147
 9031SOL    HW132929   5.792   8.773  10.537  0.9230 -0.8523 -1.2277
 9031SOL    HW232930   5.935   8.747  10.581  1.7416  1.3205 -2.4715
 9032SOL     OW32931   3.791   8.801   2.379 -0.0638 -0.0751  0.5561
 9032SOL    HW132932   3.738   8.834   2.452 -1.0934 -0.7264  0.1130
 9032SOL    HW232933   3.759   8.849   2.303 -4.1898 -4.3755 -0.8540
 9033SOL     OW32934   1.764   2.090   0.165 -0.2693  0.0308 -0.3181
 9033SOL    HW132935   1.710   2.079   0.244  0.5155 -0.5061  0.1531
 9033SOL    HW232936   1.769   2.185   0.153 -2.3772  0.1015 -1.1245
 9034SOL     OW32937   2.661   8.772   9.938  0.4387 -0.2337 -0.4028
 9034SOL    HW132938   2.742   8.816   9.912  0.7798  0.9066  2.2624
 9034SOL    HW232939   2.664   8.687   9.895  2.6894  0.0678 -0.9282
 9035SOL     OW32940   9.612   3.478   3.598 -0.3681  0.0625  0.0538
 9035SOL    HW132941   9.704   3.485   3.623 -0.1565  0.4274 -0.7720
 9035SOL    HW232942   9.614   3.423   3.519 -1.1122 -2.0186  1.3847
 9036SOL     OW32943   9.941   2.010   4.025  0.3437 -0.0053  0.1942
 9036SOL    HW132944   9.954   1.931   3.973 -0.1157  1.3462 -2.1537
 9036SOL    HW232945  10.029   2.046   4.036  0.3257  0.5514 -1.1972
 9037SOL     OW32946  10.304   8.070   6.344 -0.6087 -0.3562  0.4292
 9037SOL    HW132947  10.227   8.120   6.372 -1.2235 -0.5005 -0.9051
 9037SOL    HW232948  10.268   7.986   6.316  0.0744 -0.5228  0.0364
 9038SOL     OW32949   4.890   3.753   5.549  0.2098  0.0079  0.1123
 9038SOL    HW132950   4.828   3.813   5.507 -1.2519 -0.9616  0.7827
 9038SOL    HW232951   4.969   3.760   5.496  0.1954  2.6555  0.2845
 9039SOL     OW32952   3.832   4.812   3.415  0.6612 -0.0324 -0.1287
 9039SOL    HW132953   3.915   4.839   3.456  1.0716 -1.8683  0.3826
 9039SOL    HW232954   3.767   4.823   3.484  1.0232 -1.3138  0.4586
 9040SOL     OW32955   6.145   7.128   0.360  0.7253 -0.2969  0.2417
 9040SOL    HW132956   6.145   7.191   0.289 -1.2349 -1.1882 -0.6476
 9040SOL    HW232957   6.054   7.127   0.391  1.5245  0.0838  2.8117
 9041SOL     OW32958   5.515  10.696   5.200  0.3718  0.2870 -0.7869
 9041SOL    HW132959   5.601  10.720   5.164  0.5379 -0.0259 -0.6017
 9041SOL    HW232960   5.482  10.629   5.139  0.4177  0.1493 -0.6628
 9042SOL     OW32961   5.996   8.380   3.316  0.1056  0.2935 -0.8509
 9042SOL    HW132962   5.963   8.424   3.238 -0.4588 -0.3251 -0.9738
 9042SOL    HW232963   6.091   8.382   3.307  0.0381 -0.5667 -2.0217
 9043SOL     OW32964   0.006   3.711   1.656 -0.4893  0.2196  0.2534
 9043SOL    HW132965   0.081   3.760   1.623 -0.8928  1.4088  1.0258
 9043SOL    HW232966  -0.014   3.649   1.586 -0.3714  1.6117 -1.0946
 9044SOL     OW32967   4.846   8.738   7.341  0.2060  0.4225 -0.1977
 9044SOL    HW132968   4.881   8.708   7.257  1.4870 -0.1098  0.5027
 9044SOL    HW232969   4.787   8.810   7.318  0.3537  0.1279 -1.5697
 9045SOL     OW32970   4.743   6.059   6.628  0.2567 -0.3237 -0.4333
 9045SOL    HW132971   4.801   6.119   6.581 -0.8857  0.3680 -1.0230
 9045SOL    HW232972   4.775   6.059   6.718  0.2609  1.2290 -0.4084
 9046SOL     OW32973   9.889   2.398   9.298 -0.4698 -0.0438 -0.2949
 9046SOL    HW132974   9.893   2.303   9.295 -0.3579 -0.1300  1.3691
 9046SOL    HW232975   9.940   2.427   9.223  1.7827 -1.3147  0.6416
 9047SOL     OW32976   4.653   7.968   5.342 -0.7320 -0.0829 -0.0331
 9047SOL    HW132977   4.591   7.962   5.415 -0.6664 -1.9505 -0.0856
 9047SOL    HW232978   4.723   8.025   5.374 -1.0282 -0.3458  1.1310
 9048SOL     OW32979   0.038   8.455   9.598  0.7488 -0.4103  0.2646
 9048SOL    HW132980  -0.040   8.445   9.653 -1.2007  0.7837 -2.0815
 9048SOL    HW232981   0.083   8.531   9.634 -1.0035  0.9398 -0.2166
 9049SOL     OW32982  10.311   0.724   9.108  0.2635  0.2125 -0.6822
 9049SOL    HW132983  10.393   0.684   9.079  0.2911 -0.1334 -0.1477
 9049SOL    HW232984  10.245   0.692   9.046  0.0610 -1.6773  0.4046
 9050SOL     OW32985   0.535   1.339   8.185 -0.0146 -0.8193 -0.0694
 9050SOL    HW132986   0.615   1.391   8.171 -1.0303  0.9547  0.3120
 9050SOL    HW232987   0.526   1.334   8.280  0.0366 -1.6865 -0.1053
 9051SOL     OW32988   4.973   2.436   3.733 -0.2936  0.3648  0.6749
 9051SOL    HW132989   5.057   2.479   3.748 -0.0063  0.4632 -0.9616
 9051SOL    HW232990   4.908   2.494   3.774  0.5083 -0.4456  3.2282
 9052SOL     OW32991   1.473   0.714   2.203 -0.3920  0.3417  0.7809
 9052SOL    HW132992   1.396   0.758   2.167  0.4085  1.7037  0.6839
 9052SOL    HW232993   1.439   0.664   2.277 -1.9534 -1.9985 -1.3636
 9053SOL     OW32994   0.017   3.636   5.905 -0.0084  0.4048  0.0780
 9053SOL    HW132995   0.090   3.667   5.959 -0.3475 -1.1234  1.5176
 9053SOL    HW232996  -0.016   3.714   5.861  1.5274  1.3788  0.5825
 9054SOL     OW32997   5.265   8.685  10.318 -0.2426 -0.0735 -0.1510
 9054SOL    HW132998   5.280   8.687  10.412 -0.4716 -2.0372 -0.0306
 9054SOL    HW232999   5.306   8.766  10.285  3.5822 -1.2766  1.1248
 9055SOL     OW33000   0.516   9.613   2.362 -0.2445 -0.6388 -0.4097
 9055SOL    HW133001   0.574   9.686   2.339  0.7828 -1.5601 -0.8576
 9055SOL    HW233002   0.507   9.618   2.457 -0.7593  0.4769 -0.5031
 9056SOL     OW33003   4.970   6.196   2.703  0.4225 -0.3104  0.2973
 9056SOL    HW133004   5.036   6.225   2.641  1.0301  1.1435  1.5544
 9056SOL    HW233005   4.964   6.102   2.690  0.4972 -0.0565 -1.9532
 9057SOL     OW33006   1.366   0.286   3.143 -0.7465 -0.3983  0.9563
 9057SOL    HW133007   1.388   0.230   3.069 -0.2635  0.3793  0.4907
 9057SOL    HW233008   1.430   0.265   3.210 -0.5412 -0.3820  0.7668
 9058SOL     OW33009  10.131   0.589   6.103 -0.4675 -0.7959 -0.4046
 9058SOL    HW133010  10.038   0.576   6.083 -1.6826  1.6298  2.7845
 9058SOL    HW233011  10.157   0.663   6.048 -1.2431  0.2087  0.5353
 9059SOL     OW33012   6.097   9.935   2.753  0.1804  0.0749  0.2565
 9059SOL    HW133013   6.107   9.991   2.676  1.0126  0.9014  0.9391
 9059SOL    HW233014   6.170   9.959   2.810 -0.7929 -0.0109  1.6074
 9060SOL     OW33015   0.772   3.027  10.324  0.3672  0.3695  0.4849
 9060SOL    HW133016   0.866   3.043  10.338  0.3275  0.4213  0.6894
 9060SOL    HW233017   0.765   2.932  10.311  0.4385  0.3569  0.5389
 9061SOL     OW33018   7.593   1.381   6.707 -0.2545 -0.3192 -0.5972
 9061SOL    HW133019   7.587   1.340   6.621 -2.0527 -0.2271 -0.5444
 9061SOL    HW233020   7.673   1.434   6.703 -0.6642  0.2088 -2.4270
 9062SOL     OW33021   6.479   9.857   4.712 -0.0787  0.2579  0.0414
 9062SOL    HW133022   6.518   9.930   4.760 -1.6173  0.1529  1.5447
 9062SOL    HW233023   6.385   9.875   4.714 -0.7256 -2.7313  2.1878
 9063SOL     OW33024  10.013   2.200   3.686  0.5193  0.4592  0.0466
 9063SOL    HW133025   9.965   2.200   3.769  0.3068 -1.2799 -0.0426
 9063SOL    HW233026  10.095   2.245   3.706 -0.3895  1.9055  0.6543
 9064SOL     OW33027   6.808   7.069   1.525 -0.1110 -0.0530 -0.5637
 9064SOL    HW133028   6.821   7.002   1.458  0.5822  0.6339 -1.1207
 9064SOL    HW233029   6.834   7.025   1.607 -0.3826 -0.7001 -0.8150
 9065SOL     OW33030   6.448   7.839   8.331  0.1950  0.0975 -0.3257
 9065SOL    HW133031   6.499   7.844   8.250  2.5606 -0.2992  1.0348
 9065SOL    HW233032   6.479   7.759   8.373  0.7936  1.4925  2.0513
 9066SOL     OW33033   9.684   9.429   9.239  0.0721  0.5553  0.3213
 9066SOL    HW133034   9.604   9.418   9.188  0.9177 -0.2236 -0.8956
 9066SOL    HW233035   9.746   9.470   9.179  1.0262 -0.1904  0.7585
 9067SOL     OW33036   1.225   9.011   8.258 -0.0635  0.7965 -0.3312
 9067SOL    HW133037   1.202   8.918   8.258  1.3603  0.4030 -2.0046
 9067SOL    HW233038   1.229   9.034   8.351 -2.0355 -0.3609  0.1144
 9068SOL     OW33039   3.067   9.680   3.641  0.1260 -0.2686  0.2465
 9068SOL    HW133040   2.993   9.728   3.677 -0.0999  0.4967 -1.1485
 9068SOL    HW233041   3.093   9.731   3.564  1.3166 -1.1902  0.0100
 9069SOL     OW33042   2.871   0.683   2.480 -0.1757 -0.0301  0.1823
 9069SOL    HW133043   2.935   0.620   2.514  1.7780  1.5885 -0.3196
 9069SOL    HW233044   2.865   0.750   2.548 -0.4376  0.4428 -0.2986
 9070SOL     OW33045  10.331   4.095   3.773  0.0992  0.0627 -0.1572
 9070SOL    HW133046  10.338   4.128   3.684  0.8635 -0.4299 -0.2978
 9070SOL    HW233047  10.420   4.105   3.809 -0.3831  0.9969  0.8199
 9071SOL     OW33048   6.354   8.721   4.265 -0.4382  0.2074  0.5522
 9071SOL    HW133049   6.281   8.702   4.323 -0.7362  1.5950  0.6697
 9071SOL    HW233050   6.331   8.680   4.182 -0.0148 -1.7929  1.3540
 9072SOL     OW33051   9.448   7.617   6.567 -0.0168 -0.4167  0.3117
 9072SOL    HW133052   9.415   7.543   6.517 -0.5022 -0.0254  0.0339
 9072SOL    HW233053   9.425   7.694   6.514  0.9097 -0.0973  0.3638
 9073SOL     OW33054   2.093   1.857   9.009  0.2378 -0.0273 -0.0418
 9073SOL    HW133055   2.160   1.841   8.943  1.2082  1.4114  0.5338
 9073SOL    HW233056   2.022   1.900   8.960  1.0076  1.1593 -0.1601
 9074SOL     OW33057   0.518   2.582   2.713  0.2002  0.0068 -0.5070
 9074SOL    HW133058   0.475   2.654   2.667  0.0521  0.9932  1.1095
 9074SOL    HW233059   0.513   2.508   2.652 -1.1663  0.8985 -1.5285
 9075SOL     OW33060   2.260   0.185   5.103  0.4814 -0.5647  0.1268
 9075SOL    HW133061   2.251   0.223   5.191  2.5215 -0.5193  0.3464
 9075SOL    HW233062   2.251   0.260   5.044  0.8349 -0.3214  0.3792
 9076SOL     OW33063   6.499   9.799   4.278 -0.3533 -0.5901 -0.1056
 9076SOL    HW133064   6.424   9.792   4.337 -0.5420 -0.5122 -0.3328
 9076SOL    HW233065   6.561   9.855   4.324 -0.3761 -0.7664  0.1430
 9077SOL     OW33066   5.741   6.203   5.124  0.6988  0.4738 -0.4545
 9077SOL    HW133067   5.734   6.291   5.162  0.8317 -0.1177  1.0117
 9077SOL    HW233068   5.668   6.154   5.162  1.4275 -0.4218 -0.1600
 9078SOL     OW33069   1.646   4.482   6.188  0.1302 -0.5013  0.3577
 9078SOL    HW133070   1.642   4.430   6.268 -0.8292  0.1709  0.7671
 9078SOL    HW233071   1.566   4.535   6.189  0.1792 -0.3464 -0.9563
 9079SOL     OW33072   9.628   9.224   7.242 -0.0201 -0.0669  0.0154
 9079SOL    HW133073   9.614   9.137   7.207  0.6760 -0.4350  0.6258
 9079SOL    HW233074   9.703   9.258   7.193  2.0191 -1.2147  2.1843
 9080SOL     OW33075   6.104   3.980   0.720  0.3069  0.3332 -0.0115
 9080SOL    HW133076   6.100   3.928   0.800  0.9670 -1.0863 -0.8678
 9080SOL    HW233077   6.035   3.943   0.665 -0.1019  1.2592 -0.1303
 9081SOL     OW33078   7.430   6.358   8.212  0.6653 -0.4517  0.1192
 9081SOL    HW133079   7.457   6.439   8.255 -0.4861  0.5455 -0.9353
 9081SOL    HW233080   7.356   6.327   8.263  1.2401 -0.9589  0.6470
 9082SOL     OW33081   6.055   5.628   0.667  0.2732 -0.2057  0.0888
 9082SOL    HW133082   6.100   5.555   0.624  0.8793 -0.0851  0.5024
 9082SOL    HW233083   5.967   5.595   0.685 -0.0431 -0.2166 -1.3565
 9083SOL     OW33084   5.718   6.049   0.449 -0.3966  0.7997  0.4845
 9083SOL    HW133085   5.715   5.956   0.429  0.2649  0.8204  0.2883
 9083SOL    HW233086   5.789   6.084   0.395  0.5068  1.0994  1.8004
 9084SOL     OW33087   0.935   1.080   2.231 -0.2342  0.2896 -0.2333
 9084SOL    HW133088   0.878   1.007   2.204 -1.4139  1.3071 -0.5805
 9084SOL    HW233089   1.000   1.086   2.161 -0.0338 -0.5298 -0.1260
 9085SOL     OW33090   6.262   2.062   8.474  0.0650 -0.2274  0.0168
 9085SOL    HW133091   6.211   2.138   8.447 -4.0421 -1.7743  2.5752
 9085SOL    HW233092   6.199   1.990   8.476  2.6539 -2.6736  2.2390
 9086SOL     OW33093   9.836   4.894   1.961 -0.3165  0.0839  0.6504
 9086SOL    HW133094   9.929   4.882   1.944 -0.7620  0.5246 -2.7873
 9086SOL    HW233095   9.824   4.989   1.963 -1.0667  0.1302 -2.2135
 9087SOL     OW33096   9.519   9.508   1.315 -0.3024  0.5457 -0.1785
 9087SOL    HW133097   9.607   9.540   1.294 -0.9402  2.6682  0.1169
 9087SOL    HW233098   9.461   9.573   1.276 -1.6705  0.9033  2.2651
 9088SOL     OW33099  10.600   5.050   5.311  0.1222  0.3441 -0.4108
 9088SOL    HW133100  10.511   5.078   5.290  0.2940  2.7795  1.5469
 9088SOL    HW233101  10.656   5.112   5.264  0.6456  0.9315  0.9379
 9089SOL     OW33102   6.929   3.741   7.590 -0.5137 -0.3330 -0.2838
 9089SOL    HW133103   6.909   3.656   7.550  1.2329  0.0658 -2.1852
 9089SOL    HW233104   6.903   3.805   7.524 -0.8727  0.5794  0.7177
 9090SOL     OW33105   4.401   8.712   6.407  0.0105  0.2000 -0.0211
 9090SOL    HW133106   4.359   8.797   6.392  0.8548  0.6733  0.1664
 9090SOL    HW233107   4.392   8.665   6.325  0.8798  1.0971 -0.6581
 9091SOL     OW33108   6.792   8.887   2.911  0.0431 -0.1932 -0.3215
 9091SOL    HW133109   6.836   8.898   2.827  0.6380  0.0135  0.0106
 9091SOL    HW233110   6.763   8.975   2.935  0.2617 -0.1795 -0.1035
 9092SOL     OW33111   5.717   0.942   3.088  0.5901 -0.3431  0.3644
 9092SOL    HW133112   5.797   0.891   3.075  0.0649 -1.1914  0.3244
 9092SOL    HW233113   5.730   1.022   3.037  1.3089 -0.5825  0.1634
 9093SOL     OW33114   0.374   6.031   3.612  0.0716 -0.4243  0.1404
 9093SOL    HW133115   0.445   5.969   3.596 -0.1899 -1.4050  2.3458
 9093SOL    HW233116   0.348   6.060   3.525  1.9341 -1.4372 -0.8286
 9094SOL     OW33117   5.755   4.447   6.410 -0.3999 -0.0998 -0.5806
 9094SOL    HW133118   5.840   4.475   6.378  0.3638  0.0745  1.4320
 9094SOL    HW233119   5.740   4.499   6.489 -0.7461 -2.4517  1.0468
 9095SOL     OW33120   4.958   6.447   0.713  0.5336 -0.2940  0.5301
 9095SOL    HW133121   5.023   6.471   0.779  0.4518  0.3449  0.3935
 9095SOL    HW233122   4.937   6.356   0.731  3.2829 -1.3313 -0.9249
 9096SOL     OW33123   4.768   4.883   4.298 -0.2024 -0.0572  0.1910
 9096SOL    HW133124   4.857   4.875   4.332  0.1701 -0.9365 -0.9345
 9096SOL    HW233125   4.773   4.955   4.235  0.1039 -1.0872 -1.0018
 9097SOL     OW33126   8.748   4.053   4.541  0.0806 -0.0741  0.3246
 9097SOL    HW133127   8.811   3.982   4.535  0.2928  0.0060  1.4552
 9097SOL    HW233128   8.796   4.131   4.512  0.7501  0.1202  1.8638
 9098SOL     OW33129   6.762   4.359   7.999 -0.1083 -0.1340 -0.4359
 9098SOL    HW133130   6.679   4.342   8.045  0.0706 -0.5426 -0.2631
 9098SOL    HW233131   6.755   4.450   7.971 -0.0161  0.2704  0.8204
 9099SOL     OW33132   4.916   0.058   4.136 -0.2492 -0.4495 -0.4329
 9099SOL    HW133133   4.914   0.119   4.062  0.7291  1.5306  1.0649
 9099SOL    HW233134   5.002   0.016   4.130  0.7731  1.3403  0.7257
 9100SOL     OW33135   3.262   1.866   1.397  0.4966  0.0712 -0.2732
 9100SOL    HW133136   3.283   1.956   1.373 -1.4451  0.7145  0.3194
 9100SOL    HW233137   3.180   1.872   1.445  0.0255 -2.0830 -0.7192
 9101SOL     OW33138   5.218   6.168   3.578  0.3334  0.2604 -0.2065
 9101SOL    HW133139   5.285   6.190   3.513  0.6460  0.6772  0.2518
 9101SOL    HW233140   5.263   6.111   3.641 -0.1131 -0.5953 -0.6405
 9102SOL     OW33141   3.777   4.622   0.133 -0.0921 -0.2899 -0.4691
 9102SOL    HW133142   3.765   4.685   0.204 -0.5258 -0.3370 -0.4952
 9102SOL    HW233143   3.863   4.583   0.150 -0.2786 -0.4464  0.1451
 9103SOL     OW33144   8.073   8.859   7.122  0.0207 -0.0352 -0.7034
 9103SOL    HW133145   8.078   8.772   7.082 -0.2293  0.4088 -1.7350
 9103SOL    HW233146   8.082   8.920   7.049  1.4776  0.8391  0.1463
 9104SOL     OW33147   7.833   5.739   8.550 -0.2647 -0.4398  0.4403
 9104SOL    HW133148   7.926   5.746   8.570 -0.5963  1.0046  1.6611
 9104SOL    HW233149   7.799   5.829   8.559 -1.6606 -0.8276 -0.5599
 9105SOL     OW33150   8.518   7.938   1.180  0.3411  0.3142 -0.1676
 9105SOL    HW133151   8.470   8.016   1.211  0.2149  0.2111 -0.1004
 9105SOL    HW233152   8.459   7.898   1.116 -0.6626 -1.0482  1.5056
 9106SOL     OW33153   7.062   0.550   3.635  0.6843 -0.0937  0.2209
 9106SOL    HW133154   7.121   0.484   3.599  0.2707 -1.0550  1.2201
 9106SOL    HW233155   6.999   0.500   3.686 -1.2681  0.8653 -1.1407
 9107SOL     OW33156   0.324   5.202   6.478 -0.0742  0.1078 -0.1294
 9107SOL    HW133157   0.304   5.296   6.488 -1.0181 -0.1481  0.5957
 9107SOL    HW233158   0.260   5.171   6.414  2.1673  0.5312 -2.7146
 9108SOL     OW33159  10.109   3.592   1.530  0.2244 -0.2466  0.0505
 9108SOL    HW133160  10.078   3.656   1.595  1.0187 -0.2457  0.4370
 9108SOL    HW233161  10.041   3.592   1.463  0.0977  0.8277  0.1669
 9109SOL     OW33162   7.983   4.776   6.263 -0.1683 -0.0074  0.0039
 9109SOL    HW133163   7.889   4.775   6.277  0.1938 -1.3847  3.1729
 9109SOL    HW233164   8.011   4.863   6.292 -0.4182  0.4850 -1.1492
 9110SOL     OW33165  10.633   5.963   2.329  0.1192 -0.0714 -0.1264
 9110SOL    HW133166  10.613   5.963   2.236  0.3594 -0.0214 -0.1800
 9110SOL    HW233167  10.718   6.007   2.335  1.8906 -3.1894 -0.2663
 9111SOL     OW33168   1.812   1.504   8.426  0.7027  0.2671 -0.3124
 9111SOL    HW133169   1.765   1.547   8.497 -0.3982  3.0817 -2.5287
 9111SOL    HW233170   1.863   1.574   8.386  1.5744 -1.2860 -2.0810
 9112SOL     OW33171   1.456   9.994   2.484  0.0266 -0.1046  0.4327
 9112SOL    HW133172   1.496   9.956   2.406  1.6847  0.8503  0.7464
 9112SOL    HW233173   1.468   9.928   2.552  0.5728 -0.0630  0.3824
 9113SOL     OW33174   8.687   8.753  10.208  0.2040 -0.0533  0.2122
 9113SOL    HW133175   8.616   8.691  10.224  1.9687 -1.7401  2.0748
 9113SOL    HW233176   8.678   8.818  10.278 -1.6035  1.9257 -1.6980
 9114SOL     OW33177   6.100   9.543   2.690 -0.4515 -0.1347  0.5108
 9114SOL    HW133178   6.183   9.581   2.719 -1.3530  2.3327  0.0830
 9114SOL    HW233179   6.033   9.590   2.741 -1.6609 -1.3353  0.0966
 9115SOL     OW33180   0.607   9.256   6.025  0.6063  0.0887 -0.6233
 9115SOL    HW133181   0.533   9.246   5.964  1.0947 -1.5299 -1.0195
 9115SOL    HW233182   0.652   9.334   5.995  0.9937 -0.8215 -2.5950
 9116SOL     OW33183   2.425   8.862   1.918  0.4658  0.3179  0.2527
 9116SOL    HW133184   2.506   8.914   1.916  0.7196  0.0181  1.5582
 9116SOL    HW233185   2.442   8.794   1.984  0.0085 -1.2145 -1.1306
 9117SOL     OW33186   2.432   6.378   8.111 -0.1381 -0.1093  0.3302
 9117SOL    HW133187   2.409   6.440   8.042  1.3885 -0.3245 -0.4000
 9117SOL    HW233188   2.527   6.384   8.119 -0.2342 -0.2584  2.2692
 9118SOL     OW33189   6.733   4.795   1.214  0.8741 -0.1837  0.7354
 9118SOL    HW133190   6.723   4.841   1.131  2.5269 -1.2378 -0.1058
 9118SOL    HW233191   6.787   4.854   1.268 -0.1961  0.4990  1.0899
 9119SOL     OW33192   5.465   8.023   7.947 -0.3551  0.9594 -0.2939
 9119SOL    HW133193   5.403   7.988   7.884 -1.4562  3.1423 -0.5201
 9119SOL    HW233194   5.412   8.078   8.005  1.1964  2.0137  0.1826
 9120SOL     OW33195   1.247   8.025   4.025  0.6017 -0.2000  0.1549
 9120SOL    HW133196   1.190   8.036   3.949  0.1436 -0.3576  0.4760
 9120SOL    HW233197   1.266   7.931   4.026  2.7883  0.1252 -1.3338
 9121SOL     OW33198   1.999   4.818   0.079  0.1611  0.2040 -0.6184
 9121SOL    HW133199   1.955   4.903   0.080 -1.4381 -0.5232  2.3608
 9121SOL    HW233200   1.931   4.756   0.052  0.9241 -0.3553 -1.3335
 9122SOL     OW33201  10.567   9.175   3.887 -0.3714  0.0682 -0.6142
 9122SOL    HW133202  10.539   9.132   3.807  0.0648  1.0554 -1.3204
 9122SOL    HW233203  10.658   9.147   3.898 -0.6949 -0.7906  0.0617
 9123SOL     OW33204   0.753   4.065   2.176 -0.5452  0.3434  0.1928
 9123SOL    HW133205   0.798   3.990   2.215 -0.7746  0.5460  0.8597
 9123SOL    HW233206   0.679   4.082   2.235 -0.7210  0.8494 -0.1682
 9124SOL     OW33207   7.172  10.448   1.849  0.4078 -0.4305 -0.0404
 9124SOL    HW133208   7.092  10.486   1.885  1.9363  0.2425  2.9546
 9124SOL    HW233209   7.177  10.361   1.888 -0.0299 -1.4504 -2.1449
 9125SOL     OW33210   9.382   6.211   1.145 -0.0141  0.4272  0.2965
 9125SOL    HW133211   9.334   6.292   1.162  1.2726  1.5870 -1.3168
 9125SOL    HW233212   9.474   6.235   1.155  0.4298 -0.6399 -0.9016
 9126SOL     OW33213   4.390   4.977   5.833  0.2643  0.1569 -0.0720
 9126SOL    HW133214   4.426   4.972   5.744 -1.2989  0.0663 -0.7302
 9126SOL    HW233215   4.346   5.062   5.836  0.5451  0.2809  0.7227
 9127SOL     OW33216  10.626   8.873   0.604  0.5335 -0.3811 -0.0795
 9127SOL    HW133217  10.671   8.879   0.520  2.2203 -0.0372  0.7923
 9127SOL    HW233218  10.696   8.850   0.666 -0.8172 -1.4921  1.0887
 9128SOL     OW33219   8.077   9.227  10.705 -0.3174 -0.1141  0.1919
 9128SOL    HW133220   7.998   9.258  10.660  1.1218  2.0008 -1.0573
 9128SOL    HW233221   8.132   9.192  10.635  0.1337 -1.0440  0.9756
 9129SOL     OW33222   1.330   7.268   5.163  0.2670 -0.4329  0.7822
 9129SOL    HW133223   1.308   7.361   5.160  0.2351 -0.4615 -0.3028
 9129SOL    HW233224   1.289   7.236   5.244 -0.3236  0.3394  0.7992
 9130SOL     OW33225   0.062   5.967   1.056  0.0901  0.1584 -0.6322
 9130SOL    HW133226  -0.012   5.920   1.016 -0.6476  0.5383  0.2526
 9130SOL    HW233227   0.119   5.989   0.983 -1.1926  0.7851 -1.4740
 9131SOL     OW33228   5.299   2.861   2.386  0.5710  0.0395 -0.0865
 9131SOL    HW133229   5.285   2.770   2.360 -1.6748  0.3327 -0.0815
 9131SOL    HW233230   5.394   2.873   2.380  0.8879 -2.1865 -0.4175
 9132SOL     OW33231   5.750   0.373  10.283 -0.4398  0.5922 -0.6426
 9132SOL    HW133232   5.679   0.340  10.339  0.7827 -0.8067  0.1621
 9132SOL    HW233233   5.766   0.303  10.221 -0.3814  1.2969 -1.4410
 9133SOL     OW33234   0.640   7.060   3.345  0.0399  0.0538  0.0061
 9133SOL    HW133235   0.608   7.142   3.381  0.9177  0.6047 -0.4497
 9133SOL    HW233236   0.731   7.078   3.319 -0.1582 -0.6806 -1.2873
 9134SOL     OW33237   5.528   4.257   4.410  0.2345  0.3325  0.2947
 9134SOL    HW133238   5.492   4.168   4.417 -0.0168  0.4553  0.5748
 9134SOL    HW233239   5.546   4.268   4.317 -1.1034  0.5184  0.0390
 9135SOL     OW33240   6.917   9.387   1.630  0.4142 -0.0706 -0.2733
 9135SOL    HW133241   6.922   9.347   1.717  0.6576 -0.0779 -0.2891
 9135SOL    HW233242   6.910   9.314   1.570 -0.9788 -0.0324 -0.1840
 9136SOL     OW33243   7.544   6.649   4.328 -0.1225 -0.0668  0.7907
 9136SOL    HW133244   7.622   6.660   4.382  0.0694 -0.1830  0.5343
 9136SOL    HW233245   7.558   6.705   4.252  0.2321 -0.9754  0.1767
 9137SOL     OW33246   3.143   2.065   6.451  0.1891 -0.1162 -0.2407
 9137SOL    HW133247   3.154   2.056   6.357  0.3085  1.0960 -0.3559
 9137SOL    HW233248   3.230   2.087   6.484 -0.4360  2.7958 -0.2983
 9138SOL     OW33249   4.643   1.720   9.254 -0.2605 -0.1536 -0.3942
 9138SOL    HW133250   4.607   1.681   9.333 -0.8376 -2.3283 -1.6179
 9138SOL    HW233251   4.738   1.722   9.269 -0.4926  1.5201  1.1490
 9139SOL     OW33252  10.139   7.923   1.010 -0.3578  0.8094  0.5721
 9139SOL    HW133253  10.133   8.017   1.027 -0.7720  0.9999 -0.5723
 9139SOL    HW233254  10.232   7.909   0.990 -0.6887  1.4389 -1.6876
 9140SOL     OW33255   2.057   5.187   3.320  0.2740 -0.0927 -0.2334
 9140SOL    HW133256   2.061   5.097   3.286  1.9696 -0.4163  0.7160
 9140SOL    HW233257   1.999   5.180   3.396 -1.9863  0.2639 -1.7977
 9141SOL     OW33258   5.350   1.230   8.380 -0.1977  0.4935 -0.1287
 9141SOL    HW133259   5.379   1.229   8.289  0.3156 -0.2489  0.0374
 9141SOL    HW233260   5.274   1.289   8.380 -0.4915  0.1299 -1.1209
 9142SOL     OW33261   4.958   0.861   3.965  0.1814  0.2673  0.1692
 9142SOL    HW133262   4.969   0.912   4.046 -1.3044 -1.5843  1.6189
 9142SOL    HW233263   4.865   0.868   3.945  0.5371  0.7623 -1.4862
 9143SOL     OW33264   1.375   1.129  10.229  0.3132 -0.5340  0.6087
 9143SOL    HW133265   1.324   1.062  10.274  1.0318 -1.6877 -0.2333
 9143SOL    HW233266   1.310   1.193  10.201 -0.2718 -0.3514  2.2766
 9144SOL     OW33267   7.025   0.954   0.688 -0.3641  0.4177 -0.0880
 9144SOL    HW133268   7.092   0.922   0.627 -1.0198 -0.6903 -0.2447
 9144SOL    HW233269   7.075   1.005   0.753  0.5574  0.1110 -0.5353
 9145SOL     OW33270   3.175   6.604   1.734 -0.0537 -0.1165  0.9439
 9145SOL    HW133271   3.212   6.579   1.650  1.4035  0.1644  1.4715
 9145SOL    HW233272   3.080   6.596   1.722  0.0937  0.3871 -0.8628
 9146SOL     OW33273   0.276   1.099   6.057 -0.1902  0.4104  0.2062
 9146SOL    HW133274   0.308   1.021   6.104  2.5890  1.8128  0.8477
 9146SOL    HW233275   0.308   1.087   5.968  0.2592  0.7914  0.3108
 9147SOL     OW33276  10.051   3.877   1.229 -0.0904 -0.0815  0.1151
 9147SOL    HW133277  10.086   3.922   1.306 -0.0865 -1.2874  0.8404
 9147SOL    HW233278  10.088   3.789   1.233 -1.6053 -0.7672 -0.2135
 9148SOL     OW33279   9.799   8.500   5.021  0.0611 -0.2259 -0.4905
 9148SOL    HW133280   9.863   8.539   4.961 -0.8637  0.9957 -0.7165
 9148SOL    HW233281   9.853   8.455   5.087  1.1113 -0.5532 -1.5249
 9149SOL     OW33282   0.440   9.245   0.745 -0.0796 -0.0521 -0.6562
 9149SOL    HW133283   0.517   9.199   0.711  2.1370  0.8478  2.7134
 9149SOL    HW233284   0.377   9.176   0.765  1.3928 -1.2161  0.0935
 9150SOL     OW33285   8.441   6.179   3.101 -0.1053 -0.0158 -0.3878
 9150SOL    HW133286   8.477   6.162   3.188 -0.7101  0.3343 -0.0666
 9150SOL    HW233287   8.437   6.092   3.060  1.0639 -0.0679 -0.4246
 9151SOL     OW33288   6.407   3.799   5.720 -0.2962  0.7174  0.1222
 9151SOL    HW133289   6.399   3.884   5.763 -4.7774  1.0567 -0.9334
 9151SOL    HW233290   6.341   3.800   5.651  1.2564 -2.7167 -1.6962
 9152SOL     OW33291   2.621   0.261   0.316  0.3478 -0.1149  0.3219
 9152SOL    HW133292   2.570   0.286   0.239 -0.0427  1.0332  0.9347
 9152SOL    HW233293   2.572   0.296   0.390  1.6151  0.3167  0.9862
 9153SOL     OW33294   1.947   1.368   1.978  0.2173  0.3086  0.3648
 9153SOL    HW133295   2.006   1.423   2.031 -0.3949  2.7556 -1.3135
 9153SOL    HW233296   2.002   1.338   1.906  0.0261  0.4930  0.1429
 9154SOL     OW33297   3.257  10.707   0.263  0.1694 -0.1317  0.1850
 9154SOL    HW133298   3.208  10.658   0.330  1.3747 -0.6717  0.6932
 9154SOL    HW233299   3.298  10.779   0.311  0.1415  0.1324 -0.1795
 9155SOL     OW33300   5.609   1.062   1.651  0.3761  0.3166  0.1060
 9155SOL    HW133301   5.596   0.983   1.703 -1.6529  1.9287  2.2704
 9155SOL    HW233302   5.524   1.080   1.612  0.5896  1.7720  0.2303
 9156SOL     OW33303   6.122   6.760   5.137  0.4611 -0.9507  0.1279
 9156SOL    HW133304   6.193   6.698   5.122  0.0902 -1.1750 -0.7834
 9156SOL    HW233305   6.097   6.746   5.228  1.0777 -1.4062  0.2345
 9157SOL     OW33306   8.759   6.444   6.038  0.9084  0.4009  0.0942
 9157SOL    HW133307   8.806   6.371   6.079  0.8952  0.9047  1.0334
 9157SOL    HW233308   8.702   6.402   5.973 -2.1143 -0.9649  3.2754
 9158SOL     OW33309   8.173   0.856   4.206  0.1367  0.2663 -0.6206
 9158SOL    HW133310   8.113   0.873   4.279 -0.5266  0.2555 -1.1511
 9158SOL    HW233311   8.231   0.932   4.203  0.0203  0.3703 -0.2254
 9159SOL     OW33312   5.050   5.023   0.411  0.1943  0.1535  0.1535
 9159SOL    HW133313   5.086   5.092   0.356 -1.1781  1.8907  1.3548
 9159SOL    HW233314   4.958   5.046   0.422  0.3866 -0.1265  3.1018
 9160SOL     OW33315   0.160   4.859   3.180  0.2700  0.1197  0.1516
 9160SOL    HW133316   0.198   4.934   3.226  0.0098 -0.4953  1.3920
 9160SOL    HW233317   0.203   4.783   3.218  0.4943 -0.3951 -1.0656
 9161SOL     OW33318   0.424  10.019  10.070  0.1077 -0.1943  0.1169
 9161SOL    HW133319   0.503   9.998  10.120 -0.7345 -0.8998  1.1946
 9161SOL    HW233320   0.401  10.107  10.097 -0.3407 -0.5720  0.9725
 9162SOL     OW33321   8.300   1.641   5.839 -0.7319  0.8445  0.1705
 9162SOL    HW133322   8.253   1.613   5.761  0.4303 -2.2211  0.4509
 9162SOL    HW233323   8.392   1.639   5.814 -0.4414  4.3883  0.3619
 9163SOL     OW33324   6.665   2.315   3.877  0.4429 -0.2240 -0.8363
 9163SOL    HW133325   6.652   2.408   3.894 -0.9931 -0.1673 -2.0882
 9163SOL    HW233326   6.713   2.312   3.795  2.0397 -0.5975  0.0645
 9164SOL     OW33327   5.868   9.163   8.385 -0.2119  0.4903 -0.2980
 9164SOL    HW133328   5.829   9.143   8.470 -1.4115  0.6952 -0.7881
 9164SOL    HW233329   5.948   9.110   8.382  0.4486  1.3289  1.4153
 9165SOL     OW33330   2.829   8.252   4.795  0.2621  0.0193  0.5181
 9165SOL    HW133331   2.842   8.173   4.848 -0.0747 -0.9033 -0.7263
 9165SOL    HW233332   2.882   8.237   4.717  0.1175  0.9918  0.2268
 9166SOL     OW33333   2.942   0.873   8.200  0.6835  0.2775 -0.3178
 9166SOL    HW133334   3.025   0.888   8.156  0.2879  0.7746 -0.9117
 9166SOL    HW233335   2.882   0.846   8.131  0.1619  0.6573 -0.0190
 9167SOL     OW33336   4.654   2.131   6.091 -0.3991  0.0166 -0.0652
 9167SOL    HW133337   4.651   2.192   6.165  1.5265  2.1247 -1.6033
 9167SOL    HW233338   4.721   2.067   6.115  2.0840  2.1515 -0.9061
 9168SOL     OW33339   6.291   5.095   7.136  0.7167 -0.1543 -0.6058
 9168SOL    HW133340   6.244   5.172   7.167 -0.2328 -0.8192 -0.3491
 9168SOL    HW233341   6.324   5.120   7.049  0.0224  0.3770 -0.7236
 9169SOL     OW33342   1.349   3.114   2.119  0.0565 -0.0674  0.2798
 9169SOL    HW133343   1.439   3.105   2.149  0.2664 -0.6763 -0.4810
 9169SOL    HW233344   1.357   3.127   2.024 -0.6881 -0.8866  0.0982
 9170SOL     OW33345   9.026  10.003   2.628  0.0079  0.0348 -0.2862
 9170SOL    HW133346   8.991   9.947   2.698  1.1344  0.5179  0.6878
 9170SOL    HW233347   8.991   9.965   2.548 -1.1107 -0.6880  0.5139
 9171SOL     OW33348   6.069   2.732   6.100 -0.6343 -0.0382  0.1029
 9171SOL    HW133349   6.033   2.766   6.018  0.5307 -1.1257 -0.8899
 9171SOL    HW233350   6.128   2.802   6.130 -0.8859  0.2653 -0.0989
 9172SOL     OW33351   1.383   9.585   6.313 -0.2505  0.0612  0.2340
 9172SOL    HW133352   1.394   9.677   6.338 -1.3888 -0.0517  1.1842
 9172SOL    HW233353   1.365   9.539   6.395  1.0670 -1.1543 -0.1206
 9173SOL     OW33354  10.322   1.880   2.622 -0.2162  0.1628 -0.2878
 9173SOL    HW133355  10.310   1.973   2.603  1.9484  0.6766  0.5361
 9173SOL    HW233356  10.411   1.874   2.655 -0.6340 -2.0832  0.6033
 9174SOL     OW33357  10.117   6.036   2.742  0.0933 -0.2474 -0.4652
 9174SOL    HW133358  10.101   6.090   2.665  2.5207  1.2539 -0.0261
 9174SOL    HW233359  10.133   5.948   2.708  1.9650  0.5641 -1.8179
 9175SOL     OW33360   0.476   3.158   6.457  0.6917  0.1738  0.0731
 9175SOL    HW133361   0.444   3.091   6.518 -0.7600  1.0642  0.3484
 9175SOL    HW233362   0.452   3.124   6.371 -0.3262  0.4447  0.2296
 9176SOL     OW33363   7.727   8.264   2.913  0.1162  0.1491  0.6491
 9176SOL    HW133364   7.714   8.298   3.001  1.1817 -1.7992  1.6077
 9176SOL    HW233365   7.731   8.169   2.923 -0.4148 -0.1777 -1.6022
 9177SOL     OW33366   4.009   0.031   4.735  0.3394  0.2360  0.3850
 9177SOL    HW133367   4.002   0.120   4.768  0.8926 -0.1282  1.5515
 9177SOL    HW233368   4.099   0.006   4.754 -0.0601 -0.8730  0.9081
 9178SOL     OW33369  10.430   2.009   0.566  0.0931 -0.5835 -0.1904
 9178SOL    HW133370  10.464   1.949   0.501 -0.7877 -0.9020 -0.3672
 9178SOL    HW233371  10.391   2.080   0.515 -0.6425 -0.8584 -0.0234
 9179SOL     OW33372   0.726   6.343   9.078 -0.0718  0.1623  0.1655
 9179SOL    HW133373   0.725   6.404   9.004  0.3644  0.2870  0.2566
 9179SOL    HW233374   0.735   6.257   9.037 -0.4563  0.1745  0.0476
 9180SOL     OW33375   9.579  10.498   1.550 -0.1217  0.0514 -0.0721
 9180SOL    HW133376   9.591  10.425   1.611  0.2601  1.0520  1.0952
 9180SOL    HW233377   9.663  10.504   1.503 -1.0989 -2.0774 -2.3406
 9181SOL     OW33378   2.662   2.491  10.459  0.5816 -0.1357 -0.3082
 9181SOL    HW133379   2.751   2.523  10.470  0.4525  0.2173 -0.2995
 9181SOL    HW233380   2.664   2.443  10.376  0.8094 -0.2333 -0.2468
 9182SOL     OW33381   3.497   7.070   0.772  0.3812 -0.1687 -0.6484
 9182SOL    HW133382   3.446   7.117   0.838  0.3246 -0.9896 -0.1076
 9182SOL    HW233383   3.582   7.114   0.773  0.7775 -0.9041  0.8118
 9183SOL     OW33384   3.479   6.384   1.995  0.1643  0.0722  0.6404
 9183SOL    HW133385   3.419   6.309   1.995  0.0792  0.1185  1.7490
 9183SOL    HW233386   3.421   6.460   2.003  0.2159  0.3131 -0.9681
 9184SOL     OW33387   0.996   9.023   0.595 -0.6815 -0.1115  0.3451
 9184SOL    HW133388   0.969   8.933   0.615 -0.3958 -0.1430  0.5939
 9184SOL    HW233389   1.056   9.014   0.520 -1.4875 -0.0248 -0.3230
 9185SOL     OW33390   6.953   6.354   1.762 -0.2858 -0.4253  0.0129
 9185SOL    HW133391   6.972   6.437   1.718 -1.2638  0.0303  0.4231
 9185SOL    HW233392   6.881   6.374   1.821  1.2741 -0.9045  2.2066
 9186SOL     OW33393  10.092   1.234   1.466  0.3971 -0.0086 -0.2884
 9186SOL    HW133394  10.017   1.242   1.526  0.6144  0.0491 -0.0215
 9186SOL    HW233395  10.082   1.147   1.428  1.1792 -0.7484  1.1097
 9187SOL     OW33396   9.808   8.911   4.733 -0.6847 -0.7162  0.0877
 9187SOL    HW133397   9.887   8.964   4.721 -0.7750 -0.0368  2.1478
 9187SOL    HW233398   9.799   8.863   4.650  1.7983 -0.7130 -0.2784
 9188SOL     OW33399   4.982   9.231   8.995 -0.3300 -0.5716  0.2167
 9188SOL    HW133400   5.060   9.278   9.022 -0.7860 -0.3269  1.1426
 9188SOL    HW233401   4.975   9.158   9.057 -0.6354 -0.8021 -0.0818
 9189SOL     OW33402   6.198   6.802   8.532 -0.6606 -0.2212 -0.0124
 9189SOL    HW133403   6.152   6.723   8.561 -0.7901 -0.6775 -1.3880
 9189SOL    HW233404   6.273   6.769   8.483  0.1897  0.5230  0.7494
 9190SOL     OW33405   3.858   4.068   4.346 -0.0592  0.2576  0.2484
 9190SOL    HW133406   3.810   4.090   4.266  0.1917 -0.2127 -0.0362
 9190SOL    HW233407   3.909   3.990   4.323  1.1619  0.9708  0.4061
 9191SOL     OW33408   1.838   3.535   5.934 -0.3175  0.3576  0.0759
 9191SOL    HW133409   1.772   3.486   5.885  1.2591 -0.7216 -1.0740
 9191SOL    HW233410   1.842   3.620   5.892  0.4813 -0.3020 -1.2497
 9192SOL     OW33411   2.137   9.704   2.946 -0.7251  0.6070 -0.3304
 9192SOL    HW133412   2.221   9.659   2.935  0.0185  1.5552  1.1687
 9192SOL    HW233413   2.078   9.636   2.979 -0.4435  0.0389 -0.9680
 9193SOL     OW33414   5.939   5.742   7.846 -0.0494 -0.7369  0.0781
 9193SOL    HW133415   5.863   5.714   7.795  0.5006 -0.6122 -0.8451
 9193SOL    HW233416   6.007   5.757   7.780  0.1017  1.3557  0.6416
 9194SOL     OW33417   3.244   8.206   7.589 -0.0618 -0.2608  0.0169
 9194SOL    HW133418   3.321   8.168   7.547  1.4663  2.6485 -0.0214
 9194SOL    HW233419   3.218   8.278   7.531 -1.9430 -0.2718  0.7785
 9195SOL     OW33420   8.389   7.597   5.929  0.0341  0.5598 -0.3200
 9195SOL    HW133421   8.295   7.580   5.932 -0.3356  2.2515 -0.9601
 9195SOL    HW233422   8.415   7.608   6.021 -0.7452  1.6901 -0.2189
 9196SOL     OW33423   3.227   4.669   8.978 -0.1055 -0.1696 -0.0553
 9196SOL    HW133424   3.157   4.608   9.002 -0.0312 -0.3222 -0.2187
 9196SOL    HW233425   3.195   4.754   9.006  1.0646 -0.6105  3.0497
 9197SOL     OW33426   4.502   7.916   8.087 -0.8592  0.1234  0.1505
 9197SOL    HW133427   4.554   7.996   8.080 -1.4515  0.4414 -0.8210
 9197SOL    HW233428   4.558   7.854   8.133  0.0579  0.7238 -0.1495
 9198SOL     OW33429   3.461   0.530   6.824 -0.0669 -0.6518  0.3130
 9198SOL    HW133430   3.460   0.527   6.919 -2.0090  1.0164  0.4291
 9198SOL    HW233431   3.393   0.468   6.797  1.3946 -2.1373 -0.1017
 9199SOL     OW33432   8.572   9.194   5.924 -0.9533  0.8765 -0.0592
 9199SOL    HW133433   8.501   9.149   5.878 -0.9253  0.7389  0.0313
 9199SOL    HW233434   8.640   9.127   5.935 -0.1577  1.3952 -1.5173
 9200SOL     OW33435   8.507   7.164  10.209 -0.3723  0.1295  0.0268
 9200SOL    HW133436   8.575   7.097  10.201 -0.3052  0.1961  0.0432
 9200SOL    HW233437   8.510   7.212  10.127  0.2188  0.7196  0.3917
 9201SOL     OW33438   2.811   5.731   3.686  0.0197  0.5517  0.1656
 9201SOL    HW133439   2.853   5.678   3.753 -0.7801 -1.2964 -0.7369
 9201SOL    HW233440   2.722   5.697   3.680 -0.2773  1.4571 -1.0267
 9202SOL     OW33441   8.818   3.678   1.494 -0.4369  0.3213 -0.1948
 9202SOL    HW133442   8.904   3.694   1.455 -0.9878 -1.4785 -2.3400
 9202SOL    HW233443   8.755   3.700   1.425 -1.5792 -0.6494  0.4858
 9203SOL     OW33444   5.130   4.620   8.372 -0.6022  0.2320  0.5823
 9203SOL    HW133445   5.036   4.634   8.365 -0.8229 -1.0981  0.7889
 9203SOL    HW233446   5.166   4.666   8.296 -1.4152  0.6520  0.4370
 9204SOL     OW33447   5.404   5.396   1.865 -0.1601 -0.1578  0.5824
 9204SOL    HW133448   5.387   5.491   1.865 -1.7554 -0.3834 -0.9700
 9204SOL    HW233449   5.325   5.358   1.825  1.3381 -1.9678 -0.8143
 9205SOL     OW33450   3.207   0.902   8.158 -0.0589 -0.4302 -0.1592
 9205SOL    HW133451   3.215   0.968   8.227 -2.8698 -0.5356  0.3663
 9205SOL    HW233452   3.290   0.908   8.109  0.8963  1.5070  1.5618
 9206SOL     OW33453   4.264   1.200   5.124 -0.3794  0.2802 -0.3304
 9206SOL    HW133454   4.234   1.210   5.034 -1.4280  1.1204  0.0927
 9206SOL    HW233455   4.317   1.278   5.141 -0.3044  0.1928 -0.1625
 9207SOL     OW33456   3.557   8.581   5.775  0.4585  0.6952 -0.3644
 9207SOL    HW133457   3.628   8.633   5.814  0.2962  0.4566  0.2558
 9207SOL    HW233458   3.478   8.611   5.819  0.3427  0.0306 -0.0998
 9208SOL     OW33459   7.835   3.719   1.161 -0.5604  0.0289 -0.2209
 9208SOL    HW133460   7.875   3.785   1.217 -0.3756 -0.5921  0.3906
 9208SOL    HW233461   7.848   3.752   1.072  2.9105 -0.9000 -0.2207
 9209SOL     OW33462   4.137   6.576   5.655 -0.4244  0.1555  0.3882
 9209SOL    HW133463   4.118   6.634   5.728  1.3601 -0.3595  1.3120
 9209SOL    HW233464   4.167   6.634   5.585 -0.5608  0.5082  0.6207
 9210SOL     OW33465   0.052   3.408   5.776 -0.7356  0.2150 -0.5610
 9210SOL    HW133466   0.072   3.493   5.815  2.3121 -0.0535 -1.3306
 9210SOL    HW233467  -0.003   3.364   5.841  1.1161  1.1851  1.7817
 9211SOL     OW33468   5.286   8.040  10.079  0.4905 -0.2079 -0.3767
 9211SOL    HW133469   5.243   8.073  10.158 -0.1504  1.4747 -1.3808
 9211SOL    HW233470   5.379   8.050  10.097  0.3372  2.0919 -0.5511
 9212SOL     OW33471  10.233   6.046   9.112 -0.5159 -0.4210 -0.1139
 9212SOL    HW133472  10.222   6.086   9.026  0.4966  0.2996  0.0727
 9212SOL    HW233473  10.231   6.119   9.173 -0.0004 -0.7932  0.3589
 9213SOL     OW33474   2.866   9.128   2.011 -0.1001 -0.3107  0.7392
 9213SOL    HW133475   2.950   9.169   1.987 -0.6822 -0.1875 -1.3038
 9213SOL    HW233476   2.813   9.200   2.044  0.6623 -0.4420  2.3369
 9214SOL     OW33477   9.379   4.453   3.913 -0.0643  0.1405 -0.6214
 9214SOL    HW133478   9.416   4.377   3.959 -0.6266  0.5060  0.4781
 9214SOL    HW233479   9.353   4.419   3.828  0.4483 -0.7104 -0.4564
 9215SOL     OW33480   1.196   5.771   1.686 -0.0565 -0.3222 -0.3278
 9215SOL    HW133481   1.248   5.776   1.605  0.0551 -0.9295 -0.3008
 9215SOL    HW233482   1.107   5.790   1.658 -0.1739 -1.4274 -0.7705
 9216SOL     OW33483   8.697   9.080   4.837  0.2654 -0.2834  0.3163
 9216SOL    HW133484   8.769   9.019   4.851 -0.7751 -1.6615 -0.1108
 9216SOL    HW233485   8.739   9.161   4.807  1.6421 -0.9551  0.3811
 9217SOL     OW33486   9.210   9.770   3.624 -0.1060 -0.0981  0.5265
 9217SOL    HW133487   9.149   9.842   3.635 -0.2394 -0.2100  0.5243
 9217SOL    HW233488   9.161   9.692   3.652  0.3270 -0.0696  1.3660
 9218SOL     OW33489   3.642   0.888  10.572 -0.1646 -0.1279  0.0040
 9218SOL    HW133490   3.687   0.894  10.487 -0.5211  1.5983 -0.1017
 9218SOL    HW233491   3.604   0.800  10.573  0.1636 -0.3162 -1.4632
 9219SOL     OW33492  10.263   5.299   9.700 -0.2381 -0.6267  0.3514
 9219SOL    HW133493  10.259   5.375   9.642 -1.4348 -0.9848 -0.0748
 9219SOL    HW233494  10.243   5.333   9.787  0.5675 -0.2445  0.3888
 9220SOL     OW33495   9.522   9.128   7.660  0.1923 -0.1864  0.6353
 9220SOL    HW133496   9.493   9.038   7.673 -0.2282  0.1743  2.4277
 9220SOL    HW233497   9.587   9.143   7.729 -1.7428  1.7125  2.2122
 9221SOL     OW33498   1.031   1.573   7.818 -0.1470  0.2164  0.8978
 9221SOL    HW133499   1.033   1.641   7.750 -2.0884  1.1192  1.6886
 9221SOL    HW233500   1.068   1.495   7.775 -1.1148  0.8177 -1.1224
 9222SOL     OW33501   9.295   8.700   2.060 -0.2973 -0.4306 -0.2708
 9222SOL    HW133502   9.384   8.685   2.092 -0.6249  0.0696  0.9304
 9222SOL    HW233503   9.264   8.775   2.110 -1.9922 -1.6175  0.5421
 9223SOL     OW33504   6.622   8.431   4.071  0.6374 -0.4127  0.1002
 9223SOL    HW133505   6.545   8.420   4.126 -0.5960  1.4643 -1.1490
 9223SOL    HW233506   6.589   8.418   3.982  1.4653  1.6024 -0.5463
 9224SOL     OW33507   4.664   8.376   5.352 -0.2209  0.3220  0.5962
 9224SOL    HW133508   4.663   8.285   5.383 -1.6121 -0.1965 -0.8478
 9224SOL    HW233509   4.698   8.426   5.427 -1.1596 -1.1550  2.0869
 9225SOL     OW33510   6.135  10.519   6.956 -0.3402 -0.4382 -0.2207
 9225SOL    HW133511   6.190  10.591   6.925 -1.6471  0.7534  0.1633
 9225SOL    HW233512   6.070  10.506   6.887 -0.6013 -0.7113  0.0723
 9226SOL     OW33513   7.093   8.722   7.693 -0.1475  0.0920 -0.6495
 9226SOL    HW133514   7.075   8.631   7.718 -0.9622  0.7128  1.1641
 9226SOL    HW233515   7.185   8.735   7.716 -0.6706  0.4085  1.4240
 9227SOL     OW33516   3.848  10.028   5.173  0.9353 -0.0482 -0.5300
 9227SOL    HW133517   3.799  10.110   5.185  2.0064  0.3514  1.5357
 9227SOL    HW233518   3.781   9.960   5.174  0.2515  0.6122  0.4612
 9228SOL     OW33519  10.551   4.037   5.504  0.2807 -0.6576  0.4652
 9228SOL    HW133520  10.575   4.083   5.424  2.6913 -1.4785  0.6552
 9228SOL    HW233521  10.629   3.988   5.529 -1.7910 -4.0884  0.8554
 9229SOL     OW33522   7.693   7.865   8.093  0.0556 -0.1708 -0.3253
 9229SOL    HW133523   7.670   7.916   8.170 -0.4453  0.9465 -1.1793
 9229SOL    HW233524   7.751   7.923   8.042 -1.3125 -0.0110 -1.7934
 9230SOL     OW33525  10.636   7.900   7.485  0.0438 -0.1718  0.5438
 9230SOL    HW133526  10.698   7.947   7.429 -0.7846  0.4039  0.0970
 9230SOL    HW233527  10.684   7.822   7.513  1.6816  1.1735  1.7739
 9231SOL     OW33528   5.486   5.048   4.034  0.0467  0.4664 -0.5590
 9231SOL    HW133529   5.476   5.098   3.954  1.3076  1.0923 -0.3598
 9231SOL    HW233530   5.414   4.985   4.033  1.4249 -1.3057 -3.4666
 9232SOL     OW33531   7.701   5.319   8.952  0.8150 -0.0238  0.0866
 9232SOL    HW133532   7.670   5.230   8.934 -0.3864 -0.1447  2.3857
 9232SOL    HW233533   7.788   5.323   8.913  0.1861 -1.6057 -1.5888
 9233SOL     OW33534   5.476   8.771   1.404  0.2373 -0.2555  0.0957
 9233SOL    HW133535   5.519   8.686   1.394  1.7676  0.5643 -0.5970
 9233SOL    HW233536   5.394   8.751   1.448  1.8889 -1.7339  2.7170
 9234SOL     OW33537   2.142   0.910   4.332 -0.4214 -0.1340 -0.4908
 9234SOL    HW133538   2.049   0.904   4.310 -0.6931 -0.5536  0.7025
 9234SOL    HW233539   2.161   0.828   4.377  0.2065  0.4878  0.4012
 9235SOL     OW33540   2.694   9.462   7.446 -0.3761 -0.1620  0.1902
 9235SOL    HW133541   2.753   9.399   7.405 -0.4553  0.9862 -1.8232
 9235SOL    HW233542   2.668   9.421   7.528  0.7245 -2.0761 -0.3627
 9236SOL     OW33543   7.461   2.677   7.076  0.1163 -0.5564  0.4862
 9236SOL    HW133544   7.491   2.596   7.034 -1.2275 -0.1065 -1.4655
 9236SOL    HW233545   7.381   2.652   7.122 -0.5138 -0.2875 -0.4402
 9237SOL     OW33546   3.946   6.990   2.973 -0.1980  0.1575  0.8605
 9237SOL    HW133547   3.857   7.014   2.945  0.1708  1.7265  0.9661
 9237SOL    HW233548   3.946   6.894   2.970 -1.6242  0.1469  0.0237
 9238SOL     OW33549   2.696   4.551  10.419  0.7647  0.3338  0.2362
 9238SOL    HW133550   2.627   4.532  10.356 -0.6756 -1.4678  2.2141
 9238SOL    HW233551   2.762   4.599  10.369 -1.1917  0.7601 -2.1109
 9239SOL     OW33552   3.965   7.856   4.923 -0.5370  0.1131 -0.2670
 9239SOL    HW133553   3.986   7.799   4.850 -0.0995  1.5245 -1.2736
 9239SOL    HW233554   3.903   7.919   4.887 -0.5933  0.6148  0.6768
 9240SOL     OW33555   4.091   7.582   8.735  0.0825 -0.2606 -0.2000
 9240SOL    HW133556   4.039   7.615   8.661  0.7255 -1.1845 -1.0921
 9240SOL    HW233557   4.169   7.637   8.736 -0.3461  0.3612  0.4040
 9241SOL     OW33558   1.022  10.597   0.674  0.5008 -0.1420  0.5412
 9241SOL    HW133559   0.955  10.533   0.697 -0.1200 -0.0130 -0.8501
 9241SOL    HW233560   0.974  10.668   0.631  1.4481  0.2614  0.1161
 9242SOL     OW33561   8.644   8.894   1.989  0.3021  0.1475  0.2649
 9242SOL    HW133562   8.635   8.932   1.902 -2.6473 -0.3568  0.2381
 9242SOL    HW233563   8.665   8.802   1.974 -0.1458  0.0740  0.0570
 9243SOL     OW33564   8.219   0.238   8.201  0.4958  0.2561 -0.4869
 9243SOL    HW133565   8.227   0.203   8.290 -1.0997 -1.6329 -1.0168
 9243SOL    HW233566   8.296   0.294   8.191 -0.1241  1.9295  2.6329
 9244SOL     OW33567   6.668   1.280   2.406  0.0912  0.2057  0.3557
 9244SOL    HW133568   6.752   1.316   2.377 -0.4407  0.9101 -0.3455
 9244SOL    HW233569   6.608   1.354   2.404 -0.5256 -0.2687  0.9645
 9245SOL     OW33570   3.771   8.734   3.373  0.5038 -0.1820 -0.6200
 9245SOL    HW133571   3.745   8.670   3.307 -1.5497  0.8283 -0.8745
 9245SOL    HW233572   3.728   8.705   3.453  0.8841  0.0044 -0.3430
 9246SOL     OW33573   5.370   3.054   9.888  0.0671 -0.2002  0.3571
 9246SOL    HW133574   5.367   2.983   9.951  2.3446  0.7352  1.6166
 9246SOL    HW233575   5.459   3.054   9.854 -0.5977  0.4572 -1.5858
 9247SOL     OW33576   2.249   7.680   5.824  0.1463  0.7010  0.3258
 9247SOL    HW133577   2.262   7.729   5.742  0.8146  0.3988  0.2415
 9247SOL    HW233578   2.238   7.748   5.890  1.0386  0.9853  0.2041
 9248SOL     OW33579   5.699   3.538   0.109  0.5538  0.6188  0.7968
 9248SOL    HW133580   5.783   3.514   0.149  0.6211 -0.4505  0.0716
 9248SOL    HW233581   5.688   3.475   0.038  0.6610  2.7274 -1.2080
 9249SOL     OW33582   4.400   3.574  10.474 -0.0192 -0.5853  0.0901
 9249SOL    HW133583   4.384   3.553  10.566  0.1341 -0.3220  0.1795
 9249SOL    HW233584   4.395   3.670  10.471 -0.4820 -0.6161 -0.2625
 9250SOL     OW33585   4.791  10.217   9.086 -0.2151  0.0024 -0.2790
 9250SOL    HW133586   4.777  10.306   9.118 -0.2383 -0.6824  1.7236
 9250SOL    HW233587   4.703  10.186   9.062 -0.3696  0.1366  0.1016
 9251SOL     OW33588   2.993   0.735   0.472  0.2307  0.2465 -0.1040
 9251SOL    HW133589   3.078   0.773   0.494  0.5827 -1.1271  1.0349
 9251SOL    HW233590   3.010   0.677   0.399  0.3422 -0.2838  0.3402
 9252SOL     OW33591   6.870   7.258   4.625  0.0260 -0.4119  0.0176
 9252SOL    HW133592   6.881   7.165   4.641  0.4823 -0.3042  0.3326
 9252SOL    HW233593   6.776   7.268   4.608 -0.0428 -0.9098  0.0847
 9253SOL     OW33594  10.481   5.573   7.062 -0.1452 -0.3334 -0.4973
 9253SOL    HW133595  10.450   5.561   7.151  1.9610  2.7325  0.8254
 9253SOL    HW233596  10.554   5.634   7.070 -0.4948  0.8805 -4.4229
 9254SOL     OW33597   5.832   1.701   8.791 -0.2219  0.4270 -0.0771
 9254SOL    HW133598   5.843   1.723   8.699  0.5831  0.2354 -0.0331
 9254SOL    HW233599   5.911   1.652   8.814 -0.8076 -0.2808  0.4878
 9255SOL     OW33600   8.401   8.125   4.952 -0.3025 -0.4669 -0.2727
 9255SOL    HW133601   8.344   8.120   4.875 -1.4922  0.1730  0.5240
 9255SOL    HW233602   8.467   8.058   4.938 -0.8729 -0.7833 -1.5554
 9256SOL     OW33603   6.864   0.337   8.222 -0.0418  1.0688 -0.4909
 9256SOL    HW133604   6.776   0.302   8.204 -0.1170  0.0888  1.4570
 9256SOL    HW233605   6.858   0.429   8.199 -1.8866  1.2215  0.3791
 9257SOL     OW33606   2.946   9.911   8.592 -0.0290  0.3140 -0.8483
 9257SOL    HW133607   2.935   9.991   8.540 -0.7826  0.5888 -0.2858
 9257SOL    HW233608   2.878   9.852   8.559  0.4404 -0.0470 -1.1712
 9258SOL     OW33609  10.715   8.504   9.340 -0.3522 -0.8438 -0.3896
 9258SOL    HW133610  10.622   8.520   9.352  0.1011  1.4919  0.5672
 9258SOL    HW233611  10.748   8.487   9.428  0.2522 -0.9279 -0.6285
 9259SOL     OW33612   4.893   2.493   0.492 -0.1443 -0.0860 -0.2096
 9259SOL    HW133613   4.941   2.558   0.544  0.0014  0.2289 -0.7244
 9259SOL    HW233614   4.807   2.486   0.535  0.4146 -0.8018  0.8348
 9260SOL     OW33615   5.052   8.092   6.595 -0.5674  0.0903  0.1598
 9260SOL    HW133616   5.034   8.016   6.540  0.5710 -0.6843  0.8184
 9260SOL    HW233617   5.095   8.155   6.537  2.0856 -1.3289  0.4150
 9261SOL     OW33618  10.638   8.462   6.131 -0.7770 -0.4220  0.2863
 9261SOL    HW133619  10.691   8.393   6.170 -0.2685 -0.6676 -0.8020
 9261SOL    HW233620  10.548   8.428   6.135 -0.5632 -1.0350 -0.0067
 9262SOL     OW33621   7.052   6.634   6.095  0.0677  0.4763 -0.2466
 9262SOL    HW133622   6.993   6.576   6.143  0.5210 -0.2439 -0.5403
 9262SOL    HW233623   6.996   6.704   6.062 -0.7675 -0.5756 -1.1319
 9263SOL     OW33624   4.075   5.256   3.920 -0.7446 -0.8166  0.3253
 9263SOL    HW133625   3.985   5.238   3.890 -0.5379  0.0959 -0.9071
 9263SOL    HW233626   4.124   5.177   3.896 -0.8908 -0.6760 -0.4712
 9264SOL     OW33627   6.540   3.923   4.646  0.5315  0.7947 -0.1916
 9264SOL    HW133628   6.596   3.847   4.630 -0.6345 -0.2047  0.3638
 9264SOL    HW233629   6.452   3.887   4.659  0.0931  2.1565  0.9259
 9265SOL     OW33630   8.920   8.700   9.239 -0.3971 -0.4282  0.1606
 9265SOL    HW133631   8.987   8.763   9.210  1.4250 -2.2716  0.1530
 9265SOL    HW233632   8.893   8.656   9.158 -0.6154 -0.6299  0.3428
 9266SOL     OW33633   5.074   2.240  10.029 -0.4251  0.6055 -0.0035
 9266SOL    HW133634   5.087   2.332  10.007 -1.6112  0.6510 -0.5835
 9266SOL    HW233635   4.985   2.235  10.063 -0.4300 -0.3527 -0.1175
 9267SOL     OW33636   3.914   9.336   7.088  0.5873 -0.1060 -0.4870
 9267SOL    HW133637   3.860   9.414   7.103  0.6478  0.1686 -1.5778
 9267SOL    HW233638   3.996   9.355   7.134  0.0651 -0.1826  0.5082
 9268SOL     OW33639   5.693   1.186   2.677  0.6678  0.0982 -0.2736
 9268SOL    HW133640   5.626   1.122   2.651  1.2752 -1.0384  0.8493
 9268SOL    HW233641   5.659   1.224   2.758  1.2568 -0.3266  0.1834
 9269SOL     OW33642   2.623   5.063  10.195  0.4525  0.3675  0.1252
 9269SOL    HW133643   2.575   5.083  10.275 -0.0793  1.8344 -0.5270
 9269SOL    HW233644   2.715   5.078  10.218  0.2542  1.4218  0.3148
 9270SOL     OW33645   9.973   1.271   0.278 -0.3846  0.1356  0.0135
 9270SOL    HW133646   9.949   1.339   0.343 -1.0926  0.0652 -0.1637
 9270SOL    HW233647   9.976   1.190   0.329  0.8729  0.3512  0.3071
 9271SOL     OW33648  10.511   3.391   9.808 -0.2898  0.7240 -0.8970
 9271SOL    HW133649  10.584   3.437   9.851  0.4015 -0.3912 -0.8438
 9271SOL    HW233650  10.476   3.334   9.875 -0.1626  0.0632 -1.3833
 9272SOL     OW33651   1.313   6.240   9.996  0.0978  0.0888  0.3444
 9272SOL    HW133652   1.271   6.325  10.011  0.4900  0.1492  1.1615
 9272SOL    HW233653   1.393   6.260   9.949  1.0047  0.3681  1.9292
 9273SOL     OW33654   7.822   5.128   4.921 -0.4405 -0.3643  0.1712
 9273SOL    HW133655   7.788   5.043   4.890  0.0565 -0.9990  1.2988
 9273SOL    HW233656   7.896   5.105   4.976 -1.5284  0.6627  2.1847
 9274SOL     OW33657   4.713   2.565   0.309 -0.4789 -1.1540 -0.3252
 9274SOL    HW133658   4.775   2.537   0.376 -2.0498 -0.4484  1.5318
 9274SOL    HW233659   4.743   2.653   0.284 -0.4295 -1.0168  0.2007
 9275SOL     OW33660   5.288   2.499  10.243  0.0771  0.2151  0.2038
 9275SOL    HW133661   5.345   2.468  10.173 -1.6682 -1.1544 -0.7009
 9275SOL    HW233662   5.224   2.428  10.255 -0.1917  0.7588  2.6247
 9276SOL     OW33663   8.899   6.225   2.712  0.5161  0.3755  0.1982
 9276SOL    HW133664   8.944   6.150   2.752 -1.4180 -0.1136  1.5840
 9276SOL    HW233665   8.929   6.300   2.762  0.4442  0.1718  0.5483
 9277SOL     OW33666   7.952   8.446   6.691  0.8012  0.3991  0.0558
 9277SOL    HW133667   7.919   8.371   6.740  0.5119  1.2994  1.2840
 9277SOL    HW233668   8.037   8.465   6.729  0.9511  0.5964 -0.3651
 9278SOL     OW33669   0.444  10.213   0.764 -0.0586  0.1366  0.4029
 9278SOL    HW133670   0.363  10.173   0.795  0.2869 -0.8450  0.0872
 9278SOL    HW233671   0.424  10.247   0.677 -0.1592 -0.0203  0.3655
 9279SOL     OW33672   9.681   1.192   0.389 -0.1869  0.1953  0.0381
 9279SOL    HW133673   9.751   1.248   0.422  1.0065 -1.3357  0.2364
 9279SOL    HW233674   9.674   1.122   0.454 -0.7777 -0.5490 -0.8079
 9280SOL     OW33675   7.464   0.871   0.278  0.5286  0.6623  0.0964
 9280SOL    HW133676   7.372   0.845   0.276  0.5090  0.6829  0.6265
 9280SOL    HW233677   7.484   0.882   0.371  1.5278 -0.9699  0.1108
 9281SOL     OW33678   5.366   4.806   6.106  0.0145 -0.6963  0.0694
 9281SOL    HW133679   5.295   4.805   6.042 -0.5423  1.8039  0.5163
 9281SOL    HW233680   5.374   4.716   6.135 -3.8100 -0.9272  0.8749
 9282SOL     OW33681   6.697   2.595   9.107  0.2700 -0.5417 -0.2868
 9282SOL    HW133682   6.632   2.619   9.173 -0.0506  1.7624 -1.3395
 9282SOL    HW233683   6.751   2.528   9.149 -1.1338 -0.5886  1.5546
 9283SOL     OW33684   6.549   7.545  10.588 -0.1093  0.2276 -0.0197
 9283SOL    HW133685   6.510   7.587  10.511 -2.0785 -2.0427 -0.3963
 9283SOL    HW233686   6.613   7.484  10.552  1.0599  1.1891  0.3742
 9284SOL     OW33687   2.113   9.245   0.859 -0.0020 -0.2048 -0.2886
 9284SOL    HW133688   2.072   9.158   0.866  1.0176 -0.8437 -1.7397
 9284SOL    HW233689   2.045   9.300   0.820  0.2338 -1.1071 -2.1134
 9285SOL     OW33690   2.321   8.153   2.448  0.4307 -0.6027 -0.0314
 9285SOL    HW133691   2.370   8.191   2.521  2.9804 -0.7810 -1.5265
 9285SOL    HW233692   2.230   8.179   2.465  1.0761  0.3484  2.5485
 9286SOL     OW33693   6.131   6.161  10.001 -0.2486  0.0443  0.1719
 9286SOL    HW133694   6.053   6.117   9.968 -0.2160 -1.1496  1.5838
 9286SOL    HW233695   6.196   6.091  10.009  0.1227  0.5128  1.5084
 9287SOL     OW33696   4.096   3.692   0.189 -0.5088 -0.5097 -0.1580
 9287SOL    HW133697   4.154   3.656   0.257 -0.5185  1.2323  0.8274
 9287SOL    HW233698   4.009   3.692   0.229 -0.4591  0.8539  0.0032
 9288SOL     OW33699   6.833   1.168   6.920 -0.1505  0.2905  0.4777
 9288SOL    HW133700   6.916   1.129   6.892  0.1822 -0.0813  1.9083
 9288SOL    HW233701   6.858   1.248   6.965 -0.4659 -0.4215  1.9594
 9289SOL     OW33702   5.230   1.746   7.745 -0.0343 -0.2027  0.1047
 9289SOL    HW133703   5.138   1.729   7.767  0.8464 -1.4031  3.5096
 9289SOL    HW233704   5.233   1.839   7.723 -2.4287 -0.6866 -2.9828
 9290SOL     OW33705   4.901   4.031   4.662 -0.4377 -0.5391 -0.2343
 9290SOL    HW133706   4.873   4.072   4.744  0.5491  0.9741 -0.6153
 9290SOL    HW233707   4.980   3.983   4.685 -0.6578 -0.8509 -0.1246
 9291SOL     OW33708   2.935  10.420  10.646 -1.6548  0.4761  0.1261
 9291SOL    HW133709   2.979  10.359  10.586 -1.4270 -0.4616  1.2113
 9291SOL    HW233710   2.978  10.504  10.631 -0.4991 -0.1000  0.1165
 9292SOL     OW33711   3.588   4.167  10.209 -0.2961 -0.2289 -0.0040
 9292SOL    HW133712   3.507   4.210  10.236  0.3612  1.9606 -1.2801
 9292SOL    HW233713   3.619   4.123  10.288 -1.8490  0.3088  0.9547
 9293SOL     OW33714   0.434   2.205   0.790  0.0418  0.0370  0.2294
 9293SOL    HW133715   0.528   2.217   0.797 -0.0376  1.0258 -0.2227
 9293SOL    HW233716   0.397   2.273   0.846 -0.4061 -1.8961  2.4442
 9294SOL     OW33717   6.691   6.050   2.839  1.3493  0.2367  0.1841
 9294SOL    HW133718   6.692   6.012   2.751 -0.1515  0.6795 -0.0647
 9294SOL    HW233719   6.695   5.975   2.898  0.9754 -0.1604 -0.2851
 9295SOL     OW33720  10.714   3.875   2.836  0.1702 -0.1543 -1.0799
 9295SOL    HW133721  10.643   3.939   2.840  1.1231  0.8817 -0.2755
 9295SOL    HW233722  10.715   3.845   2.745 -1.4369 -0.3763 -1.0575
 9296SOL     OW33723   8.601   3.640   1.782 -0.2808 -0.1870 -0.2963
 9296SOL    HW133724   8.555   3.580   1.840  0.0619  0.3645  0.5684
 9296SOL    HW233725   8.645   3.584   1.718 -0.2543 -0.8310  0.2868
 9297SOL     OW33726   5.367   2.715   5.382  0.0514  0.6319  0.0245
 9297SOL    HW133727   5.390   2.707   5.289 -0.2087 -2.6025  0.1368
 9297SOL    HW233728   5.272   2.716   5.383  0.0248 -0.7060  0.2862
 9298SOL     OW33729   5.854   6.160   4.576  0.0723  0.9148 -0.7237
 9298SOL    HW133730   5.818   6.186   4.661  0.0158 -0.6812 -0.2263
 9298SOL    HW233731   5.854   6.241   4.524  0.4440  1.9981  0.8915
 9299SOL     OW33732   0.890  10.353   7.546  0.4380 -0.1147 -0.4754
 9299SOL    HW133733   0.981  10.366   7.518  0.2396 -2.0747 -2.2318
 9299SOL    HW233734   0.891  10.272   7.596 -0.1904  0.4322  0.4574
 9300SOL     OW33735   7.685   1.065   8.435 -0.8134  0.4699 -0.1522
 9300SOL    HW133736   7.613   1.028   8.383 -0.9503 -1.3279  1.2201
 9300SOL    HW233737   7.665   1.158   8.440 -3.4322 -0.0615  0.7283
 9301SOL     OW33738   4.741   6.261   8.290 -0.4257 -0.3525 -0.1758
 9301SOL    HW133739   4.832   6.233   8.296 -0.3341 -0.1076 -0.3711
 9301SOL    HW233740   4.745   6.346   8.245 -0.7465 -0.3252 -0.1594
 9302SOL     OW33741   5.409   5.793   8.718  0.4841  0.1887 -0.3705
 9302SOL    HW133742   5.393   5.704   8.684 -0.9206 -0.2498  1.3018
 9302SOL    HW233743   5.504   5.798   8.727  0.6758 -0.6952 -1.6331
 9303SOL     OW33744   5.696   4.628   3.470  0.1397  0.3067  0.4052
 9303SOL    HW133745   5.681   4.584   3.387  0.7241 -0.4908  0.7145
 9303SOL    HW233746   5.712   4.557   3.533  2.1636  0.9617  0.7101
 9304SOL     OW33747   7.851   2.967  10.391 -0.0671  0.3899 -0.0461
 9304SOL    HW133748   7.832   2.935  10.303  1.6773  0.6326 -0.5593
 9304SOL    HW233749   7.822   3.058  10.390  1.1953  0.8132 -0.8662
 9305SOL     OW33750  10.347   0.464   9.320 -0.2268 -0.3883 -0.2614
 9305SOL    HW133751  10.341   0.537   9.258  0.3260 -1.1749 -1.2699
 9305SOL    HW233752  10.293   0.395   9.283 -2.0420 -0.0006  1.4835
 9306SOL     OW33753   7.016   7.785   0.597 -0.2234  0.3582  0.8873
 9306SOL    HW133754   6.941   7.801   0.540  0.6176  0.7864 -0.1374
 9306SOL    HW233755   7.085   7.841   0.562  0.3516  0.5921  2.3029
 9307SOL     OW33756   7.358   9.874   7.807  0.3569 -0.3492  0.1284
 9307SOL    HW133757   7.370   9.912   7.894 -1.0575 -1.2403  0.7618
 9307SOL    HW233758   7.301   9.937   7.761 -0.8580 -1.0085  0.6988
 9308SOL     OW33759   6.864   6.390   8.259 -0.1754  0.2701  0.0005
 9308SOL    HW133760   6.950   6.427   8.242  0.2843 -0.6692  0.1975
 9308SOL    HW233761   6.874   6.341   8.341  0.2309 -3.1035 -1.8554
 9309SOL     OW33762   3.719   6.659   7.281  0.4115 -0.6568 -0.1246
 9309SOL    HW133763   3.770   6.701   7.211  0.2019  2.6694  1.5379
 9309SOL    HW233764   3.634   6.641   7.241 -0.0530  2.1063 -0.5947
 9310SOL     OW33765   2.019   2.243   3.713 -0.0290 -0.5790  0.1778
 9310SOL    HW133766   2.019   2.338   3.705  0.9663 -0.6439 -0.8845
 9310SOL    HW233767   2.112   2.219   3.715 -0.2399 -1.6033 -0.9644
 9311SOL     OW33768   4.227   4.557   1.781  0.6102 -0.6174 -0.0420
 9311SOL    HW133769   4.182   4.632   1.818 -1.3037 -2.8483  2.5183
 9311SOL    HW233770   4.320   4.573   1.800  1.0394  3.1856 -3.7980
 9312SOL     OW33771   3.425   9.979   4.131  0.0707  0.4747 -0.1696
 9312SOL    HW133772   3.336   9.993   4.164  0.3936 -2.3502  2.3892
 9312SOL    HW233773   3.414   9.918   4.058 -0.1191 -0.8188  0.8882
 9313SOL     OW33774   5.119   4.579   1.064 -0.3356  0.4307  0.4018
 9313SOL    HW133775   5.090   4.667   1.087 -0.9237  0.7063 -1.3095
 9313SOL    HW233776   5.153   4.544   1.147  1.6967  2.9214  0.7709
 9314SOL     OW33777   2.611   6.876   8.692  0.0442 -0.3072  0.0397
 9314SOL    HW133778   2.547   6.835   8.633 -1.2151  0.9015  0.5044
 9314SOL    HW233779   2.650   6.946   8.639  2.8537 -2.5032 -1.0586
 9315SOL     OW33780  10.333   5.162   5.579 -0.3179 -0.8115 -0.2913
 9315SOL    HW133781  10.301   5.250   5.562  0.7421 -0.0669  1.2964
 9315SOL    HW233782  10.325   5.151   5.674  2.9889 -0.9629  0.0802
 9316SOL     OW33783   5.606   0.444   9.845  0.2021 -0.4683 -0.1916
 9316SOL    HW133784   5.515   0.462   9.870  0.0661 -0.0249 -0.9717
 9316SOL    HW233785   5.656   0.511   9.893  0.0936 -0.5491  0.0381
 9317SOL     OW33786   9.411   6.455   0.825 -0.3435 -0.3029 -0.1210
 9317SOL    HW133787   9.480   6.431   0.764  0.3100  1.3022 -0.0462
 9317SOL    HW233788   9.411   6.551   0.827 -2.0962 -0.2635  0.4254
 9318SOL     OW33789   8.365  10.422   9.424 -0.2407  0.3462 -0.0539
 9318SOL    HW133790   8.272  10.417   9.402  0.1142  1.8954 -2.2590
 9318SOL    HW233791   8.407  10.358   9.366  0.2860  1.4423 -0.9241
 9319SOL     OW33792   9.011   3.912   5.001  0.3205  0.7476  0.3521
 9319SOL    HW133793   9.058   3.846   5.052 -2.7367 -0.7952  1.4123
 9319SOL    HW233794   9.004   3.988   5.058  0.5053  0.5545  0.6309
 9320SOL     OW33795  10.206   4.552   4.167  0.3338  0.2617  0.1840
 9320SOL    HW133796  10.185   4.568   4.258 -2.5597 -1.1540 -0.1245
 9320SOL    HW233797  10.188   4.635   4.122 -0.6641  0.2609  0.5684
 9321SOL     OW33798   0.270   9.796   0.815 -0.2587 -0.3685  0.2083
 9321SOL    HW133799   0.311   9.780   0.730  0.8010 -0.8802  0.8059
 9321SOL    HW233800   0.339   9.779   0.879 -1.0909 -0.1520  1.1867
 9322SOL     OW33801   3.955   2.763   7.380 -0.4322 -0.4918 -0.0104
 9322SOL    HW133802   4.027   2.805   7.429 -0.4688 -1.9226  1.3560
 9322SOL    HW233803   3.979   2.774   7.288  0.1943  1.3499  0.3276
 9323SOL     OW33804   3.283  10.126   9.885  0.6289 -0.0118  0.9873
 9323SOL    HW133805   3.356  10.163   9.935 -0.7291  2.0605  1.5716
 9323SOL    HW233806   3.206  10.171   9.920 -0.7020 -0.6621 -0.9917
 9324SOL     OW33807   5.325   7.314   9.458 -0.0837 -0.0521 -0.4195
 9324SOL    HW133808   5.323   7.403   9.423 -1.0470  0.6424  1.2909
 9324SOL    HW233809   5.395   7.315   9.523 -2.9907  0.9332  3.0189
 9325SOL     OW33810   1.510   4.026   9.120  0.1934  0.6778 -0.0922
 9325SOL    HW133811   1.537   4.055   9.207 -1.2911 -1.6464  1.2679
 9325SOL    HW233812   1.414   4.029   9.123  0.0068 -2.2447 -0.4876
 9326SOL     OW33813   4.713   3.773   3.192 -0.2858 -0.4991 -0.3059
 9326SOL    HW133814   4.783   3.747   3.252  0.5829 -0.6243 -1.3363
 9326SOL    HW233815   4.684   3.690   3.152 -0.5365 -0.3698 -0.3910
 9327SOL     OW33816   4.591   1.407   8.435 -0.3122 -0.3275 -0.0143
 9327SOL    HW133817   4.657   1.454   8.485 -0.6463  0.3758 -0.2215
 9327SOL    HW233818   4.546   1.353   8.500 -1.0280  0.9088  0.5386
 9328SOL     OW33819   4.811   6.037   6.894  0.0850 -0.4206 -0.4548
 9328SOL    HW133820   4.861   5.989   6.960  0.0560  0.5146  0.2801
 9328SOL    HW233821   4.721   6.036   6.927  0.6649  3.9053  2.0910
 9329SOL     OW33822   2.560   7.270   3.030 -0.0106  0.4261  0.0704
 9329SOL    HW133823   2.622   7.343   3.034 -0.7435  1.1060 -0.6401
 9329SOL    HW233824   2.500   7.293   2.959  0.5143 -1.4858 -1.0737
 9330SOL     OW33825   7.522   4.871   3.590 -0.0655  0.5518  0.0971
 9330SOL    HW133826   7.558   4.788   3.560  0.1442  0.6236  0.1526
 9330SOL    HW233827   7.569   4.891   3.671 -1.8517 -0.5403  1.4790
 9331SOL     OW33828   7.460   8.175   3.240 -0.3172 -0.0257  0.0875
 9331SOL    HW133829   7.370   8.201   3.259  0.3362  0.9991  2.0439
 9331SOL    HW233830   7.462   8.081   3.260 -0.7220  0.1450  0.9752
 9332SOL     OW33831   9.994   4.400   2.768  0.3725 -0.5618  1.0404
 9332SOL    HW133832   9.933   4.343   2.815  0.8797 -0.1422  2.2733
 9332SOL    HW233833   9.947   4.425   2.688  0.1173 -2.6190  0.4928
 9333SOL     OW33834   7.207   8.504   1.966 -0.1003 -0.1260 -0.2444
 9333SOL    HW133835   7.248   8.433   1.915 -0.9799 -0.1774 -0.9104
 9333SOL    HW233836   7.204   8.578   1.905 -3.7368 -0.9898 -1.3678
 9334SOL     OW33837   4.541   3.187   1.335  0.2096 -0.5501  0.7089
 9334SOL    HW133838   4.454   3.189   1.295  0.1641  1.5815  0.8043
 9334SOL    HW233839   4.524   3.175   1.428  0.2221 -3.4241  0.4136
 9335SOL     OW33840   9.511   8.957   1.238  0.3391  0.1985  0.1974
 9335SOL    HW133841   9.504   8.878   1.292  0.0475  0.9871  1.3317
 9335SOL    HW233842   9.513   9.029   1.300  2.1602  1.0187 -0.7557
 9336SOL     OW33843   7.002  10.459   6.906  0.2141 -0.1183  0.0940
 9336SOL    HW133844   6.989  10.519   6.832 -2.0906 -0.6842 -0.0343
 9336SOL    HW233845   7.060  10.507   6.965  1.3816  0.7187 -1.6316
 9337SOL     OW33846   1.617   3.215   8.255 -0.2530  0.3985 -0.9671
 9337SOL    HW133847   1.576   3.182   8.335  0.6120 -0.9482 -1.0418
 9337SOL    HW233848   1.690   3.155   8.239  0.9892  2.0046 -1.5115
 9338SOL     OW33849   8.785   9.681   8.368 -0.1857  0.0087 -0.1578
 9338SOL    HW133850   8.782   9.610   8.433  0.4301 -1.4709 -1.6560
 9338SOL    HW233851   8.878   9.689   8.346 -0.1497  1.8602  0.5331
 9339SOL     OW33852   1.985  10.238   6.636 -0.0649  0.2941 -0.5716
 9339SOL    HW133853   1.953  10.226   6.547 -1.8934 -0.7741  0.1686
 9339SOL    HW233854   1.976  10.332   6.653  0.2248  0.4889 -1.4598
 9340SOL     OW33855   7.052  10.515   5.775 -0.3964 -0.5153 -0.4016
 9340SOL    HW133856   7.048  10.605   5.806  1.6829 -0.0757 -1.2746
 9340SOL    HW233857   6.997  10.513   5.697  0.2374  0.2360 -0.8758
 9341SOL     OW33858   1.638   0.710   3.023  0.2800  0.5776  0.2139
 9341SOL    HW133859   1.604   0.774   2.960  0.8307  1.6932  1.0156
 9341SOL    HW233860   1.605   0.741   3.107  1.0446  0.1311  0.6799
 9342SOL     OW33861   1.020   4.927  10.707 -0.2014 -0.1543  0.1690
 9342SOL    HW133862   1.064   4.971  10.633 -0.3456 -0.4757 -0.1099
 9342SOL    HW233863   0.967   4.859  10.666 -0.6578 -0.0232  0.5360
 9343SOL     OW33864   8.695   4.768   8.771  0.1411  0.2351 -0.6073
 9343SOL    HW133865   8.609   4.810   8.766  0.1440  0.3411  0.1786
 9343SOL    HW233866   8.757   4.840   8.758  0.1611  0.6124  1.3815
 9344SOL     OW33867   3.333   1.610   1.317 -0.0058 -0.3194  0.2468
 9344SOL    HW133868   3.299   1.697   1.338  0.9024  0.4311 -1.2941
 9344SOL    HW233869   3.293   1.588   1.233  2.2790  0.0463 -0.9934
 9345SOL     OW33870   0.798   4.853   2.604 -0.3864 -0.2933  0.6738
 9345SOL    HW133871   0.800   4.944   2.574 -1.3560 -0.1123  1.1001
 9345SOL    HW233872   0.706   4.838   2.628 -0.0332 -1.0577  1.6059
 9346SOL     OW33873   8.251   9.777   7.455  0.4006 -0.0452  0.2592
 9346SOL    HW133874   8.311   9.710   7.486 -1.9911 -1.7891  1.4116
 9346SOL    HW233875   8.217   9.818   7.535  0.8979  1.7871 -0.3978
 9347SOL     OW33876   5.517  10.468   1.913 -1.0074  1.0581 -0.5793
 9347SOL    HW133877   5.598  10.471   1.965 -1.0185 -0.2980 -0.4457
 9347SOL    HW233878   5.501  10.559   1.888 -0.2352  1.5423  0.6137
 9348SOL     OW33879   8.303   0.158   0.857 -0.5370  0.6958  0.3282
 9348SOL    HW133880   8.268   0.108   0.784 -0.1202 -0.1122  0.6723
 9348SOL    HW233881   8.331   0.241   0.818  0.7503 -0.1659 -0.6599
 9349SOL     OW33882  10.182   2.917   4.579 -0.7335 -0.6201 -0.7098
 9349SOL    HW133883  10.211   2.836   4.620 -2.1478 -2.3724 -2.9440
 9349SOL    HW233884  10.260   2.951   4.535  0.1796 -0.0014  1.2766
 9350SOL     OW33885   2.259  10.045   4.106 -0.5371 -0.5833 -0.2287
 9350SOL    HW133886   2.305   9.983   4.161 -2.5773 -1.2014  0.8980
 9350SOL    HW233887   2.246  10.122   4.161 -0.1578 -0.0976 -0.8025
 9351SOL     OW33888   2.950   9.068   7.055  0.3196 -0.4427 -0.0837
 9351SOL    HW133889   2.872   9.114   7.086 -0.6644 -1.0302 -1.5614
 9351SOL    HW233890   3.020   9.132   7.062 -0.2841  0.1033  1.2568
 9352SOL     OW33891   7.199   9.575   4.325  0.5655  0.4991  0.0443
 9352SOL    HW133892   7.217   9.549   4.235 -1.4919  0.9647 -0.5600
 9352SOL    HW233893   7.105   9.560   4.336  0.4259  2.1205  1.5237
 9353SOL     OW33894   1.192   8.233   6.748  0.7075 -0.1704 -0.0892
 9353SOL    HW133895   1.248   8.216   6.824 -0.2440 -0.2465  0.6228
 9353SOL    HW233896   1.169   8.325   6.756  1.3376  0.0488 -0.8006
 9354SOL     OW33897   0.948   6.567   1.895 -0.1101 -0.0646  0.1532
 9354SOL    HW133898   0.883   6.569   1.965 -1.8801  0.3605 -1.4140
 9354SOL    HW233899   0.930   6.486   1.848 -0.3202  0.6169 -0.9922
 9355SOL     OW33900   5.402   4.346   0.015  0.2574  0.1331 -0.2264
 9355SOL    HW133901   5.389   4.423  -0.041 -1.2497 -1.0470 -1.5738
 9355SOL    HW233902   5.493   4.320  -0.001  0.6556  1.3351 -0.0761
 9356SOL     OW33903   1.462   8.392   9.773  0.2924 -0.5417 -0.5472
 9356SOL    HW133904   1.382   8.428   9.812  0.9692  0.3266  0.0552
 9356SOL    HW233905   1.511   8.356   9.846  0.9527 -0.0987 -0.7611
 9357SOL     OW33906  10.656   5.549   5.013  0.3517 -0.0051 -0.3223
 9357SOL    HW133907  10.585   5.490   4.989  0.6571 -1.0540  1.1911
 9357SOL    HW233908  10.719   5.543   4.941  0.4846 -1.7456 -0.1025
 9358SOL     OW33909   4.820   5.462   3.404 -0.6210 -0.4255 -0.5197
 9358SOL    HW133910   4.833   5.551   3.437  1.2048 -0.6108 -0.5909
 9358SOL    HW233911   4.787   5.473   3.316 -0.9037  0.1784 -0.3442
 9359SOL     OW33912   7.799   0.062   2.720  0.1536  0.7117 -0.5780
 9359SOL    HW133913   7.726   0.124   2.714 -0.7129 -0.3472 -1.5064
 9359SOL    HW233914   7.854   0.082   2.644  0.4209  1.0225 -0.3000
 9360SOL     OW33915   7.678   4.545   6.120 -0.4098 -0.4571 -0.1684
 9360SOL    HW133916   7.582   4.545   6.121 -0.4121  0.2893 -0.0867
 9360SOL    HW233917   7.702   4.535   6.212 -0.3908 -1.7378 -0.2860
 9361SOL     OW33918   8.972   5.971   2.790 -0.2244  0.0334 -0.0813
 9361SOL    HW133919   9.000   5.906   2.854 -0.9065 -0.3714 -0.1906
 9361SOL    HW233920   8.883   5.945   2.766  0.0328  0.1688 -1.2147
 9362SOL     OW33921   6.187   3.187   1.579  0.3966 -0.7769 -0.3742
 9362SOL    HW133922   6.206   3.121   1.646  2.4996  0.7181  0.6099
 9362SOL    HW233923   6.272   3.224   1.557 -0.6330  1.0897 -1.4428
 9363SOL     OW33924   2.237   0.385   3.044 -0.2222 -0.2120  0.7358
 9363SOL    HW133925   2.284   0.342   2.973 -0.4393 -1.6105  1.3869
 9363SOL    HW233926   2.145   0.365   3.026 -0.4429  1.0864  0.3666
 9364SOL     OW33927  10.459   0.507   9.586  0.2807  0.1210 -0.3699
 9364SOL    HW133928  10.478   0.513   9.492  0.0499  1.4321 -0.3622
 9364SOL    HW233929  10.505   0.429   9.615 -0.8738 -1.1796 -1.8479
 9365SOL     OW33930   3.781   3.139   6.637  0.1228  0.2580 -0.2054
 9365SOL    HW133931   3.778   3.184   6.553  0.7656  1.0995  0.2013
 9365SOL    HW233932   3.851   3.183   6.685 -0.4437  0.0100  0.8881
 9366SOL     OW33933   2.561   3.144   5.035 -0.1115  0.6328  0.2814
 9366SOL    HW133934   2.586   3.186   5.118 -1.2727 -0.9008  1.4678
 9366SOL    HW233935   2.465   3.149   5.034 -0.0974  1.3630 -1.4140
 9367SOL     OW33936   4.947   1.918   7.181  0.4922  0.0125  0.1384
 9367SOL    HW133937   4.960   1.840   7.234 -0.8457 -0.3001  0.0429
 9367SOL    HW233938   5.011   1.981   7.215 -0.5322 -0.0626  2.3786
 9368SOL     OW33939   4.744   0.479   0.436  0.5856 -0.4078  0.4695
 9368SOL    HW133940   4.750   0.466   0.341 -1.6586 -1.1256  0.3616
 9368SOL    HW233941   4.775   0.568   0.450  0.4598 -0.1026 -1.0076
 9369SOL     OW33942   9.418  10.317   8.307 -0.3157 -0.2348 -0.2814
 9369SOL    HW133943   9.413  10.358   8.393 -1.0617 -0.6094 -0.1391
 9369SOL    HW233944   9.386  10.385   8.247 -1.1913 -0.4608 -0.0874
 9370SOL     OW33945   2.157   3.772   7.767 -0.0496 -0.5398  0.6507
 9370SOL    HW133946   2.104   3.838   7.723 -0.4954 -0.7727  0.8362
 9370SOL    HW233947   2.094   3.712   7.807  0.3497 -0.7209  1.0235
 9371SOL     OW33948   9.517   7.097   0.451 -0.1394 -0.6890 -0.4426
 9371SOL    HW133949   9.595   7.050   0.482 -0.2987  1.1115  3.3142
 9371SOL    HW233950   9.454   7.029   0.430  1.3245 -2.1541 -0.2963
 9372SOL     OW33951   2.382   6.348   3.054  0.3002  0.2467  0.0172
 9372SOL    HW133952   2.296   6.385   3.034  0.4981  0.8666  0.2704
 9372SOL    HW233953   2.386   6.346   3.149  0.0129 -1.1315  0.0210
 9373SOL     OW33954   8.268   0.654   4.366  0.5583 -0.2909  0.4083
 9373SOL    HW133955   8.259   0.573   4.315 -1.3693 -1.3904  2.3205
 9373SOL    HW233956   8.264   0.723   4.300 -0.2325 -1.6803 -1.0921
 9374SOL     OW33957   1.870   8.079   2.352 -0.3124  0.6108  0.2910
 9374SOL    HW133958   1.837   8.137   2.283 -2.9274  2.0203  2.4993
 9374SOL    HW233959   1.814   8.002   2.347 -1.2309  1.1728  1.4156
 9375SOL     OW33960   5.271   2.145   5.581 -0.3546  0.0211  0.2444
 9375SOL    HW133961   5.215   2.176   5.510  1.1544  0.9110 -0.6132
 9375SOL    HW233962   5.235   2.059   5.604 -0.3543 -0.7472 -2.2580
 9376SOL     OW33963  10.415   8.646   4.138 -0.5328 -0.2048  0.6796
 9376SOL    HW133964  10.320   8.637   4.147 -0.4654  0.2529  2.0743
 9376SOL    HW233965  10.429   8.659   4.044 -1.8426 -0.2956  0.4507
 9377SOL     OW33966   6.699   4.890   2.532 -0.2544 -0.3039 -0.5347
 9377SOL    HW133967   6.788   4.912   2.561  0.1384 -0.3975 -1.6511
 9377SOL    HW233968   6.658   4.852   2.610  1.5814 -2.9413 -0.7199
 9378SOL     OW33969  10.305   9.699   3.040  0.7315  0.2509 -0.6297
 9378SOL    HW133970  10.234   9.707   3.104  0.1257 -2.8542 -0.7492
 9378SOL    HW233971  10.260   9.681   2.957  1.6058 -1.1914 -0.8189
 9379SOL     OW33972   9.067   8.431   7.971  0.6845 -0.2003  0.4085
 9379SOL    HW133973   9.109   8.425   8.057  0.7991  0.9665  0.4520
 9379SOL    HW233974   9.114   8.368   7.917 -0.0357 -1.6671  1.4404
 9380SOL     OW33975   0.048   9.288   6.108  0.2493 -0.1151  0.1088
 9380SOL    HW133976   0.061   9.221   6.041  1.6004  0.5812 -0.3641
 9380SOL    HW233977   0.115   9.354   6.089 -1.6276  1.8532 -0.0319
 9381SOL     OW33978   1.252   6.094   0.676 -0.0986  0.7042  0.2358
 9381SOL    HW133979   1.215   6.006   0.686  0.9553  0.1337 -0.5852
 9381SOL    HW233980   1.343   6.086   0.706  0.6321  0.9609 -1.7212
 9382SOL     OW33981   7.067   5.758   3.506  0.1486 -0.8822 -0.4175
 9382SOL    HW133982   7.001   5.750   3.576  0.5197  0.0195  0.0501
 9382SOL    HW233983   7.023   5.726   3.428 -0.5495 -1.1361  0.0691
 9383SOL     OW33984   1.451   5.800   6.389 -0.0076 -0.8174 -0.4253
 9383SOL    HW133985   1.362   5.765   6.395 -0.4716  0.0640 -1.8105
 9383SOL    HW233986   1.441   5.894   6.406  0.5454 -0.5930 -1.2800
 9384SOL     OW33987   0.134   3.357  10.623 -0.1774  0.2232  0.2928
 9384SOL    HW133988   0.222   3.380  10.595  0.4481 -2.3386 -0.0219
 9384SOL    HW233989   0.143   3.333  10.715 -0.2396 -1.4339 -0.1142
 9385SOL     OW33990   5.552   2.175   6.264  0.3908  0.5038  0.0908
 9385SOL    HW133991   5.604   2.095   6.252 -0.6662  0.0708 -2.1921
 9385SOL    HW233992   5.484   2.151   6.327  0.6043 -0.1249  0.0905
 9386SOL     OW33993   2.222   7.107   9.191 -0.3650  0.2712 -0.3745
 9386SOL    HW133994   2.143   7.061   9.221  0.4048 -0.4255  0.6222
 9386SOL    HW233995   2.263   7.046   9.130  0.5273 -0.2959  0.7593
 9387SOL     OW33996   7.584   4.482   5.340  0.3930 -0.0703  0.4135
 9387SOL    HW133997   7.501   4.528   5.337  0.1933 -0.3829  1.0215
 9387SOL    HW233998   7.647   4.548   5.369  0.4031  0.2285 -0.2871
 9388SOL     OW33999   7.021   0.480   6.896  0.2386  0.1534  0.0581
 9388SOL    HW134000   6.976   0.397   6.913  0.6921  0.1323  1.2249
 9388SOL    HW234001   7.102   0.474   6.947  0.5007  1.1178 -0.2274
 9389SOL     OW34002   0.569   7.206   2.796 -0.0636  0.1066  0.1457
 9389SOL    HW134003   0.626   7.243   2.730  0.3077  0.2248  0.5302
 9389SOL    HW234004   0.554   7.277   2.859  0.4761 -0.3181  0.7701
 9390SOL     OW34005   1.774   4.998   8.936 -0.2113 -0.1550 -0.2273
 9390SOL    HW134006   1.682   5.026   8.935 -0.8708 -2.1666  0.6600
 9390SOL    HW234007   1.774   4.915   8.890  0.8680 -0.9836  1.2083
 9391SOL     OW34008   9.149   2.481   3.448  0.1877  0.4434  0.4009
 9391SOL    HW134009   9.216   2.413   3.448  0.8512  1.0857  0.0396
 9391SOL    HW234010   9.092   2.459   3.374  0.8760  0.7347 -0.2248
 9392SOL     OW34011   5.726   3.014   4.325  0.3708  0.0291 -0.0036
 9392SOL    HW134012   5.666   2.941   4.341 -1.2646  0.9608 -1.5134
 9392SOL    HW234013   5.686   3.088   4.370  0.5213  0.5990 -0.7803
 9393SOL     OW34014   9.538  10.297   2.948 -0.1516 -0.3050  0.3432
 9393SOL    HW134015   9.500  10.277   3.034 -0.1150  0.1672  0.4687
 9393SOL    HW234016   9.485  10.370   2.915 -0.6605 -0.9734 -0.3717
 9394SOL     OW34017   5.711   3.053   8.825 -0.5126 -0.0606  0.1228
 9394SOL    HW134018   5.789   3.033   8.877 -0.0782  0.5121 -0.2911
 9394SOL    HW234019   5.639   3.049   8.888 -0.1405 -0.5031  0.5311
 9395SOL     OW34020   3.049   9.559   2.975  0.3000  0.5856  0.4338
 9395SOL    HW134021   3.068   9.495   3.043  0.3378 -0.3504 -0.4251
 9395SOL    HW234022   3.062   9.644   3.017 -0.4744  0.0582  1.8158
 9396SOL     OW34023  10.453   1.779   9.338 -0.1036 -0.2802  0.1317
 9396SOL    HW134024  10.370   1.782   9.291 -0.6124  1.7570  1.0340
 9396SOL    HW234025  10.430   1.798   9.429  1.2367 -0.7489  0.5959
 9397SOL     OW34026   3.396   4.476  10.583 -0.0072  0.1078 -0.1891
 9397SOL    HW134027   3.457   4.547  10.565  0.8285  0.1021  2.2319
 9397SOL    HW234028   3.410   4.455  10.676 -3.0102 -0.5451  0.2329
 9398SOL     OW34029   5.230   8.263   9.939  0.4811 -0.6057  0.3465
 9398SOL    HW134030   5.256   8.174   9.962 -0.4374 -0.5314  1.8508
 9398SOL    HW234031   5.312   8.309   9.922  0.9131 -2.0965 -2.0721
 9399SOL     OW34032   7.018   7.445  10.541  0.0968  0.2392 -0.3131
 9399SOL    HW134033   6.945   7.469  10.485  0.3937  0.5544 -0.5746
 9399SOL    HW234034   7.020   7.513  10.609  1.2604  1.2917 -1.3510
 9400SOL     OW34035   9.695   1.430   4.878 -0.0646  0.3175  0.6620
 9400SOL    HW134036   9.668   1.382   4.956 -4.1938  2.1467  0.6305
 9400SOL    HW234037   9.654   1.516   4.887 -0.2582  0.8168 -3.2096
 9401SOL     OW34038   3.724   3.379   9.881 -0.1281  0.4050 -0.0723
 9401SOL    HW134039   3.739   3.286   9.897 -1.0049  0.4301  1.0324
 9401SOL    HW234040   3.757   3.394   9.792  0.3392 -0.8735 -0.1358
 9402SOL     OW34041   6.457   9.745   3.056 -0.4070 -0.3595 -0.2928
 9402SOL    HW134042   6.422   9.658   3.035 -0.4402 -0.3069 -0.4532
 9402SOL    HW234043   6.458   9.747   3.152 -0.3636 -0.5549 -0.2881
 9403SOL     OW34044  10.378   2.721   3.128 -0.6970 -0.3373 -0.3408
 9403SOL    HW134045  10.378   2.684   3.216 -0.6366  0.3473 -0.0462
 9403SOL    HW234046  10.294   2.696   3.091 -0.0833 -1.9846 -0.6790
 9404SOL     OW34047   8.158   7.166   4.265 -0.2258  0.5405 -0.0304
 9404SOL    HW134048   8.221   7.231   4.297 -0.3551 -0.3934  2.3386
 9404SOL    HW234049   8.213   7.096   4.230 -0.0879  2.0393 -3.1341
 9405SOL     OW34050   1.348   4.114   1.179 -0.1059 -0.2534 -0.3957
 9405SOL    HW134051   1.276   4.062   1.142  0.2899 -0.4791 -0.8531
 9405SOL    HW234052   1.310   4.201   1.193 -0.8457 -0.7122  0.5911
 9406SOL     OW34053   1.357   2.318   0.235  0.4073 -0.7371 -0.1194
 9406SOL    HW134054   1.315   2.388   0.285  2.1211  0.5329 -0.3642
 9406SOL    HW234055   1.359   2.243   0.294 -0.7202 -0.3514  0.4366
 9407SOL     OW34056   5.504   3.736   9.889  0.3723 -0.1385 -0.1906
 9407SOL    HW134057   5.419   3.778   9.877 -0.0137 -0.6502  0.6758
 9407SOL    HW234058   5.497   3.652   9.844 -0.1841 -0.9158  1.2661
 9408SOL     OW34059   9.511   3.238   1.218 -0.0530 -0.7866  0.2390
 9408SOL    HW134060   9.492   3.164   1.276 -2.0260 -0.6613 -0.1830
 9408SOL    HW234061   9.574   3.291   1.267  1.1076 -2.5158  0.7162
 9409SOL     OW34062   2.963   8.330   7.321 -0.0241 -0.1276  0.2672
 9409SOL    HW134063   2.955   8.264   7.390  2.1102 -0.6883  0.0434
 9409SOL    HW234064   3.046   8.374   7.339 -0.0173  0.5582 -1.2577
 9410SOL     OW34065   6.680   9.247   3.577 -0.4381 -0.1874 -0.3703
 9410SOL    HW134066   6.620   9.234   3.504  0.1839  1.8803 -1.2994
 9410SOL    HW234067   6.707   9.338   3.571  1.2591 -0.5186  1.2104
 9411SOL     OW34068   1.596   0.950  10.321  0.2717  0.4454 -0.5732
 9411SOL    HW134069   1.602   0.885  10.251 -1.5608 -1.7955  1.1864
 9411SOL    HW234070   1.527   1.010  10.293  1.5650  1.3624 -1.9437
 9412SOL     OW34071   0.940   8.510   8.591  0.0775  0.2302 -0.3168
 9412SOL    HW134072   0.908   8.586   8.541 -1.6539 -1.0987 -1.3357
 9412SOL    HW234073   0.920   8.531   8.682 -1.7560  0.4170 -0.7247
 9413SOL     OW34074   4.553   2.756   8.215 -0.0257 -0.3988 -0.2102
 9413SOL    HW134075   4.553   2.780   8.122  1.7870  2.2493  0.3584
 9413SOL    HW234076   4.471   2.793   8.248 -0.8681 -1.6816 -0.7532
 9414SOL     OW34077   5.677   4.404   3.284 -0.1208  0.4467  0.2358
 9414SOL    HW134078   5.766   4.369   3.284 -0.5236 -0.6581  1.3409
 9414SOL    HW234079   5.675   4.464   3.209  1.0745 -0.7279 -0.7941
 9415SOL     OW34080   9.439   7.057   9.667 -0.0568  0.5752  0.3133
 9415SOL    HW134081   9.481   6.972   9.676 -0.3302  0.6095  2.4746
 9415SOL    HW234082   9.495   7.117   9.716  1.2085  2.1396 -2.7459
 9416SOL     OW34083   4.450   7.666   5.774 -0.1471 -0.2781  0.5784
 9416SOL    HW134084   4.468   7.652   5.681 -0.7952  2.5759 -0.0890
 9416SOL    HW234085   4.532   7.641   5.818  0.2090 -1.5633 -0.7582
 9417SOL     OW34086   7.248   0.266   0.119  0.3100  0.3362 -0.3992
 9417SOL    HW134087   7.322   0.264   0.059  1.0740  0.1806  0.5319
 9417SOL    HW234088   7.286   0.284   0.204 -0.8728  1.5956 -0.1043
 9418SOL     OW34089   9.603   6.735   1.682 -0.0354  0.3947 -0.1796
 9418SOL    HW134090   9.692   6.715   1.650  0.0458 -0.3640  0.4688
 9418SOL    HW234091   9.572   6.652   1.718 -0.4218  1.0174  0.9826
 9419SOL     OW34092   3.626   1.696  10.229 -0.5084  0.1517  0.3638
 9419SOL    HW134093   3.717   1.674  10.244 -0.4148 -0.6998 -1.2150
 9419SOL    HW234094   3.626   1.791  10.214  0.6744 -0.2311 -2.8073
 9420SOL     OW34095   6.251   9.584   4.249  0.1300 -0.0878  0.1382
 9420SOL    HW134096   6.266   9.651   4.315 -1.7399 -1.5803  2.2515
 9420SOL    HW234097   6.177   9.617   4.198  0.8313  0.5615 -0.4624
 9421SOL     OW34098   8.825   1.737   7.305 -0.0075 -0.5818 -0.3734
 9421SOL    HW134099   8.782   1.686   7.374 -0.7027  2.2303  1.4333
 9421SOL    HW234100   8.757   1.750   7.239  0.3078 -2.2630 -1.0815
 9422SOL     OW34101   4.791   3.227   2.529  0.1085 -0.1253 -0.0828
 9422SOL    HW134102   4.737   3.188   2.598 -0.1245 -0.1575 -0.2822
 9422SOL    HW234103   4.814   3.154   2.472 -1.0631  0.1599 -0.9488
 9423SOL     OW34104   4.722   8.155  10.075  0.1902  0.2864 -0.0761
 9423SOL    HW134105   4.813   8.167  10.099  0.3975  0.6964 -1.0440
 9423SOL    HW234106   4.685   8.244  10.076 -0.6524 -0.0208  1.9759
 9424SOL     OW34107   8.007   5.028   7.265  0.3290 -0.2552 -0.1691
 9424SOL    HW134108   8.004   5.039   7.360 -1.3063  0.8699 -0.3165
 9424SOL    HW234109   8.067   4.955   7.251 -0.0408 -0.9678  1.7671
 9425SOL     OW34110   6.566   8.940  10.342  0.1854  0.4274 -0.5567
 9425SOL    HW134111   6.565   8.908  10.432 -1.1373 -1.6643 -1.2658
 9425SOL    HW234112   6.541   9.032  10.349 -0.6083  0.1125  1.1570
 9426SOL     OW34113   0.679   4.898   1.396  0.0363 -0.6251 -0.0151
 9426SOL    HW134114   0.673   4.987   1.362 -0.0571 -1.0785 -1.2288
 9426SOL    HW234115   0.671   4.842   1.319 -2.4575 -1.7644  0.9435
 9427SOL     OW34116   7.131   4.325   2.686 -0.2639 -0.3292  0.4589
 9427SOL    HW134117   7.082   4.280   2.755 -0.5780 -0.1890  0.3279
 9427SOL    HW234118   7.190   4.384   2.734 -1.3580  0.6894  0.5983
 9428SOL     OW34119   0.221   0.239   6.732 -0.3064 -0.4300 -0.4948
 9428SOL    HW134120   0.222   0.261   6.639 -0.1976 -0.9360 -0.6141
 9428SOL    HW234121   0.143   0.184   6.743  0.6939 -1.9226 -0.6489
 9429SOL     OW34122   7.825   0.091   3.933  0.0271  0.0316 -0.0858
 9429SOL    HW134123   7.766   0.166   3.938 -0.0985 -0.0251 -0.6821
 9429SOL    HW234124   7.887   0.113   3.864  0.2986 -0.1991  0.0801
 9430SOL     OW34125   2.292   1.979   9.140 -0.3377  0.0094 -0.0691
 9430SOL    HW134126   2.224   1.941   9.084  0.9781 -1.9575 -0.4320
 9430SOL    HW234127   2.338   2.041   9.083 -0.0431 -0.7755 -0.7069
 9431SOL     OW34128  10.301   5.794   2.648 -0.0729  0.2042 -0.6644
 9431SOL    HW134129  10.336   5.800   2.559 -1.7000  2.1596 -1.2393
 9431SOL    HW234130  10.379   5.793   2.704  1.0090 -1.5715 -2.0586
 9432SOL     OW34131   1.158  10.610   5.113 -0.9575  0.2275  0.5407
 9432SOL    HW134132   1.225  10.600   5.182  1.9207  0.7710 -1.9442
 9432SOL    HW234133   1.133  10.702   5.117 -1.7855 -0.0285  1.6328
 9433SOL     OW34134   3.638   0.549   2.412  1.2425  0.1019 -0.3986
 9433SOL    HW134135   3.692   0.625   2.390  2.2226 -0.6531 -0.6488
 9433SOL    HW234136   3.555   0.565   2.366  1.5692  0.8366 -0.7559
 9434SOL     OW34137   0.797   9.493   0.425 -0.3794  0.3359 -0.1239
 9434SOL    HW134138   0.702   9.485   0.412 -0.4408  0.9657 -0.1169
 9434SOL    HW234139   0.835   9.435   0.359 -0.7847 -1.8806  1.5034
 9435SOL     OW34140   4.505   8.018  10.191 -0.3345  0.0267  0.0495
 9435SOL    HW134141   4.573   8.075  10.155  0.1940 -0.5959  0.0339
 9435SOL    HW234142   4.430   8.030  10.132  0.1409 -0.1212 -0.5929
 9436SOL     OW34143   7.450   3.107   3.376 -0.2215  0.4631  0.0596
 9436SOL    HW134144   7.445   3.132   3.469  2.0819  0.6653  0.1791
 9436SOL    HW234145   7.527   3.152   3.343  0.2949 -1.3839 -1.3953
 9437SOL     OW34146   5.403   6.822   2.405 -0.4358 -0.1412  0.1960
 9437SOL    HW134147   5.324   6.785   2.444 -0.8216  0.8586  0.3968
 9437SOL    HW234148   5.446   6.748   2.363 -1.4990 -0.7001  0.0584
 9438SOL     OW34149   6.199  10.046  10.115 -0.6943 -1.0412 -0.2005
 9438SOL    HW134150   6.143  10.012  10.045 -1.4628 -1.3073  0.5237
 9438SOL    HW234151   6.282  10.067  10.072 -1.1283 -1.2737 -1.1699
 9439SOL     OW34152   3.003   1.831  10.586  0.3639 -0.4634 -0.0622
 9439SOL    HW134153   3.041   1.909  10.545  0.9976 -0.5398  0.3642
 9439SOL    HW234154   3.034   1.758  10.533 -0.2547 -0.4369 -0.4798
 9440SOL     OW34155   3.679   6.411   9.061  0.1143 -0.3880  0.2031
 9440SOL    HW134156   3.771   6.437   9.063  0.1255 -0.4326  0.3308
 9440SOL    HW234157   3.677   6.328   9.109  0.1596 -0.8784 -0.6256
 9441SOL     OW34158   9.225   4.195   5.344  0.0811  1.6045 -0.1448
 9441SOL    HW134159   9.252   4.260   5.279  0.8185  0.8347 -0.6360
 9441SOL    HW234160   9.307   4.154   5.372 -0.1116  2.5579  1.9897
 9442SOL     OW34161   5.038  10.657   8.944  0.5923 -0.0434  0.3442
 9442SOL    HW134162   5.071  10.703   8.867 -0.0410 -0.6323 -0.2924
 9442SOL    HW234163   5.076  10.703   9.018  1.4513  0.3499 -0.3298
 9443SOL     OW34164   4.155   4.202   6.223 -0.1664 -0.7590 -0.4502
 9443SOL    HW134165   4.119   4.125   6.267  2.1991 -1.1873  0.9059
 9443SOL    HW234166   4.245   4.208   6.255  0.5582  1.0278 -2.5964
 9444SOL     OW34167  10.354   1.906   8.287  0.2778  0.2249  0.6699
 9444SOL    HW134168  10.275   1.875   8.244  0.3465  0.8522  0.0822
 9444SOL    HW234169  10.329   1.990   8.326  0.1789 -0.3801  1.9872
 9445SOL     OW34170   6.854   9.943   2.637  0.0868 -0.1247  0.2905
 9445SOL    HW134171   6.866   9.849   2.632 -1.7682 -0.4848  1.4856
 9445SOL    HW234172   6.797   9.964   2.563 -1.2426 -0.3247  1.2195
 9446SOL     OW34173   1.831   1.101   2.884 -0.7318  0.7042  0.6832
 9446SOL    HW134174   1.835   1.120   2.978  0.2820  0.4483  0.7010
 9446SOL    HW234175   1.910   1.050   2.867 -2.1798 -1.5392  0.1984
 9447SOL     OW34176   3.600   4.028   0.796 -0.0399  0.2239  0.1740
 9447SOL    HW134177   3.595   3.947   0.746 -1.4243 -0.0601  0.7364
 9447SOL    HW234178   3.635   4.002   0.881 -0.2439  0.2558  0.2685
 9448SOL     OW34179   3.741   9.343   2.143  0.2059  0.2909  0.1529
 9448SOL    HW134180   3.671   9.300   2.094  1.5308 -1.6704 -0.1529
 9448SOL    HW234181   3.712   9.433   2.153 -1.5539 -0.0381 -1.4589
 9449SOL     OW34182   5.277   2.301   6.824 -0.0466 -0.4256  0.1446
 9449SOL    HW134183   5.295   2.298   6.730 -0.2802  0.0670  0.0817
 9449SOL    HW234184   5.312   2.386   6.853  0.4530 -0.7763  0.5915
 9450SOL     OW34185  10.641   2.839   4.814  0.1707  0.1743 -0.4862
 9450SOL    HW134186  10.628   2.801   4.901  0.6406  0.0139 -0.4791
 9450SOL    HW234187  10.570   2.803   4.761  0.0110  0.0988 -0.2216
 9451SOL     OW34188   4.294   9.157   4.338  0.6781 -0.3703  0.0432
 9451SOL    HW134189   4.222   9.202   4.382  0.5210 -0.2393 -0.3463
 9451SOL    HW234190   4.251   9.099   4.275  0.7855 -2.4492  1.7774
 9452SOL     OW34191   6.111   1.091   6.158 -0.6198 -0.6052  0.2070
 9452SOL    HW134192   6.017   1.080   6.142 -0.6745 -1.2205  0.9472
 9452SOL    HW234193   6.149   1.007   6.133 -0.2216 -0.2579 -0.3757
 9453SOL     OW34194   7.736   4.495   8.846  0.4795 -0.1873 -0.2390
 9453SOL    HW134195   7.805   4.471   8.784  1.0226 -0.1618  0.3385
 9453SOL    HW234196   7.655   4.491   8.795  1.0258  1.0079 -1.2504
 9454SOL     OW34197   7.542  10.161   0.128 -0.2153  0.1817  0.3884
 9454SOL    HW134198   7.586  10.236   0.089  0.5460 -1.3158 -1.8450
 9454SOL    HW234199   7.609  10.120   0.183 -0.0529  0.1494  0.1699
 9455SOL     OW34200   5.084   4.868   1.054 -0.2096  0.0695 -0.2386
 9455SOL    HW134201   5.084   4.957   1.087  0.4716 -1.1892  3.6363
 9455SOL    HW234202   5.172   4.856   1.017  0.0517  0.6860  0.1672
 9456SOL     OW34203   7.168   3.057   1.923  0.7724  0.5224 -0.0563
 9456SOL    HW134204   7.110   2.990   1.887 -0.0907  1.8661 -1.2791
 9456SOL    HW234205   7.189   3.026   2.011 -0.3303 -0.8862 -0.2555
 9457SOL     OW34206   7.407   6.138   3.875  0.3066 -0.3780 -0.0583
 9457SOL    HW134207   7.335   6.120   3.936  0.1144  0.4669 -0.0228
 9457SOL    HW234208   7.468   6.192   3.926 -0.9177  2.3098 -1.2206
 9458SOL     OW34209   3.562  10.110   3.210 -0.1534 -0.2075  0.0613
 9458SOL    HW134210   3.598  10.036   3.258  0.2506  0.6228  1.0882
 9458SOL    HW234211   3.469  10.113   3.235 -0.0566 -0.0780  0.4110
 9459SOL     OW34212   8.547   7.952   8.084 -0.1132  0.1512  0.5650
 9459SOL    HW134213   8.609   7.913   8.146 -0.0035  1.0547  1.0510
 9459SOL    HW234214   8.534   8.041   8.117 -0.0975  0.6369 -0.6910
 9460SOL     OW34215   1.467   4.367   1.377  0.1997 -0.1007 -0.0611
 9460SOL    HW134216   1.374   4.355   1.393  0.2127 -0.3431 -0.1677
 9460SOL    HW234217   1.472   4.427   1.302  0.1089 -1.4753 -1.2055
 9461SOL     OW34218   1.095   7.064   2.821  0.3579  0.1162 -0.6629
 9461SOL    HW134219   1.024   7.017   2.777  0.6637 -0.6296 -0.3789
 9461SOL    HW234220   1.169   7.057   2.761  0.5756 -0.2897 -0.3511
 9462SOL     OW34221   2.843   7.735   4.881  0.2028  0.4444 -0.6197
 9462SOL    HW134222   2.845   7.704   4.790  1.5640 -3.2402  0.4728
 9462SOL    HW234223   2.754   7.715   4.910 -0.1083  1.2373 -1.0115
 9463SOL     OW34224   2.170   5.250  10.109  0.0011  0.2164 -0.0118
 9463SOL    HW134225   2.095   5.266  10.165 -1.0453  0.3339 -1.3937
 9463SOL    HW234226   2.205   5.337  10.090  0.2548  0.1874  0.3154
 9464SOL     OW34227   0.534   2.962   1.527  0.2834  0.0254 -0.0549
 9464SOL    HW134228   0.495   3.049   1.535  0.6027  0.1967 -0.3430
 9464SOL    HW234229   0.463   2.902   1.549  0.2316  0.3740  0.7642
 9465SOL     OW34230  10.160   3.261   2.221 -0.4436 -0.4641  0.3280
 9465SOL    HW134231  10.071   3.295   2.208  0.2540  0.6005 -2.1400
 9465SOL    HW234232  10.177   3.209   2.143  1.6028  0.5758  0.0137
 9466SOL     OW34233   2.707   7.249   1.496  0.1494 -0.0280 -0.1632
 9466SOL    HW134234   2.685   7.243   1.589 -1.5737  1.1826 -0.4515
 9466SOL    HW234235   2.639   7.199   1.451 -0.3604  1.2410 -0.8843
 9467SOL     OW34236   4.683   2.846   2.335  0.7096 -0.0071 -0.2971
 9467SOL    HW134237   4.632   2.776   2.376  0.4802 -0.6568 -1.6362
 9467SOL    HW234238   4.618   2.914   2.314  1.0275  0.9454  1.6023
 9468SOL     OW34239   9.301   1.919   1.465 -0.3762 -0.3505  0.6909
 9468SOL    HW134240   9.283   1.988   1.401 -1.1356 -2.0740 -1.0382
 9468SOL    HW234241   9.396   1.920   1.475 -0.0765 -0.9889 -1.6417
 9469SOL     OW34242   5.112   1.837   5.350 -0.1617 -0.0097  0.0109
 9469SOL    HW134243   5.122   1.785   5.430 -0.4704  0.5500  0.4163
 9469SOL    HW234244   5.107   1.772   5.280 -0.2878 -0.5204  0.4872
 9470SOL     OW34245   7.981   9.473   1.658 -0.1355  0.1073  0.2155
 9470SOL    HW134246   7.981   9.380   1.680  0.5530 -0.0528 -0.4185
 9470SOL    HW234247   7.943   9.516   1.735  2.1868 -0.4262  1.7675
 9471SOL     OW34248   9.715   5.021  10.062 -0.4323  0.1931  0.9728
 9471SOL    HW134249   9.667   5.092  10.105  0.5416  1.3724  0.1558
 9471SOL    HW234250   9.712   5.042   9.969  0.5019 -0.4460  0.7793
 9472SOL     OW34251   7.691   6.205   8.374 -0.0174  0.1779  0.2152
 9472SOL    HW134252   7.749   6.257   8.428  0.6168 -1.1572  0.8669
 9472SOL    HW234253   7.738   6.195   8.291  0.2717 -0.1100  0.4109
 9473SOL     OW34254   5.098   7.838   4.285  0.0390 -0.0384  0.2622
 9473SOL    HW134255   5.004   7.828   4.271  0.1516  0.7204 -1.1896
 9473SOL    HW234256   5.118   7.925   4.250  1.4306 -0.5451 -0.2667
 9474SOL     OW34257   0.287   1.498  10.203  0.9229 -0.0349 -0.2298
 9474SOL    HW134258   0.256   1.408  10.207  2.2252 -0.5568 -0.8885
 9474SOL    HW234259   0.231   1.540  10.138 -0.7507  0.1252  1.2448
 9475SOL     OW34260   0.483  10.684   1.775  0.1353 -0.2465  0.5850
 9475SOL    HW134261   0.517  10.648   1.857  0.1271  1.1325  1.2253
 9475SOL    HW234262   0.401  10.637   1.760  0.3170 -0.7669  1.1734
 9476SOL     OW34263  10.721   1.435   7.077  0.6178 -0.3287  0.2460
 9476SOL    HW134264  10.755   1.451   6.989  1.5447  0.5012  0.7391
 9476SOL    HW234265  10.791   1.388   7.122  1.1492  1.3146  1.2409
 9477SOL     OW34266   2.808   3.008   0.573 -0.0016  0.3297  0.2249
 9477SOL    HW134267   2.817   3.027   0.667 -1.4948 -0.1250  0.4820
 9477SOL    HW234268   2.856   2.926   0.560  3.2932  2.1160 -0.1723
 9478SOL     OW34269   2.136   2.265   9.049 -0.1402  0.6295 -0.3458
 9478SOL    HW134270   2.188   2.232   8.975 -0.4786 -1.2711  0.1971
 9478SOL    HW234271   2.051   2.221   9.039 -1.3842  2.9850 -0.7165
 9479SOL     OW34272   3.757   6.736   4.445 -0.4502  0.6277  0.0317
 9479SOL    HW134273   3.791   6.680   4.375  1.4104  0.8774  0.6788
 9479SOL    HW234274   3.677   6.774   4.408 -0.3698 -0.4774 -1.3552
 9480SOL     OW34275   4.947   4.759   8.667 -0.1637  0.0793 -0.0921
 9480SOL    HW134276   4.943   4.826   8.599 -0.2143 -1.0529 -1.2471
 9480SOL    HW234277   4.880   4.695   8.642 -2.5158  1.1719  2.7903
 9481SOL     OW34278   0.534   9.423   5.580  0.0905  0.0778 -0.1373
 9481SOL    HW134279   0.454   9.467   5.550  0.6581  1.3131  0.1201
 9481SOL    HW234280   0.579   9.398   5.500 -0.0222  0.3499 -0.2845
 9482SOL     OW34281   1.981   3.909   3.174  0.4061  0.1805  0.0694
 9482SOL    HW134282   1.938   3.992   3.194  0.4308  0.1283  0.3488
 9482SOL    HW234283   2.074   3.925   3.189  0.3245 -0.1401  0.9983
 9483SOL     OW34284   3.228   6.876   1.136 -0.1336 -0.3135  0.4291
 9483SOL    HW134285   3.237   6.802   1.075  0.4432 -1.0844  1.4291
 9483SOL    HW234286   3.211   6.835   1.221  0.4664  0.7000  1.0514
 9484SOL     OW34287   1.776   8.055   3.198  0.2654  0.2393 -0.1527
 9484SOL    HW134288   1.802   7.993   3.130 -0.0785  2.7739 -2.7789
 9484SOL    HW234289   1.844   8.122   3.197 -0.6739  1.2537  0.7662
 9485SOL     OW34290   2.657   1.242   8.921 -0.3138 -0.0772 -0.3191
 9485SOL    HW134291   2.680   1.269   9.010 -0.0064  0.2300 -0.4909
 9485SOL    HW234292   2.610   1.317   8.884  0.7925  0.3577 -0.8958
 9486SOL     OW34293   9.298   4.995   9.102 -0.3945  0.4925  0.2922
 9486SOL    HW134294   9.227   4.972   9.161 -1.4637 -0.0679 -1.1496
 9486SOL    HW234295   9.257   5.050   9.035  0.1281 -1.1396 -1.4536
 9487SOL     OW34296   8.482   0.663  10.106  0.0090  0.3240 -0.0464
 9487SOL    HW134297   8.491   0.653  10.201  0.8236 -0.2352 -0.1675
 9487SOL    HW234298   8.445   0.580  10.077 -1.5370  1.0030 -0.0750
 9488SOL     OW34299   6.698   2.581   7.323  0.0905  0.1824 -0.8727
 9488SOL    HW134300   6.778   2.620   7.288 -1.6945  2.8491 -2.3013
 9488SOL    HW234301   6.714   2.573   7.417  2.2467 -0.0228 -1.2031
 9489SOL     OW34302   7.756   2.259   5.974 -0.0406 -0.5863  0.5551
 9489SOL    HW134303   7.714   2.174   5.990  0.3980 -0.9906 -0.3252
 9489SOL    HW234304   7.710   2.320   6.031  0.3860 -1.6161  2.0754
 9490SOL     OW34305   7.075   5.999  10.080  0.1333 -0.1247  0.1477
 9490SOL    HW134306   6.988   5.966  10.099 -0.9226  2.1160 -0.4335
 9490SOL    HW234307   7.123   5.923  10.045 -1.1452 -1.6928  1.6551
 9491SOL     OW34308   0.758   2.038   9.938  0.0180 -0.6400  0.0614
 9491SOL    HW134309   0.852   2.045   9.920 -0.1703  0.4495 -0.6114
 9491SOL    HW234310   0.732   2.128   9.960 -1.0148 -0.7761 -0.5676
 9492SOL     OW34311   6.344   3.117   1.151  0.7755  0.0404 -0.6052
 9492SOL    HW134312   6.338   3.207   1.120  0.4178  0.4581  0.6287
 9492SOL    HW234313   6.330   3.064   1.072  0.5883  1.0542 -1.2747
 9493SOL     OW34314  10.503   8.348   7.473  0.3467  0.5685 -0.0532
 9493SOL    HW134315  10.533   8.303   7.552  1.3962  0.6654 -0.3750
 9493SOL    HW234316  10.414   8.377   7.494  0.2486 -0.2467  0.7367
 9494SOL     OW34317   0.146   9.408   4.965 -0.2594 -0.4700  0.0877
 9494SOL    HW134318   0.162   9.325   5.010  0.8601 -0.8463 -0.9475
 9494SOL    HW234319   0.226   9.423   4.914 -1.2006  0.2647 -1.2317
 9495SOL     OW34320   2.084   2.217   5.092 -0.2448 -0.7062  0.6884
 9495SOL    HW134321   2.151   2.150   5.108  0.1006 -1.2242 -2.4543
 9495SOL    HW234322   2.116   2.266   5.016 -3.1965 -0.6874 -0.6711
 9496SOL     OW34323   0.506   3.072   2.608 -0.3570 -0.8471 -0.0612
 9496SOL    HW134324   0.441   3.013   2.646 -0.0521 -0.2712  1.4143
 9496SOL    HW234325   0.473   3.159   2.627  1.1265 -0.5339  1.2737
 9497SOL     OW34326   3.033  10.692   0.086 -0.8115 -0.5304 -0.3443
 9497SOL    HW134327   2.964  10.667   0.147 -0.5211 -0.4366  0.0317
 9497SOL    HW234328   3.113  10.656   0.125 -0.5111  0.2136 -0.2450
 9498SOL     OW34329  10.623   9.055   9.762  0.0175  0.0395 -0.1211
 9498SOL    HW134330  10.607   9.141   9.803  2.0418  1.2549 -1.6819
 9498SOL    HW234331  10.631   8.995   9.836  0.0901  1.4958  1.1193
 9499SOL     OW34332   4.283   1.009   6.052  0.6983  0.0060  0.0284
 9499SOL    HW134333   4.318   0.975   5.969 -0.2582 -0.1848 -0.3070
 9499SOL    HW234334   4.227   1.081   6.026  2.5087  1.7634  0.7172
 9500SOL     OW34335   1.805   3.187   1.012  0.2733 -0.1545 -0.2039
 9500SOL    HW134336   1.734   3.227   0.961 -0.3560  1.2559  1.6761
 9500SOL    HW234337   1.760   3.145   1.086  1.3838  1.4531  1.4694
 9501SOL     OW34338   2.531   9.977   2.838 -0.2739  0.2114  0.4933
 9501SOL    HW134339   2.498  10.040   2.774  0.9460 -0.0360 -0.4135
 9501SOL    HW234340   2.519   9.891   2.797 -0.4864 -0.0348  1.0563
 9502SOL     OW34341   2.009   3.763   2.367 -0.3911 -0.5227  0.4529
 9502SOL    HW134342   1.994   3.733   2.277  1.1246 -1.5679  0.5101
 9502SOL    HW234343   2.028   3.856   2.358 -0.2205 -0.6248 -0.3228
 9503SOL     OW34344   2.240  10.702   6.096 -0.7875 -0.0832  0.2104
 9503SOL    HW134345   2.253  10.747   6.180  1.1150 -0.1455  0.0036
 9503SOL    HW234346   2.189  10.764   6.043 -0.1946  0.8580  0.7061
 9504SOL     OW34347   4.325   8.444   8.133  0.1789  0.1142  0.4329
 9504SOL    HW134348   4.296   8.513   8.192 -1.2826 -0.1544  0.0751
 9504SOL    HW234349   4.332   8.366   8.188 -1.3573 -0.1778  0.2531
 9505SOL     OW34350   8.385   8.993   5.333  0.4093  0.1939 -0.3316
 9505SOL    HW134351   8.311   9.047   5.361 -1.2697 -2.6619  1.2260
 9505SOL    HW234352   8.454   9.010   5.397 -0.8122 -0.8767  1.3475
 9506SOL     OW34353   0.404  10.278   7.930  0.0528 -0.0136 -0.3415
 9506SOL    HW134354   0.456  10.306   8.006 -1.4075  2.6627 -0.2357
 9506SOL    HW234355   0.331  10.229   7.968  1.1594 -1.7472 -0.3356
 9507SOL     OW34356   4.880   6.412   7.617 -0.4764  0.1745  0.0273
 9507SOL    HW134357   4.904   6.435   7.527 -0.9078  3.3085  0.6218
 9507SOL    HW234358   4.784   6.421   7.619 -0.3681  1.3407  1.0582
 9508SOL     OW34359   5.583   6.102   7.176  0.2149 -0.1789 -0.2906
 9508SOL    HW134360   5.626   6.021   7.147 -1.6509 -1.8148  1.2156
 9508SOL    HW234361   5.627   6.124   7.259 -0.6801 -0.9071  0.3964
 9509SOL     OW34362  10.248   2.305   8.840 -0.1769 -0.2495 -0.4519
 9509SOL    HW134363  10.187   2.367   8.800 -0.6499 -0.8617 -0.6868
 9509SOL    HW234364  10.334   2.347   8.831 -0.4658  0.2872 -0.7672
 9510SOL     OW34365   2.593   8.914   4.813  0.7169  0.1788 -0.3894
 9510SOL    HW134366   2.628   8.887   4.728  0.4746 -0.6950 -0.2220
 9510SOL    HW234367   2.587   8.833   4.863  0.0865  0.5709  0.1839
 9511SOL     OW34368   8.461   1.270   9.196  0.2450 -0.9989  0.0109
 9511SOL    HW134369   8.396   1.332   9.164 -1.2263 -1.9369  1.0652
 9511SOL    HW234370   8.494   1.226   9.117  0.0674 -0.0834 -0.5886
 9512SOL     OW34371   8.106   4.460  10.501 -0.3754  0.3510 -0.5405
 9512SOL    HW134372   8.197   4.437  10.482 -0.1035  0.1175  0.8867
 9512SOL    HW234373   8.055   4.385  10.473  0.0968 -0.3697  0.4790
 9513SOL     OW34374   8.596   8.352   0.853  0.3458  0.6548  0.6390
 9513SOL    HW134375   8.643   8.434   0.867  2.1906 -0.6514  2.9743
 9513SOL    HW234376   8.565   8.327   0.940 -2.2737 -0.0314 -0.3771
 9514SOL     OW34377   6.291  10.295   8.685 -0.5692  0.1789 -0.3082
 9514SOL    HW134378   6.348  10.220   8.705  0.7709  1.4388  0.8503
 9514SOL    HW234379   6.301  10.308   8.591  0.6032 -0.0304 -0.2297
 9515SOL     OW34380   4.343   5.768   9.098 -0.2407 -0.6634 -0.3127
 9515SOL    HW134381   4.281   5.838   9.121 -1.0045 -0.4152 -2.7941
 9515SOL    HW234382   4.414   5.813   9.052  0.0132 -1.3447 -0.6016
 9516SOL     OW34383   9.023   6.049   0.039  0.4667  0.0380 -0.2350
 9516SOL    HW134384   8.998   5.977  -0.019 -0.3429 -1.0824  1.4272
 9516SOL    HW234385   9.066   6.007   0.113 -0.5743  1.1711  1.0801
 9517SOL     OW34386   1.241   4.145   4.591  0.3027 -0.5251 -0.0203
 9517SOL    HW134387   1.302   4.125   4.662  0.4063  0.1906  0.0975
 9517SOL    HW234388   1.160   4.101   4.615 -0.5611  1.9243  1.9626
 9518SOL     OW34389  10.363   9.573   1.874 -0.1397 -0.0174  0.2612
 9518SOL    HW134390  10.324   9.514   1.809  0.6026  1.3011 -1.4603
 9518SOL    HW234391  10.377   9.655   1.827  0.2807  1.0711  2.1593
 9519SOL     OW34392   4.303   5.174   0.837  0.1986 -0.5109  0.0270
 9519SOL    HW134393   4.286   5.179   0.742  0.2898  0.2223  0.0481
 9519SOL    HW234394   4.316   5.264   0.864 -0.6989 -0.6263  0.9098
 9520SOL     OW34395   7.940  10.621   6.328 -0.3503 -1.1522  0.0222
 9520SOL    HW134396   7.986  10.574   6.399 -0.9667 -0.4302  0.9226
 9520SOL    HW234397   8.010  10.658   6.275  0.1565 -2.9676 -0.6465
 9521SOL     OW34398   8.742   0.488   5.542 -0.5885 -0.5173 -0.1973
 9521SOL    HW134399   8.683   0.511   5.471  0.6348  2.0256 -0.5014
 9521SOL    HW234400   8.748   0.568   5.594  1.4876 -1.1453  0.6007
 9522SOL     OW34401   6.377   4.666  10.351 -0.3402  0.0359 -0.0870
 9522SOL    HW134402   6.467   4.646  10.376  0.3817  1.1066 -1.6114
 9522SOL    HW234403   6.380   4.671  10.255 -1.8688  0.7456 -0.1267
 9523SOL     OW34404   1.148   2.773   9.462 -0.1463 -0.7496  0.3348
 9523SOL    HW134405   1.208   2.703   9.436 -0.2578 -0.6461 -0.1995
 9523SOL    HW234406   1.202   2.853   9.461 -0.2359 -0.6917  0.0760
 9524SOL     OW34407   5.946   9.687   7.067  0.0522 -0.8551  0.0929
 9524SOL    HW134408   5.940   9.695   6.972  0.3077 -0.1354  0.1339
 9524SOL    HW234409   6.035   9.714   7.089 -0.4728  0.5364  0.6731
 9525SOL     OW34410   0.791  10.075   8.978  0.2653  0.4526  0.3808
 9525SOL    HW134411   0.839  10.105   9.055  0.1382 -0.8614  1.0006
 9525SOL    HW234412   0.843  10.104   8.903  0.8773  0.9326  0.9900
 9526SOL     OW34413   9.024   2.188   9.911  0.1242  0.5432 -0.5434
 9526SOL    HW134414   9.045   2.135   9.987 -0.1896  0.0265 -0.8167
 9526SOL    HW234415   9.039   2.278   9.940 -0.3064  0.3729  0.2285
 9527SOL     OW34416   8.217   1.788   6.257  0.0571 -0.0822  0.2484
 9527SOL    HW134417   8.284   1.857   6.251  1.9723 -1.8927 -0.8537
 9527SOL    HW234418   8.139   1.827   6.219  0.7888  1.7855  0.5370
 9528SOL     OW34419   4.936   2.556  10.380 -0.1200 -0.0415  0.1335
 9528SOL    HW134420   5.009   2.605  10.418 -0.7477  2.6216 -1.7898
 9528SOL    HW234421   4.863   2.618  10.379 -1.8848 -1.9834  0.1875
 9529SOL     OW34422   8.841   6.200  10.064 -0.1453 -0.2095 -0.2233
 9529SOL    HW134423   8.801   6.118  10.092 -0.3004 -0.5038 -1.2783
 9529SOL    HW234424   8.770   6.264  10.067  0.0540 -0.0214  0.9322
 9530SOL     OW34425   4.125   0.591   7.744 -0.4596 -0.2319  0.1919
 9530SOL    HW134426   4.198   0.645   7.775 -0.1779 -0.3641 -0.2305
 9530SOL    HW234427   4.090   0.550   7.823  0.0801 -0.3539  0.3717
 9531SOL     OW34428   2.262   6.854   2.528 -0.5073 -0.7402 -0.1964
 9531SOL    HW134429   2.344   6.857   2.479  0.3289 -1.0206  1.1346
 9531SOL    HW234430   2.218   6.776   2.496  0.5584 -1.5751  0.2837
 9532SOL     OW34431   7.676   7.189   4.582  0.3726 -0.3172  0.1803
 9532SOL    HW134432   7.653   7.282   4.579  1.4144  0.0316  1.6980
 9532SOL    HW234433   7.617   7.148   4.521 -1.9129  0.9953  1.3692
 9533SOL     OW34434  10.314   8.859   4.652  0.2032  0.3143  0.2020
 9533SOL    HW134435  10.369   8.811   4.590  0.7034  1.9564 -0.6720
 9533SOL    HW234436  10.252   8.794   4.684  0.1619 -0.6757 -1.7565
 9534SOL     OW34437   9.109   3.374   4.522  0.4810 -0.2004  0.5715
 9534SOL    HW134438   9.126   3.445   4.583 -0.8210  1.2306 -0.6278
 9534SOL    HW234439   9.030   3.402   4.475 -0.2347 -2.5778  0.2327
 9535SOL     OW34440   5.186   9.498   0.263  0.3706  0.0812 -0.1168
 9535SOL    HW134441   5.202   9.438   0.336  4.9128  0.0934 -0.7743
 9535SOL    HW234442   5.210   9.585   0.297 -0.8849  0.6717 -0.6743
 9536SOL     OW34443   1.838   3.051   7.662 -0.4553  0.6277  0.0698
 9536SOL    HW134444   1.928   3.074   7.683 -0.3786 -0.7413  1.4095
 9536SOL    HW234445   1.840   3.022   7.571  0.8586 -1.2816  0.6642
 9537SOL     OW34446   8.015   8.870   1.045  0.0406 -0.1544 -0.5627
 9537SOL    HW134447   8.073   8.935   1.005 -0.9096 -1.1103 -3.7232
 9537SOL    HW234448   7.927   8.907   1.036 -0.3033 -0.9113 -0.3829
 9538SOL     OW34449   4.055   9.547   2.962  0.1502  0.2122 -0.4151
 9538SOL    HW134450   4.124   9.532   3.026  0.5818  0.7540 -0.7374
 9538SOL    HW234451   4.086   9.505   2.882  0.6857  1.4752 -0.9021
 9539SOL     OW34452  10.566   0.713   5.483  0.3805 -0.2015  0.4583
 9539SOL    HW134453  10.652   0.706   5.523  0.3240 -0.7480  0.4964
 9539SOL    HW234454  10.544   0.806   5.488  2.0583  0.4016 -1.8596
 9540SOL     OW34455  10.233   8.678   5.157  0.3216  0.2450  0.1432
 9540SOL    HW134456  10.224   8.763   5.201 -2.0418  0.1622 -0.0571
 9540SOL    HW234457  10.304   8.634   5.204 -0.2214  1.2698  2.0410
 9541SOL     OW34458  10.666   6.256   0.206  0.6458  0.0291 -0.0942
 9541SOL    HW134459  10.675   6.175   0.257 -3.1215 -0.3137  0.2978
 9541SOL    HW234460  10.608   6.232   0.133 -1.1176  2.4499  0.4022
 9542SOL     OW34461   5.271   1.926   6.628 -0.2777 -0.2272  0.5418
 9542SOL    HW134462   5.181   1.927   6.659 -0.9429 -1.2816 -1.2190
 9542SOL    HW234463   5.317   1.868   6.690 -0.9353 -0.2036  1.0662
 9543SOL     OW34464   3.397   5.145   6.228  0.3213  0.0248  0.1323
 9543SOL    HW134465   3.306   5.116   6.223 -0.4676  2.3829 -0.5390
 9543SOL    HW234466   3.406   5.181   6.316  1.0736 -1.4385  0.6979
 9544SOL     OW34467   5.005   8.336   7.471 -0.1472  0.8186 -0.3320
 9544SOL    HW134468   4.933   8.273   7.462 -1.1516  1.9650 -0.4850
 9544SOL    HW234469   4.964   8.416   7.501  1.4115  0.8201  2.0331
 9545SOL     OW34470   8.140   6.241   0.898  0.1155 -0.2054 -0.3304
 9545SOL    HW134471   8.097   6.322   0.872 -3.3998 -1.6562  0.3247
 9545SOL    HW234472   8.097   6.173   0.845  0.9447 -1.9086  1.0758
 9546SOL     OW34473   2.519   5.655   3.083  0.1403 -0.1409 -0.1719
 9546SOL    HW134474   2.512   5.725   3.149 -0.6879 -0.7231  0.3889
 9546SOL    HW234475   2.531   5.575   3.135  2.3199 -0.3121 -0.8376
 9547SOL     OW34476   3.256   9.256   0.628  0.0451  0.1627 -0.1761
 9547SOL    HW134477   3.173   9.264   0.676 -0.1984 -2.2041 -0.0594
 9547SOL    HW234478   3.230   9.225   0.541  0.7017  1.4854 -0.8782
 9548SOL     OW34479   5.671   2.621   7.160 -0.2804 -0.1723 -0.4833
 9548SOL    HW134480   5.637   2.660   7.241  0.3896  0.2819 -0.4153
 9548SOL    HW234481   5.616   2.544   7.146 -3.0457  1.8086 -1.6961
 9549SOL     OW34482   4.527   8.015   8.621  0.0671  0.7000 -0.8433
 9549SOL    HW134483   4.511   8.017   8.715 -0.8802 -1.9801 -0.8461
 9549SOL    HW234484   4.619   8.038   8.611  0.9115 -1.4454  1.0450
 9550SOL     OW34485   7.401   0.573   5.628  0.5791 -0.1785 -0.6737
 9550SOL    HW134486   7.470   0.597   5.689 -1.0410  1.4594  0.6172
 9550SOL    HW234487   7.442   0.578   5.542  2.0358  0.8697  0.0437
 9551SOL     OW34488   4.581   0.147   7.968  0.0496  0.6839 -0.7690
 9551SOL    HW134489   4.648   0.081   7.987 -0.6349  0.8624  3.1687
 9551SOL    HW234490   4.623   0.231   7.988 -0.9172  0.8656  0.7116
 9552SOL     OW34491   1.906   5.783   0.061  0.1533 -0.4693 -0.1242
 9552SOL    HW134492   1.920   5.741   0.146  1.4514  1.5972  0.7638
 9552SOL    HW234493   1.822   5.827   0.070 -0.2799 -1.2431 -0.3523
 9553SOL     OW34494   9.075   4.261   5.593 -0.1671  0.3311 -0.4195
 9553SOL    HW134495   9.130   4.212   5.533  1.4400 -0.4225  1.5506
 9553SOL    HW234496   9.077   4.351   5.560  1.7290  0.1870 -0.7963
 9554SOL     OW34497   9.732   8.160   1.795 -0.1279  0.5728  0.7305
 9554SOL    HW134498   9.640   8.167   1.770  0.4390  0.3297 -1.6986
 9554SOL    HW234499   9.742   8.070   1.825 -0.9200  0.9779  2.3337
 9555SOL     OW34500   4.114   9.823   1.803  0.0208 -0.0991 -0.1455
 9555SOL    HW134501   4.174   9.795   1.734  0.3034  0.3503 -0.0889
 9555SOL    HW234502   4.114   9.919   1.796  1.4990  0.0827  1.6605
 9556SOL     OW34503   9.638   3.428   2.675 -0.0756 -0.5696  0.1984
 9556SOL    HW134504   9.642   3.333   2.670  1.4046 -0.5867  1.2633
 9556SOL    HW234505   9.630   3.447   2.769  2.1850  0.3873  0.2644
 9557SOL     OW34506   1.557   8.455   0.261  0.4602  0.0680  0.4773
 9557SOL    HW134507   1.504   8.524   0.300  0.2735  0.0349  0.2870
 9557SOL    HW234508   1.648   8.478   0.283  0.3856  0.2700  0.5740
 9558SOL     OW34509   4.332   1.235   7.352  0.6307 -0.2757 -0.0151
 9558SOL    HW134510   4.324   1.247   7.257 -0.1690  1.9343  0.2758
 9558SOL    HW234511   4.245   1.208   7.380  0.0357  1.8442  0.3786
 9559SOL     OW34512  10.278   6.532   5.168  0.1570  0.2276  0.3480
 9559SOL    HW134513  10.312   6.448   5.139  0.1860 -0.0156  1.0769
 9559SOL    HW234514  10.187   6.515   5.191 -0.1274  0.6180 -0.4578
 9560SOL     OW34515   6.074  10.499   7.584  0.1101 -0.4637 -0.4146
 9560SOL    HW134516   6.159  10.479   7.545  1.1867  1.0041  1.0409
 9560SOL    HW234517   6.083  10.473   7.675 -0.9297 -0.0736 -0.1920
 9561SOL     OW34518   8.579   9.724   4.205  0.0058 -0.1801  0.3957
 9561SOL    HW134519   8.560   9.631   4.221 -1.2544  0.3773  2.5688
 9561SOL    HW234520   8.506   9.754   4.151 -0.2267 -0.2036  0.6920
 9562SOL     OW34521  10.588   9.110   5.820  0.0173  0.1499  0.1162
 9562SOL    HW134522  10.666   9.136   5.870  1.4702 -0.2028 -1.8697
 9562SOL    HW234523  10.529   9.074   5.886  1.8603 -0.3315  1.5959
 9563SOL     OW34524   1.620   2.852   0.160  0.2135 -0.1712 -0.3050
 9563SOL    HW134525   1.542   2.815   0.118 -0.2222  1.4027 -0.9535
 9563SOL    HW234526   1.587   2.890   0.241  0.7053 -1.3741  0.4903
 9564SOL     OW34527   1.525  10.591   2.629  0.4152 -0.0484 -0.2328
 9564SOL    HW134528   1.586  10.655   2.665 -0.1116 -0.0739  0.7588
 9564SOL    HW234529   1.447  10.641   2.606 -0.7915 -0.5265  2.4281
 9565SOL     OW34530   9.717   9.185   9.108 -0.0510  0.7146  0.3824
 9565SOL    HW134531   9.625   9.172   9.128 -0.1266  1.7133  0.7353
 9565SOL    HW234532   9.756   9.213   9.191  1.4427 -3.5435  1.4004
 9566SOL     OW34533   8.868   7.766   7.864 -0.0189 -0.7428  0.4196
 9566SOL    HW134534   8.875   7.716   7.782  0.0931 -0.5541  0.3132
 9566SOL    HW234535   8.790   7.820   7.852 -0.0577 -0.7871  0.4762
 9567SOL     OW34536   0.586   1.421   7.342 -0.0261  0.3107 -0.0303
 9567SOL    HW134537   0.656   1.486   7.349 -1.4551  1.8179  0.9463
 9567SOL    HW234538   0.618   1.358   7.276  2.7766  0.1961  1.2899
 9568SOL     OW34539   3.458   9.026   7.357 -0.5768 -0.3203 -0.7261
 9568SOL    HW134540   3.367   9.012   7.332 -1.1072  2.2169 -0.4910
 9568SOL    HW234541   3.492   9.086   7.290  0.1209  0.7827  0.5553
 9569SOL     OW34542   2.543   1.189   6.228 -0.3544 -0.3805  0.1795
 9569SOL    HW134543   2.595   1.209   6.305 -0.1497 -2.7459  0.7108
 9569SOL    HW234544   2.603   1.198   6.154 -0.0511 -0.0002  0.4725
 9570SOL     OW34545   2.300   4.076   4.712  0.0635  0.2478 -0.4487
 9570SOL    HW134546   2.255   3.999   4.679  0.4885  0.3871 -1.3778
 9570SOL    HW234547   2.239   4.148   4.694 -0.1735  0.1820  0.0787
 9571SOL     OW34548   1.082   1.437   2.946  0.4603  0.0424 -0.0538
 9571SOL    HW134549   1.007   1.406   2.895 -0.5579  0.6269  1.0535
 9571SOL    HW234550   1.092   1.529   2.922 -0.0020  0.3125  0.7580
 9572SOL     OW34551   7.132   6.152   2.633  0.5136 -0.7168  0.2184
 9572SOL    HW134552   7.063   6.215   2.655  0.6319 -0.0731 -1.1258
 9572SOL    HW234553   7.209   6.182   2.681  0.3314 -0.3812  0.3025
 9573SOL     OW34554   2.313   5.426   1.385  0.1312 -0.5281 -0.6295
 9573SOL    HW134555   2.246   5.361   1.364  1.1291 -1.5395 -0.7654
 9573SOL    HW234556   2.366   5.384   1.453  0.5539  0.3056 -0.4374
 9574SOL     OW34557   0.639   3.206   5.076  0.2128 -0.7949  0.8820
 9574SOL    HW134558   0.583   3.174   5.147  0.8366 -2.3824  0.6868
 9574SOL    HW234559   0.579   3.218   5.002 -0.6016  1.7013  1.8390
 9575SOL     OW34560   0.610   3.859   7.341  0.5608  0.3073 -0.2759
 9575SOL    HW134561   0.690   3.887   7.296  0.4651  2.0010  0.5322
 9575SOL    HW234562   0.542   3.919   7.310  0.3220  0.9947  1.4535
 9576SOL     OW34563  10.146   9.807  10.106 -0.1879  0.1777  0.0127
 9576SOL    HW134564  10.107   9.834  10.189  1.8351 -1.4272  1.5902
 9576SOL    HW234565  10.126   9.714  10.098 -0.1976  0.2626 -1.2251
 9577SOL     OW34566   6.804   3.789   8.046  0.1506  0.4623  0.4294
 9577SOL    HW134567   6.721   3.807   8.090 -0.0088  1.0565 -0.1021
 9577SOL    HW234568   6.813   3.694   8.049 -0.1503  0.4505  1.2024
 9578SOL     OW34569   4.434   9.478   2.161  0.0632 -0.1499 -0.6081
 9578SOL    HW134570   4.422   9.399   2.215 -1.6578  0.1856 -0.4562
 9578SOL    HW234571   4.420   9.448   2.071 -0.3530 -0.0634 -0.5720
 9579SOL     OW34572   2.270   5.674   2.945  0.5782  0.3936 -0.0583
 9579SOL    HW134573   2.337   5.706   3.006 -0.2124  1.3655  0.3333
 9579SOL    HW234574   2.215   5.617   2.997  1.2710 -0.6644 -0.4596
 9580SOL     OW34575   4.917   9.076   8.135  0.2534 -0.4504  0.4339
 9580SOL    HW134576   4.885   9.018   8.066 -0.1811 -3.1924  2.7321
 9580SOL    HW234577   4.855   9.149   8.135 -1.4937 -1.8462 -0.1924
 9581SOL     OW34578  10.638   9.987   5.274 -0.3126  0.2526  0.2150
 9581SOL    HW134579  10.646   9.892   5.264 -1.0357  0.1690  0.3692
 9581SOL    HW234580  10.555  10.009   5.233 -0.8020  0.6269  1.3602
 9582SOL     OW34581   6.339   6.111   4.878 -0.0541 -0.1225  0.0144
 9582SOL    HW134582   6.326   6.029   4.925  2.5362 -0.9192 -0.4887
 9582SOL    HW234583   6.329   6.088   4.785  0.1545  0.2435 -0.1021
 9583SOL     OW34584   9.674   0.795   9.398  0.2771 -0.0772 -0.9306
 9583SOL    HW134585   9.656   0.889   9.392 -0.6286 -0.1599  0.2091
 9583SOL    HW234586   9.657   0.773   9.490  0.9222 -1.2695 -1.0779
 9584SOL     OW34587   8.893   1.386   0.316 -0.3547  0.0541  0.0645
 9584SOL    HW134588   8.894   1.390   0.220  0.2484 -1.2646 -0.0103
 9584SOL    HW234589   8.814   1.335   0.337  0.5473 -1.3764  0.1421
 9585SOL     OW34590   5.647   6.657   6.938 -0.1529  0.1041 -0.1667
 9585SOL    HW134591   5.568   6.604   6.947  0.5511 -0.8636  0.4871
 9585SOL    HW234592   5.718   6.600   6.968  0.7059  1.2127 -0.0268
 9586SOL     OW34593   6.391   7.045   9.508  0.3951 -0.6148  0.3052
 9586SOL    HW134594   6.417   7.115   9.448  0.4720  0.8574  1.9930
 9586SOL    HW234595   6.445   7.058   9.586  0.7027 -2.8275  0.5384
 9587SOL     OW34596   9.843   9.599   6.942  0.5931 -0.4473  0.3344
 9587SOL    HW134597   9.920   9.542   6.942  0.4479 -0.6478 -0.0161
 9587SOL    HW234598   9.876   9.684   6.912  0.4481 -0.8684 -1.1044
 9588SOL     OW34599   7.295   1.021   5.274  0.2716 -0.8974 -1.3439
 9588SOL    HW134600   7.212   1.051   5.311  0.4313 -0.5915 -1.2262
 9588SOL    HW234601   7.304   1.071   5.193  0.7201 -0.3415 -0.9596
 9589SOL     OW34602   1.307   7.848   0.971 -0.2006  0.1571  0.1775
 9589SOL    HW134603   1.357   7.902   0.909  0.2707 -0.8694 -0.3815
 9589SOL    HW234604   1.357   7.852   1.052  0.0009  0.3028  0.0472
 9590SOL     OW34605   6.184   9.220   8.711  0.2178  0.1006 -0.6227
 9590SOL    HW134606   6.184   9.256   8.622 -0.0861 -0.1330 -0.7212
 9590SOL    HW234607   6.150   9.291   8.766 -0.4314 -0.0454 -0.8231
 9591SOL     OW34608   5.294   1.237   2.250  0.5751 -0.3751 -0.4047
 9591SOL    HW134609   5.274   1.144   2.259  2.2038 -0.8300 -1.1394
 9591SOL    HW234610   5.215   1.282   2.281 -0.5804 -1.9991 -0.8960
 9592SOL     OW34611   7.957   7.780   1.681 -0.1214 -0.2956  0.4757
 9592SOL    HW134612   8.029   7.814   1.733 -0.1673 -1.9492  1.7198
 9592SOL    HW234613   7.999   7.725   1.614 -0.0691  1.7465 -1.2603
 9593SOL     OW34614   0.734   2.331   3.919 -0.3155  0.0651  0.2629
 9593SOL    HW134615   0.808   2.272   3.930 -0.8766 -0.3355  2.3858
 9593SOL    HW234616   0.730   2.380   4.001 -2.0794  0.4334 -0.0011
 9594SOL     OW34617   4.205   0.327   5.390  0.1762 -0.2402 -0.2236
 9594SOL    HW134618   4.179   0.322   5.297 -1.9166 -1.1638  0.3397
 9594SOL    HW234619   4.256   0.248   5.405  1.7700  0.6193 -0.8885
 9595SOL     OW34620   5.683   5.080   6.130  0.2661 -0.4077  0.1195
 9595SOL    HW134621   5.755   5.140   6.146  0.1744 -0.8734  2.7349
 9595SOL    HW234622   5.690   5.057   6.037  1.3768  2.1766 -0.5060
 9596SOL     OW34623   5.062   5.299   9.854 -0.0851 -0.0945 -0.1252
 9596SOL    HW134624   5.080   5.343   9.937 -0.0706 -0.0293 -0.1628
 9596SOL    HW234625   5.141   5.314   9.801 -0.1040 -0.1149 -0.1597
 9597SOL     OW34626   8.145   2.026   9.779 -0.1912 -0.4496  0.3371
 9597SOL    HW134627   8.197   1.961   9.827 -1.7151 -2.0231 -0.0607
 9597SOL    HW234628   8.057   1.990   9.777 -0.7812  0.9495 -1.1763
 9598SOL     OW34629   7.089   2.390   3.173  0.3717  0.5720  0.0731
 9598SOL    HW134630   7.178   2.405   3.204  0.3715  4.3829 -1.2096
 9598SOL    HW234631   7.035   2.445   3.231 -1.0138 -0.7020  0.0335
 9599SOL     OW34632   6.939   3.427   9.947 -0.4194 -0.2412  0.5234
 9599SOL    HW134633   6.923   3.345   9.900 -0.7474 -1.7928  3.1555
 9599SOL    HW234634   7.008   3.407  10.009  1.6034  2.3626 -0.6758
 9600SOL     OW34635   5.369   4.439   1.236  0.3834  0.3899 -0.3100
 9600SOL    HW134636   5.412   4.511   1.190  1.6934  2.1862  3.3170
 9600SOL    HW234637   5.430   4.366   1.230  1.1527  1.0178 -0.3119
 9601SOL     OW34638   5.227   0.377   3.431  0.1071  0.2850  0.6511
 9601SOL    HW134639   5.144   0.424   3.426  0.2025  0.3350 -3.0834
 9601SOL    HW234640   5.204   0.286   3.411  1.0558  0.6586 -2.6880
 9602SOL     OW34641   3.941   7.695   4.319  0.8249  0.1982  0.5294
 9602SOL    HW134642   3.914   7.631   4.253  1.6811 -1.1049  1.3809
 9602SOL    HW234643   4.009   7.747   4.276 -1.5264  2.2218 -0.9797
 9603SOL     OW34644   9.535   8.722   1.383  0.1988  0.2326  0.8729
 9603SOL    HW134645   9.600   8.706   1.451 -0.4999 -3.0480  0.9525
 9603SOL    HW234646   9.556   8.658   1.314 -1.7461  0.4080  0.0494
 9604SOL     OW34647   1.868   2.800   6.665 -0.1671 -0.5074 -0.8414
 9604SOL    HW134648   1.897   2.731   6.725  0.2126  0.3368 -0.0200
 9604SOL    HW234649   1.941   2.810   6.604  0.1851 -0.1927 -0.3798
 9605SOL     OW34650   6.241   7.726   9.360  0.3328  0.0254 -0.1196
 9605SOL    HW134651   6.203   7.684   9.437  0.4684 -0.7340 -0.4551
 9605SOL    HW234652   6.213   7.817   9.365 -1.7760 -0.5444 -0.5031
 9606SOL     OW34653   1.271   5.888   0.350  0.1773  0.1508 -0.3078
 9606SOL    HW134654   1.348   5.831   0.353  0.4700  0.5640  0.3258
 9606SOL    HW234655   1.197   5.830   0.361  0.3847 -0.2841 -1.1590
 9607SOL     OW34656   7.241   4.887   9.274 -0.6512 -0.2526  0.4955
 9607SOL    HW134657   7.215   4.926   9.191  2.4674 -0.7185 -0.8750
 9607SOL    HW234658   7.187   4.930   9.340 -0.7773  2.8041 -1.4165
 9608SOL     OW34659   9.523   4.382   1.475  0.0332 -0.3861 -0.0091
 9608SOL    HW134660   9.612   4.405   1.450  0.2856 -2.0979 -0.7997
 9608SOL    HW234661   9.521   4.286   1.475 -2.2390 -0.4329 -1.6783
 9609SOL     OW34662   8.009  10.118   2.161 -0.2205 -0.3643 -0.0659
 9609SOL    HW134663   7.996  10.193   2.102  1.3769 -0.4217 -0.5518
 9609SOL    HW234664   8.100  10.093   2.147  0.1689 -0.5129  2.2980
 9610SOL     OW34665   4.755   1.597   8.746  0.3277 -0.2609 -0.0672
 9610SOL    HW134666   4.692   1.526   8.739 -2.4041  1.9886  0.1174
 9610SOL    HW234667   4.768   1.627   8.656 -0.6997  0.7087  0.0812
 9611SOL     OW34668   3.687   8.520   2.471  0.5584 -0.3661  0.1257
 9611SOL    HW134669   3.701   8.600   2.421 -0.3038 -0.4593 -0.2894
 9611SOL    HW234670   3.604   8.534   2.516  0.6380 -0.8366  0.4305
 9612SOL     OW34671   8.572   0.591   6.656  0.0501  0.0043  0.5776
 9612SOL    HW134672   8.622   0.580   6.575 -0.3487  0.2122  0.2940
 9612SOL    HW234673   8.626   0.552   6.724  0.2320 -0.4992  0.1497
 9613SOL     OW34674   1.408   0.738   9.136 -0.2038 -0.1011  0.7450
 9613SOL    HW134675   1.415   0.642   9.140  0.4035 -0.0491  0.9427
 9613SOL    HW234676   1.353   0.761   9.212 -1.3939 -0.3863 -0.0019
 9614SOL     OW34677   6.427   3.875  10.025  0.8502 -0.3065 -0.3975
 9614SOL    HW134678   6.395   3.785  10.016 -0.6053  0.1447 -0.0714
 9614SOL    HW234679   6.500   3.869  10.087 -0.1586 -1.0817  0.7673
 9615SOL     OW34680   7.350   2.409   9.646  0.1943  0.0963  0.2695
 9615SOL    HW134681   7.365   2.333   9.590 -1.1020 -0.4760  0.6570
 9615SOL    HW234682   7.411   2.475   9.614 -0.7191 -0.0896 -2.0449
 9616SOL     OW34683   7.050   8.073   2.760 -0.0108  1.1308  0.6574
 9616SOL    HW134684   6.971   8.051   2.711  0.9692 -0.2112 -0.4187
 9616SOL    HW234685   7.091   8.144   2.710  0.6618  0.1930 -0.1720
 9617SOL     OW34686   0.529   1.890   3.952  0.3650  0.2414 -0.1605
 9617SOL    HW134687   0.556   1.973   3.913 -0.7005  0.5641 -0.2382
 9617SOL    HW234688   0.549   1.900   4.045  0.6697  0.4085 -0.2445
 9618SOL     OW34689   9.764   0.828   6.539  0.2503  0.3234  0.4357
 9618SOL    HW134690   9.779   0.740   6.575  1.7541  0.8201  1.1012
 9618SOL    HW234691   9.679   0.854   6.575  0.6714 -0.1118  1.8116
 9619SOL     OW34692   0.827   5.635   0.106  0.8531 -0.0593 -0.7445
 9619SOL    HW134693   0.851   5.618   0.014 -0.2015 -0.0598 -1.0341
 9619SOL    HW234694   0.785   5.554   0.135 -1.4559  0.9175 -1.1875
 9620SOL     OW34695   2.085   3.171   6.099  0.2019  0.1081 -0.2852
 9620SOL    HW134696   2.097   3.266   6.093 -0.0842  0.1540 -0.1351
 9620SOL    HW234697   2.164   3.140   6.145 -0.0621  0.3649  0.3428
 9621SOL     OW34698   9.406   0.967   2.605 -0.0950 -0.4400 -0.4549
 9621SOL    HW134699   9.346   0.953   2.678  0.8785 -2.1969  0.0506
 9621SOL    HW234700   9.358   0.934   2.529 -0.0073 -1.3702 -0.1271
 9622SOL     OW34701   7.756   2.574   2.068 -0.6686 -0.0557 -0.0457
 9622SOL    HW134702   7.837   2.624   2.061 -0.9994  0.2452 -2.4424
 9622SOL    HW234703   7.700   2.626   2.125  0.3506  0.3871  0.5747
 9623SOL     OW34704   7.284   5.916   5.262  0.1668  0.0966  0.3026
 9623SOL    HW134705   7.378   5.897   5.259  0.2179  0.1981  1.0636
 9623SOL    HW234706   7.247   5.862   5.192  1.0411  1.6337 -1.4366
 9624SOL     OW34707   3.090  10.590   4.519 -0.2278 -0.0550  0.4156
 9624SOL    HW134708   3.029  10.645   4.470  0.5775  0.7213  0.2658
 9624SOL    HW234709   3.068  10.607   4.611 -1.5685 -1.3203  0.3757
 9625SOL     OW34710   3.774   6.585   0.642 -0.2132  0.0927  0.4041
 9625SOL    HW134711   3.838   6.551   0.580  0.3277  0.6577  0.6421
 9625SOL    HW234712   3.818   6.660   0.683 -0.9970  0.4329  0.6316
 9626SOL     OW34713   3.515   1.830   3.596 -0.2192  0.2226 -0.3094
 9626SOL    HW134714   3.549   1.742   3.580 -2.5692 -0.7739 -0.1535
 9626SOL    HW234715   3.556   1.885   3.529  0.5327 -1.1740 -1.0261
 9627SOL     OW34716   9.419   8.340   4.185  0.1844 -0.1812 -0.2136
 9627SOL    HW134717   9.425   8.346   4.281  1.5584  1.5509 -0.3593
 9627SOL    HW234718   9.339   8.389   4.164 -0.5535 -1.2275  0.0659
 9628SOL     OW34719   3.952   1.964   7.317  0.0215  0.0152  0.0293
 9628SOL    HW134720   3.925   1.879   7.351 -0.4843 -0.0486 -0.5236
 9628SOL    HW234721   3.876   1.998   7.271 -0.4521  1.6699  1.8935
 9629SOL     OW34722   1.422   8.016   3.442  0.1314 -0.3553 -0.3365
 9629SOL    HW134723   1.462   8.100   3.417  0.5773 -0.3427  0.4064
 9629SOL    HW234724   1.372   8.036   3.521  0.4321 -0.8348 -0.0212
 9630SOL     OW34725   2.731  10.565   8.713  0.0743 -0.0237 -0.3313
 9630SOL    HW134726   2.728  10.488   8.656 -0.3302 -1.5348  1.6151
 9630SOL    HW234727   2.811  10.553   8.765  1.3905  2.2263 -1.7228
 9631SOL     OW34728   7.827   1.400   5.397 -0.2538 -0.5223 -0.8630
 9631SOL    HW134729   7.883   1.371   5.468  1.5269  0.7545 -1.6782
 9631SOL    HW234730   7.855   1.350   5.321 -0.3440 -0.0024 -1.2462
 9632SOL     OW34731   4.821   6.092   4.392 -0.7817  0.0377  0.2594
 9632SOL    HW134732   4.803   6.031   4.464 -2.0525 -0.7279 -0.6586
 9632SOL    HW234733   4.742   6.089   4.338 -1.6896  3.7840  1.0273
 9633SOL     OW34734   2.510   4.150  10.061 -0.0236 -0.3817 -0.3754
 9633SOL    HW134735   2.468   4.171   9.977  0.1593 -1.2662 -0.6960
 9633SOL    HW234736   2.601   4.178  10.050 -0.1213 -0.0136 -0.2763
 9634SOL     OW34737   4.730   3.256  10.101  0.2112 -0.5714 -0.3653
 9634SOL    HW134738   4.691   3.230  10.017 -0.4715  2.2696 -1.0302
 9634SOL    HW234739   4.657   3.257  10.162  0.4300 -1.1698 -0.0846
 9635SOL     OW34740   7.090   5.974   1.357 -0.5858 -0.4172  1.2084
 9635SOL    HW134741   7.103   5.987   1.450 -1.1052  0.6056  1.1494
 9635SOL    HW234742   7.084   6.062   1.321  1.5029 -0.7193 -0.0868
 9636SOL     OW34743   3.140   1.173   4.366 -0.4131 -0.7953  0.1240
 9636SOL    HW134744   3.046   1.169   4.351 -0.2752 -2.2077 -0.4667
 9636SOL    HW234745   3.148   1.187   4.461 -1.2099  1.0574 -0.0470
 9637SOL     OW34746   8.933   9.250   5.113 -0.3975  0.1997  0.1755
 9637SOL    HW134747   8.979   9.168   5.100 -1.4790 -0.7467  1.9093
 9637SOL    HW234748   8.966   9.308   5.044  2.6438 -0.6897  0.7672
 9638SOL     OW34749   7.122   0.833   2.022 -0.0460  0.1876  0.2906
 9638SOL    HW134750   7.126   0.767   2.091 -1.0931  0.5220  0.6900
 9638SOL    HW234751   7.088   0.786   1.946  1.3325 -0.2378 -0.1026
 9639SOL     OW34752   0.355   5.201  10.406 -0.0189 -0.3851  0.1906
 9639SOL    HW134753   0.332   5.139  10.336 -1.0982 -1.8468  1.7339
 9639SOL    HW234754   0.388   5.278  10.361  0.8828 -1.8818 -1.8586
 9640SOL     OW34755   2.043   3.215   8.359 -0.2980  0.6246  0.1597
 9640SOL    HW134756   2.063   3.299   8.318  0.1504  1.0475  1.2127
 9640SOL    HW234757   1.997   3.239   8.440 -1.5442 -0.2043 -0.2718
 9641SOL     OW34758   7.091   2.646   7.607 -0.2163  0.4491  0.8371
 9641SOL    HW134759   7.140   2.618   7.685  0.9175 -1.6897 -0.5296
 9641SOL    HW234760   7.146   2.617   7.534 -1.3373  2.2253 -0.7717
 9642SOL     OW34761   9.082   2.331   6.693 -0.3359  0.2280 -0.0349
 9642SOL    HW134762   9.097   2.260   6.630 -0.7310 -0.9866  1.1960
 9642SOL    HW234763   9.168   2.353   6.727 -0.4057 -1.1458  1.1104
 9643SOL     OW34764   6.701  10.375  10.080  0.3130 -0.6879 -0.0001
 9643SOL    HW134765   6.671  10.427  10.006  0.2534 -0.7127  0.0070
 9643SOL    HW234766   6.752  10.304  10.040 -0.5490 -1.2761 -0.0860
 9644SOL     OW34767   8.292   7.278   7.969 -0.1256 -0.5084  0.1580
 9644SOL    HW134768   8.359   7.346   7.971 -1.5511  0.9619  1.0267
 9644SOL    HW234769   8.332   7.203   8.012  1.6060 -0.3646 -1.0996
 9645SOL     OW34770   3.921   9.583  10.388 -0.0802 -0.3134 -0.2331
 9645SOL    HW134771   3.930   9.487  10.394 -0.8677 -0.5844 -2.5072
 9645SOL    HW234772   3.826   9.598  10.390  0.0591  0.6188  1.8151
 9646SOL     OW34773   2.393   1.953   8.161  0.4126 -0.4658 -0.0032
 9646SOL    HW134774   2.343   2.001   8.095 -0.7405 -0.9430  0.5025
 9646SOL    HW234775   2.473   1.926   8.115 -0.5474 -1.1500 -1.3495
 9647SOL     OW34776  10.711   2.466   4.029  0.0648 -0.2607 -0.6757
 9647SOL    HW134777  10.776   2.536   4.024  0.0437 -0.2578 -0.8957
 9647SOL    HW234778  10.761   2.386   4.016  0.3392 -0.4109  1.0687
 9648SOL     OW34779   8.023   4.820   4.098 -0.5093  0.4746  0.1075
 9648SOL    HW134780   8.056   4.802   4.186 -1.4236  0.3701  0.4342
 9648SOL    HW234781   7.956   4.754   4.083  0.7025 -0.5188 -1.3012
 9649SOL     OW34782   6.826   7.267   3.398  0.4922  0.1306  0.1329
 9649SOL    HW134783   6.812   7.174   3.415  0.3746  0.4619  1.9867
 9649SOL    HW234784   6.826   7.308   3.484 -1.4700  2.1575 -0.7425
 9650SOL     OW34785   6.416   4.446   9.158  0.1566  0.2273  0.0310
 9650SOL    HW134786   6.332   4.463   9.115  0.7091  1.3371 -0.6439
 9650SOL    HW234787   6.436   4.527   9.204  0.3738 -0.3898  1.0352
 9651SOL     OW34788   3.107   2.202   7.997 -0.0169 -0.0116  0.1790
 9651SOL    HW134789   3.185   2.147   7.993  1.4585  2.0195 -3.1405
 9651SOL    HW234790   3.110   2.242   8.084  3.0094  0.3505  0.0057
 9652SOL     OW34791   8.990   1.830   2.718 -0.1847  0.3580  0.2231
 9652SOL    HW134792   8.949   1.831   2.631  0.3993 -0.9320 -0.0952
 9652SOL    HW234793   8.930   1.880   2.773 -0.9920  0.4886 -0.7341
 9653SOL     OW34794   7.227   0.712   7.773  0.4967  0.3782 -0.1261
 9653SOL    HW134795   7.178   0.630   7.765  0.6956  0.1071  1.1888
 9653SOL    HW234796   7.169   0.770   7.821  1.4777 -0.0120  1.6293
 9654SOL     OW34797   1.735  10.700   5.255  0.0715  0.1793  0.1869
 9654SOL    HW134798   1.764  10.636   5.319  0.7854 -0.6530 -0.9396
 9654SOL    HW234799   1.786  10.681   5.177  1.7536  3.3431  0.3489
 9655SOL     OW34800   8.733   8.784   9.629 -0.0760 -0.5994  0.3841
 9655SOL    HW134801   8.701   8.855   9.684  0.2881  0.9802 -1.3539
 9655SOL    HW234802   8.737   8.709   9.687 -0.2977  0.8333  2.3378
 9656SOL     OW34803   9.460   5.016   0.991  0.0308 -0.0136 -0.1921
 9656SOL    HW134804   9.459   5.055   1.078 -0.3910 -1.2607  0.3803
 9656SOL    HW234805   9.550   4.985   0.980 -0.1079 -0.5347  0.1186
 9657SOL     OW34806   2.243   1.856   6.530  0.2084 -0.1343 -0.0204
 9657SOL    HW134807   2.224   1.843   6.623  0.0902  3.0721  0.5247
 9657SOL    HW234808   2.339   1.852   6.525  0.2512  0.2724  0.3665
 9658SOL     OW34809   4.377   1.128   0.717  0.5625  0.3297  0.1570
 9658SOL    HW134810   4.318   1.168   0.653  0.6984 -0.3671 -0.4238
 9658SOL    HW234811   4.349   1.036   0.720  1.6118 -0.0173 -0.1418
 9659SOL     OW34812   5.272   7.780   0.592 -0.1927  0.3024  0.2338
 9659SOL    HW134813   5.179   7.767   0.575  0.2239 -0.1076 -1.9543
 9659SOL    HW234814   5.275   7.818   0.680 -2.3273 -0.7770  0.8290
 9660SOL     OW34815   4.430   3.360   9.454  0.6168 -0.3827  0.1844
 9660SOL    HW134816   4.478   3.299   9.399  1.8415 -0.7337  1.5827
 9660SOL    HW234817   4.475   3.357   9.538 -0.1740  1.3807  0.7131
 9661SOL     OW34818   3.547   6.894   1.083  0.5555 -0.0987 -0.5822
 9661SOL    HW134819   3.497   6.846   1.017  0.9259  0.5692 -1.3638
 9661SOL    HW234820   3.497   6.974   1.097  0.2357 -0.4433  0.3004
 9662SOL     OW34821   9.537   2.954   6.367  0.2221 -0.0572  0.7454
 9662SOL    HW134822   9.626   2.918   6.369 -0.4644 -1.8846  0.2044
 9662SOL    HW234823   9.484   2.891   6.415 -1.5614 -1.3839 -2.6549
 9663SOL     OW34824   8.969   7.110   7.541  0.1295 -0.1769 -0.1556
 9663SOL    HW134825   8.969   7.055   7.619  0.0273  1.2179  0.8718
 9663SOL    HW234826   8.926   7.058   7.473 -1.0816 -0.8801  1.1174
 9664SOL     OW34827   6.079   9.505   1.059  0.4636 -0.2083 -0.0752
 9664SOL    HW134828   5.993   9.538   1.033  0.2602 -0.9396 -0.3613
 9664SOL    HW234829   6.066   9.472   1.148  0.5003 -0.1286 -0.0403
 9665SOL     OW34830   8.561   1.402   6.674 -0.2853 -0.1301 -0.4685
 9665SOL    HW134831   8.477   1.357   6.664 -0.3584  0.0459 -0.6497
 9665SOL    HW234832   8.618   1.361   6.609 -0.1667 -0.3961 -0.2015
 9666SOL     OW34833   6.776   0.814   3.418  0.0365 -0.2249 -0.2680
 9666SOL    HW134834   6.695   0.777   3.454  1.2902 -1.0000  1.9446
 9666SOL    HW234835   6.766   0.805   3.323 -3.0199  0.9655 -0.1869
 9667SOL     OW34836   2.164   5.466   0.982  0.1895  0.2253 -0.4904
 9667SOL    HW134837   2.091   5.488   0.924 -1.3861  0.2808  1.4028
 9667SOL    HW234838   2.158   5.371   0.994 -1.8722  0.5992  2.4112
 9668SOL     OW34839   1.700   6.474   3.134 -0.8853 -0.2242  0.2177
 9668SOL    HW134840   1.747   6.555   3.153 -1.6207 -0.0108  1.2220
 9668SOL    HW234841   1.747   6.436   3.059  2.2492 -1.1269  2.4187
 9669SOL     OW34842   4.780   0.710   2.089  0.6015  0.4420 -0.1061
 9669SOL    HW134843   4.689   0.695   2.115  0.0769  1.9926 -0.9068
 9669SOL    HW234844   4.787   0.672   2.001  0.8910 -0.1143  0.1471
 9670SOL     OW34845   5.217   1.517   8.071  0.3389 -0.0112  0.2626
 9670SOL    HW134846   5.126   1.501   8.092  0.4143  0.7862  1.2759
 9670SOL    HW234847   5.258   1.431   8.069 -0.0415 -0.2496  1.7521
 9671SOL     OW34848   7.654   4.250   1.285 -0.2657  0.4247 -0.6987
 9671SOL    HW134849   7.642   4.206   1.369 -1.2147  0.0673 -1.0088
 9671SOL    HW234850   7.695   4.183   1.229  3.1244  1.5024  0.2287
 9672SOL     OW34851   2.677   7.165   1.198 -0.0784 -0.2114 -0.4052
 9672SOL    HW134852   2.719   7.082   1.178 -0.0333  0.1163 -1.7659
 9672SOL    HW234853   2.707   7.225   1.130  0.3170  1.0819  0.8474
 9673SOL     OW34854   4.580   7.244   0.980  0.2887 -0.5252 -0.6628
 9673SOL    HW134855   4.655   7.302   0.970  0.7613 -1.1233 -0.6672
 9673SOL    HW234856   4.584   7.215   1.071  0.1781 -0.7123 -0.7166
 9674SOL     OW34857   4.833  10.078   2.529  0.2292  0.2103 -0.4991
 9674SOL    HW134858   4.884  10.005   2.493 -1.5652 -0.6496 -1.4955
 9674SOL    HW234859   4.767  10.036   2.584  0.4985  1.2709  0.6822
 9675SOL     OW34860   8.503   4.395   5.286 -0.3598  0.3371  0.0131
 9675SOL    HW134861   8.460   4.388   5.371  0.0601  0.9312  0.2746
 9675SOL    HW234862   8.459   4.329   5.232 -0.2482 -0.4363  0.8434
 9676SOL     OW34863   6.869   7.992   0.040 -0.6422  0.0726  0.2766
 9676SOL    HW134864   6.945   8.043   0.067 -0.9741  0.1956  1.0072
 9676SOL    HW234865   6.885   7.970  -0.052  0.3412 -0.0376  0.4733
 9677SOL     OW34866   4.036   7.345   7.723  0.6324 -0.0404 -0.4294
 9677SOL    HW134867   3.963   7.405   7.704 -0.5342 -1.0568  0.6352
 9677SOL    HW234868   4.000   7.258   7.704  0.9969 -0.6926  1.6827
 9678SOL     OW34869   5.267   5.423   5.617 -0.2496 -0.1548 -0.1465
 9678SOL    HW134870   5.318   5.502   5.603  0.2896 -0.1790  1.5529
 9678SOL    HW234871   5.300   5.386   5.698 -1.6732 -1.2049 -0.0010
 9679SOL     OW34872   5.589   0.411   7.484 -0.4039 -0.3661 -0.0604
 9679SOL    HW134873   5.583   0.317   7.467 -0.3513 -0.1048 -1.6560
 9679SOL    HW234874   5.498   0.439   7.498 -0.5248 -0.4788 -0.6119
 9680SOL     OW34875   6.251   4.535   5.902 -0.2466 -0.3644 -0.4073
 9680SOL    HW134876   6.192   4.513   5.974  0.8456 -1.3295  0.2163
 9680SOL    HW234877   6.333   4.559   5.945 -0.0524  0.6112 -1.2814
 9681SOL     OW34878   5.314   1.783   5.073  0.5188  0.6167  0.0326
 9681SOL    HW134879   5.272   1.792   4.988  0.4141  2.1179  0.2219
 9681SOL    HW234880   5.408   1.790   5.054  0.5735 -0.3120 -0.0936
 9682SOL     OW34881   8.422   8.039   0.764  0.0567 -0.2077 -0.0189
 9682SOL    HW134882   8.428   8.076   0.676 -2.6156 -0.3235 -0.3315
 9682SOL    HW234883   8.503   8.065   0.807  0.9154  0.8307 -2.1475
 9683SOL     OW34884  10.418   0.627   7.402  0.0195  0.0544 -0.6665
 9683SOL    HW134885  10.435   0.617   7.495 -0.1273  0.4253 -0.5980
 9683SOL    HW234886  10.498   0.596   7.359 -0.2830 -1.0319 -0.4531
 9684SOL     OW34887   2.488   1.213   8.529 -0.1497 -0.0329 -0.0961
 9684SOL    HW134888   2.457   1.289   8.481 -0.0242  0.3721  0.4571
 9684SOL    HW234889   2.543   1.166   8.467  1.4145  1.3818  0.1496
 9685SOL     OW34890   7.725   6.371   4.546 -0.4945 -0.1586 -0.2628
 9685SOL    HW134891   7.785   6.310   4.504 -0.1261  0.3272 -0.4435
 9685SOL    HW234892   7.779   6.418   4.609 -0.7450  0.1025 -0.2426
 9686SOL     OW34893   0.320   8.241   8.873 -0.0808  0.0843 -0.1851
 9686SOL    HW134894   0.268   8.198   8.941 -1.7397  1.3324 -0.5996
 9686SOL    HW234895   0.386   8.291   8.922 -0.6992  0.2714  0.4839
 9687SOL     OW34896   7.224   2.911   2.565 -0.1053 -0.1566 -0.3579
 9687SOL    HW134897   7.180   2.992   2.590 -1.0498 -0.1303 -2.0239
 9687SOL    HW234898   7.167   2.841   2.598 -1.0082 -0.1190 -1.7553
 9688SOL     OW34899   5.991   3.530   6.974  0.1392 -0.4755 -0.2888
 9688SOL    HW134900   5.900   3.556   6.962  0.5806  1.1681 -0.3077
 9688SOL    HW234901   6.038   3.569   6.900  0.9186 -0.9671 -0.0701
 9689SOL     OW34902   1.302   5.865   1.407 -0.1480 -0.0172  0.0486
 9689SOL    HW134903   1.246   5.942   1.414 -0.3760 -0.3306  1.9805
 9689SOL    HW234904   1.329   5.864   1.315 -1.4936  1.3983 -0.3976
 9690SOL     OW34905   1.376   8.264  10.226  0.2981 -0.2452  0.1793
 9690SOL    HW134906   1.461   8.240  10.188 -0.2551 -0.4718 -0.9738
 9690SOL    HW234907   1.314   8.254  10.153 -0.7064 -0.0159  0.9814
 9691SOL     OW34908   5.296   4.560   5.556  0.1826 -0.6040 -0.3748
 9691SOL    HW134909   5.235   4.583   5.626  0.1528 -1.7147 -0.0108
 9691SOL    HW234910   5.372   4.616   5.571  1.4036 -2.7299  2.3314
 9692SOL     OW34911   3.265   7.099   6.394 -0.5381  0.4398  0.0462
 9692SOL    HW134912   3.206   7.070   6.324  0.4311  1.3808 -1.2092
 9692SOL    HW234913   3.239   7.190   6.411 -0.5564  0.3202  0.7027
 9693SOL     OW34914   1.260   0.678   5.860  0.2332 -0.3059  0.5147
 9693SOL    HW134915   1.271   0.634   5.944  0.4963 -0.6252  0.3162
 9693SOL    HW234916   1.350   0.696   5.831  0.1335  1.7159  1.2935
 9694SOL     OW34917   9.322   7.265   4.529  0.2750  0.2448  0.2787
 9694SOL    HW134918   9.305   7.228   4.616 -1.5684 -0.4382 -0.3212
 9694SOL    HW234919   9.267   7.343   4.525 -0.5249 -0.3474 -0.6630
 9695SOL     OW34920   0.047   0.194  10.146 -0.0557 -0.8693  0.4569
 9695SOL    HW134921   0.026   0.173  10.237  1.0191 -0.8146  0.7401
 9695SOL    HW234922  -0.025   0.157  10.095 -0.7846 -0.7142  1.3420
 9696SOL     OW34923   0.612   4.554   1.735  0.1580  0.3797  0.5535
 9696SOL    HW134924   0.676   4.602   1.684  2.0772 -0.0975  2.3880
 9696SOL    HW234925   0.561   4.621   1.780  0.3490  0.7385  0.2382
 9697SOL     OW34926  10.026   8.758   8.520 -0.2329  1.4613 -0.3504
 9697SOL    HW134927   9.983   8.674   8.505 -0.0976  1.0123  1.5249
 9697SOL    HW234928   9.981   8.819   8.463 -1.7894  0.5265 -0.1597
 9698SOL     OW34929   9.902   9.853   1.738 -0.2816  0.2491 -0.2131
 9698SOL    HW134930   9.820   9.825   1.780  0.5493  0.1974  1.4650
 9698SOL    HW234931   9.920   9.784   1.674 -1.1050 -0.2021  0.0198
 9699SOL     OW34932   4.795   2.255   5.259  0.2825 -0.1456 -0.1359
 9699SOL    HW134933   4.816   2.348   5.268  0.9723 -0.4573  1.8856
 9699SOL    HW234934   4.865   2.221   5.203  0.1175  0.4950 -0.7571
 9700SOL     OW34935   3.541   8.612   6.709 -0.1507  0.4969 -0.0610
 9700SOL    HW134936   3.514   8.693   6.753  1.0521  0.4134  0.8767
 9700SOL    HW234937   3.555   8.638   6.618  2.0968  1.8391  0.5979
 9701SOL     OW34938   3.751   4.320   8.911  0.1789 -0.1894  0.1318
 9701SOL    HW134939   3.699   4.400   8.900  0.6248  0.2745  1.1867
 9701SOL    HW234940   3.686   4.250   8.912 -0.2531  0.1874 -0.4631
 9702SOL     OW34941   2.232   2.561   5.793  0.2213  0.7450 -0.2275
 9702SOL    HW134942   2.268   2.562   5.881 -1.7877  0.8476  0.6386
 9702SOL    HW234943   2.142   2.591   5.803 -0.4543 -0.4424 -2.1227
 9703SOL     OW34944   8.746   5.657   1.989  0.1987 -0.1920  0.6415
 9703SOL    HW134945   8.781   5.667   2.078  0.5773  2.0270  0.3035
 9703SOL    HW234946   8.758   5.744   1.949 -0.2821 -1.0462 -1.4652
 9704SOL     OW34947   3.923   8.996   3.349  0.2095  0.1054  0.4855
 9704SOL    HW134948   3.923   9.031   3.260  1.4914 -0.9919  0.0140
 9704SOL    HW234949   3.872   8.915   3.343  1.8711 -0.9822  0.2632
 9705SOL     OW34950   9.917   0.777   7.280 -0.6830  0.0899 -0.0732
 9705SOL    HW134951   9.873   0.723   7.214 -0.3062  0.4272 -0.6108
 9705SOL    HW234952  10.006   0.741   7.285 -0.9156 -0.3925  0.7837
 9706SOL     OW34953   4.613   5.939   6.404  0.1814 -0.1324 -0.3252
 9706SOL    HW134954   4.658   5.855   6.401  2.1306  0.8606 -0.7738
 9706SOL    HW234955   4.640   5.977   6.487 -0.1821  0.3056 -0.4048
 9707SOL     OW34956   5.137   0.432   2.204 -0.2174 -0.1353  0.0243
 9707SOL    HW134957   5.121   0.424   2.109 -1.1884  0.5195  0.1135
 9707SOL    HW234958   5.050   0.441   2.242 -0.0399 -2.6929  1.2535
 9708SOL     OW34959   8.336   1.213   2.241 -0.1427 -0.0374 -0.1151
 9708SOL    HW134960   8.364   1.212   2.150  0.3319  1.4674 -0.0039
 9708SOL    HW234961   8.244   1.187   2.238 -0.1604  0.0975 -1.0288
 9709SOL     OW34962   3.357   3.606   3.967 -0.2668 -0.3040 -0.1608
 9709SOL    HW134963   3.287   3.546   3.941 -0.0519 -1.1352  1.1108
 9709SOL    HW234964   3.312   3.685   3.997 -0.5706 -0.0418 -1.2548
 9710SOL     OW34965   6.320   8.153   5.759  0.2713 -0.5980  0.1597
 9710SOL    HW134966   6.350   8.108   5.838  1.2076  0.1839  0.2585
 9710SOL    HW234967   6.349   8.097   5.687  1.6913 -0.0474  0.2686
 9711SOL     OW34968  10.473   4.393   4.892  0.3222  0.2594 -0.3612
 9711SOL    HW134969  10.478   4.414   4.799  0.5832 -0.5104 -0.5303
 9711SOL    HW234970  10.527   4.315   4.902  1.0347  0.8566  0.6091
 9712SOL     OW34971   8.185   4.465   4.910 -0.0548 -0.0063  0.7526
 9712SOL    HW134972   8.149   4.381   4.884  1.9988 -0.6716 -0.1783
 9712SOL    HW234973   8.156   4.526   4.841 -0.3084 -0.2714  0.6237
 9713SOL     OW34974   5.642   9.606   2.424  0.4885  0.5465 -0.0801
 9713SOL    HW134975   5.590   9.684   2.405 -0.2666  0.0268 -0.2029
 9713SOL    HW234976   5.629   9.590   2.517 -0.4614 -0.1966 -0.3213
 9714SOL     OW34977   8.976   9.244   3.966  0.2297 -0.2624  0.3225
 9714SOL    HW134978   9.020   9.242   4.051  1.2113 -0.8461 -0.1900
 9714SOL    HW234979   9.045   9.264   3.903 -0.2245 -1.1933 -0.4975
 9715SOL     OW34980   8.892   2.966   5.869 -0.2653 -0.5061  0.3786
 9715SOL    HW134981   8.930   2.919   5.943 -0.7704  0.0137  0.9809
 9715SOL    HW234982   8.839   2.901   5.824  1.9721 -1.4887 -0.9948
 9716SOL     OW34983   0.230   7.404   3.738  0.1247  0.6498 -0.5438
 9716SOL    HW134984   0.185   7.488   3.747 -1.0184 -0.1290  2.1687
 9716SOL    HW234985   0.190   7.363   3.662 -3.0924  0.5072  1.0605
 9717SOL     OW34986   3.540   9.574   6.866 -0.7730  0.0402  0.7023
 9717SOL    HW134987   3.535   9.653   6.920  2.5187  1.1282 -0.3540
 9717SOL    HW234988   3.476   9.589   6.796 -1.1499  1.1664  1.2570
 9718SOL     OW34989   7.923   2.525   1.696 -0.4129  0.3548 -0.1599
 9718SOL    HW134990   7.957   2.436   1.681  0.2864  0.0762  2.5732
 9718SOL    HW234991   8.001   2.581   1.690 -0.5602  0.5552 -0.1797
 9719SOL     OW34992   9.587   7.384   3.462  0.1419  0.0935 -0.5161
 9719SOL    HW134993   9.558   7.305   3.508  1.2504  0.1085  0.2290
 9719SOL    HW234994   9.681   7.387   3.475  0.2750  0.9453 -1.4995
 9720SOL     OW34995   9.043  10.088   3.407 -0.3037  0.0398  0.1474
 9720SOL    HW134996   8.993  10.037   3.343 -0.5395 -0.3654  0.6474
 9720SOL    HW234997   8.977  10.118   3.469  0.1184 -0.8932  1.0738
 9721SOL     OW34998   8.697   1.561  10.254  0.3480  0.3498  0.1877
 9721SOL    HW134999   8.665   1.474  10.277 -0.8889  0.7956  0.2169
 9721SOL    HW235000   8.738   1.549  10.168  0.0592 -0.2331  0.1240
 9722SOL     OW35001   3.859   5.176   4.185 -0.4235  0.2577  0.0692
 9722SOL    HW135002   3.937   5.125   4.163  0.2279  1.1799  0.1625
 9722SOL    HW235003   3.847   5.234   4.109 -0.0556  1.2389  0.7447
 9723SOL     OW35004   6.361   2.336   5.812  0.0247 -0.2448 -0.2235
 9723SOL    HW135005   6.382   2.287   5.732 -1.8789 -0.4848 -0.6268
 9723SOL    HW235006   6.343   2.268   5.877  0.2834 -0.0642  0.0332
 9724SOL     OW35007   4.994   6.623   6.392 -0.2637 -0.5471 -0.0940
 9724SOL    HW135008   4.938   6.566   6.339  0.6645 -0.4219 -1.2241
 9724SOL    HW235009   5.052   6.665   6.329  0.6409 -0.1398  0.9951
 9725SOL     OW35010   7.336   7.763   1.476 -0.2666 -0.4771 -0.5731
 9725SOL    HW135011   7.261   7.815   1.448  0.4710  0.9923  0.0687
 9725SOL    HW235012   7.317   7.674   1.445 -0.7645  0.4751 -3.2757
 9726SOL     OW35013   8.219   9.045   2.449 -0.1372  0.0977 -0.5204
 9726SOL    HW135014   8.265   9.086   2.376  1.4619 -0.5532  0.0773
 9726SOL    HW235015   8.268   9.072   2.527 -0.7349 -0.6685  0.1418
 9727SOL     OW35016  10.569  10.159   0.409  0.2076 -0.1564  0.4233
 9727SOL    HW135017  10.578  10.109   0.490  0.9136  0.5395  0.7875
 9727SOL    HW235018  10.645  10.134   0.357 -1.4912 -2.5012 -1.1309
 9728SOL     OW35019   2.221   2.659   6.901  0.5972 -0.1633 -0.9259
 9728SOL    HW135020   2.196   2.617   6.983 -0.9717  1.3687 -0.5502
 9728SOL    HW235021   2.209   2.592   6.835 -0.4874 -0.7275 -0.1855
 9729SOL     OW35022   3.738   6.385   8.500  0.0325 -0.6016 -0.1252
 9729SOL    HW135023   3.746   6.315   8.564 -0.0509  1.6385  2.5115
 9729SOL    HW235024   3.828   6.415   8.486 -0.1447  0.2896  0.6010
 9730SOL     OW35025   6.525   8.403   7.476 -0.3062 -0.4414  0.1136
 9730SOL    HW135026   6.525   8.319   7.522 -0.0280 -0.5330 -0.0496
 9730SOL    HW235027   6.579   8.460   7.530  0.7442 -0.7986 -0.5400
 9731SOL     OW35028   1.683   1.340   8.225  0.7515 -0.1279 -0.2822
 9731SOL    HW135029   1.619   1.281   8.265 -0.2925  0.6745 -0.7116
 9731SOL    HW235030   1.735   1.371   8.298 -1.1946  1.4067  0.5519
 9732SOL     OW35031   2.652   2.415   4.561  0.0407  0.6196 -0.0379
 9732SOL    HW135032   2.709   2.340   4.572  0.5443  0.3678 -3.3269
 9732SOL    HW235033   2.572   2.380   4.522 -0.5316  1.5405  0.2583
 9733SOL     OW35034   8.142   0.645   9.653  0.0920  0.4701 -0.7024
 9733SOL    HW135035   8.204   0.679   9.589  2.3102 -0.2156  0.9420
 9733SOL    HW235036   8.146   0.550   9.642 -1.3774  0.4389 -1.1502
 9734SOL     OW35037   7.967   8.328   0.437  0.1434 -0.3543 -0.3781
 9734SOL    HW135038   7.939   8.270   0.507 -1.3337 -1.4114 -1.7753
 9734SOL    HW235039   8.059   8.306   0.422 -0.2030 -1.8566 -0.4180
 9735SOL     OW35040   4.135   7.149   1.655  0.0315  0.7859  0.2025
 9735SOL    HW135041   4.201   7.097   1.609 -0.5408  1.6128 -1.6649
 9735SOL    HW235042   4.155   7.137   1.748  0.5296 -1.9361 -0.1659
 9736SOL     OW35043   4.923   1.312   5.694  0.3161 -0.5569 -0.3761
 9736SOL    HW135044   4.868   1.304   5.772  1.5813  0.8944  0.7418
 9736SOL    HW235045   5.013   1.301   5.727  0.8976  0.4383 -1.5532
 9737SOL     OW35046   4.294   5.799   2.173  0.0113  0.2482 -0.3656
 9737SOL    HW135047   4.311   5.760   2.259  2.1045 -3.5708 -2.2507
 9737SOL    HW235048   4.347   5.879   2.173 -0.5981  0.7338  2.0577
 9738SOL     OW35049   9.652   3.385   0.030 -0.2717  0.5993  0.0754
 9738SOL    HW135050   9.673   3.473   0.001 -1.7623  1.2473  0.8664
 9738SOL    HW235051   9.606   3.345  -0.044 -1.3635  1.1926  0.4191
 9739SOL     OW35052   8.828   6.890   2.718 -0.1060  0.0147 -0.0928
 9739SOL    HW135053   8.833   6.918   2.809  1.1498 -2.5556  0.7001
 9739SOL    HW235054   8.753   6.830   2.715 -0.0965  0.0283 -0.7341
 9740SOL     OW35055   4.758   4.778   6.656 -0.7336  0.3290 -0.6126
 9740SOL    HW135056   4.727   4.822   6.576 -1.2791 -3.1166 -2.4968
 9740SOL    HW235057   4.846   4.747   6.634  0.4947  2.0844  1.4172
 9741SOL     OW35058   3.215   1.070   6.525 -0.3042  0.0096 -0.0586
 9741SOL    HW135059   3.153   1.064   6.451  0.1805  0.3813 -0.5033
 9741SOL    HW235060   3.200   0.990   6.575 -0.8856 -0.0845 -0.3656
 9742SOL     OW35061   4.486  10.548   5.488 -0.0756 -0.3085  0.1261
 9742SOL    HW135062   4.522  10.474   5.536  0.7394  0.6206  0.9984
 9742SOL    HW235063   4.448  10.604   5.556 -0.0414  0.4176 -0.4437
 9743SOL     OW35064   2.444   7.727   0.155 -0.1366 -0.5152 -0.0628
 9743SOL    HW135065   2.450   7.814   0.195  2.9323 -0.0575 -1.2410
 9743SOL    HW235066   2.419   7.744   0.064  1.1582 -0.7775 -0.4781
 9744SOL     OW35067  10.100   1.179   4.035  0.0583  0.3868  0.7710
 9744SOL    HW135068  10.032   1.246   4.038 -0.8038 -0.4163  0.0151
 9744SOL    HW235069  10.158   1.206   3.964 -0.3088  0.3318  0.4430
 9745SOL     OW35070  10.078   4.124   1.565 -0.5275  0.1117 -0.1797
 9745SOL    HW135071  10.144   4.100   1.500  0.7806  0.1445  1.0782
 9745SOL    HW235072   9.995   4.116   1.519  0.3026 -0.5975 -1.6311
 9746SOL     OW35073   5.743   2.352   1.761  0.3874 -0.1648  0.5071
 9746SOL    HW135074   5.726   2.445   1.776 -0.5728 -0.2731  0.1893
 9746SOL    HW235075   5.790   2.323   1.839 -0.0278  0.4029  0.9771
 9747SOL     OW35076   4.037   4.801   7.365  0.4601 -0.1505  0.0123
 9747SOL    HW135077   4.028   4.873   7.427  0.5757  0.5879 -0.8121
 9747SOL    HW235078   3.980   4.732   7.399 -2.5182  1.6174 -1.0226
 9748SOL     OW35079   1.472   6.858   2.244  0.3886 -0.1389  0.0054
 9748SOL    HW135080   1.416   6.784   2.222  1.4239 -1.3329  1.1898
 9748SOL    HW235081   1.419   6.935   2.226 -0.4125 -1.1287 -2.0608
 9749SOL     OW35082   1.317   1.883   3.014 -0.1299 -0.6749  0.0444
 9749SOL    HW135083   1.364   1.814   3.060 -0.8979 -0.6098  0.9671
 9749SOL    HW235084   1.382   1.923   2.956  0.7766 -0.9789  0.8357
 9750SOL     OW35085   0.773   5.867   6.051  0.3312 -0.4162  0.6558
 9750SOL    HW135086   0.726   5.936   6.098  0.8800  0.1168  0.4402
 9750SOL    HW235087   0.866   5.882   6.072  0.6871  0.4117 -1.2929
 9751SOL     OW35088   5.147  10.610   1.939 -0.1219  0.1524 -0.1942
 9751SOL    HW135089   5.068  10.635   1.987 -0.5558 -0.6396 -0.4849
 9751SOL    HW235090   5.116  10.584   1.852  0.5741  0.8243 -0.6728
 9752SOL     OW35091   4.188   6.620   0.536 -0.1776  0.6564  0.4786
 9752SOL    HW135092   4.104   6.580   0.515  0.9065 -1.4027 -0.2600
 9752SOL    HW235093   4.195   6.695   0.477 -1.9942  1.6235  1.4195
 9753SOL     OW35094   2.551   9.559   8.819  0.8644 -0.1464 -0.4109
 9753SOL    HW135095   2.551   9.632   8.757  1.1647 -0.8319 -1.2406
 9753SOL    HW235096   2.467   9.515   8.804  1.0037 -0.4032 -0.4496
 9754SOL     OW35097   7.310   5.703   4.799 -0.1956  0.0325 -0.0629
 9754SOL    HW135098   7.405   5.702   4.788  0.0059 -1.0474  1.3700
 9754SOL    HW235099   7.276   5.744   4.720  1.4749  0.6462 -0.4937
 9755SOL     OW35100   8.057   1.515   9.516 -0.4543 -0.5164 -0.1722
 9755SOL    HW135101   8.112   1.591   9.499  0.2796 -1.1931 -0.9229
 9755SOL    HW235102   7.998   1.543   9.586  0.3179  0.4830  0.1046
 9756SOL     OW35103   2.394   3.655   3.550  0.1644 -0.0626 -0.3703
 9756SOL    HW135104   2.462   3.644   3.617  0.3944 -1.9443 -0.8440
 9756SOL    HW235105   2.311   3.650   3.599  0.2800 -2.9393 -0.2843
 9757SOL     OW35106   3.507   8.385   0.793  0.2946 -0.1157  0.2034
 9757SOL    HW135107   3.539   8.323   0.859  2.4695  1.4063  0.7031
 9757SOL    HW235108   3.575   8.386   0.726 -0.3740  0.7018 -0.4833
 9758SOL     OW35109  10.626   7.730   0.052 -0.2851 -0.3775  0.1965
 9758SOL    HW135110  10.608   7.756   0.143 -1.2273 -0.3148  0.0025
 9758SOL    HW235111  10.691   7.660   0.059  1.2269  1.0088  0.8117
 9759SOL     OW35112   6.724   4.380   3.875  0.0101  0.5174 -0.1352
 9759SOL    HW135113   6.775   4.452   3.837 -0.1843  0.8437  0.2083
 9759SOL    HW235114   6.764   4.365   3.960  0.5017 -0.2743 -0.4987
 9760SOL     OW35115   9.495   9.753   1.752  0.1697  0.2684  0.0661
 9760SOL    HW135116   9.472   9.662   1.736  2.4649 -0.2820 -0.4430
 9760SOL    HW235117   9.497   9.793   1.665  0.4559  0.4627  0.1603
 9761SOL     OW35118   1.178   9.662   5.756  0.1005 -0.3345 -0.0368
 9761SOL    HW135119   1.109   9.670   5.691 -1.8733 -0.8318  1.8972
 9761SOL    HW235120   1.165   9.576   5.796  1.3079 -0.0940  0.9505
 9762SOL     OW35121   4.250   0.215  10.054  0.0073  0.5265  0.3129
 9762SOL    HW135122   4.287   0.276   9.991 -1.3052  2.2530  1.1023
 9762SOL    HW235123   4.159   0.245  10.066 -1.3775 -2.7865 -0.7263
 9763SOL     OW35124   5.262  10.525   9.584  0.4164 -0.0205  0.0211
 9763SOL    HW135125   5.222  10.464   9.522  0.2842  0.8615 -0.7771
 9763SOL    HW235126   5.208  10.604   9.579  1.0878  0.4776  0.4087
 9764SOL     OW35127   5.722   9.374  10.060  0.8359  0.3201  0.3317
 9764SOL    HW135128   5.672   9.309  10.009  0.0074  1.5214 -0.4448
 9764SOL    HW235129   5.732   9.333  10.146  0.0814 -0.7203 -0.0403
 9765SOL     OW35130   3.012   8.422   2.598  0.2031  0.0009  0.1802
 9765SOL    HW135131   3.070   8.371   2.543 -1.4495 -0.7380 -0.9660
 9765SOL    HW235132   3.002   8.505   2.552 -0.3641 -0.2254 -0.1121
 9766SOL     OW35133   0.741   3.070   7.327 -0.4945  0.5846  0.1422
 9766SOL    HW135134   0.746   3.129   7.403  0.0578 -1.6197  1.9307
 9766SOL    HW235135   0.649   3.048   7.320 -0.2278 -1.9057  2.5370
 9767SOL     OW35136   0.312   2.023   8.354 -0.2171 -0.2003 -0.1405
 9767SOL    HW135137   0.279   1.938   8.382  2.8244 -2.0810 -1.7128
 9767SOL    HW235138   0.310   2.020   8.258  1.3284  0.8460 -0.2473
 9768SOL     OW35139   3.453   5.070   8.743  0.0579  0.0347  0.3411
 9768SOL    HW135140   3.523   5.007   8.727 -0.5127 -0.4757 -0.2418
 9768SOL    HW235141   3.407   5.076   8.659 -1.3580 -0.5991  1.0326
 9769SOL     OW35142   0.196   0.765   7.706 -0.4385 -0.4958  0.3973
 9769SOL    HW135143   0.242   0.792   7.627  0.8926  0.5137  1.4537
 9769SOL    HW235144   0.222   0.673   7.718  1.5241  0.0741  1.0271
 9770SOL     OW35145   1.248   5.085   9.564 -0.3728  0.0666  0.1354
 9770SOL    HW135146   1.196   5.165   9.575  0.1060  0.1595  2.3143
 9770SOL    HW235147   1.338   5.117   9.552 -0.1114 -0.1077  1.4719
 9771SOL     OW35148   7.200   5.501   0.982 -0.1845 -0.2231 -0.3958
 9771SOL    HW135149   7.175   5.593   0.990 -0.4201 -0.1819 -1.4267
 9771SOL    HW235150   7.166   5.459   1.061 -0.7890  0.4300 -0.3059
 9772SOL     OW35151   6.784   7.661   2.206 -0.4562 -0.1833 -0.1154
 9772SOL    HW135152   6.709   7.631   2.256 -0.4654 -2.0138 -1.1467
 9772SOL    HW235153   6.789   7.755   2.224 -1.1542 -0.5476  2.3380
 9773SOL     OW35154   4.664   9.238   9.962  0.1536  0.2610  0.5718
 9773SOL    HW135155   4.589   9.186   9.935  0.0633  0.0348  1.2409
 9773SOL    HW235156   4.688   9.288   9.884  1.2538 -1.9678 -0.6133
 9774SOL     OW35157   4.392   0.486   4.683 -0.7340  0.1079 -0.1482
 9774SOL    HW135158   4.481   0.461   4.707 -0.7504  1.6693  1.8452
 9774SOL    HW235159   4.402   0.540   4.605  0.0065 -0.2214 -0.2844
 9775SOL     OW35160   3.635   2.499   7.683 -0.2310  0.6778 -0.1635
 9775SOL    HW135161   3.602   2.425   7.734 -0.0258  1.1807  0.7160
 9775SOL    HW235162   3.556   2.541   7.649 -0.4444  1.0649  0.7839
 9776SOL     OW35163   1.827   9.790   1.338  0.2659  0.4729  0.4468
 9776SOL    HW135164   1.890   9.741   1.286 -1.3419 -0.1188 -1.0351
 9776SOL    HW235165   1.766   9.724   1.370  0.0351  1.1091  1.3506
 9777SOL     OW35166   1.912   1.175   9.374  0.0731  0.0142  0.0636
 9777SOL    HW135167   1.994   1.130   9.394  1.4931  2.6658  0.5615
 9777SOL    HW235168   1.864   1.175   9.457  0.4146  0.1324  0.2617
 9778SOL     OW35169   9.481   6.910   1.161  0.0645  0.0226  0.2398
 9778SOL    HW135170   9.446   6.999   1.168  0.5243  0.0628  3.0619
 9778SOL    HW235171   9.403   6.855   1.154 -0.3231  0.5011  0.6918
 9779SOL     OW35172   5.527   0.496   4.545  0.0896  0.2600  0.3424
 9779SOL    HW135173   5.505   0.414   4.588  0.8663 -0.2999 -0.2977
 9779SOL    HW235174   5.499   0.484   4.454  0.5418  0.5543  0.1608
 9780SOL     OW35175   8.378   8.317   8.231  0.5067 -0.4262 -0.8091
 9780SOL    HW135176   8.455   8.273   8.267  0.0235  2.0749  4.2036
 9780SOL    HW235177   8.314   8.246   8.220  1.6601 -1.8365  0.8269
 9781SOL     OW35178   1.033   1.593   3.475  0.4416 -0.1562  0.1792
 9781SOL    HW135179   0.989   1.652   3.537  1.7392 -0.4572  1.4410
 9781SOL    HW235180   1.094   1.543   3.529  0.0467 -2.0193 -1.0083
 9782SOL     OW35181   9.236   8.709   9.514 -0.0695 -0.7150  0.0932
 9782SOL    HW135182   9.146   8.692   9.540 -0.4764  1.4549  0.2605
 9782SOL    HW235183   9.237   8.695   9.419 -1.3724  1.9583 -0.4178
 9783SOL     OW35184   6.809   5.067   4.308  0.1297  0.9093  0.3558
 9783SOL    HW135185   6.863   5.028   4.376  1.1537  0.3391 -0.7347
 9783SOL    HW235186   6.863   5.137   4.271  0.5636 -0.2741 -1.3823
 9784SOL     OW35187   8.847   9.234   8.275 -0.4062  0.1115  0.1828
 9784SOL    HW135188   8.779   9.284   8.320 -0.0685  0.3446  0.4481
 9784SOL    HW235189   8.874   9.290   8.202  0.3549  0.5805  0.7969
 9785SOL     OW35190   6.930   8.451   2.403  0.3230 -0.7245  0.1581
 9785SOL    HW135191   7.004   8.449   2.343  0.3232  0.4462  0.1088
 9785SOL    HW235192   6.869   8.387   2.367  0.3307 -0.0456 -1.1078
 9786SOL     OW35193   9.126   1.436   2.503 -0.1115 -0.3146 -0.0816
 9786SOL    HW135194   9.153   1.446   2.594  0.2191 -2.3536  0.0973
 9786SOL    HW235195   9.065   1.362   2.504 -1.8259  1.0066 -1.2291
 9787SOL     OW35196   5.434   0.808   7.840 -0.1873 -0.4037  0.1349
 9787SOL    HW135197   5.475   0.780   7.758  0.8219  0.5343  0.2903
 9787SOL    HW235198   5.426   0.903   7.832 -0.3822 -0.3375  0.9759
 9788SOL     OW35199   5.387   9.528   4.027 -0.2591 -0.0034 -0.6068
 9788SOL    HW135200   5.412   9.499   4.115  0.2040  0.7338 -0.4804
 9788SOL    HW235201   5.313   9.587   4.042 -0.0142  0.3276 -0.6747
 9789SOL     OW35202   7.161   7.729   3.083 -0.1687 -0.4352 -0.2931
 9789SOL    HW135203   7.087   7.678   3.115 -0.9655  1.3336  0.8084
 9789SOL    HW235204   7.231   7.664   3.073 -1.2454 -1.8191  0.6463
 9790SOL     OW35205   7.762   8.242   5.354 -0.5837 -0.0825  0.5431
 9790SOL    HW135206   7.722   8.233   5.441 -0.1027 -1.4975  0.6407
 9790SOL    HW235207   7.701   8.297   5.305  0.2978  2.8389  2.4789
 9791SOL     OW35208   9.168   0.778   8.082 -0.0652 -0.3411  0.1641
 9791SOL    HW135209   9.214   0.695   8.070  0.5514 -0.1601  1.1375
 9791SOL    HW235210   9.161   0.787   8.177 -0.6922  0.4162  0.0495
 9792SOL     OW35211   6.092   7.940   4.503  0.2847 -0.5142  0.2693
 9792SOL    HW135212   6.009   7.909   4.540  0.7015 -2.0369  0.0316
 9792SOL    HW235213   6.105   7.885   4.426  0.2497  1.4750 -1.2287
 9793SOL     OW35214   9.981   7.477   0.141 -0.1349  0.0132 -0.3975
 9793SOL    HW135215   9.907   7.458   0.200  1.5108  1.3046  2.2703
 9793SOL    HW235216   9.954   7.440   0.057 -2.4913 -2.3469  1.2149
 9794SOL     OW35217   5.117   3.703   0.265 -0.2593  0.0866  0.5313
 9794SOL    HW135218   5.165   3.689   0.184 -0.5372  0.6104  0.2698
 9794SOL    HW235219   5.152   3.785   0.301  1.1845 -1.0662  1.9243
 9795SOL     OW35220   6.473   5.515   9.845  0.1511 -0.2378  0.2863
 9795SOL    HW135221   6.487   5.422   9.864  2.9220  0.1882  0.8030
 9795SOL    HW235222   6.433   5.549   9.925 -1.0159 -0.9640  0.0446
 9796SOL     OW35223   7.659   5.508   0.441 -0.1624 -0.4048  0.1551
 9796SOL    HW135224   7.699   5.480   0.359 -0.5792 -0.8045  0.0814
 9796SOL    HW235225   7.640   5.426   0.488 -0.2955 -0.1968  0.4707
 9797SOL     OW35226   5.936   9.467   4.327  0.3845 -0.1328  0.1745
 9797SOL    HW135227   6.013   9.505   4.284  0.5003 -0.0954  0.4116
 9797SOL    HW235228   5.972   9.397   4.381  0.4368  0.8168  1.4185
 9798SOL     OW35229   3.055   8.736  10.455 -0.5583  0.7999  0.4451
 9798SOL    HW135230   3.150   8.741  10.443 -0.3868 -1.0193  0.8521
 9798SOL    HW235231   3.018   8.746  10.367  0.1257 -0.7442 -0.0346
 9799SOL     OW35232   3.194   5.835   7.674 -0.4234  0.0283  0.1680
 9799SOL    HW135233   3.117   5.850   7.728  0.5872 -0.0693  1.7028
 9799SOL    HW235234   3.234   5.922   7.665 -1.7171  0.4506 -2.3107
 9800SOL     OW35235   6.320   1.676   0.461 -0.6405  0.5252 -0.3270
 9800SOL    HW135236   6.250   1.630   0.508 -0.8409  0.7790 -0.3749
 9800SOL    HW235237   6.381   1.607   0.435 -1.0797  0.2478 -0.6404
 9801SOL     OW35238   5.830   0.451   7.589 -0.5755  0.2998 -0.1465
 9801SOL    HW135239   5.821   0.546   7.598 -0.0248  0.3695 -0.3316
 9801SOL    HW235240   5.750   0.425   7.543  0.1491  0.9404 -1.8479
 9802SOL     OW35241   2.080   9.637   9.231 -0.2370  0.2598  0.1063
 9802SOL    HW135242   1.993   9.632   9.192  0.1124  0.3962 -0.7121
 9802SOL    HW235243   2.107   9.728   9.218 -0.2471  0.3986  0.9796
 9803SOL     OW35244   2.282   6.860   8.250  0.2894  0.2087  0.4116
 9803SOL    HW135245   2.214   6.829   8.190 -0.9509 -1.8208  2.6988
 9803SOL    HW235246   2.238   6.927   8.303  0.7142  0.4066  0.5149
 9804SOL     OW35247   8.321   5.883   1.474  0.2238  0.6379  0.0820
 9804SOL    HW135248   8.248   5.824   1.459 -0.0386  0.8585  0.4851
 9804SOL    HW235249   8.393   5.826   1.503 -0.1759  0.5760  0.9556
 9805SOL     OW35250   2.250   0.431   0.784 -0.3147 -0.8684  0.0367
 9805SOL    HW135251   2.234   0.501   0.848  1.1329  0.1482 -0.6655
 9805SOL    HW235252   2.216   0.466   0.701  1.0032 -0.7096 -0.4505
 9806SOL     OW35253  10.110   8.996   0.728 -0.1779  0.0760  0.3456
 9806SOL    HW135254  10.187   8.983   0.673 -1.1081  0.2960 -1.0735
 9806SOL    HW235255  10.112   9.088   0.752 -1.0983  0.6371 -1.5108
 9807SOL     OW35256   3.324   4.123   2.351 -0.2833 -0.2366 -0.1270
 9807SOL    HW135257   3.238   4.084   2.366 -0.7943  0.9876  0.2733
 9807SOL    HW235258   3.345   4.166   2.434  0.4036  0.0541 -0.4485
 9808SOL     OW35259   9.664   8.728   4.552 -0.4628  0.3155  0.1217
 9808SOL    HW135260   9.704   8.682   4.478 -0.4538  0.0101  0.3105
 9808SOL    HW235261   9.576   8.751   4.522 -0.5778 -0.1012  0.1272
 9809SOL     OW35262   3.093   4.292   9.094 -0.1827  0.1218  0.2121
 9809SOL    HW135263   3.130   4.314   9.179 -2.9224 -0.2348  1.6011
 9809SOL    HW235264   3.125   4.204   9.075  0.9551  0.4516  0.5254
 9810SOL     OW35265   6.799   4.801   7.700 -0.5312 -0.1259 -0.5337
 9810SOL    HW135266   6.760   4.862   7.637  0.6581  0.2175 -0.9545
 9810SOL    HW235267   6.762   4.828   7.785 -3.3241 -1.5292 -1.1767
 9811SOL     OW35268  10.273   0.150   5.478 -0.1473  0.8650  0.0262
 9811SOL    HW135269  10.298   0.172   5.388 -0.2568 -2.4743 -0.9340
 9811SOL    HW235270  10.185   0.114   5.470 -0.0032  0.1699  1.4101
 9812SOL     OW35271   8.292   5.550   5.780  0.0539  0.0973  0.2948
 9812SOL    HW135272   8.215   5.532   5.834 -0.6839  1.8360 -0.1416
 9812SOL    HW235273   8.364   5.556   5.844 -0.2492 -0.8850  0.7588
 9813SOL     OW35274   7.192   1.031   9.018 -0.1235 -0.1311  0.1649
 9813SOL    HW135275   7.211   0.943   9.050  0.2083  0.3217  1.2448
 9813SOL    HW235276   7.153   1.017   8.931 -0.8678 -1.3705  0.6775
 9814SOL     OW35277   6.936   9.782   7.871  0.2747 -0.2529 -0.2049
 9814SOL    HW135278   6.909   9.762   7.961  0.0624  0.0879 -0.1908
 9814SOL    HW235279   6.860   9.759   7.817  0.5714 -0.9103 -0.3534
 9815SOL     OW35280   3.518   5.421   6.137 -0.8765 -0.0575  0.0398
 9815SOL    HW135281   3.456   5.348   6.135 -0.0037 -0.7962 -0.8168
 9815SOL    HW235282   3.499   5.470   6.056 -0.1869 -0.4326 -0.3570
 9816SOL     OW35283   8.867   9.762   8.644  0.2074  0.1052 -0.4385
 9816SOL    HW135284   8.907   9.828   8.587  0.5732 -0.2876 -0.6419
 9816SOL    HW235285   8.941   9.711   8.677 -0.0479 -0.0110 -0.0389
 9817SOL     OW35286   8.784   7.811   3.997  0.3683  0.4401 -0.2154
 9817SOL    HW135287   8.747   7.838   3.913 -2.7937 -0.1158  0.8834
 9817SOL    HW235288   8.772   7.716   3.999 -1.1679  0.6155  1.4875
 9818SOL     OW35289   9.668   1.945   4.105  0.3700  0.0242  0.5337
 9818SOL    HW135290   9.757   1.936   4.071 -0.0438 -0.4769 -0.4811
 9818SOL    HW235291   9.647   1.859   4.141  0.0707 -0.0696  0.1524
 9819SOL     OW35292   5.209   8.595   3.588 -0.0800  0.1414  0.3144
 9819SOL    HW135293   5.254   8.680   3.582  1.2626 -0.5223  0.6093
 9819SOL    HW235294   5.123   8.611   3.551 -0.4423  2.0569  1.8072
 9820SOL     OW35295  10.318   3.772   2.060  0.1571  0.1437  0.3160
 9820SOL    HW135296  10.283   3.703   2.003 -0.7582  0.8682 -0.0043
 9820SOL    HW235297  10.241   3.812   2.100  0.7548 -0.1265  1.8405
 9821SOL     OW35298   1.645   2.161   1.657 -0.0493 -0.1103 -0.8249
 9821SOL    HW135299   1.697   2.180   1.579 -1.3350  1.2263 -1.4185
 9821SOL    HW235300   1.600   2.244   1.676  0.6861 -0.2245  1.7245
 9822SOL     OW35301   3.740   9.857   8.095  0.4067  0.5209  0.0458
 9822SOL    HW135302   3.732   9.766   8.122  1.6349  0.5816  0.6692
 9822SOL    HW235303   3.656   9.897   8.121 -0.0072 -0.3392  0.0723
 9823SOL     OW35304   5.556   1.237   8.582 -0.4867  0.1470 -0.2612
 9823SOL    HW135305   5.512   1.238   8.497 -0.3826  0.7616 -0.3157
 9823SOL    HW235306   5.598   1.151   8.587  0.7402  0.6444 -1.4655
 9824SOL     OW35307   0.740   4.674   9.921 -0.4673 -0.0816 -0.3406
 9824SOL    HW135308   0.810   4.736   9.904 -1.2877  1.5944  1.9188
 9824SOL    HW235309   0.781   4.604   9.972 -0.5167  1.3485  1.7707
 9825SOL     OW35310   1.706   2.893   3.213 -1.0259 -0.1329 -0.2276
 9825SOL    HW135311   1.751   2.855   3.288 -0.5305  0.5372 -0.1741
 9825SOL    HW235312   1.758   2.865   3.137 -1.5491 -0.8437 -0.3320
 9826SOL     OW35313   3.025   8.542   2.847  0.0840 -0.4803  0.3315
 9826SOL    HW135314   3.033   8.503   2.934 -0.5867 -0.2665  0.4999
 9826SOL    HW235315   3.016   8.468   2.787  0.5393 -0.6270  0.4464
 9827SOL     OW35316   1.633   5.447   4.811  0.1866 -0.2135  0.1009
 9827SOL    HW135317   1.553   5.457   4.863  0.6306  0.8206  0.5951
 9827SOL    HW235318   1.611   5.378   4.748 -0.9418 -0.2617  0.5215
 9828SOL     OW35319   7.129   8.451   2.218  0.2901 -0.4260  0.2931
 9828SOL    HW135320   7.207   8.402   2.242 -0.3124 -1.3771  0.3717
 9828SOL    HW235321   7.139   8.468   2.124  0.6780 -0.3711  0.3433
 9829SOL     OW35322   5.378   4.146   8.446  0.1087  0.2758  0.6524
 9829SOL    HW135323   5.341   4.207   8.510 -1.1811 -1.2410  1.4253
 9829SOL    HW235324   5.334   4.169   8.364  2.5597  2.9507 -0.0945
 9830SOL     OW35325   7.316   6.755   1.610  0.0573  0.3285 -0.0912
 9830SOL    HW135326   7.359   6.751   1.696 -1.3815  0.2849  0.6558
 9830SOL    HW235327   7.226   6.781   1.630 -0.4314 -0.1726 -1.5555
 9831SOL     OW35328   8.347   5.782   1.081  0.0595 -0.1042  0.1477
 9831SOL    HW135329   8.419   5.740   1.128 -0.0720  0.0670  0.5087
 9831SOL    HW235330   8.388   5.852   1.031  0.0997  0.2525  0.6657
 9832SOL     OW35331   1.133   0.490   9.143  0.2142  0.1170 -0.4552
 9832SOL    HW135332   1.229   0.499   9.145  0.2648 -0.3350 -0.8086
 9832SOL    HW235333   1.109   0.514   9.054 -0.0131  0.3209 -0.3389
 9833SOL     OW35334   2.247   9.697   5.255 -0.4856  0.3893  0.3350
 9833SOL    HW135335   2.181   9.628   5.248 -1.1147  1.0121 -0.0406
 9833SOL    HW235336   2.330   9.650   5.259 -0.9146 -0.3957  0.2969
 9834SOL     OW35337   8.153   1.031   4.723  0.2533 -0.9425  0.4912
 9834SOL    HW135338   8.225   1.075   4.766  0.1732 -0.5241  0.2034
 9834SOL    HW235339   8.170   0.938   4.737  0.1057 -0.8161  1.6054
 9835SOL     OW35340   3.002   9.704   4.289 -0.2154  0.2230 -0.7478
 9835SOL    HW135341   3.098   9.696   4.285 -0.2783 -0.0251 -2.1332
 9835SOL    HW235342   2.987   9.791   4.326  0.5499  0.3575 -0.7337
 9836SOL     OW35343   2.012   0.333   4.784 -0.2807  0.0155 -0.4423
 9836SOL    HW135344   2.090   0.378   4.816  0.3585 -0.6468 -1.0424
 9836SOL    HW235345   1.965   0.307   4.864  0.2053  0.2433 -0.0764
 9837SOL     OW35346   7.663   2.805   0.604  0.0114 -0.8926 -0.2341
 9837SOL    HW135347   7.583   2.759   0.578 -0.2675 -0.8695  0.5516
 9837SOL    HW235348   7.734   2.743   0.585 -0.0426 -0.4434 -2.1171
 9838SOL     OW35349   7.020   3.306   9.061  0.0894 -0.4047  0.3002
 9838SOL    HW135350   6.981   3.389   9.032 -1.0668 -0.7394  0.8349
 9838SOL    HW235351   7.110   3.329   9.085 -0.4455  0.8552  1.1815
 9839SOL     OW35352   9.489   6.895   0.087  0.0089  0.0045 -0.1614
 9839SOL    HW135353   9.455   6.811   0.117  0.8903 -0.4082 -0.2754
 9839SOL    HW235354   9.583   6.890   0.103  0.0482  1.0510  0.0033
 9840SOL     OW35355   6.917   0.138   1.138  0.4888 -0.1604  0.0800
 9840SOL    HW135356   6.831   0.164   1.105 -0.3680 -2.0373  0.7130
 9840SOL    HW235357   6.949   0.216   1.184 -1.4428  0.2112  0.9066
 9841SOL     OW35358   7.449   8.670   5.048 -0.6533  0.3297  0.0613
 9841SOL    HW135359   7.494   8.591   5.076  0.2600  0.3832 -1.1423
 9841SOL    HW235360   7.382   8.640   4.986 -1.8539  0.3206  1.3000
 9842SOL     OW35361   9.669   4.621   7.979  0.1074 -0.1170 -0.0593
 9842SOL    HW135362   9.664   4.530   8.005  1.4458  0.3745  2.1953
 9842SOL    HW235363   9.744   4.625   7.919  0.5971 -0.3685  0.5296
 9843SOL     OW35364   2.595   1.547   5.430  0.3375  0.0918 -0.0390
 9843SOL    HW135365   2.510   1.509   5.453 -0.4634  1.0028 -1.3379
 9843SOL    HW235366   2.593   1.553   5.334  1.7235  0.4939 -0.0671
 9844SOL     OW35367   2.984   2.513   5.320  0.7068  0.6842  0.0460
 9844SOL    HW135368   3.022   2.431   5.350 -0.6460  0.3691  0.9866
 9844SOL    HW235369   3.007   2.577   5.388  0.6788  0.7809 -0.0344
 9845SOL     OW35370   4.097   3.953   8.330  0.2959  0.0493  0.2056
 9845SOL    HW135371   4.116   4.030   8.277  1.3928 -0.6449 -0.4424
 9845SOL    HW235372   4.167   3.950   8.395  0.3483 -0.4932  0.1299
 9846SOL     OW35373   8.192   3.681   7.713 -0.5929  0.6011  0.1499
 9846SOL    HW135374   8.121   3.648   7.768 -0.2378  0.0258  0.2719
 9846SOL    HW235375   8.227   3.603   7.670 -0.5270  0.9765 -0.4942
 9847SOL     OW35376   1.145   3.256   5.679  0.2885 -0.1611  0.1926
 9847SOL    HW135377   1.198   3.194   5.729 -2.7180 -1.9853  1.3932
 9847SOL    HW235378   1.112   3.204   5.605  0.8233  1.1798 -1.0394
 9848SOL     OW35379   2.103   3.492   9.671  0.1000  0.0588  0.0429
 9848SOL    HW135380   2.117   3.526   9.582 -2.8144  1.7452  0.0925
 9848SOL    HW235381   2.167   3.537   9.725  2.6910 -1.8241 -1.2733
 9849SOL     OW35382   6.130   6.697   9.480 -0.0112 -0.1841  0.1139
 9849SOL    HW135383   6.214   6.727   9.444 -0.8602  0.7837 -1.1915
 9849SOL    HW235384   6.153   6.647   9.558  1.8414 -0.8334 -0.7883
 9850SOL     OW35385   6.318   5.956   3.922  0.2926 -0.2104  0.8671
 9850SOL    HW135386   6.333   5.876   3.872 -0.7618  0.0699  0.0822
 9850SOL    HW235387   6.328   5.929   4.013 -2.3298 -1.8323  0.7907
 9851SOL     OW35388   3.910   5.458   3.305 -0.4504 -0.0059 -0.2241
 9851SOL    HW135389   3.825   5.437   3.343  0.4625 -2.0312  0.8499
 9851SOL    HW235390   3.906   5.423   3.216 -0.9701  0.5844 -0.4457
 9852SOL     OW35391   5.514   0.588   3.115 -0.0271  0.0541 -0.1913
 9852SOL    HW135392   5.426   0.552   3.101  0.0054 -0.1983  0.2767
 9852SOL    HW235393   5.498   0.679   3.142 -0.2590 -0.6640  2.3373
 9853SOL     OW35394   3.016   9.378   9.089 -0.0378  0.0309  0.0274
 9853SOL    HW135395   2.978   9.465   9.104  0.0808  0.4927 -1.9763
 9853SOL    HW235396   2.986   9.354   9.001  3.1480 -0.1616 -1.1502
 9854SOL     OW35397   2.882   5.682   1.630  0.0712 -0.3512  0.1121
 9854SOL    HW135398   2.800   5.719   1.598  1.2449  1.6627 -0.7872
 9854SOL    HW235399   2.914   5.628   1.558 -0.6849 -1.5814  0.6694
 9855SOL     OW35400   1.621   8.809   0.744  0.2258 -0.6029  0.0411
 9855SOL    HW135401   1.563   8.766   0.681  1.5317 -2.3294 -0.0488
 9855SOL    HW235402   1.579   8.794   0.829 -0.7637  0.4319 -0.2379
 9856SOL     OW35403   8.675   9.774   6.249 -0.3509 -0.3301  0.8457
 9856SOL    HW135404   8.646   9.848   6.302  0.9213  1.0373 -0.2868
 9856SOL    HW235405   8.662   9.802   6.159  0.8437 -1.1684  0.3817
 9857SOL     OW35406   9.417   0.613   8.410  0.1885 -0.1172 -0.4899
 9857SOL    HW135407   9.481   0.639   8.476  0.5981 -2.1280 -0.0487
 9857SOL    HW235408   9.412   0.518   8.416 -0.4257 -0.2977 -2.7622
 9858SOL     OW35409   3.779   3.855   0.954 -0.1889  0.4129  0.6400
 9858SOL    HW135410   3.717   3.793   0.914  0.1124  0.4395  0.1195
 9858SOL    HW235411   3.744   3.870   1.042 -0.8373  0.3070  0.4082
 9859SOL     OW35412   8.177  10.207   9.599  0.0123  0.2876  0.8075
 9859SOL    HW135413   8.160  10.137   9.662  0.8981  0.2322  0.9992
 9859SOL    HW235414   8.231  10.270   9.648  1.8055 -0.3470 -0.2297
 9860SOL     OW35415   7.959   4.772   1.419 -0.2152 -0.8314 -0.5001
 9860SOL    HW135416   8.020   4.781   1.346 -0.2441  2.4623 -0.2842
 9860SOL    HW235417   7.873   4.764   1.378 -0.1023 -0.3003 -0.8606
 9861SOL     OW35418   5.393   4.557   6.176 -0.1553 -0.3643  0.2151
 9861SOL    HW135419   5.472   4.504   6.182  0.4313  0.3184 -1.1775
 9861SOL    HW235420   5.322   4.498   6.202  0.1881 -2.5775 -3.2952
 9862SOL     OW35421   4.531   5.511   8.376  0.4495  0.3945  0.5160
 9862SOL    HW135422   4.538   5.592   8.426 -2.1980  1.0535 -0.0242
 9862SOL    HW235423   4.557   5.536   8.287 -0.0756  0.5903  0.4146
 9863SOL     OW35424   9.919   6.358   3.038  0.1356 -0.1650 -0.2388
 9863SOL    HW135425   9.976   6.390   2.968  1.9695  0.4503  1.4687
 9863SOL    HW235426   9.932   6.263   3.038 -0.8689 -0.3326 -1.5221
 9864SOL     OW35427   6.029   5.370   8.602 -0.2261 -0.3937 -0.2005
 9864SOL    HW135428   5.959   5.344   8.542 -1.8795 -1.7279  2.1574
 9864SOL    HW235429   6.104   5.317   8.576 -0.3998  0.1538 -1.9798
 9865SOL     OW35430   6.890   5.849   7.048 -0.7556  0.1486 -0.0833
 9865SOL    HW135431   6.879   5.941   7.023 -1.2224  0.2828  0.5824
 9865SOL    HW235432   6.803   5.821   7.075 -0.4663 -0.2566  0.4674
 9866SOL     OW35433   2.326   4.461   1.399 -0.1182 -0.3527 -0.4903
 9866SOL    HW135434   2.270   4.393   1.362  0.1264 -1.9697  1.9385
 9866SOL    HW235435   2.265   4.522   1.441 -0.2387  0.1572 -1.3662
 9867SOL     OW35436  10.234  10.221   6.966  0.2588  0.0014 -0.0881
 9867SOL    HW135437  10.226  10.310   6.933  0.0871 -0.2434 -0.7291
 9867SOL    HW235438  10.237  10.166   6.887 -0.3622 -0.6137  0.2945
 9868SOL     OW35439   3.115   6.264   1.455  0.2920  0.1838  0.0335
 9868SOL    HW135440   3.129   6.225   1.368  0.9803  0.8998 -0.1817
 9868SOL    HW235441   3.051   6.333   1.440 -0.3838 -0.3744  0.2913
 9869SOL     OW35442   4.305  10.327   2.453  0.1469  0.0143 -0.2643
 9869SOL    HW135443   4.340  10.387   2.387 -1.9758  2.2531  0.4916
 9869SOL    HW235444   4.294  10.244   2.406  1.5077  0.6707 -1.8468
 9870SOL     OW35445   4.352   5.820   3.505  0.4141  0.1030  0.0917
 9870SOL    HW135446   4.321   5.737   3.469 -1.8365  0.9634 -0.1657
 9870SOL    HW235447   4.301   5.832   3.585  2.6903 -0.0178  1.6366
 9871SOL     OW35448   3.860   3.869   8.794 -0.0715  0.2891 -0.3128
 9871SOL    HW135449   3.882   3.926   8.868  2.3215  2.0679 -2.2034
 9871SOL    HW235450   3.836   3.930   8.724  1.5636 -1.0335 -2.1271
 9872SOL     OW35451   5.783  10.012   4.540 -0.4338 -0.5218 -0.4839
 9872SOL    HW135452   5.691  10.000   4.514 -0.4666 -1.4478  0.0316
 9872SOL    HW235453   5.829  10.030   4.458 -1.1571  0.5412 -0.6835
 9873SOL     OW35454   7.165   7.658   7.335 -1.2236  0.4921 -0.2601
 9873SOL    HW135455   7.207   7.738   7.365 -1.3020  0.2605  0.4962
 9873SOL    HW235456   7.087   7.650   7.390 -0.8185 -0.4997  0.2014
 9874SOL     OW35457   4.340   1.497   5.210  0.0194 -0.0451  0.7393
 9874SOL    HW135458   4.372   1.585   5.232 -0.8714 -0.1724  2.7665
 9874SOL    HW235459   4.254   1.492   5.251 -0.3233 -1.5679 -0.1008
 9875SOL     OW35460   4.086   4.522  10.675  0.0480 -0.0796 -0.4129
 9875SOL    HW135461   4.115   4.460  10.608 -1.3448 -0.6228 -0.5463
 9875SOL    HW235462   4.039   4.468  10.739 -0.0854  0.6648  0.1307
 9876SOL     OW35463   8.678   4.028   7.592 -0.0245  0.2008 -0.0213
 9876SOL    HW135464   8.606   4.029   7.529 -0.7591 -0.2029  0.7896
 9876SOL    HW235465   8.731   3.953   7.568 -1.2298 -0.9618  0.8247
 9877SOL     OW35466   4.266   2.873   5.118 -0.4042 -0.5054  0.1262
 9877SOL    HW135467   4.235   2.957   5.085 -0.3612 -0.2815  0.6374
 9877SOL    HW235468   4.343   2.854   5.065 -0.7298 -0.4845 -0.3529
 9878SOL     OW35469   5.979   2.777   4.828  0.1157  0.2812 -0.2325
 9878SOL    HW135470   6.059   2.829   4.833  0.0086  0.3232  1.6163
 9878SOL    HW235471   6.008   2.691   4.798  0.4658  1.0095 -2.0959
 9879SOL     OW35472   4.389   9.254   8.379  0.0670  0.3161  0.1015
 9879SOL    HW135473   4.410   9.223   8.291 -1.7931 -0.9973  0.0553
 9879SOL    HW235474   4.385   9.175   8.432  1.2946  1.1023  1.4410
 9880SOL     OW35475   8.371   5.612   3.215 -0.2570 -0.4235  0.2948
 9880SOL    HW135476   8.292   5.570   3.248 -0.5970  0.8898  1.2130
 9880SOL    HW235477   8.442   5.553   3.242 -0.9019 -1.7417 -0.7563
 9881SOL     OW35478   3.599   2.943   3.533  0.0747  0.3922  0.0727
 9881SOL    HW135479   3.694   2.937   3.536  0.0974  0.2618 -0.6234
 9881SOL    HW235480   3.581   2.993   3.453 -0.5297 -2.8920 -2.0693
 9882SOL     OW35481   0.103   3.276   3.097 -0.5493 -0.5523  0.0176
 9882SOL    HW135482   0.026   3.326   3.121 -0.3259  0.0243 -0.4666
 9882SOL    HW235483   0.085   3.242   3.010  0.6494  1.5276 -1.1322
 9883SOL     OW35484   7.706   8.632   8.647  0.0721  1.0609 -1.0128
 9883SOL    HW135485   7.778   8.571   8.658 -0.2709  0.6455 -1.0406
 9883SOL    HW235486   7.631   8.577   8.626 -0.8602  1.2325  1.5582
 9884SOL     OW35487   5.125   1.858   3.072 -0.1021 -0.5506  0.3728
 9884SOL    HW135488   5.158   1.936   3.026  0.3223 -1.4681 -0.9250
 9884SOL    HW235489   5.183   1.849   3.148  0.3104 -0.0178  0.1313
 9885SOL     OW35490   7.838   8.266   4.137  0.4528 -0.2675 -0.3638
 9885SOL    HW135491   7.824   8.361   4.140  0.5511 -0.2647  0.1371
 9885SOL    HW235492   7.750   8.229   4.149  0.7667 -0.2529  2.9890
 9886SOL     OW35493   2.312   9.477   7.936  0.4432 -0.6775 -0.2099
 9886SOL    HW135494   2.303   9.570   7.913  0.0171 -0.8799 -0.8755
 9886SOL    HW235495   2.259   9.431   7.872 -0.3251 -1.3085  0.8447
 9887SOL     OW35496  10.050   4.923   6.360  0.2371  0.2216 -0.1941
 9887SOL    HW135497   9.993   4.857   6.401  1.2598  0.1729  1.2054
 9887SOL    HW235498  10.022   4.925   6.269 -1.9329  0.1094  0.4103
 9888SOL     OW35499   8.198   9.242   0.438  0.4579  0.6252  0.4093
 9888SOL    HW135500   8.202   9.295   0.358  0.0239  1.0289  0.6520
 9888SOL    HW235501   8.170   9.303   0.506 -1.8264 -0.2771  0.3710
 9889SOL     OW35502   9.503   2.341   4.994  0.2868 -0.4719  0.0629
 9889SOL    HW135503   9.430   2.351   5.055  0.8442  0.5897  0.5835
 9889SOL    HW235504   9.534   2.251   5.008 -0.3052 -0.6074  0.5336
 9890SOL     OW35505   9.787  10.311   2.607 -0.4411 -0.3009 -0.1445
 9890SOL    HW135506   9.770  10.256   2.684 -0.9394 -1.6637 -1.1973
 9890SOL    HW235507   9.881  10.303   2.592 -0.2885  0.2152  0.4849
 9891SOL     OW35508   5.065   2.300   0.426 -0.8641  0.0526  0.9736
 9891SOL    HW135509   5.019   2.225   0.389 -0.4577  1.5592 -3.0708
 9891SOL    HW235510   4.996   2.363   0.445 -0.9106  1.3066 -2.6280
 9892SOL     OW35511   5.284   9.422   6.403 -0.5610  0.3284  0.1415
 9892SOL    HW135512   5.336   9.348   6.433  0.7649  1.9271  2.0942
 9892SOL    HW235513   5.345   9.476   6.353 -0.4088  1.9173  1.9369
 9893SOL     OW35514   0.387   2.876   5.111 -0.1421 -0.5513  0.1812
 9893SOL    HW135515   0.294   2.901   5.111 -0.1226 -0.0553 -2.9979
 9893SOL    HW235516   0.434   2.959   5.116  0.3299 -0.8873  4.5263
 9894SOL     OW35517   9.692   9.648   9.835  0.0555  0.0965  0.0472
 9894SOL    HW135518   9.692   9.701   9.914  1.5194 -1.7364  1.3751
 9894SOL    HW235519   9.701   9.711   9.763 -0.6848  1.7547  1.3498
 9895SOL     OW35520   2.601  10.106   6.386 -0.0093  0.6017  0.4959
 9895SOL    HW135521   2.570  10.187   6.428  0.3007  0.5411  0.8489
 9895SOL    HW235522   2.669  10.074   6.445 -1.8217 -1.2782  1.6818
 9896SOL     OW35523   1.603   8.115   7.101 -0.1579  0.1859  0.1134
 9896SOL    HW135524   1.554   8.035   7.118  0.8994 -0.5522 -0.2343
 9896SOL    HW235525   1.625   8.149   7.188 -1.7843  0.8799  0.2960
 9897SOL     OW35526   7.377   7.636   6.414  0.2725  0.3283  0.4047
 9897SOL    HW135527   7.470   7.625   6.394  0.4307  2.6170 -0.3405
 9897SOL    HW235528   7.359   7.570   6.481  2.7017  0.5471  1.3549
 9898SOL     OW35529   4.232   7.159   7.394  0.0048 -0.1444  0.1304
 9898SOL    HW135530   4.167   7.229   7.394  0.2975  0.1394 -0.3497
 9898SOL    HW235531   4.236   7.131   7.302  1.1142  0.3832 -0.0043
 9899SOL     OW35532   0.208   4.388   7.374 -0.2531  0.7047  0.5041
 9899SOL    HW135533   0.295   4.350   7.362 -0.5142 -0.6766  2.4260
 9899SOL    HW235534   0.196   4.446   7.299  2.0360  0.4139 -0.1616
 9900SOL     OW35535   6.779   5.236   4.955 -0.0710  0.3581  0.3973
 9900SOL    HW135536   6.849   5.227   4.890  0.3845 -1.0837  1.0489
 9900SOL    HW235537   6.802   5.316   5.002  0.1757  0.8382 -0.5074
 9901SOL     OW35538   2.676   9.872   4.554 -0.4875  0.4427  0.3269
 9901SOL    HW135539   2.584   9.856   4.573 -0.0667 -1.0545  1.2978
 9901SOL    HW235540   2.707   9.925   4.628 -0.6224  1.2075 -0.1540
 9902SOL     OW35541   0.636   4.736   4.712  0.4396 -0.2306 -0.4040
 9902SOL    HW135542   0.671   4.807   4.659 -0.6362  1.1178  0.6239
 9902SOL    HW235543   0.544   4.759   4.725 -0.0008 -1.9401 -0.2385
 9903SOL     OW35544   9.686   3.239   0.859  0.3067 -0.5739 -0.5148
 9903SOL    HW135545   9.684   3.261   0.766  0.1099  0.9248 -0.1782
 9903SOL    HW235546   9.701   3.323   0.903  0.5914 -1.2908  0.7979
 9904SOL     OW35547  10.682   5.186   0.868 -0.4563  0.0479 -0.9346
 9904SOL    HW135548  10.729   5.268   0.873 -1.0958  0.5047 -2.0417
 9904SOL    HW235549  10.613   5.194   0.935  0.8267 -0.5331  0.5250
 9905SOL     OW35550   8.874   1.944   1.893 -0.3187 -0.2628  0.2972
 9905SOL    HW135551   8.900   1.940   1.986  0.9350 -0.9035 -0.0550
 9905SOL    HW235552   8.932   2.009   1.855 -0.6041 -0.2490 -0.1126
 9906SOL     OW35553   6.446   8.940   9.140  0.0592 -0.7362 -0.4599
 9906SOL    HW135554   6.515   9.006   9.131 -0.3259  0.1616  2.1687
 9906SOL    HW235555   6.491   8.862   9.172  0.1526 -0.8413 -0.8509
 9907SOL     OW35556  10.410   3.908   1.154 -0.1662 -0.0114  0.0277
 9907SOL    HW135557  10.364   3.825   1.148  0.7119 -0.4773 -0.4113
 9907SOL    HW235558  10.358   3.960   1.216 -1.6122 -0.2810 -0.9272
 9908SOL     OW35559   9.409   6.261   9.199  0.2722  0.1532  0.3225
 9908SOL    HW135560   9.330   6.315   9.199  1.4867  2.0426  0.1745
 9908SOL    HW235561   9.437   6.258   9.108  0.1036 -0.9286  0.2988
 9909SOL     OW35562   9.430   7.065   4.095 -0.0990 -0.1901  0.5146
 9909SOL    HW135563   9.337   7.077   4.114  0.1049  0.2522  1.2381
 9909SOL    HW235564   9.466   7.026   4.174  0.1865 -1.1069 -0.0522
 9910SOL     OW35565   1.063   1.937   3.138 -0.2881 -0.0399 -0.3625
 9910SOL    HW135566   1.154   1.910   3.132 -0.3979 -0.2589 -1.1227
 9910SOL    HW235567   1.040   1.924   3.230  0.2088 -0.7729 -0.3353
 9911SOL     OW35568   5.751   8.501   3.830 -0.1702  0.1933  0.7014
 9911SOL    HW135569   5.680   8.512   3.766  0.8156  1.2714 -0.2416
 9911SOL    HW235570   5.709   8.459   3.905 -1.3434 -1.3044 -0.7014
 9912SOL     OW35571   0.769   1.449   8.526 -0.1228  0.5358  0.4047
 9912SOL    HW135572   0.719   1.512   8.473 -0.6793  0.5775  0.9742
 9912SOL    HW235573   0.716   1.435   8.604  0.8941  0.8261  1.1839
 9913SOL     OW35574   3.137   1.105   4.083  0.6040 -0.3403  0.4999
 9913SOL    HW135575   3.124   1.137   4.172 -3.1776 -1.2852  0.4493
 9913SOL    HW235576   3.111   1.178   4.027  1.5017 -0.2698  0.1519
 9914SOL     OW35577   7.671   4.003   3.802  0.4931 -0.7037 -0.0348
 9914SOL    HW135578   7.691   4.081   3.750 -0.9042 -1.0967 -1.2388
 9914SOL    HW235579   7.756   3.972   3.834  1.0588  1.4348  0.7065
 9915SOL     OW35580   3.355   4.354   8.908 -0.6062  0.7186 -0.8786
 9915SOL    HW135581   3.312   4.336   8.992 -1.1187 -1.2833 -1.4923
 9915SOL    HW235582   3.428   4.411   8.930 -0.1448 -0.5168  1.1185
 9916SOL     OW35583   8.984   2.267  10.348 -0.0172  0.2637 -0.5931
 9916SOL    HW135584   8.899   2.269  10.394  0.2329 -0.7993 -0.0716
 9916SOL    HW235585   8.989   2.353  10.305 -1.7178  0.0494 -1.3077
 9917SOL     OW35586   1.892   2.894   8.640  0.5903 -0.4382 -0.1357
 9917SOL    HW135587   1.834   2.930   8.707  1.4410 -0.8454  0.8422
 9917SOL    HW235588   1.918   2.969   8.587 -1.8341 -0.4099 -1.4217
 9918SOL     OW35589   8.351   2.117   6.649  0.5469  0.6623  0.3312
 9918SOL    HW135590   8.418   2.060   6.612  3.0986  3.2838  0.5812
 9918SOL    HW235591   8.349   2.193   6.591 -0.0890  1.9342  1.9444
 9919SOL     OW35592   4.423   8.220   7.668 -0.5632 -0.3044  0.2830
 9919SOL    HW135593   4.517   8.233   7.655 -0.5151  0.2467  1.0949
 9919SOL    HW235594   4.412   8.125   7.673 -0.1442 -0.3989 -0.4166
 9920SOL     OW35595   2.963   6.088   5.142 -0.1312 -0.1460  0.4776
 9920SOL    HW135596   2.924   6.170   5.173 -1.0142  0.0365 -0.9968
 9920SOL    HW235597   3.047   6.083   5.186 -0.7484  0.7417  1.8261
 9921SOL     OW35598   1.042   8.741   3.156 -0.6305 -0.5141  0.2775
 9921SOL    HW135599   1.015   8.649   3.157  0.6692 -0.9799 -1.7826
 9921SOL    HW235600   0.965   8.789   3.128 -1.0318 -1.0764  0.3946
 9922SOL     OW35601   9.997   6.400   9.302 -0.1086 -0.0963 -0.4231
 9922SOL    HW135602  10.058   6.329   9.285 -1.5884 -1.6444  0.4567
 9922SOL    HW235603   9.940   6.402   9.225 -0.9603 -0.8392  0.1780
 9923SOL     OW35604   9.340   8.359   0.367  0.0317  0.1257 -0.7094
 9923SOL    HW135605   9.414   8.303   0.392  1.0125  1.1387 -1.2529
 9923SOL    HW235606   9.266   8.325   0.417  1.2180  0.1130  1.1422
 9924SOL     OW35607   2.666   9.235   7.062 -0.0966 -0.0856 -0.6369
 9924SOL    HW135608   2.623   9.187   7.132  1.0772 -0.2111  0.0238
 9924SOL    HW235609   2.695   9.317   7.103  2.6547 -1.1297 -0.2805
 9925SOL     OW35610   3.016   6.072   9.240 -0.4789 -0.3383  0.0602
 9925SOL    HW135611   2.964   6.001   9.278  0.3115 -0.9965 -0.0610
 9925SOL    HW235612   3.089   6.082   9.301 -2.4491  2.9800  2.2144
 9926SOL     OW35613   6.131   1.097   2.961  0.2634  0.1896 -0.6976
 9926SOL    HW135614   6.168   1.165   3.017  0.8363  1.6623 -2.7185
 9926SOL    HW235615   6.176   1.017   2.987  1.7968  1.1484 -0.2526
 9927SOL     OW35616   7.723   9.904   9.674  0.4934 -0.2671 -0.1522
 9927SOL    HW135617   7.806   9.920   9.720  0.3794 -1.6937  0.6071
 9927SOL    HW235618   7.666   9.865   9.740 -1.0466  1.3082 -0.4768
 9928SOL     OW35619   5.761   0.363   1.253 -0.2105 -0.0415  0.1997
 9928SOL    HW135620   5.850   0.360   1.289  0.3469  2.0001 -0.8506
 9928SOL    HW235621   5.756   0.288   1.195  0.9427 -0.0415  0.0731
 9929SOL     OW35622   6.068   5.587  10.677  0.3226 -0.1646  0.0826
 9929SOL    HW135623   6.042   5.589  10.769 -0.1577 -0.5882 -0.0369
 9929SOL    HW235624   6.086   5.494  10.659  1.1830  0.0161 -0.0449
 9930SOL     OW35625   5.309   8.774   6.188 -0.6416  0.7057 -0.0823
 9930SOL    HW135626   5.378   8.838   6.177 -1.6880  1.6697 -1.3678
 9930SOL    HW235627   5.345   8.693   6.152  0.3821  0.7679  0.7691
 9931SOL     OW35628   0.473   1.961  10.644 -0.6045  0.6637  0.2751
 9931SOL    HW135629   0.485   1.985  10.736  1.5367 -0.0388  0.2253
 9931SOL    HW235630   0.425   1.878  10.647  1.4223 -0.5409  0.9031
 9932SOL     OW35631   6.988   2.518   1.280  0.1794  0.1778  0.0717
 9932SOL    HW135632   6.977   2.606   1.244 -0.7052  0.0668  0.0619
 9932SOL    HW235633   6.951   2.460   1.214  0.4837 -0.1824  0.2122
 9933SOL     OW35634   9.467   0.245   4.496 -0.2843  0.4098 -0.1946
 9933SOL    HW135635   9.545   0.299   4.483 -1.8583  2.9502  0.0534
 9933SOL    HW235636   9.480   0.204   4.581  1.5120 -0.6636 -0.9268
 9934SOL     OW35637   4.420   8.188   0.918  0.1682  0.3725  0.0245
 9934SOL    HW135638   4.382   8.167   1.003 -0.1142 -0.3263 -0.2616
 9934SOL    HW235639   4.387   8.119   0.860 -1.1029  1.8439 -1.0534
 9935SOL     OW35640   7.459   8.658   0.095 -0.0663  0.5589 -0.0807
 9935SOL    HW135641   7.418   8.738   0.127 -2.3211 -0.3408 -0.4867
 9935SOL    HW235642   7.477   8.607   0.175  0.3923  1.0189  0.1120
 9936SOL     OW35643   4.702   9.090  10.343 -0.1615 -0.4011  0.0560
 9936SOL    HW135644   4.684   9.158  10.278 -2.3621 -0.0867  0.9007
 9936SOL    HW235645   4.656   9.013  10.310 -1.1622 -0.2830  1.1292
 9937SOL     OW35646   4.420   5.536  10.248 -0.8855  0.0345  0.1463
 9937SOL    HW135647   4.494   5.486  10.213 -0.9003 -0.5697  0.9598
 9937SOL    HW235648   4.360   5.470  10.283 -1.0838  0.5906  0.8847
 9938SOL     OW35649   5.676   4.476   7.667  0.0227 -0.1650  0.0347
 9938SOL    HW135650   5.665   4.556   7.616  1.1558 -0.1896 -0.2936
 9938SOL    HW235651   5.587   4.444   7.682 -0.3736  0.0475 -1.6050
 9939SOL     OW35652   9.154   7.253   1.007  0.9299 -0.6906 -0.7888
 9939SOL    HW135653   9.225   7.197   1.037  0.5322  0.2000  2.2035
 9939SOL    HW235654   9.198   7.327   0.964  1.8525 -0.2684  0.8021
 9940SOL     OW35655   8.169   8.833   5.037  0.7062 -0.3893 -0.1254
 9940SOL    HW135656   8.084   8.799   5.010  0.1507  1.6115 -1.1053
 9940SOL    HW235657   8.188   8.789   5.120 -1.9513  0.1610  0.8438
 9941SOL     OW35658   8.310   6.037   6.355 -0.2847 -0.1660 -0.6845
 9941SOL    HW135659   8.239   5.984   6.390 -0.7553 -0.4056 -1.9441
 9941SOL    HW235660   8.380   5.974   6.335  0.6194  0.1528  1.2530
 9942SOL     OW35661   8.098   8.295   2.489  0.5241 -0.0934 -0.2272
 9942SOL    HW135662   8.060   8.278   2.576  1.1754  0.3008  0.1446
 9942SOL    HW235663   8.186   8.257   2.494  1.2804  1.6085 -0.0468
 9943SOL     OW35664   3.773   9.571   4.645  0.1631  0.6410  0.0075
 9943SOL    HW135665   3.724   9.490   4.634  1.5948 -0.5898  2.0690
 9943SOL    HW235666   3.707   9.635   4.674 -0.8869  0.1457 -1.1804
 9944SOL     OW35667   8.669   5.386   8.915 -0.0752 -0.9276 -0.4595
 9944SOL    HW135668   8.760   5.399   8.943 -0.0337 -0.7882 -0.6527
 9944SOL    HW235669   8.675   5.330   8.838 -0.0503  0.0771 -1.2199
 9945SOL     OW35670   4.117   7.452   0.258  0.2616  0.0657  0.1058
 9945SOL    HW135671   4.117   7.455   0.163 -1.4908 -0.3358  0.0592
 9945SOL    HW235672   4.095   7.361   0.279 -0.5934  0.4255  0.8569
 9946SOL     OW35673   2.548   1.309   3.577 -0.0680  0.1262  0.3286
 9946SOL    HW135674   2.507   1.393   3.596  0.0747  0.7032 -1.6376
 9946SOL    HW235675   2.606   1.292   3.652 -0.9962  1.1723  1.3146
 9947SOL     OW35676   4.866   4.095   6.764  0.4988 -0.5084 -0.9458
 9947SOL    HW135677   4.935   4.153   6.732  0.9385 -0.4686  0.0380
 9947SOL    HW235678   4.810   4.152   6.817  1.4171 -1.0999  0.7540
 9948SOL     OW35679   7.679  10.424   7.906  0.1970 -0.1964  0.3097
 9948SOL    HW135680   7.631  10.345   7.931  2.1243 -1.3373  0.6664
 9948SOL    HW235681   7.687  10.419   7.811 -0.1126 -0.1665  0.2824
 9949SOL     OW35682   8.530   8.074   0.230  0.0148  0.4362 -0.3934
 9949SOL    HW135683   8.530   8.129   0.151  0.9182  0.1456 -0.6080
 9949SOL    HW235684   8.438   8.069   0.255 -0.4027 -0.1303 -1.9023
 9950SOL     OW35685   5.566   9.193   9.927  0.0175 -0.2084 -0.6742
 9950SOL    HW135686   5.579   9.136  10.003 -0.7995  1.6603  0.9577
 9950SOL    HW235687   5.482   9.165   9.891 -0.5820  0.1754  0.3647
 9951SOL     OW35688   6.445   6.464   5.368  0.4343 -0.3654 -0.3055
 9951SOL    HW135689   6.421   6.400   5.302  0.1954  0.3575 -0.9344
 9951SOL    HW235690   6.365   6.482   5.416  1.3975 -4.2701  3.3162
 9952SOL     OW35691   7.461   4.709   1.304  0.1306 -0.6210  0.1560
 9952SOL    HW135692   7.509   4.792   1.308  2.3354 -1.8040  0.0838
 9952SOL    HW235693   7.527   4.645   1.277 -1.3164 -2.5514  0.9717
 9953SOL     OW35694   7.285   7.443   6.588 -0.3393 -0.3709 -0.0148
 9953SOL    HW135695   7.253   7.356   6.563 -1.4076 -0.3272  1.1249
 9953SOL    HW235696   7.262   7.452   6.681 -0.0869  1.0536 -0.0635
 9954SOL     OW35697   8.228   7.010   9.576  0.2603  0.2558  0.5369
 9954SOL    HW135698   8.146   6.960   9.579  0.5271 -0.2062  0.3233
 9954SOL    HW235699   8.208   7.093   9.619  0.2711 -0.7118  2.4927
 9955SOL     OW35700   6.230   0.953   9.141  0.0610 -0.6336  0.1368
 9955SOL    HW135701   6.283   1.004   9.204 -0.0542  2.1155 -1.8174
 9955SOL    HW235702   6.142   0.990   9.149 -0.2945 -1.3166 -0.5548
 9956SOL     OW35703   0.864   6.753   2.514  0.1658  0.3767  0.0849
 9956SOL    HW135704   0.800   6.682   2.516 -0.7369  1.1922  0.5958
 9956SOL    HW235705   0.935   6.719   2.459 -0.3929 -0.7899  0.0542
 9957SOL     OW35706  10.275   2.041   8.710 -1.0842  0.0977  0.1557
 9957SOL    HW135707  10.265   1.982   8.785 -0.4323  0.7207  0.7511
 9957SOL    HW235708  10.256   2.128   8.746 -2.7790  0.1869 -0.8798
 9958SOL     OW35709   3.884   7.355   8.346  0.5756  0.3591 -0.1068
 9958SOL    HW135710   3.801   7.313   8.327  1.1377 -0.0436 -1.8490
 9958SOL    HW235711   3.885   7.365   8.441 -0.7636 -1.0763  0.0915
 9959SOL     OW35712   5.074   2.359   5.721 -0.0522 -0.6424 -0.0260
 9959SOL    HW135713   5.159   2.401   5.707 -0.3821 -0.2421 -0.8972
 9959SOL    HW235714   5.018   2.393   5.651 -1.6227  0.8922  1.8505
 9960SOL     OW35715   6.916   5.309   9.480 -0.1038  0.1732 -0.5459
 9960SOL    HW135716   6.968   5.297   9.560 -0.2137  0.1625 -0.4744
 9960SOL    HW235717   6.975   5.353   9.419 -0.1031  0.4393 -0.3590
 9961SOL     OW35718   4.192   1.419   1.476 -0.0446  0.5770 -0.1565
 9961SOL    HW135719   4.182   1.424   1.571 -0.4248  0.3730 -0.1809
 9961SOL    HW235720   4.102   1.409   1.444  0.2436 -1.5775 -0.4032
 9962SOL     OW35721   0.102   2.831   7.289 -0.2654  0.1399 -0.1023
 9962SOL    HW135722   0.150   2.789   7.361 -0.6590 -1.8434 -0.9185
 9962SOL    HW235723   0.022   2.779   7.280  0.4606 -0.6671 -2.9140
 9963SOL     OW35724  10.641   0.515   7.832  0.2495 -0.4587 -0.2793
 9963SOL    HW135725  10.610   0.425   7.816 -0.7783 -0.2754  0.5397
 9963SOL    HW235726  10.737   0.507   7.833  0.1772 -1.5888 -0.0620
 9964SOL     OW35727   5.783   8.388   7.602  0.0833  0.1746  0.2107
 9964SOL    HW135728   5.873   8.354   7.603  0.0546 -0.0485 -1.4429
 9964SOL    HW235729   5.752   8.377   7.692  1.3894 -0.6195  0.5941
 9965SOL     OW35730   0.761   2.929   8.126 -0.0703  0.4454  0.3785
 9965SOL    HW135731   0.760   2.840   8.092  1.7701  0.9355 -1.0578
 9965SOL    HW235732   0.825   2.927   8.197 -0.6423  0.4553  0.9067
 9966SOL     OW35733   8.572   9.701   7.935 -0.0854 -0.1900 -0.2155
 9966SOL    HW135734   8.550   9.780   7.984  2.4521  0.5704 -0.1204
 9966SOL    HW235735   8.515   9.703   7.859 -1.3107  0.7509  0.6764
 9967SOL     OW35736   0.548   8.174   2.598 -0.0889 -0.2531 -0.7135
 9967SOL    HW135737   0.541   8.269   2.583  0.8156  0.1363  1.0323
 9967SOL    HW235738   0.457   8.144   2.601 -0.4335  0.7893 -0.0712
 9968SOL     OW35739   6.548   8.371   8.091  0.2198 -0.2360 -0.3798
 9968SOL    HW135740   6.579   8.299   8.037  2.0276 -0.9009  1.4013
 9968SOL    HW235741   6.484   8.331   8.151 -2.0373  0.5581 -2.0863
 9969SOL     OW35742   5.580   4.237   2.404  0.4746 -0.1657 -0.1158
 9969SOL    HW135743   5.493   4.205   2.428  0.0766  1.5804  0.9249
 9969SOL    HW235744   5.633   4.224   2.482  0.1669  2.0482  0.5374
 9970SOL     OW35745   1.643   4.487   4.491  0.0061 -0.5473  0.3615
 9970SOL    HW135746   1.679   4.555   4.434 -1.6913 -0.2678 -0.4180
 9970SOL    HW235747   1.562   4.460   4.448  0.1388 -2.3754  1.1759
 9971SOL     OW35748   1.548   9.962   7.372  0.1436 -0.1365 -0.7659
 9971SOL    HW135749   1.480  10.027   7.356 -0.5653 -0.7577 -0.3595
 9971SOL    HW235750   1.626   9.998   7.330 -0.3460  0.7513 -0.9419
 9972SOL     OW35751   5.168  10.418   5.453  0.6261  0.3098 -0.0086
 9972SOL    HW135752   5.190  10.486   5.517 -2.0210  1.2010  0.0692
 9972SOL    HW235753   5.133  10.466   5.378 -2.3311 -0.9003  0.4640
 9973SOL     OW35754  10.423   2.067   0.159  0.3114  0.3625  0.6807
 9973SOL    HW135755  10.472   1.990   0.131  0.3757  0.7518 -0.3254
 9973SOL    HW235756  10.490   2.132   0.179  0.2345  0.8493 -0.5614
 9974SOL     OW35757   3.904   7.447   9.547  0.4434 -0.0661 -0.0731
 9974SOL    HW135758   3.961   7.479   9.617  0.5939 -1.8638  0.6841
 9974SOL    HW235759   3.829   7.408   9.593  0.4026 -1.0059 -0.9135
 9975SOL     OW35760  10.091   2.289   7.637 -0.5507 -0.6129 -0.4571
 9975SOL    HW135761  10.171   2.247   7.669 -0.6057 -0.2117  0.2261
 9975SOL    HW235762  10.075   2.248   7.552  0.3028 -0.7939 -0.5407
 9976SOL     OW35763   3.601   9.042   4.200  0.1088 -0.2758 -0.3226
 9976SOL    HW135764   3.590   9.135   4.182  0.0671 -0.6815 -2.7469
 9976SOL    HW235765   3.694   9.032   4.219 -0.2044  0.4865  1.8875
 9977SOL     OW35766   7.458   7.638  10.542  0.3575 -0.4375 -0.0343
 9977SOL    HW135767   7.384   7.698  10.532  0.7404  0.0264 -0.0947
 9977SOL    HW235768   7.437   7.587  10.620 -0.2213 -0.5852 -0.2845
 9978SOL     OW35769   7.287   7.893   0.533  0.4960  0.3377 -0.2135
 9978SOL    HW135770   7.292   7.911   0.439 -0.0721  1.2447 -0.0836
 9978SOL    HW235771   7.297   7.798   0.540  2.5958  0.4385 -1.0200
 9979SOL     OW35772   0.505   5.124   9.938  0.0076 -0.2492  0.2852
 9979SOL    HW135773   0.510   5.029   9.950 -0.1961 -0.0238  2.6824
 9979SOL    HW235774   0.594   5.151   9.918 -0.2591 -1.1061 -2.4330
 9980SOL     OW35775   1.707   9.751   6.727 -0.4785  0.0170 -0.3004
 9980SOL    HW135776   1.670   9.665   6.747  1.0338 -0.7360 -0.6085
 9980SOL    HW235777   1.681   9.806   6.801  0.3091 -1.2657  0.9796
 9981SOL     OW35778   8.232   0.628   3.730 -0.1885  0.1290 -0.2189
 9981SOL    HW135779   8.271   0.571   3.664 -2.4340 -1.9504  0.1076
 9981SOL    HW235780   8.182   0.569   3.787  0.1855  2.0572  2.2866
 9982SOL     OW35781   0.419   0.677   1.568 -0.0246 -0.0315  0.2090
 9982SOL    HW135782   0.375   0.759   1.545  1.2380  0.7152  0.3710
 9982SOL    HW235783   0.386   0.656   1.656 -1.2558 -0.3575 -0.3111
 9983SOL     OW35784   7.581   8.325   7.139 -0.3551 -0.1879  0.0909
 9983SOL    HW135785   7.563   8.393   7.204  0.2281 -0.8128  0.9219
 9983SOL    HW235786   7.611   8.373   7.062 -0.4259  0.5278  0.5008
 9984SOL     OW35787   7.673   3.449   6.654 -0.4653 -0.5098  0.0800
 9984SOL    HW135788   7.636   3.462   6.741 -0.8247 -0.2315 -0.1110
 9984SOL    HW235789   7.602   3.409   6.603 -0.9920  1.2331 -0.6537
 9985SOL     OW35790   0.884   2.103   7.164  0.1433  0.3263  0.1941
 9985SOL    HW135791   0.954   2.154   7.123  1.0612  1.2623  2.7190
 9985SOL    HW235792   0.805   2.156   7.150  0.5121  0.8392 -0.0016
 9986SOL     OW35793   0.106   9.505   7.299  0.1233 -0.0611 -0.2275
 9986SOL    HW135794   0.017   9.497   7.266 -1.3150  2.4206  2.6220
 9986SOL    HW235795   0.149   9.424   7.272 -3.4805 -2.1862 -0.1866
 9987SOL     OW35796   6.220   6.525   9.686 -0.6905 -0.2061 -0.8115
 9987SOL    HW135797   6.152   6.459   9.697 -0.4353 -0.3622 -0.1198
 9987SOL    HW235798   6.235   6.558   9.774  0.0197 -0.0560 -0.9858
 9988SOL     OW35799   3.773  10.625   4.667  0.0862  0.6292  0.2112
 9988SOL    HW135800   3.740  10.625   4.757 -1.7753  1.4419 -0.4190
 9988SOL    HW235801   3.863  10.657   4.675  1.0624 -2.1616  2.0737
 9989SOL     OW35802   4.737   0.294   8.216 -0.0381 -0.3209  0.2201
 9989SOL    HW135803   4.805   0.349   8.255  0.6213  0.5293 -1.9330
 9989SOL    HW235804   4.773   0.205   8.221  1.2644  0.1092 -0.8097
 9990SOL     OW35805   5.888  10.606   0.253  0.2663  0.9081  0.1809
 9990SOL    HW135806   5.890  10.615   0.158  0.8651  0.2324  0.1125
 9990SOL    HW235807   5.908  10.693   0.286  0.3962  1.0715 -0.3207
 9991SOL     OW35808   3.542   5.897   5.318 -0.6482 -0.0326  0.1500
 9991SOL    HW135809   3.565   5.926   5.229 -1.0474 -0.4091 -0.0798
 9991SOL    HW235810   3.607   5.830   5.339  0.4907  1.2333  0.8174
 9992SOL     OW35811   9.613   5.730   0.693  0.5479 -0.5552 -0.4915
 9992SOL    HW135812   9.523   5.701   0.703 -0.1389  1.4062 -0.5401
 9992SOL    HW235813   9.606   5.822   0.669  2.5774 -0.2264 -0.0239
 9993SOL     OW35814   1.901   3.009   5.989 -1.3578  0.5299 -0.4570
 9993SOL    HW135815   1.946   3.084   6.029 -0.8448 -1.3283  2.7524
 9993SOL    HW235816   1.918   3.018   5.895 -0.2035  3.6579 -0.0629
 9994SOL     OW35817   3.726   1.441   8.224  0.1556 -0.3668  0.0032
 9994SOL    HW135818   3.668   1.450   8.149 -0.1082 -1.6822  0.0319
 9994SOL    HW235819   3.720   1.525   8.269 -1.3498 -0.3193 -0.2485
 9995SOL     OW35820   2.122   1.514   7.551  0.1064 -0.5924 -0.0417
 9995SOL    HW135821   2.165   1.589   7.592 -0.4340 -0.2582 -0.0711
 9995SOL    HW235822   2.049   1.552   7.502  1.0437 -0.9271 -1.7587
 9996SOL     OW35823   0.787   2.044  10.591 -0.9012  0.0445 -0.4055
 9996SOL    HW135824   0.802   2.128  10.635 -1.4408 -0.4089  0.6963
 9996SOL    HW235825   0.793   1.979  10.661 -2.4997 -0.6435 -0.8641
 9997SOL     OW35826  10.522   3.008   9.572  0.3238 -0.1908 -0.1430
 9997SOL    HW135827  10.574   2.976   9.646 -0.0808  0.0497  0.2509
 9997SOL    HW235828  10.542   3.102   9.568 -0.1961 -0.0667  0.1104
 9998SOL     OW35829   2.856   4.183   3.446  0.2501 -0.2965  0.0183
 9998SOL    HW135830   2.887   4.093   3.443  1.1459 -0.0209  0.4178
 9998SOL    HW235831   2.773   4.182   3.399  1.0243 -1.0175 -1.4290
 9999SOL     OW35832   2.009   8.607   1.067  0.2376 -0.0495  0.4771
 9999SOL    HW135833   2.085   8.557   1.096  0.2636 -0.7967 -0.8147
 9999SOL    HW235834   2.046   8.682   1.020  0.1818 -0.1714  0.2377
10000SOL     OW35835   2.793   7.948   4.658  0.0378 -0.4047  0.3844
10000SOL    HW135836   2.866   7.909   4.707  0.2260 -0.4492  0.0714
10000SOL    HW235837   2.794   7.903   4.573 -1.5833 -1.8456  1.0559
10001SOL     OW35838   5.188  10.321   0.944 -0.0095  0.1323  0.3320
10001SOL    HW135839   5.201  10.416   0.946 -0.2708  0.3242 -2.7107
10001SOL    HW235840   5.093  10.310   0.943  0.0240 -0.1257 -0.0148
10002SOL     OW35841   7.516   2.867   8.634 -0.4708  0.2008  0.1377
10002SOL    HW135842   7.453   2.838   8.701 -1.0440 -0.8831 -0.8417
10002SOL    HW235843   7.551   2.949   8.669 -0.9909 -0.1743  1.6162
10003SOL     OW35844   2.043   1.951   2.438  0.1870  0.2822  0.0278
10003SOL    HW135845   2.042   2.047   2.449 -0.1341  0.2399  0.4347
10003SOL    HW235846   2.118   1.934   2.382  0.6597  0.7216  0.5041
10004SOL     OW35847   3.950   8.359   6.532  0.2285  0.2027  0.1078
10004SOL    HW135848   4.011   8.372   6.605  0.7268  0.4944 -0.3615
10004SOL    HW235849   3.866   8.340   6.575  0.1737  1.8320  0.7749
10005SOL     OW35850   3.734   1.490   0.855 -0.4242 -0.1918  0.1641
10005SOL    HW135851   3.784   1.571   0.864  0.5352 -0.5143 -1.8457
10005SOL    HW235852   3.650   1.510   0.895 -0.4280  2.0013 -0.7785
10006SOL     OW35853   4.821   4.393   0.729  0.8084 -0.3917 -0.2363
10006SOL    HW135854   4.872   4.370   0.807 -1.7540 -1.3358  1.2816
10006SOL    HW235855   4.842   4.323   0.667 -0.1010 -1.9226  1.0983
10007SOL     OW35856   1.991   5.980   8.396 -0.1750  0.3813  0.6241
10007SOL    HW135857   2.037   6.026   8.325  0.6873 -1.4240 -0.0383
10007SOL    HW235858   2.040   5.899   8.408 -0.5946  0.4225  3.0043
10008SOL     OW35859   6.744   8.487   8.999 -0.2636  0.7862  0.6677
10008SOL    HW135860   6.723   8.577   9.026 -0.4350  0.3259  2.1273
10008SOL    HW235861   6.836   8.477   9.023  0.0925  0.9310 -0.5599
10009SOL     OW35862   8.799   9.271   1.451 -0.1307  0.0864  0.2573
10009SOL    HW135863   8.862   9.328   1.407  0.4527 -1.1814 -0.6440
10009SOL    HW235864   8.850   9.225   1.518 -0.8715  1.5017  1.8469
10010SOL     OW35865   6.917  10.140   0.930  0.5479 -0.4565 -0.0703
10010SOL    HW135866   6.958  10.054   0.921  1.4831  0.0946 -1.4295
10010SOL    HW235867   6.989  10.198   0.957  0.6523  0.4664 -2.1946
10011SOL     OW35868   0.907   2.733   1.387 -0.2562 -0.4773 -0.2873
10011SOL    HW135869   0.853   2.807   1.416  0.7000  0.4350 -0.7552
10011SOL    HW235870   0.976   2.773   1.335  1.4882 -1.5117  1.1190
10012SOL     OW35871   2.572   0.641   6.031 -0.2264 -0.0311  0.0583
10012SOL    HW135872   2.535   0.728   6.014  0.3671  0.1443 -0.3296
10012SOL    HW235873   2.506   0.598   6.086 -0.4110  0.7526  0.4638
10013SOL     OW35874   9.276   6.296   0.650 -0.4668  0.2496 -0.4177
10013SOL    HW135875   9.340   6.328   0.713 -0.3022 -0.2609 -0.3192
10013SOL    HW235876   9.198   6.350   0.665  0.7963  2.8315 -2.4444
10014SOL     OW35877   1.667   7.428   1.398 -0.1846 -0.0391  0.1494
10014SOL    HW135878   1.688   7.470   1.482  1.0346  0.8040 -0.5431
10014SOL    HW235879   1.644   7.501   1.340 -1.3380 -0.6375 -0.1941
10015SOL     OW35880   8.056   8.481   3.993 -0.0370 -0.0142  0.5423
10015SOL    HW135881   8.148   8.492   4.015 -0.2562  0.3478  1.3381
10015SOL    HW235882   8.048   8.390   3.966  0.4359 -0.2275  1.0928
10016SOL     OW35883   9.069   6.916   2.146  0.0993  0.1393  0.1088
10016SOL    HW135884   8.994   6.946   2.094  0.2699  0.1024 -0.1634
10016SOL    HW235885   9.112   6.852   2.090 -0.4222 -0.8325  0.7876
10017SOL     OW35886   0.568   6.351   0.048 -0.3173 -0.2401 -0.6425
10017SOL    HW135887   0.588   6.267   0.006  3.1161 -0.0357  0.3546
10017SOL    HW235888   0.587   6.337   0.140  0.7168  1.7319 -0.5143
10018SOL     OW35889   3.578   2.651   3.424  0.5128 -1.3734 -0.1240
10018SOL    HW135890   3.547   2.682   3.509 -0.6870 -2.2143 -0.2346
10018SOL    HW235891   3.512   2.681   3.362  1.2840 -0.9282 -0.7566
10019SOL     OW35892   9.927   8.447   1.472  0.1112 -0.0203 -0.6876
10019SOL    HW135893   9.969   8.362   1.458  2.7412  1.0012  0.3808
10019SOL    HW235894   9.894   8.443   1.562 -0.8687 -0.2988 -1.0429
10020SOL     OW35895   6.321   0.768   3.536  0.1730  0.4273 -0.4449
10020SOL    HW135896   6.295   0.677   3.517  1.1142  0.0889 -0.1488
10020SOL    HW235897   6.381   0.791   3.465  0.9978  0.3439  0.2094
10021SOL     OW35898   7.381   4.134   9.592 -0.1256  0.1859 -0.4247
10021SOL    HW135899   7.441   4.082   9.539 -2.8673 -1.5522 -2.0369
10021SOL    HW235900   7.410   4.119   9.682  1.0645 -1.6358 -1.0537
10022SOL     OW35901   9.128   4.691  10.445  0.2706  0.1230  0.3476
10022SOL    HW135902   9.119   4.596  10.453  1.8834 -0.1136 -0.4181
10022SOL    HW235903   9.039   4.722  10.425 -0.0410 -1.3605 -0.6813
10023SOL     OW35904   9.642   0.002   1.004  0.5255 -0.2921  0.3943
10023SOL    HW135905   9.619  -0.027   1.093 -1.7564 -1.7714 -0.5693
10023SOL    HW235906   9.703  -0.065   0.973 -0.7794 -1.3219 -0.0444
10024SOL     OW35907   3.224   5.126   5.637 -0.2772  0.3224 -0.4604
10024SOL    HW135908   3.172   5.049   5.660  0.2716  0.3124  0.7986
10024SOL    HW235909   3.232   5.175   5.718  2.0452  0.1101 -0.4923
10025SOL     OW35910   4.119  10.538   2.557 -0.6208 -0.1918  0.5212
10025SOL    HW135911   4.140  10.447   2.536 -1.8259 -0.3516 -0.0900
10025SOL    HW235912   4.026  10.537   2.583 -1.4224  1.1734 -1.9093
10026SOL     OW35913   0.951   9.410   5.465  0.1137 -0.2721 -0.3638
10026SOL    HW135914   0.963   9.373   5.378  0.7758  0.6629 -0.6904
10026SOL    HW235915   1.033   9.393   5.511  0.9045  1.7316 -0.9114
10027SOL     OW35916   1.702   5.145   3.142 -0.3472 -0.6591  0.3387
10027SOL    HW135917   1.776   5.197   3.173 -1.2319  0.4668  0.6372
10027SOL    HW235918   1.742   5.075   3.090  1.0060 -1.0717  1.8662
10028SOL     OW35919   7.939   7.087   6.684  0.0432 -0.3187  0.0517
10028SOL    HW135920   7.844   7.100   6.674 -0.1782 -0.2358  2.0007
10028SOL    HW235921   7.954   7.001   6.643 -0.7870 -0.1635 -0.6349
10029SOL     OW35922  10.145   8.264   5.875  0.0286 -0.1337 -0.3097
10029SOL    HW135923  10.059   8.241   5.912  0.3057  0.2161  0.5889
10029SOL    HW235924  10.143   8.230   5.786 -0.2919 -1.9364  0.3407
10030SOL     OW35925   3.714   5.412   2.282  0.1782 -0.3954  0.0187
10030SOL    HW135926   3.735   5.323   2.255  1.8806 -0.1126  0.2626
10030SOL    HW235927   3.620   5.419   2.271  0.0408 -2.1431 -0.2344
10031SOL     OW35928  10.654   5.472   0.582  0.5885  0.7604  0.3890
10031SOL    HW135929  10.561   5.480   0.599  0.5742  0.4255  0.4692
10031SOL    HW235930  10.696   5.490   0.666  0.5659  0.2728  0.5107
10032SOL     OW35931   8.027   3.736   3.263  0.3819 -0.2055  0.7487
10032SOL    HW135932   8.100   3.775   3.213 -0.6190 -0.7550 -1.2290
10032SOL    HW235933   7.994   3.666   3.207 -0.4673 -1.2477  2.4669
10033SOL     OW35934   4.271   7.428   0.027  0.6954 -0.4638 -0.4065
10033SOL    HW135935   4.359   7.397   0.008  0.9105 -1.6841  2.1643
10033SOL    HW235936   4.218   7.348   0.032 -0.5924  0.2457 -1.8403
10034SOL     OW35937   0.884   2.839   5.264  0.1890 -0.0125  0.0030
10034SOL    HW135938   0.800   2.798   5.244  1.2464 -2.2824 -0.1093
10034SOL    HW235939   0.942   2.810   5.193  1.5610 -0.1864  1.1463
10035SOL     OW35940   7.508   0.229   0.900 -0.3025  0.0488 -0.1683
10035SOL    HW135941   7.498   0.155   0.841 -0.9866  0.6771 -0.8608
10035SOL    HW235942   7.490   0.193   0.987 -1.0357 -0.5134 -0.5417
10036SOL     OW35943  10.658   6.151   1.767  0.1397 -0.3642 -0.2004
10036SOL    HW135944  10.588   6.094   1.798 -0.7705  1.2607  0.9092
10036SOL    HW235945  10.685   6.114   1.683 -2.0494 -1.0569 -0.6527
10037SOL     OW35946   9.386   6.667   7.974 -0.5285 -0.3285 -0.2670
10037SOL    HW135947   9.431   6.668   7.889 -1.4317 -0.6711 -0.7615
10037SOL    HW235948   9.293   6.670   7.952 -0.7547  0.8588  0.7588
10038SOL     OW35949   6.018   3.850   6.382  0.5134 -0.3387 -0.4661
10038SOL    HW135950   5.937   3.890   6.412  0.8608 -1.2238  1.8476
10038SOL    HW235951   6.082   3.870   6.451  1.7162 -1.4324 -1.2080
10039SOL     OW35952   9.376   1.073   0.005  0.0401  0.4525  0.5779
10039SOL    HW135953   9.303   1.019  -0.027 -0.7709  1.1138  1.2606
10039SOL    HW235954   9.375   1.061   0.100  1.1062  0.1332  0.5602
10040SOL     OW35955   4.174   7.949   8.712  0.2229  0.0890 -0.0689
10040SOL    HW135956   4.106   7.927   8.775 -0.7640  0.0711 -1.1105
10040SOL    HW235957   4.140   8.026   8.666  0.6923 -0.2027 -0.9276
10041SOL     OW35958   1.246   0.998   4.362  0.0405  0.0409  0.1365
10041SOL    HW135959   1.321   1.054   4.341 -0.0048 -0.2648 -0.8774
10041SOL    HW235960   1.285   0.915   4.389  0.0822  0.2507  0.7511
10042SOL     OW35961   8.558   0.077   8.660  0.2086 -0.4927 -0.0586
10042SOL    HW135962   8.473   0.082   8.704  1.0128 -0.4668  1.5309
10042SOL    HW235963   8.570   0.163   8.620 -0.0208 -0.1223  0.6588
10043SOL     OW35964   3.220   9.636   2.394 -0.0214  0.3373 -0.2932
10043SOL    HW135965   3.309   9.655   2.364  0.0034 -1.3079 -1.3720
10043SOL    HW235966   3.206   9.697   2.467  1.6691  1.1981 -0.6411
10044SOL     OW35967   4.188   0.408   8.266  0.4144  0.3691  0.0806
10044SOL    HW135968   4.191   0.411   8.362  1.0988  0.5106  0.0633
10044SOL    HW235969   4.095   0.417   8.244 -0.2908 -3.2479  0.8517
10045SOL     OW35970   8.944   4.906   6.338 -0.1898 -0.4988  0.2023
10045SOL    HW135971   8.888   4.901   6.415 -0.8305 -0.1271 -0.2221
10045SOL    HW235972   9.008   4.836   6.349 -0.3706 -0.5391  0.9929
10046SOL     OW35973   6.501   9.212   1.115  0.3906  0.2015  0.1547
10046SOL    HW135974   6.529   9.299   1.143 -0.5873  0.3570  0.7227
10046SOL    HW235975   6.443   9.182   1.185  1.2525 -1.2090  0.3056
10047SOL     OW35976   4.047   1.668   8.114 -0.2204  0.5386  0.0593
10047SOL    HW135977   4.036   1.687   8.207  2.3920  1.7614  0.2039
10047SOL    HW235978   4.092   1.583   8.112 -3.1211 -1.1255 -0.2913
10048SOL     OW35979   7.179   0.377   0.449 -0.4535 -0.3526 -0.1167
10048SOL    HW135980   7.153   0.287   0.429  1.5427 -0.9774 -0.0730
10048SOL    HW235981   7.145   0.392   0.537 -0.1500 -1.3628  0.1957
10049SOL     OW35982   4.621   0.578   3.906 -0.0337 -0.2193 -0.3978
10049SOL    HW135983   4.587   0.489   3.915  1.0609 -0.7019 -0.7962
10049SOL    HW235984   4.697   0.581   3.964  0.8295 -0.0399 -1.4939
10050SOL     OW35985   2.099   2.262   9.822  0.0128 -0.5772 -0.2142
10050SOL    HW135986   2.136   2.181   9.856 -1.4541 -2.0099 -1.8566
10050SOL    HW235987   2.034   2.288   9.888  0.7991 -0.4453  0.5356
10051SOL     OW35988   6.232   7.056   8.412 -0.0319 -0.6740 -0.2933
10051SOL    HW135989   6.213   6.999   8.486 -1.7408 -0.0492 -0.2204
10051SOL    HW235990   6.207   7.004   8.335 -0.6741 -0.3922 -0.2795
10052SOL     OW35991   9.802   3.225   9.463 -0.3999 -0.0992 -0.1309
10052SOL    HW135992   9.841   3.180   9.388 -0.5971 -2.5408  1.1492
10052SOL    HW235993   9.861   3.298   9.480  2.1480 -2.0708  0.0285
10053SOL     OW35994   4.046   6.133   4.561 -0.0283 -0.2722 -0.3067
10053SOL    HW135995   4.132   6.141   4.520 -1.0942  0.0479 -2.6257
10053SOL    HW235996   3.991   6.095   4.494 -1.8340  0.0053  0.9520
10054SOL     OW35997   5.392   0.184   1.537  0.5512 -0.2661  0.0725
10054SOL    HW135998   5.436   0.107   1.501 -0.7691 -0.8673 -0.3204
10054SOL    HW235999   5.344   0.221   1.463  0.3628  0.3456  0.4943
10055SOL     OW36000   8.861  10.177   0.639  0.2254 -0.2887  0.1761
10055SOL    HW136001   8.925  10.113   0.607  0.6179  0.7639 -1.2807
10055SOL    HW236002   8.818  10.208   0.559 -0.1974  1.0020  0.8884
10056SOL     OW36003   0.676   5.032   3.901  0.3243  0.1558  0.7250
10056SOL    HW136004   0.630   5.042   3.984  0.2681  1.9102  0.5315
10056SOL    HW236005   0.769   5.030   3.925  0.2465 -1.4226  0.9650
10057SOL     OW36006   1.953   3.560   8.808 -0.6663  0.8207  0.4505
10057SOL    HW136007   2.018   3.630   8.807  1.2182 -0.8530  0.0608
10057SOL    HW236008   1.909   3.567   8.723  0.4560  0.7163 -0.1559
10058SOL     OW36009   1.603   3.282   8.611 -0.0595 -0.2018  0.2455
10058SOL    HW136010   1.634   3.353   8.556 -0.4645 -0.7303 -0.6994
10058SOL    HW236011   1.667   3.275   8.682  1.5853 -0.7923 -1.2308
10059SOL     OW36012   9.607   1.057   9.292 -0.0512  0.1843 -0.0073
10059SOL    HW136013   9.631   1.147   9.316  1.6581 -0.1737 -0.2298
10059SOL    HW236014   9.623   1.053   9.197  0.3274 -0.4760  0.0791
10060SOL     OW36015   4.558  10.120   4.526  0.4103  0.0765 -0.2786
10060SOL    HW136016   4.589  10.029   4.530  1.6089  0.4765 -0.0177
10060SOL    HW236017   4.613  10.167   4.588  1.3508  1.3980 -2.0368
10061SOL     OW36018   5.039   4.518   5.453 -0.0195  0.4611  0.0834
10061SOL    HW136019   5.002   4.562   5.530  1.2209 -1.5126  1.9166
10061SOL    HW236020   5.133   4.515   5.470  0.3582  0.4378 -1.8035
10062SOL     OW36021   7.657   7.625   0.790  0.4764 -0.1562 -0.2836
10062SOL    HW136022   7.699   7.654   0.709 -0.2227  1.1362 -0.2224
10062SOL    HW236023   7.711   7.661   0.860  1.8253 -2.3727 -0.1098
10063SOL     OW36024   5.495   5.189   4.474  0.3348  0.0721 -0.0191
10063SOL    HW136025   5.449   5.250   4.416  0.3491 -1.2445 -1.4883
10063SOL    HW236026   5.443   5.109   4.470  1.1236 -0.4936  0.7094
10064SOL     OW36027   2.150   1.691   3.668  0.0550 -0.6128 -0.7894
10064SOL    HW136028   2.082   1.625   3.674 -0.3661 -0.3050 -1.8858
10064SOL    HW236029   2.122   1.761   3.727  1.1012 -1.8663  1.3200
10065SOL     OW36030   7.457   3.246   5.885  0.3624  0.1384 -0.0289
10065SOL    HW136031   7.362   3.251   5.877  0.5468  1.5637 -2.2682
10065SOL    HW236032   7.477   3.152   5.875 -0.8631 -0.4973  2.6778
10066SOL     OW36033   8.416   6.904   1.492  0.3261 -0.3062 -0.0351
10066SOL    HW136034   8.363   6.827   1.511  0.9418 -0.9476 -0.8229
10066SOL    HW236035   8.476   6.911   1.566 -0.9461  0.5531  0.9730
10067SOL     OW36036   3.154   1.723   5.081 -0.0146 -0.4683 -0.3723
10067SOL    HW136037   3.229   1.716   5.022  1.5365 -1.2495  1.6084
10067SOL    HW236038   3.176   1.794   5.140 -1.0781 -0.3755 -0.0649
10068SOL     OW36039   4.150   8.722   6.834  0.1541 -0.4320 -0.0664
10068SOL    HW136040   4.239   8.690   6.816  0.2845  0.3563 -0.9119
10068SOL    HW236041   4.123   8.764   6.753 -1.3359 -1.3742 -0.0951
10069SOL     OW36042   2.868   0.573   5.552 -0.0748  0.6960 -0.3057
10069SOL    HW136043   2.944   0.552   5.606  1.3932  1.5626 -1.9634
10069SOL    HW236044   2.868   0.669   5.546 -1.0567  0.6899 -0.6777
10070SOL     OW36045   9.706   8.997   4.401  0.7071 -0.0056 -0.3929
10070SOL    HW136046   9.669   8.934   4.463  0.1783  0.2861 -0.4049
10070SOL    HW236047   9.796   8.968   4.388  1.3712  0.8808  1.8016
10071SOL     OW36048   0.744   8.611   0.309 -0.4306  0.7329  0.0757
10071SOL    HW136049   0.653   8.624   0.334 -0.7557  0.7295 -1.0959
10071SOL    HW236050   0.750   8.519   0.283 -0.0705  0.7114  0.2178
10072SOL     OW36051   1.951   2.435   5.208  0.3776  0.0412  0.2630
10072SOL    HW136052   1.991   2.352   5.182 -0.1073 -0.3150  0.6444
10072SOL    HW236053   1.993   2.455   5.292 -0.2250 -0.3241  0.6554
10073SOL     OW36054   8.158   0.041   4.498  0.1107 -0.2542 -0.2049
10073SOL    HW136055   8.121   0.024   4.411 -1.2313 -1.4127  0.5405
10073SOL    HW236056   8.144   0.135   4.512  1.7748  0.2853 -1.8335
10074SOL     OW36057   1.627   1.973   6.922  0.1182  0.7253 -0.3637
10074SOL    HW136058   1.643   2.042   6.857  0.7425 -0.8602 -1.9532
10074SOL    HW236059   1.698   1.911   6.910 -0.3246 -0.1333  1.1751
10075SOL     OW36060   0.357   9.028   4.340  0.6809  0.2166  0.3947
10075SOL    HW136061   0.297   9.098   4.368 -0.7310 -0.4857 -0.7459
10075SOL    HW236062   0.435   9.040   4.395 -0.1073  1.7657  1.2476
10076SOL     OW36063   8.693   0.389   3.260 -0.5124  0.0042 -0.3145
10076SOL    HW136064   8.612   0.337   3.254 -0.4796 -0.0253 -0.5083
10076SOL    HW236065   8.761   0.325   3.279 -0.5079  0.0065 -0.3218
10077SOL     OW36066   3.935   3.450   5.628  0.3089  0.4532  0.5002
10077SOL    HW136067   3.927   3.355   5.628 -0.4703  0.5130  0.5218
10077SOL    HW236068   3.972   3.471   5.542 -0.3482  0.1926  0.1477
10078SOL     OW36069   3.681   0.078   2.677 -0.3876  0.4678 -0.2429
10078SOL    HW136070   3.712   0.000   2.724 -0.5449 -0.4130 -1.5410
10078SOL    HW236071   3.750   0.143   2.689  0.8492 -0.6463 -1.0444
10079SOL     OW36072   8.407  10.593   1.091  0.1798 -0.0595 -0.3414
10079SOL    HW136073   8.425  10.564   1.181  0.9026  0.4015 -0.3287
10079SOL    HW236074   8.472  10.547   1.038 -0.3925 -0.5061 -0.6683
10080SOL     OW36075   1.705   1.301   6.058 -0.4829  0.3928  0.2200
10080SOL    HW136076   1.762   1.225   6.073  1.6012  1.9460  0.6672
10080SOL    HW236077   1.653   1.308   6.138 -0.7695 -0.5765  0.1408
10081SOL     OW36078   1.836   8.694   3.141 -0.2085  0.0179  0.3836
10081SOL    HW136079   1.865   8.785   3.152 -0.2763  0.0412  0.3669
10081SOL    HW236080   1.747   8.701   3.108 -0.2145 -0.0550  0.3852
10082SOL     OW36081   4.357   9.604   0.906 -0.6202 -0.4268  0.7560
10082SOL    HW136082   4.338   9.695   0.881 -0.7380 -0.5589  0.3468
10082SOL    HW236083   4.369   9.607   1.000  2.7146  0.6204  0.4439
10083SOL     OW36084   2.704   9.161   2.391  0.1919 -0.2573  0.2101
10083SOL    HW136085   2.629   9.181   2.334 -0.0757  0.8526  0.9289
10083SOL    HW236086   2.745   9.084   2.350 -1.7134 -1.3190  0.1760
10084SOL     OW36087   3.851   5.645  10.192  0.3584 -0.2509 -0.0440
10084SOL    HW136088   3.865   5.681  10.279 -0.2741 -0.9149  0.3412
10084SOL    HW236089   3.831   5.721  10.137  0.0217  0.0888  0.5437
10085SOL     OW36090   7.682   9.277   0.817 -0.0745  0.6267  0.1658
10085SOL    HW136091   7.643   9.333   0.885 -0.2999  0.4438  0.1842
10085SOL    HW236092   7.736   9.215   0.866 -1.9430 -0.9314  0.3667
10086SOL     OW36093   1.974   3.499   5.647  0.0367  0.7860  0.2727
10086SOL    HW136094   1.957   3.488   5.741  3.0454  1.5473  1.0161
10086SOL    HW236095   1.965   3.593   5.631 -1.4586  0.5532 -0.5084
10087SOL     OW36096   8.254   8.040   0.266 -1.1288 -0.3863 -0.2013
10087SOL    HW136097   8.242   8.131   0.292 -0.8821 -0.3042 -0.3734
10087SOL    HW236098   8.170   7.998   0.285 -0.6264 -0.6055  1.8238
10088SOL     OW36099   5.720   6.079   6.841  0.0073  0.2183 -0.3717
10088SOL    HW136100   5.709   6.174   6.852  0.4577  0.3273 -0.7899
10088SOL    HW236101   5.631   6.046   6.829 -0.1916  0.5332  0.1572
10089SOL     OW36102   7.081   7.174   7.965  0.2807 -0.2298  0.7356
10089SOL    HW136103   7.168   7.139   7.984 -0.0628 -0.8294  1.2492
10089SOL    HW236104   7.098   7.256   7.920  1.1406 -2.0724 -2.6043
10090SOL     OW36105   3.435   2.038   9.786 -0.3287 -0.0514  0.4551
10090SOL    HW136106   3.491   2.099   9.835 -0.4133 -1.7193  2.8459
10090SOL    HW236107   3.478   2.029   9.702  2.0432  0.1098  1.5606
10091SOL     OW36108   2.199  10.461   7.118 -0.4101  0.2778 -0.1384
10091SOL    HW136109   2.206  10.367   7.129 -0.0189  0.4379  1.1461
10091SOL    HW236110   2.146  10.491   7.192 -0.3302  1.0908 -0.3903
10092SOL     OW36111   0.006   0.898   3.732  0.2203 -0.2954  0.1318
10092SOL    HW136112   0.057   0.838   3.678 -0.5074  0.5699 -1.5656
10092SOL    HW236113   0.064   0.917   3.806  0.8683 -2.2403  0.1916
10093SOL     OW36114   0.044   2.800  10.612 -0.3859 -0.3622 -0.2063
10093SOL    HW136115   0.116   2.747  10.575 -0.0060  0.7415 -1.0988
10093SOL    HW236116  -0.004   2.739  10.668  0.9473 -1.2630  0.0058
10094SOL     OW36117   0.960  10.674   2.107 -0.3084  0.1223  0.0968
10094SOL    HW136118   0.932  10.602   2.051 -0.8245  0.9351 -0.7188
10094SOL    HW236119   1.004  10.735   2.048  2.7989 -0.8479  1.2280
10095SOL     OW36120  10.555   8.379   4.155 -0.0389 -0.4018  0.0782
10095SOL    HW136121  10.627   8.436   4.127  1.2414 -0.5802  2.7057
10095SOL    HW236122  10.490   8.439   4.193  0.3187 -0.5093  0.8675
10096SOL     OW36123   5.990   3.210   8.162 -0.3740  0.4145  0.0738
10096SOL    HW136124   6.036   3.265   8.226  0.4810  0.1979 -0.3565
10096SOL    HW236125   5.922   3.167   8.214 -0.7006  1.4350  0.5351
10097SOL     OW36126  10.121   4.624   6.361  0.1137 -0.5623 -0.4913
10097SOL    HW136127  10.144   4.613   6.453  0.0859  0.6409 -0.3255
10097SOL    HW236128  10.025   4.627   6.360  0.1196 -0.3783 -0.5364
10098SOL     OW36129   2.413   6.638   4.610 -0.1839 -1.1276 -0.6172
10098SOL    HW136130   2.491   6.624   4.556 -0.0442 -1.3745 -0.3564
10098SOL    HW236131   2.392   6.551   4.645  0.3893 -0.7960  0.6051
10099SOL     OW36132   9.755   1.894   3.308  0.4721  0.7034  0.1661
10099SOL    HW136133   9.822   1.840   3.265  0.1709 -0.4555  1.1049
10099SOL    HW236134   9.804   1.968   3.345  0.9904  0.7374 -0.5634
10100SOL     OW36135  10.459   2.385   2.674 -0.5119 -0.3227 -0.1881
10100SOL    HW136136  10.442   2.426   2.759  0.2354 -1.5169  0.5748
10100SOL    HW236137  10.420   2.444   2.610  1.2647  2.0595  0.7571
10101SOL     OW36138   8.785   1.885   3.279  0.1823  0.4454  0.1895
10101SOL    HW136139   8.739   1.802   3.292  1.0465  0.2274  2.1942
10101SOL    HW236140   8.746   1.945   3.342  0.4012  1.2269 -0.4012
10102SOL     OW36141   2.903   3.835   3.771 -0.0489 -0.0530 -0.6263
10102SOL    HW136142   2.809   3.823   3.788  0.4591 -0.0983  2.8480
10102SOL    HW236143   2.926   3.912   3.823  1.8672 -0.0507 -1.4154
10103SOL     OW36144   4.239   8.196   1.140  0.2733  0.2874 -0.7259
10103SOL    HW136145   4.255   8.219   1.231 -0.0763 -3.9056  0.6458
10103SOL    HW236146   4.220   8.279   1.097  1.1648  2.5644  2.8121
10104SOL     OW36147   3.809   6.592   8.076  1.2023 -0.5691 -0.0342
10104SOL    HW136148   3.764   6.543   8.144  0.7256  2.3097  1.9267
10104SOL    HW236149   3.896   6.553   8.071  0.3110 -2.6828  0.0804
10105SOL     OW36150   5.338   2.705   9.418 -0.2106  0.1325  0.4119
10105SOL    HW136151   5.385   2.662   9.489 -0.0913 -0.8922 -0.2587
10105SOL    HW236152   5.247   2.707   9.447 -0.4748 -1.8673 -0.0791
10106SOL     OW36153   0.561   4.676   7.944  0.4698 -0.4564 -0.3010
10106SOL    HW136154   0.517   4.697   8.026  1.1682 -1.8343  0.4622
10106SOL    HW236155   0.651   4.658   7.969  1.2745  1.3071 -1.6986
10107SOL     OW36156   5.655   3.560   4.880 -0.6679 -0.2485  0.3041
10107SOL    HW136157   5.736   3.599   4.845 -1.1325  0.1647 -0.3177
10107SOL    HW236158   5.592   3.631   4.880 -1.4608 -0.9358 -0.6119
10108SOL     OW36159   7.099   0.828   3.239  0.7053 -0.0368  0.3569
10108SOL    HW136160   7.088   0.832   3.334  0.9711 -1.0937  0.4537
10108SOL    HW236161   7.173   0.768   3.226  0.2726 -0.4096 -0.5302
10109SOL     OW36162   8.715   6.375   8.491 -0.0196  0.0869  0.4587
10109SOL    HW136163   8.648   6.309   8.506  1.3708 -1.5490 -0.2356
10109SOL    HW236164   8.670   6.444   8.441 -0.9890 -1.3412 -0.6987
10110SOL     OW36165   6.872   4.697   0.494 -0.4705  0.4572  0.1189
10110SOL    HW136166   6.891   4.649   0.575 -1.5416  1.2956  0.8919
10110SOL    HW236167   6.882   4.789   0.518 -0.8752  0.7129 -0.6837
10111SOL     OW36168   0.663   3.197   1.754  0.2683 -0.1719  0.3199
10111SOL    HW136169   0.647   3.264   1.820  0.3693  0.8479 -0.6661
10111SOL    HW236170   0.598   3.130   1.771 -0.6608  0.7678  0.5529
10112SOL     OW36171   4.782   7.106   6.598 -0.5905 -0.0557  0.3791
10112SOL    HW136172   4.827   7.049   6.536 -0.6557  0.2953  0.0065
10112SOL    HW236173   4.689   7.098   6.575 -0.5532  0.5840  0.0033
10113SOL     OW36174   5.150   6.142   6.653  0.2243  0.0150 -0.1287
10113SOL    HW136175   5.070   6.150   6.600 -0.3369  1.6964  0.8923
10113SOL    HW236176   5.151   6.051   6.680 -0.3036 -0.5077 -1.7526
10114SOL     OW36177   9.900   5.023   3.952  0.2379 -0.1262 -0.1883
10114SOL    HW136178   9.818   4.993   3.990  0.3500 -1.3321 -0.8560
10114SOL    HW236179   9.953   5.049   4.028 -0.0161 -1.2727  0.4055
10115SOL     OW36180   1.954   1.195  10.598 -0.4688  0.1273  0.3365
10115SOL    HW136181   1.868   1.233  10.616 -0.6347  0.3426 -0.8189
10115SOL    HW236182   1.945   1.155  10.511  0.4771 -0.2212  0.3832
10116SOL     OW36183   8.761   8.422   1.237  0.1542  0.0101  0.1180
10116SOL    HW136184   8.762   8.397   1.330  0.2113 -0.7543 -0.0781
10116SOL    HW236185   8.683   8.378   1.202  0.5497 -0.3219 -0.3571
10117SOL     OW36186   2.711   7.267   2.560  0.2279 -0.3158  0.4859
10117SOL    HW136187   2.758   7.332   2.509  2.2627 -1.6619  0.5386
10117SOL    HW236188   2.693   7.196   2.498 -1.1843 -0.1122  0.6330
10118SOL     OW36189   9.148   3.600   2.432 -0.2771 -0.0884  0.4917
10118SOL    HW136190   9.069   3.551   2.457 -0.3184 -0.6794 -0.7094
10118SOL    HW236191   9.157   3.583   2.338  0.6112  0.9459  0.3780
10119SOL     OW36192   1.699   0.344   1.623 -0.0529  0.3370  0.3592
10119SOL    HW136193   1.697   0.438   1.604  3.3003  0.5273  0.4758
10119SOL    HW236194   1.700   0.339   1.719  0.4034  0.1972  0.3454
10120SOL     OW36195   7.285   0.096   7.431 -0.2416  0.2111 -0.2430
10120SOL    HW136196   7.333   0.113   7.512 -1.0150 -1.7258  0.6737
10120SOL    HW236197   7.192   0.101   7.456 -0.5002 -0.1422 -1.0805
10121SOL     OW36198   8.162   5.489   9.386 -0.2753  0.2114 -0.0745
10121SOL    HW136199   8.154   5.542   9.307  0.7821  0.3964 -0.0722
10121SOL    HW236200   8.221   5.418   9.361 -1.4497 -0.8403  0.0020
10122SOL     OW36201   6.345   4.471  10.110 -0.2139  1.0268  0.0802
10122SOL    HW136202   6.332   4.385  10.070 -2.5638  0.6471  1.4601
10122SOL    HW236203   6.404   4.454  10.184 -0.5538  0.6070  0.2610
10123SOL     OW36204   2.377   9.263   6.293 -0.1773  0.0828  0.2655
10123SOL    HW136205   2.384   9.352   6.258 -0.5276  0.3224  0.7805
10123SOL    HW236206   2.467   9.236   6.310 -0.0776  0.3960  0.2361
10124SOL     OW36207   7.523   8.203   5.023 -0.0016  0.2417  0.1255
10124SOL    HW136208   7.429   8.199   5.043 -0.0571  0.7210 -0.0198
10124SOL    HW236209   7.527   8.250   4.940  0.4160  0.9780  0.5499
10125SOL     OW36210   1.766   7.195   8.535 -0.1738 -0.0786  0.3758
10125SOL    HW136211   1.772   7.274   8.482  0.0793  1.0449  2.0311
10125SOL    HW236212   1.739   7.225   8.621  1.4134 -1.6166  1.4826
10126SOL     OW36213   7.156   0.221   6.397  0.6097 -0.3331  0.1066
10126SOL    HW136214   7.147   0.126   6.391  0.1385 -0.2277 -1.2297
10126SOL    HW236215   7.246   0.239   6.370  0.5658 -0.3669 -0.0620
10127SOL     OW36216   8.286   1.633   4.924 -0.7031  0.0702  0.2326
10127SOL    HW136217   8.228   1.695   4.880  0.0063  0.0998 -0.6849
10127SOL    HW236218   8.246   1.621   5.011 -1.5322  0.8364 -0.0221
10128SOL     OW36219   4.032   9.275  10.067  0.9751  0.3216  0.6459
10128SOL    HW136220   4.055   9.196  10.019  0.4447 -0.1047  1.0882
10128SOL    HW236221   4.001   9.336   9.999 -0.7648 -0.6363  0.5215
10129SOL     OW36222  10.466   4.042   0.096 -0.1129  0.1271  0.0820
10129SOL    HW136223  10.523   4.049   0.019 -1.0427  1.5006 -0.5213
10129SOL    HW236224  10.379   4.025   0.060 -0.5122  0.5148  0.8470
10130SOL     OW36225   4.029   2.549   3.480 -0.0652  0.6566  0.2527
10130SOL    HW136226   4.085   2.519   3.409 -1.3844  0.7783 -0.8819
10130SOL    HW236227   3.942   2.515   3.458 -0.3291 -0.1919  2.3595
10131SOL     OW36228   8.686   8.167   2.178  0.5514 -0.2476  0.0562
10131SOL    HW136229   8.749   8.134   2.113  0.9911 -1.6154  1.1332
10131SOL    HW236230   8.690   8.104   2.250  0.2900  1.3775  1.5668
10132SOL     OW36231   6.154   9.156   4.869 -0.8361  0.0857  0.1190
10132SOL    HW136232   6.135   9.107   4.949  1.1809 -1.0904 -0.0421
10132SOL    HW236233   6.075   9.145   4.815 -0.8997 -2.0895  0.5621
10133SOL     OW36234   8.654   1.842   5.880  0.8695  0.1285  0.2129
10133SOL    HW136235   8.608   1.773   5.831  1.6185  0.5703 -1.1521
10133SOL    HW236236   8.735   1.801   5.909  0.4775 -0.0988  1.0169
10134SOL     OW36237   0.323   9.736   1.577 -0.1756  0.4069 -0.2923
10134SOL    HW136238   0.387   9.666   1.585 -0.6594 -0.1478 -1.0794
10134SOL    HW236239   0.374   9.813   1.551  0.3654  0.3758  0.6345
10135SOL     OW36240   9.867   6.725   2.443  0.7283  0.1743  0.6152
10135SOL    HW136241   9.878   6.646   2.496  1.4059  0.4187  0.8565
10135SOL    HW236242   9.956   6.760   2.433  0.5224  0.5423 -0.0553
10136SOL     OW36243   7.887   0.756   6.157  0.3809  0.1436 -0.4466
10136SOL    HW136244   7.956   0.731   6.220 -0.8370 -1.7635  0.2109
10136SOL    HW236245   7.904   0.701   6.081 -0.0404  0.1279 -0.5269
10137SOL     OW36246   2.534   1.659   5.180 -0.1317 -0.0139 -0.5140
10137SOL    HW136247   2.448   1.641   5.219 -0.6837 -0.0869 -1.7086
10137SOL    HW236248   2.521   1.645   5.086  0.6263  2.0570 -0.9809
10138SOL     OW36249   6.885   5.872   3.687  0.7005 -0.0192  0.2766
10138SOL    HW136250   6.891   5.830   3.772 -0.7973 -0.0108  0.4095
10138SOL    HW236251   6.936   5.953   3.696  0.6994 -0.1055  1.1071
10139SOL     OW36252   7.653   9.020   2.605 -0.0711 -0.8067  0.2063
10139SOL    HW136253   7.614   8.949   2.553 -0.5821  0.3469 -1.0402
10139SOL    HW236254   7.742   9.027   2.571 -0.3919 -0.0819 -0.5339
10140SOL     OW36255   5.539   8.639   3.378 -0.4175  0.4010 -0.2012
10140SOL    HW136256   5.499   8.554   3.396  2.1728 -0.6397  1.2463
10140SOL    HW236257   5.544   8.681   3.464  0.9601  0.7257 -0.4122
10141SOL     OW36258   3.192   5.668   2.931 -0.0266 -0.6289 -0.0264
10141SOL    HW136259   3.176   5.676   2.837  0.4000 -1.2620 -0.1601
10141SOL    HW236260   3.106   5.683   2.971 -0.2618 -0.5966 -0.5321
10142SOL     OW36261   0.420   6.140   9.513 -0.6413  0.0163 -0.2224
10142SOL    HW136262   0.374   6.064   9.476 -0.9917  1.0950 -2.1646
10142SOL    HW236263   0.464   6.179   9.438  2.0774  0.0283  1.2823
10143SOL     OW36264  10.192   2.931  10.443  0.1006 -0.2740 -0.0100
10143SOL    HW136265  10.228   2.948  10.530 -1.6848  0.0594  0.7196
10143SOL    HW236266  10.226   3.002  10.388 -0.0009  0.4374  0.8172
10144SOL     OW36267   9.564   0.607   2.607  0.2049  0.4950 -0.0148
10144SOL    HW136268   9.604   0.691   2.587 -2.1284  1.5619 -0.6163
10144SOL    HW236269   9.587   0.551   2.533  0.2326  1.2163 -0.5618
10145SOL     OW36270   6.644   5.189   0.393  0.4195 -0.3634  0.9274
10145SOL    HW136271   6.595   5.262   0.357  0.1431 -0.6774  0.6665
10145SOL    HW236272   6.657   5.212   0.485  2.1844  1.0166  0.3847
10146SOL     OW36273   0.975   9.204  10.000 -0.5922  0.2983 -0.0109
10146SOL    HW136274   0.962   9.241  10.087 -1.5043 -0.2402  0.0947
10146SOL    HW236275   1.003   9.114  10.016 -1.8205 -0.1382 -0.2716
10147SOL     OW36276   8.452   0.840   1.127  0.4354  0.2336  0.2138
10147SOL    HW136277   8.411   0.924   1.150 -2.4730 -0.8750 -0.4752
10147SOL    HW236278   8.541   0.863   1.101 -0.1423  3.0637  0.4339
10148SOL     OW36279   3.139   2.326   7.429  0.1260  0.3529  0.7572
10148SOL    HW136280   3.131   2.310   7.523 -0.7888  1.1738  0.8355
10148SOL    HW236281   3.077   2.266   7.389 -0.7339  1.1795  0.8114
10149SOL     OW36282   1.654   6.007   0.430  0.5545  0.6851  0.0275
10149SOL    HW136283   1.610   6.089   0.453  2.1748  1.9157 -1.0231
10149SOL    HW236284   1.712   6.030   0.358  0.2631 -1.6526 -1.0687
10150SOL     OW36285   7.260   3.719   8.456 -0.4842  0.7044  0.7324
10150SOL    HW136286   7.189   3.781   8.440 -0.7756  0.1786 -0.0783
10150SOL    HW236287   7.340   3.769   8.438 -0.7590  0.1324 -2.8710
10151SOL     OW36288   6.458   7.947   2.089  0.1167  0.1642  0.1123
10151SOL    HW136289   6.385   8.006   2.071  1.9617  2.5520 -0.2096
10151SOL    HW236290   6.467   7.946   2.184  1.6950  2.7452  0.0882
10152SOL     OW36291   2.156   8.500  10.692 -0.2502  0.4643 -0.0793
10152SOL    HW136292   2.190   8.590  10.691  0.2149  0.2926 -0.0213
10152SOL    HW236293   2.212   8.453  10.631 -1.7014  0.6343 -1.6142
10153SOL     OW36294   5.047   4.276   8.932 -0.7289 -0.3438 -0.1543
10153SOL    HW136295   5.082   4.241   8.850 -1.4206 -0.6615 -0.3216
10153SOL    HW236296   4.964   4.229   8.945 -0.2035 -0.9559  1.1911
10154SOL     OW36297   8.697   0.339   5.141  0.5022 -0.0624 -0.8297
10154SOL    HW136298   8.756   0.263   5.144 -0.2930 -0.6715  0.1784
10154SOL    HW236299   8.678   0.351   5.048  0.5111 -1.2161 -0.9981
10155SOL     OW36300   6.772   4.528   7.717 -0.1194  1.1908  0.4815
10155SOL    HW136301   6.679   4.512   7.702 -0.2313  1.2985  1.0258
10155SOL    HW236302   6.780   4.623   7.711 -0.1936  1.2489  1.2151
10156SOL     OW36303   8.065   8.579   8.267  0.7616  0.0808 -0.4615
10156SOL    HW136304   7.989   8.602   8.215 -1.3716 -1.1101  1.9011
10156SOL    HW236305   8.069   8.483   8.263  0.8918  0.0001  1.0151
10157SOL     OW36306   4.703   6.071   4.766 -0.0215  0.1477  0.2198
10157SOL    HW136307   4.618   6.114   4.755 -0.9536 -1.5832  0.2686
10157SOL    HW236308   4.709   6.009   4.693  0.0663 -1.4770  1.5316
10158SOL     OW36309   1.845  10.668   3.126  0.0640 -0.2662 -1.1471
10158SOL    HW136310   1.840  10.604   3.197  0.6458 -0.3640 -1.1902
10158SOL    HW236311   1.933  10.705   3.134 -0.6034  1.2679 -0.4824
10159SOL     OW36312   5.816   3.910   2.659 -0.1563 -0.6088 -0.1643
10159SOL    HW136313   5.779   3.848   2.722  2.2870 -0.5618  1.4761
10159SOL    HW236314   5.872   3.856   2.602 -0.8223 -0.3689 -1.0763
10160SOL     OW36315   9.756   9.526   6.645 -0.2271 -0.7032 -0.2037
10160SOL    HW136316   9.744   9.553   6.736  0.0845  0.1336 -0.4011
10160SOL    HW236317   9.667   9.513   6.612 -0.3562 -0.6476  0.1159
10161SOL     OW36318   0.351   5.881  10.212 -0.3929  0.5722 -0.1720
10161SOL    HW136319   0.320   5.890  10.122  1.1038 -0.7468 -0.8698
10161SOL    HW236320   0.447   5.881  10.205 -0.2477 -0.1966  1.3401
10162SOL     OW36321   0.728   9.779   2.466 -0.1667  0.0698  0.1137
10162SOL    HW136322   0.787   9.708   2.441 -0.6842 -0.0534 -0.7756
10162SOL    HW236323   0.699   9.756   2.554 -0.6419 -1.0319 -0.3139
10163SOL     OW36324   4.742   9.247   1.996 -0.6176  0.3057  0.7401
10163SOL    HW136325   4.782   9.299   2.065  0.1081  1.6801 -0.6434
10163SOL    HW236326   4.689   9.310   1.947 -1.4411 -0.7124  0.2784
10164SOL     OW36327   4.228   0.123   5.872 -0.0039 -0.2214  0.1368
10164SOL    HW136328   4.167   0.186   5.911 -1.0396 -1.3989  0.4610
10164SOL    HW236329   4.298   0.115   5.937  0.9700  1.7386 -0.5811
10165SOL     OW36330   0.566   3.811   8.818  0.4807 -0.0226 -0.4674
10165SOL    HW136331   0.575   3.754   8.742  1.6629 -0.3146 -0.1130
10165SOL    HW236332   0.609   3.765   8.889 -0.4802  0.3163  0.3630
10166SOL     OW36333   4.261   7.802   9.921 -0.3600 -0.4753  0.1380
10166SOL    HW136334   4.166   7.790   9.925 -0.5933  1.3648  1.1843
10166SOL    HW236335   4.273   7.897   9.919  1.5117 -0.5633  2.6543
10167SOL     OW36336   2.968   3.547   4.581 -0.4048 -0.1454  1.3614
10167SOL    HW136337   3.053   3.575   4.615 -1.3709  1.1029  2.9033
10167SOL    HW236338   2.905   3.579   4.646 -2.4936  3.3203 -1.9437
10168SOL     OW36339   8.989   5.028  10.594  0.0926 -0.4639  0.0290
10168SOL    HW136340   8.965   5.011  10.685 -1.9524  0.1122 -0.3570
10168SOL    HW236341   9.047   4.956  10.571  0.0869 -1.0055  1.5687
10169SOL     OW36342   0.295   7.908   1.129 -0.6588  0.1251 -0.5047
10169SOL    HW136343   0.344   7.990   1.128  1.7082 -1.1657  0.8881
10169SOL    HW236344   0.340   7.852   1.067 -0.3564 -1.0914  0.7706
10170SOL     OW36345   5.465   4.571   2.668 -0.2466  0.2744 -0.1796
10170SOL    HW136346   5.548   4.612   2.691  0.0565 -0.6006  0.3627
10170SOL    HW236347   5.404   4.644   2.658  0.3326  0.8656  0.4701
10171SOL     OW36348   9.958   2.871  10.318  0.0723 -0.6389 -0.2448
10171SOL    HW136349  10.023   2.913  10.375  0.7082 -2.0458  0.1177
10171SOL    HW236350   9.959   2.923  10.238 -0.7595  1.3120  0.9481
10172SOL     OW36351   2.194   4.736   5.005  0.3049 -0.2787 -0.7511
10172SOL    HW136352   2.129   4.735   4.935 -0.3498 -0.7834 -0.1558
10172SOL    HW236353   2.244   4.655   4.993 -0.0634 -0.5661 -0.4267
10173SOL     OW36354   4.059   6.062   7.592  0.3066  0.0473  0.0651
10173SOL    HW136355   4.112   6.095   7.519 -1.7336 -0.0544 -1.5873
10173SOL    HW236356   4.059   6.133   7.656  2.9985 -0.2609  0.5047
10174SOL     OW36357   7.122   4.043   7.459  0.0842 -0.2201 -0.1499
10174SOL    HW136358   7.116   3.962   7.511 -0.2298 -0.3947 -0.4525
10174SOL    HW236359   7.212   4.045   7.429  0.7792  0.7730  1.8254
10175SOL     OW36360   3.781   2.735   2.286 -0.4951 -0.3566  0.0359
10175SOL    HW136361   3.807   2.769   2.201 -1.2498 -0.6220 -0.3038
10175SOL    HW236362   3.719   2.799   2.321  0.9001  0.5114  1.0499
10176SOL     OW36363   2.504   1.824   6.583 -0.7001 -0.4649  0.1587
10176SOL    HW136364   2.521   1.731   6.570 -0.7367 -0.4947  0.3100
10176SOL    HW236365   2.584   1.858   6.623 -0.4142 -0.2776 -0.5633
10177SOL     OW36366  10.374   1.002  10.586  0.5306 -0.4356  0.1073
10177SOL    HW136367  10.387   1.087  10.626 -1.8020 -0.3276  0.7753
10177SOL    HW236368  10.316   1.018  10.511  1.8249 -1.1613 -1.1083
10178SOL     OW36369   7.137   1.343   6.462  0.3847  0.1164  0.2269
10178SOL    HW136370   7.078   1.277   6.425  1.6367 -1.6744  1.2667
10178SOL    HW236371   7.079   1.407   6.503 -0.9433  0.8350 -2.5543
10179SOL     OW36372   5.678   4.571   4.727  0.1366  0.4127  0.3456
10179SOL    HW136373   5.645   4.584   4.816 -0.6621 -0.4701  0.2028
10179SOL    HW236374   5.668   4.477   4.712  0.3388  0.5417 -0.6422
10180SOL     OW36375   0.588   2.043   9.167  0.0548  0.3290 -0.2789
10180SOL    HW136376   0.517   1.999   9.213  0.2115  1.7841  1.5052
10180SOL    HW236377   0.545   2.093   9.098 -0.5007  0.1257 -0.0864
10181SOL     OW36378   2.399   2.746   0.273 -0.3454 -0.1964  0.0873
10181SOL    HW136379   2.489   2.727   0.297 -0.4002  0.7210  1.0995
10181SOL    HW236380   2.368   2.806   0.341 -2.0482 -1.2891  0.3321
10182SOL     OW36381   1.456   4.069   6.007  0.3874  0.4442  0.4123
10182SOL    HW136382   1.495   4.090   5.923  0.7644  0.1418  0.5097
10182SOL    HW236383   1.530   4.041   6.061  0.5599  2.8093  1.5675
10183SOL     OW36384   5.445  10.590   4.942  0.3225  0.5959 -0.0805
10183SOL    HW136385   5.520  10.642   4.912  0.4027  1.1341  0.9855
10183SOL    HW236386   5.476  10.499   4.938  1.1206  0.8237  0.5369
10184SOL     OW36387   0.774   3.336   0.935  0.0409  0.0575 -0.3840
10184SOL    HW136388   0.794   3.359   1.026  1.0697  0.8830 -0.8071
10184SOL    HW236389   0.831   3.261   0.916 -1.5484 -1.3924  0.2145
10185SOL     OW36390   1.904   8.454   3.899  0.1801 -0.1128  0.7648
10185SOL    HW136391   1.834   8.399   3.933  1.4067 -0.5548  2.8098
10185SOL    HW236392   1.932   8.412   3.818 -1.3799 -0.3459  0.3266
10186SOL     OW36393   5.686  10.425   5.234 -0.0533 -0.2945  0.3596
10186SOL    HW136394   5.750  10.373   5.281 -1.1875 -1.7880  0.3101
10186SOL    HW236395   5.614  10.365   5.216  0.1849  0.2125 -3.0801
10187SOL     OW36396   0.213  10.128   8.061 -0.0980 -0.1773  0.6644
10187SOL    HW136397   0.156  10.097   7.991  0.0535 -1.7154  1.1910
10187SOL    HW236398   0.170  10.098   8.142  1.1918 -0.9760  1.0891
10188SOL     OW36399   3.341   7.377   3.921 -0.0157 -0.0773 -0.4284
10188SOL    HW136400   3.423   7.354   3.965 -1.3059  1.3416  3.0574
10188SOL    HW236401   3.332   7.471   3.935 -2.8098 -0.3955  0.4907
10189SOL     OW36402   9.143  10.488   2.698 -0.1636  0.3653 -1.1937
10189SOL    HW136403   9.123  10.406   2.652  0.1030 -2.8557  3.6303
10189SOL    HW236404   9.082  10.552   2.661 -2.6049 -2.8151 -3.2327
10190SOL     OW36405   0.621   7.768   9.873  0.0489  0.1228 -0.1709
10190SOL    HW136406   0.642   7.806   9.788  0.9949 -0.7015 -0.3218
10190SOL    HW236407   0.538   7.809   9.898  0.6422  1.6891 -0.6696
10191SOL     OW36408  10.473   4.518   8.890  0.1754 -0.3645 -0.0884
10191SOL    HW136409  10.508   4.435   8.923  1.2397 -0.7381 -1.9890
10191SOL    HW236410  10.458   4.502   8.797 -1.4680  1.0129 -0.1116
10192SOL     OW36411   6.168   7.705   1.985 -0.5495  0.0628 -0.2230
10192SOL    HW136412   6.211   7.659   1.912 -3.6346 -2.8607 -0.4334
10192SOL    HW236413   6.177   7.645   2.059 -0.9546  1.1504  0.7189
10193SOL     OW36414   2.121   6.954   2.202 -0.5535  0.2040  0.4609
10193SOL    HW136415   2.081   7.031   2.160 -0.0586  0.4164  0.3745
10193SOL    HW236416   2.061   6.933   2.273 -1.0099  0.3007  0.1135
10194SOL     OW36417   6.221  10.393   6.527  0.6110  0.1906  0.1414
10194SOL    HW136418   6.181  10.341   6.598  0.3535 -1.0592 -0.8726
10194SOL    HW236419   6.314  10.373   6.532  0.4449 -0.9142 -0.6173
10195SOL     OW36420   3.065   0.011   8.033 -0.4979 -0.0085  0.0036
10195SOL    HW136421   2.997  -0.055   8.047 -2.1920  1.3388 -1.3918
10195SOL    HW236422   3.114  -0.021   7.957  0.3951 -0.9047  0.9183
10196SOL     OW36423   0.909   9.853   7.708  0.0567  0.2265  0.0212
10196SOL    HW136424   0.941   9.778   7.657  1.2155  0.3698  0.5101
10196SOL    HW236425   0.830   9.821   7.751 -0.6391 -0.0709 -1.4197
10197SOL     OW36426   4.334   6.681   5.173 -0.2474 -0.3677 -0.4404
10197SOL    HW136427   4.336   6.776   5.188  0.6101 -0.5432  0.6791
10197SOL    HW236428   4.318   6.672   5.079 -0.9220  0.8756 -0.4693
10198SOL     OW36429   4.618   8.182   6.454  0.4675 -0.0915  0.7488
10198SOL    HW136430   4.573   8.253   6.408  1.2913 -0.3978 -0.5814
10198SOL    HW236431   4.694   8.162   6.400  2.5697  0.7429  3.1471
10199SOL     OW36432   5.350   1.276   7.570  0.3013  0.4252 -0.3908
10199SOL    HW136433   5.440   1.290   7.542  0.9929  1.7003  2.1292
10199SOL    HW236434   5.351   1.295   7.664 -2.1809 -1.5611  0.1454
10200SOL     OW36435   3.538   8.766   8.348  0.0437 -0.2897  0.0941
10200SOL    HW136436   3.580   8.852   8.340  1.0470 -0.8384 -0.8582
10200SOL    HW236437   3.579   8.714   8.278 -1.2989 -1.2364 -0.0068
10201SOL     OW36438   6.738   2.146   5.866 -0.2011 -0.0537  0.0760
10201SOL    HW136439   6.796   2.159   5.941  0.9874  2.1656 -1.1067
10201SOL    HW236440   6.663   2.202   5.884 -1.3989 -1.8541  0.9523
10202SOL     OW36441   0.370   3.043   4.585  0.3565  0.4745  0.4221
10202SOL    HW136442   0.417   3.126   4.594  1.3421  0.0212 -0.3754
10202SOL    HW236443   0.415   2.997   4.514  0.2703 -1.0297  1.2940
10203SOL     OW36444   6.193   9.971   6.004 -0.1234 -0.4806 -0.3171
10203SOL    HW136445   6.183  10.063   5.977 -1.0004 -0.6147 -0.5041
10203SOL    HW236446   6.105   9.945   6.032  0.2941 -1.0259  0.5195
10204SOL     OW36447   7.851   3.538   6.998 -0.6763 -0.9876 -0.4383
10204SOL    HW136448   7.878   3.544   7.089 -0.1141  0.1130 -0.6628
10204SOL    HW236449   7.932   3.522   6.950 -0.4590  1.5189 -1.0368
10205SOL     OW36450   1.151   7.858   2.150 -0.1020 -0.4652 -0.1128
10205SOL    HW136451   1.224   7.876   2.209 -0.2617 -0.5911  0.1260
10205SOL    HW236452   1.093   7.933   2.159 -0.1210 -0.4793 -0.1163
10206SOL     OW36453   7.700   3.205   5.638 -0.2181 -0.0677  0.3630
10206SOL    HW136454   7.681   3.127   5.691 -1.5034 -0.4406 -0.5937
10206SOL    HW236455   7.714   3.275   5.702  1.6110 -1.1925  1.2650
10207SOL     OW36456   7.889   5.974   4.824  0.3281 -0.2074  0.2692
10207SOL    HW136457   7.843   5.979   4.740 -0.8101  1.1430  0.9141
10207SOL    HW236458   7.840   5.909   4.874 -0.1247  0.2933  0.4962
10208SOL     OW36459   2.862   9.939  10.506  1.0256  0.4117  0.0525
10208SOL    HW136460   2.875   9.847  10.481 -0.5459  0.4590 -1.1394
10208SOL    HW236461   2.795   9.970  10.445  1.9612  2.5336  0.0369
10209SOL     OW36462   0.964   6.015   0.322  0.6799  0.4448 -0.0024
10209SOL    HW136463   1.044   6.030   0.373  0.5680 -1.5840  0.8173
10209SOL    HW236464   0.996   6.001   0.232  1.0563  1.6000 -0.0703
10210SOL     OW36465   3.412   1.111   6.315 -0.1471  0.2667  0.8642
10210SOL    HW136466   3.493   1.147   6.350  0.7432 -0.3714 -0.4895
10210SOL    HW236467   3.354   1.106   6.391  0.9178  1.1488  1.7657
10211SOL     OW36468   7.280   8.911   3.916 -0.3107 -0.0130 -0.0087
10211SOL    HW136469   7.204   8.931   3.862 -0.8382 -1.5568  0.0970
10211SOL    HW236470   7.333   8.990   3.914 -1.8569  1.0613 -0.1844
10212SOL     OW36471   7.957   4.947   7.861  0.3334 -0.1870  0.1855
10212SOL    HW136472   7.898   5.010   7.902 -1.0894 -0.0853 -1.8482
10212SOL    HW236473   8.019   5.001   7.812 -0.0808 -0.3278 -0.5061
10213SOL     OW36474   7.880   1.663   2.561  0.0534 -0.7450  0.0419
10213SOL    HW136475   7.874   1.618   2.645  0.8020  0.1347  0.5795
10213SOL    HW236476   7.911   1.751   2.583 -0.9686 -0.0844 -1.0233
10214SOL     OW36477   9.867   0.335   7.394  0.0842  0.3099 -0.2234
10214SOL    HW136478   9.832   0.401   7.334  1.4743  1.4967  0.2101
10214SOL    HW236479   9.942   0.378   7.435  1.7652 -1.9341 -0.7513
10215SOL     OW36480   4.205   8.248   2.924  0.2542  0.4664 -0.2532
10215SOL    HW136481   4.141   8.219   2.858  1.0052 -2.3328  0.1281
10215SOL    HW236482   4.151   8.279   2.997 -0.6771 -0.3234 -0.5817
10216SOL     OW36483   0.520   4.520  10.379 -0.1305 -0.2294 -0.1395
10216SOL    HW136484   0.509   4.539  10.286  2.7706  1.1240 -0.3440
10216SOL    HW236485   0.540   4.426  10.382  1.6380  0.0523 -1.2003
10217SOL     OW36486   2.202   1.810   2.129 -0.4122 -0.2277 -0.3014
10217SOL    HW136487   2.227   1.858   2.208 -1.1155  0.2323 -0.3510
10217SOL    HW236488   2.180   1.878   2.065  0.3451 -0.5874 -0.9680
10218SOL     OW36489   1.668   5.213   4.649  0.1060  0.1918  0.6217
10218SOL    HW136490   1.632   5.198   4.561  0.1165  3.9055 -0.1822
10218SOL    HW236491   1.762   5.193   4.640  0.1014  0.5187 -0.2307
10219SOL     OW36492   7.341   1.562   1.001  0.1451  0.3761 -0.1897
10219SOL    HW136493   7.352   1.615   1.080 -0.9282  0.3340 -0.0064
10219SOL    HW236494   7.356   1.472   1.030  0.9610  0.4682 -0.2956
10220SOL     OW36495   2.486   2.369   1.843 -0.6408  0.2978 -0.0454
10220SOL    HW136496   2.481   2.340   1.934 -0.3005  0.4749  0.0310
10220SOL    HW236497   2.420   2.317   1.797  1.1612 -1.9507 -0.2882
10221SOL     OW36498   2.854   6.613   5.945 -0.1522  0.3409  0.0458
10221SOL    HW136499   2.810   6.576   6.021 -0.7799  0.1651 -0.3914
10221SOL    HW236500   2.861   6.540   5.883  0.7137  0.3810  0.0861
10222SOL     OW36501   1.842   3.827   0.728 -0.1055 -0.4014  0.6125
10222SOL    HW136502   1.863   3.835   0.821  1.2701 -0.9646  0.3834
10222SOL    HW236503   1.925   3.802   0.687 -0.6664 -0.0935 -0.7795
10223SOL     OW36504   9.193   6.061   2.062 -0.2654  0.3433  0.4348
10223SOL    HW136505   9.252   5.990   2.037 -0.2811  0.2586  0.6409
10223SOL    HW236506   9.213   6.078   2.154 -0.7101  0.1763  0.5618
10224SOL     OW36507   4.872   1.009   8.540 -0.1063 -0.1180 -0.8389
10224SOL    HW136508   4.958   1.018   8.498  0.2836 -0.2296 -0.0855
10224SOL    HW236509   4.866   0.915   8.560  0.3621  0.1447  0.6694
10225SOL     OW36510   5.687   6.343   3.784  0.1433 -0.1334 -0.1266
10225SOL    HW136511   5.620   6.401   3.819  1.4328  0.9045  0.7473
10225SOL    HW236512   5.733   6.396   3.718  2.4597  0.5542  1.8995
10226SOL     OW36513   2.287   3.582   2.585 -0.3060  0.1469 -0.2209
10226SOL    HW136514   2.363   3.609   2.637 -0.6167 -1.5498  1.2187
10226SOL    HW236515   2.310   3.606   2.496  1.3792  0.8257  0.3460
10227SOL     OW36516   0.561   0.745   2.395  0.2808  0.3315  0.2872
10227SOL    HW136517   0.621   0.672   2.382  0.0212  0.1611  0.0394
10227SOL    HW236518   0.509   0.719   2.471  1.0224  0.8158  0.9795
10228SOL     OW36519   5.834   0.890   7.845 -0.2367 -0.2267 -0.2436
10228SOL    HW136520   5.842   0.897   7.750 -0.4395  0.9145 -0.1939
10228SOL    HW236521   5.764   0.826   7.859  0.0607 -0.6893 -0.8577
10229SOL     OW36522   1.048   6.409   1.270 -0.3782 -0.1103  0.5509
10229SOL    HW136523   1.038   6.374   1.358 -1.4592 -0.0751  0.4613
10229SOL    HW236524   1.072   6.333   1.216 -0.4106 -0.2686  0.7584
10230SOL     OW36525   9.183   7.783   0.825  0.1395 -0.7985  0.1671
10230SOL    HW136526   9.125   7.824   0.890  0.4782  1.8993 -1.0885
10230SOL    HW236527   9.127   7.766   0.750  0.4483 -0.6131 -0.1078
10231SOL     OW36528   6.825  10.393   9.407  0.0223  0.1091  1.0079
10231SOL    HW136529   6.754  10.369   9.347  0.1572 -1.1587  1.3340
10231SOL    HW236530   6.894  10.427   9.351 -0.0044 -0.7071  0.4762
10232SOL     OW36531   1.662  10.108   0.384  0.0450 -0.3234  0.0161
10232SOL    HW136532   1.706  10.143   0.307 -2.2916  0.3729 -1.0768
10232SOL    HW236533   1.706  10.151   0.458  1.6994 -0.3092 -0.9242
10233SOL     OW36534   6.248  10.314   4.568 -0.2342  0.3230 -0.4093
10233SOL    HW136535   6.185  10.249   4.600 -2.0752  2.3009  0.2383
10233SOL    HW236536   6.199  10.396   4.567  2.4367  2.0517  0.3519
10234SOL     OW36537   9.272   8.953   7.155  0.1924 -0.1329 -0.4226
10234SOL    HW136538   9.209   8.882   7.144  1.4404 -1.8276  2.2403
10234SOL    HW236539   9.241   9.002   7.231  1.5265 -0.4577  0.3788
10235SOL     OW36540   7.279   0.631   0.859  0.4418 -0.4866 -0.1381
10235SOL    HW136541   7.196   0.677   0.848  0.0620 -1.0082  0.4434
10235SOL    HW236542   7.273   0.593   0.947  1.9785  0.8440  0.5962
10236SOL     OW36543   3.522   8.765   1.641  0.3294  0.3225  0.5486
10236SOL    HW136544   3.437   8.801   1.618  0.7047  1.2252  0.5232
10236SOL    HW236545   3.536   8.693   1.579 -0.4940  0.0362  0.6892
10237SOL     OW36546   5.437   3.388   5.903 -0.2960 -0.6012 -0.1090
10237SOL    HW136547   5.369   3.454   5.886  0.4171  0.0816 -0.4213
10237SOL    HW236548   5.390   3.312   5.934 -1.1869 -0.0617 -0.1011
10238SOL     OW36549  10.436   0.130   1.575  0.1745  0.4684 -0.2869
10238SOL    HW136550  10.473   0.219   1.579 -0.3691  0.6863 -0.0191
10238SOL    HW236551  10.487   0.087   1.507 -1.0993  1.7038 -2.0991
10239SOL     OW36552   4.087   1.412   0.367  0.0193  0.3416  0.1758
10239SOL    HW136553   4.159   1.457   0.322 -0.2086 -0.3991 -0.9768
10239SOL    HW236554   4.122   1.325   0.387 -0.6419 -0.1413 -0.6936
10240SOL     OW36555   1.573   2.646   3.353  0.4689 -0.1549 -0.1559
10240SOL    HW136556   1.639   2.584   3.385  0.5768 -0.2395 -0.5440
10240SOL    HW236557   1.506   2.591   3.314 -1.6520 -0.3803  3.3462
10241SOL     OW36558   0.816   1.219   5.962  0.9172  0.1200 -0.0779
10241SOL    HW136559   0.824   1.227   6.057 -1.4145 -0.0169  0.2087
10241SOL    HW236560   0.764   1.139   5.950  0.0281  0.8551 -1.3704
10242SOL     OW36561   6.844   8.380   9.910  0.0017  0.0766 -0.2162
10242SOL    HW136562   6.850   8.449   9.976 -0.5274  1.0783 -1.1981
10242SOL    HW236563   6.889   8.305   9.950 -1.8554  0.0518  2.0413
10243SOL     OW36564   2.798  10.133  10.057  0.1101 -0.6868  0.1791
10243SOL    HW136565   2.786  10.190   9.981 -1.7351 -0.8963  0.2516
10243SOL    HW236566   2.767  10.047  10.027 -0.8479 -0.7206  1.1958
10244SOL     OW36567   6.154   2.686   0.670 -0.4322  0.6663  0.0430
10244SOL    HW136568   6.158   2.594   0.642  1.6297  0.9256 -0.7007
10244SOL    HW236569   6.179   2.684   0.762  0.5148  0.5445 -0.2061
10245SOL     OW36570   3.833   1.813   8.007 -0.2896 -0.2357 -0.3000
10245SOL    HW136571   3.859   1.764   8.084 -1.8851 -0.1734  0.3244
10245SOL    HW236572   3.884   1.894   8.011  0.1822 -0.5583  0.2821
10246SOL     OW36573   6.244   3.066   8.633  0.1026 -0.4247  0.2279
10246SOL    HW136574   6.244   3.001   8.563  1.3461  0.3455 -0.5478
10246SOL    HW236575   6.311   3.035   8.694  0.3343 -0.1435  0.1178
10247SOL     OW36576   2.603   5.550   1.634 -0.3828  0.4658 -0.2676
10247SOL    HW136577   2.588   5.622   1.696 -0.6754  0.1680  0.0127
10247SOL    HW236578   2.602   5.592   1.548  0.3167  0.9351 -0.0626
10248SOL     OW36579   4.615   4.225   4.611 -0.0279 -0.0401 -0.3144
10248SOL    HW136580   4.707   4.231   4.637  0.3129  0.8399 -1.6205
10248SOL    HW236581   4.607   4.136   4.575 -0.5729 -1.3754  2.8001
10249SOL     OW36582   7.695   4.265   6.045 -0.0419 -0.1066 -0.0400
10249SOL    HW136583   7.710   4.359   6.052  1.2739 -0.2314 -0.8890
10249SOL    HW236584   7.781   4.227   6.028 -0.4940 -1.5150  0.6236
10250SOL     OW36585   6.379   3.402   4.443  0.0113  0.8290  0.0293
10250SOL    HW136586   6.412   3.486   4.413 -0.4993  0.9217 -0.2778
10250SOL    HW236587   6.423   3.338   4.387  0.5092  0.8687  0.3568
10251SOL     OW36588   6.393   4.781   7.422  0.1159 -0.2281 -0.6020
10251SOL    HW136589   6.390   4.774   7.327  0.1318 -1.5215 -0.5361
10251SOL    HW236590   6.323   4.723   7.453  2.0354 -2.3219  0.1896
10252SOL     OW36591   8.945   8.395   7.151 -0.3063  0.1313 -0.1027
10252SOL    HW136592   8.880   8.398   7.220  1.5102  0.4850  1.6993
10252SOL    HW236593   9.022   8.354   7.192  1.0642  0.9870 -1.6798
10253SOL     OW36594   1.588   2.825   3.730 -0.1941 -0.0638 -0.4390
10253SOL    HW136595   1.558   2.858   3.815  1.2251  1.4415 -0.4591
10253SOL    HW236596   1.509   2.822   3.676 -0.9747 -0.2345  0.6744
10254SOL     OW36597   7.042  10.433   3.845 -0.0303 -0.5382  1.2154
10254SOL    HW136598   7.117  10.386   3.879  0.3199 -2.2793 -1.6720
10254SOL    HW236599   7.048  10.520   3.885  2.1786 -1.3428  2.8163
10255SOL     OW36600  10.181   5.320   4.111 -0.7961 -0.2879 -0.4593
10255SOL    HW136601  10.135   5.340   4.030 -0.5428 -0.2613 -0.5980
10255SOL    HW236602  10.136   5.244   4.147 -1.3625  0.1356 -0.2606
10256SOL     OW36603   4.028   2.211   0.223 -0.7307  0.4836 -0.0690
10256SOL    HW136604   4.036   2.128   0.271  0.2325  0.4516 -0.2701
10256SOL    HW236605   4.042   2.278   0.290 -1.6317  0.5047  0.1184
10257SOL     OW36606   0.991   0.276   9.301  0.3725  0.4266  0.0638
10257SOL    HW136607   1.015   0.350   9.246  0.3506  0.4629  0.1032
10257SOL    HW236608   1.074   0.242   9.334  0.3695  0.5578  0.2064
10258SOL     OW36609   6.669   4.779   2.283  0.0283 -0.5089 -0.0636
10258SOL    HW136610   6.575   4.760   2.283 -0.3610  1.2545 -0.5586
10258SOL    HW236611   6.690   4.793   2.376 -0.7126  1.3123 -0.1450
10259SOL     OW36612   6.193   8.881   9.988 -0.3937 -0.2152  0.1194
10259SOL    HW136613   6.220   8.875  10.079  0.5518  3.5379  0.2257
10259SOL    HW236614   6.264   8.840   9.939  1.1940  1.4667  0.9089
10260SOL     OW36615   4.880   9.249   3.383  0.1346 -0.4613 -0.5283
10260SOL    HW136616   4.820   9.184   3.419  0.7403 -1.0932 -0.6224
10260SOL    HW236617   4.831   9.292   3.314  0.2909 -2.1025 -1.7222
10261SOL     OW36618  10.688   0.603   7.305 -0.1927 -0.2326 -0.2480
10261SOL    HW136619  10.767   0.604   7.359 -0.5215 -0.4371  0.2445
10261SOL    HW236620  10.702   0.671   7.239  1.1443 -1.4185 -1.2471
10262SOL     OW36621   0.483   4.413   2.683  0.1297 -0.1599 -0.4433
10262SOL    HW136622   0.426   4.489   2.672  0.1087 -0.0738  0.1745
10262SOL    HW236623   0.428   4.348   2.726  0.2835 -0.3513 -0.5345
10263SOL     OW36624   9.258   2.719   5.664  0.3267  0.0634 -0.1548
10263SOL    HW136625   9.250   2.804   5.707  1.1852 -0.7096  1.6749
10263SOL    HW236626   9.172   2.703   5.625 -0.3324  1.0852  0.8218
10264SOL     OW36627   7.652   6.549   6.083  0.1817  0.2896 -0.3433
10264SOL    HW136628   7.636   6.477   6.144  0.3600 -0.5663 -1.2815
10264SOL    HW236629   7.586   6.615   6.106 -1.4932 -1.1069 -0.9098
10265SOL     OW36630   6.118   3.054   6.625  1.3297  0.0861  0.3713
10265SOL    HW136631   6.042   3.048   6.567  1.3445  0.8594  0.2578
10265SOL    HW236632   6.094   3.001   6.701  1.2665 -0.8490 -0.2849
10266SOL     OW36633   5.650   6.822   9.633 -0.1965 -0.5589 -0.2012
10266SOL    HW136634   5.643   6.735   9.673  1.6763 -1.4342 -1.5922
10266SOL    HW236635   5.677   6.804   9.543  0.4108  1.4742 -0.4701
10267SOL     OW36636   1.091  10.122   5.895 -0.2310 -0.3230  0.2332
10267SOL    HW136637   1.163  10.065   5.869  1.0130  2.4976 -3.5698
10267SOL    HW236638   1.022  10.104   5.831 -0.4699  1.1372  0.0426
10268SOL     OW36639   9.734   2.786   9.512 -0.0818  0.5345 -0.6237
10268SOL    HW136640   9.720   2.752   9.424 -1.2315  0.0293 -0.2703
10268SOL    HW236641   9.806   2.848   9.503 -0.1601  0.4630 -1.9123
10269SOL     OW36642   1.969   2.424   1.150 -0.5684 -0.5310  0.0901
10269SOL    HW136643   1.891   2.478   1.135  0.6546  1.2289 -0.3438
10269SOL    HW236644   1.961   2.352   1.088 -3.0291 -1.8086  1.7607
10270SOL     OW36645   9.090   9.255   9.990  0.2714  0.3411 -0.1510
10270SOL    HW136646   9.069   9.178  10.042 -0.9381  0.1129 -0.9215
10270SOL    HW236647   9.142   9.223   9.917 -1.3378 -0.0167 -1.2025
10271SOL     OW36648   0.889   6.987   3.608  0.2665 -1.0496 -0.3792
10271SOL    HW136649   0.904   6.896   3.634  2.9448 -0.3834  0.7769
10271SOL    HW236650   0.884   7.035   3.691  0.0273  0.0011 -0.9848
10272SOL     OW36651   1.590   6.968   9.931  0.0552 -0.2682  0.7044
10272SOL    HW136652   1.622   6.901   9.870  0.8499 -1.1413  2.0399
10272SOL    HW236653   1.561   6.919  10.008  1.7844  0.9677  2.2212
10273SOL     OW36654   2.712   6.698   0.224 -0.5157  0.4260  0.1189
10273SOL    HW136655   2.696   6.714   0.131  0.1664  0.5916  0.0291
10273SOL    HW236656   2.666   6.769   0.269  0.3724  1.1821 -0.1592
10274SOL     OW36657   6.970   9.991   6.410 -0.4189 -0.2179 -0.3437
10274SOL    HW136658   6.911   9.937   6.357 -1.0546  1.1462 -1.0533
10274SOL    HW236659   7.057   9.966   6.380 -0.6812 -1.0158 -0.4885
10275SOL     OW36660   7.340   2.432   9.934 -0.6512 -0.2032 -0.2378
10275SOL    HW136661   7.339   2.419   9.840  0.5128 -1.0537 -0.1495
10275SOL    HW236662   7.422   2.480   9.951 -1.7723  1.7044  0.1553
10276SOL     OW36663   1.022   8.928   9.031  0.0024 -0.0778 -0.0992
10276SOL    HW136664   1.036   8.837   9.059  0.5461  0.6311  2.1770
10276SOL    HW236665   0.956   8.961   9.092  0.9273  1.4641  0.1126
10277SOL     OW36666   5.820  10.710   1.604 -0.4266  0.1530 -0.2112
10277SOL    HW136667   5.865  10.653   1.667 -0.9515  0.1617  0.1831
10277SOL    HW236668   5.790  10.784   1.657  0.8811  1.1783 -0.8454
10278SOL     OW36669   9.500   9.825   1.503  0.5690  0.3327  0.4896
10278SOL    HW136670   9.455   9.756   1.453  0.2587  2.1202 -1.8937
10278SOL    HW236671   9.567   9.858   1.444  1.9841  0.8263  2.2848
10279SOL     OW36672   9.718   1.164   8.671  0.7140 -0.4018 -0.6108
10279SOL    HW136673   9.771   1.212   8.735  1.3745 -1.2259 -0.5278
10279SOL    HW236674   9.739   1.207   8.587 -1.9741  2.2701 -0.0528
10280SOL     OW36675   8.841   9.805   9.088 -0.0753  0.1712 -0.7888
10280SOL    HW136676   8.901   9.736   9.118  1.4505  1.6293 -0.3274
10280SOL    HW236677   8.832   9.789   8.994 -0.4752 -1.1605 -0.5554
10281SOL     OW36678   4.471   6.808  10.275 -0.5362  0.7119 -0.7488
10281SOL    HW136679   4.438   6.890  10.239 -2.1038 -0.1235 -1.3296
10281SOL    HW236680   4.553   6.792  10.229 -0.5014  1.6615 -1.0340
10282SOL     OW36681   7.984   3.659   0.787  0.0899  0.0346  0.3705
10282SOL    HW136682   7.917   3.727   0.784 -0.7194 -0.7570  0.1642
10282SOL    HW236683   7.937   3.577   0.772  1.0423 -0.5837  0.6216
10283SOL     OW36684   8.376   7.239   4.699 -0.3386  0.2126  0.1038
10283SOL    HW136685   8.392   7.147   4.719  0.1599  0.5918  1.5723
10283SOL    HW236686   8.295   7.239   4.649 -0.5518 -0.9953  0.4257
10284SOL     OW36687   5.963   0.296   4.628 -0.9144 -0.2347  0.2733
10284SOL    HW136688   5.926   0.371   4.582 -0.0483 -0.0065 -0.0688
10284SOL    HW236689   6.053   0.291   4.598 -0.7532 -0.9830  0.8386
10285SOL     OW36690   5.413   3.266   4.148  0.1840  0.4253 -0.1992
10285SOL    HW136691   5.465   3.327   4.096  0.3756  1.0730  0.7286
10285SOL    HW236692   5.375   3.320   4.217 -0.9411 -0.2171 -0.2840
10286SOL     OW36693   4.485  10.322   6.135  0.3916 -0.4856 -0.3683
10286SOL    HW136694   4.454  10.360   6.053  0.5168  0.5720  0.0515
10286SOL    HW236695   4.411  10.331   6.195  1.1745  1.3196  0.4101
10287SOL     OW36696   6.542   3.562   5.462 -0.2353  0.0559  0.0793
10287SOL    HW136697   6.565   3.605   5.544  1.3493  2.0974 -1.3410
10287SOL    HW236698   6.483   3.623   5.418  1.9675  0.9382 -1.9228
10288SOL     OW36699  10.023   7.513   4.025  0.2835  0.1839  0.0563
10288SOL    HW136700   9.996   7.601   4.050 -0.4172  0.0036 -0.0371
10288SOL    HW236701   9.941   7.467   4.006  0.7001 -0.1015 -1.1753
10289SOL     OW36702   2.305   0.226   2.256  0.1678  0.3127 -0.6585
10289SOL    HW136703   2.320   0.234   2.350  0.6821 -1.6483 -0.5164
10289SOL    HW236704   2.375   0.168   2.225  0.7049  1.8422 -2.4835
10290SOL     OW36705   8.192   3.743   8.760  0.3458  0.1291 -0.0606
10290SOL    HW136706   8.278   3.785   8.762  1.0176 -1.2067  0.0652
10290SOL    HW236707   8.192   3.691   8.680  0.8168 -2.1457  1.3158
10291SOL     OW36708   3.250   0.910   3.238 -0.3812  0.5575  0.0504
10291SOL    HW136709   3.186   0.870   3.179 -1.9006  1.0035  1.3411
10291SOL    HW236710   3.273   0.993   3.196  0.7034 -0.3461 -1.2630
10292SOL     OW36711   4.834   4.231   7.081 -0.4118 -0.4096  0.3807
10292SOL    HW136712   4.787   4.313   7.098 -0.9473 -0.8754  1.1878
10292SOL    HW236713   4.917   4.260   7.043 -0.9465  0.4638 -0.1739
10293SOL     OW36714   1.400   2.890   8.382  1.1471 -0.6609  0.1191
10293SOL    HW136715   1.400   2.975   8.426 -1.0499 -1.3007  1.5393
10293SOL    HW236716   1.331   2.898   8.315 -0.5078 -1.8691  1.5921
10294SOL     OW36717   1.113   6.416   9.565  0.6836 -0.2374  0.0090
10294SOL    HW136718   1.143   6.473   9.494 -1.4752  0.0976 -0.6852
10294SOL    HW236719   1.094   6.475   9.638  3.1167 -0.5996  1.0449
10295SOL     OW36720   2.583   1.501   2.440 -0.0570  0.2366  0.6442
10295SOL    HW136721   2.536   1.418   2.452  2.1167 -1.0929  0.5564
10295SOL    HW236722   2.606   1.503   2.347  0.8145  0.3930  0.8496
10296SOL     OW36723   3.536   4.663   3.934  0.1490 -0.3899 -0.1985
10296SOL    HW136724   3.554   4.592   3.872 -0.2300  0.3279 -1.1562
10296SOL    HW236725   3.469   4.627   3.992 -0.0050 -0.8330 -0.6356
10297SOL     OW36726   8.297   0.493   3.172  0.1266 -0.0591 -0.0725
10297SOL    HW136727   8.368   0.448   3.217  0.1963 -0.7540 -0.8549
10297SOL    HW236728   8.217   0.459   3.212  0.2130  0.1437  0.2737
10298SOL     OW36729   8.281  10.156   6.427  0.5313 -0.0156 -0.2640
10298SOL    HW136730   8.274  10.242   6.469 -1.8919  0.9296 -2.3575
10298SOL    HW236731   8.192  10.135   6.400  1.0383 -3.2692  0.1855
10299SOL     OW36732   3.203   2.044   0.555 -0.2263  0.1906  0.2075
10299SOL    HW136733   3.147   2.111   0.517 -0.4105 -0.7770 -1.3226
10299SOL    HW236734   3.217   1.982   0.484 -1.6851 -2.4663  2.0490
10300SOL     OW36735   2.880   0.890   3.607 -0.5886 -0.3980  0.0095
10300SOL    HW136736   2.872   0.820   3.672  0.2852  0.1930  0.7739
10300SOL    HW236737   2.958   0.939   3.634  0.1973 -0.5237 -1.8429
10301SOL     OW36738   4.700   5.862   3.720  0.1119  0.4059  0.0662
10301SOL    HW136739   4.625   5.904   3.762 -0.6873 -0.3007 -0.5985
10301SOL    HW236740   4.776   5.904   3.758 -0.6403  2.0180 -0.1354
10302SOL     OW36741   3.612   3.764   3.812 -0.3435  0.4569 -0.0480
10302SOL    HW136742   3.570   3.722   3.887 -0.1230  0.5294  0.1191
10302SOL    HW236743   3.565   3.731   3.736 -1.1858  1.0922  0.1777
10303SOL     OW36744   9.306   8.657  10.384 -0.4980  0.2226  0.1925
10303SOL    HW136745   9.349   8.632  10.466 -0.0408 -1.2741 -0.4597
10303SOL    HW236746   9.374   8.703  10.335  0.3372 -1.8210 -0.6849
10304SOL     OW36747   5.304   4.244   9.857  0.3443  0.1495 -0.0179
10304SOL    HW136748   5.283   4.201   9.940  1.1187  0.1858  0.2023
10304SOL    HW236749   5.384   4.201   9.827 -0.0276  0.0065 -0.8489
10305SOL     OW36750   0.327   5.666   7.195 -0.2591  0.4786  0.5655
10305SOL    HW136751   0.285   5.601   7.138  0.6270 -0.1857  0.6391
10305SOL    HW236752   0.283   5.748   7.174 -0.2940  0.1644 -0.7254
10306SOL     OW36753   8.075   6.547  10.522  0.0746  0.3018  0.2500
10306SOL    HW136754   7.984   6.517  10.534  0.4729 -0.8819  0.4186
10306SOL    HW236755   8.128   6.473  10.550  1.1312  1.6915  2.1835
10307SOL     OW36756   9.696   9.007   1.041  0.3239 -0.4970  0.4563
10307SOL    HW136757   9.720   8.915   1.034  0.8503 -0.3255 -0.1204
10307SOL    HW236758   9.634   9.011   1.114  0.1809 -1.3230  0.3849
10308SOL     OW36759   9.911   7.027   2.600  0.0949 -0.3624 -0.3788
10308SOL    HW136760   9.870   7.106   2.636  0.6483 -0.9323  1.6113
10308SOL    HW236761   9.921   7.046   2.507 -2.7898  0.5958 -0.5861
10309SOL     OW36762   1.142   7.367   0.232  0.5156 -0.4280 -0.0424
10309SOL    HW136763   1.196   7.416   0.170 -0.2514 -0.5161 -0.8125
10309SOL    HW236764   1.111   7.291   0.182  0.1317 -0.6641  0.5453
10310SOL     OW36765   2.152   6.384   2.561  0.3871 -0.9042  0.7311
10310SOL    HW136766   2.094   6.310   2.548  0.3709 -0.7072 -0.3882
10310SOL    HW236767   2.194   6.397   2.476 -1.0150  1.5455  0.3018
10311SOL     OW36768   3.739   4.353   5.649 -0.1230  0.4741  0.1901
10311SOL    HW136769   3.722   4.441   5.617 -0.1175 -0.0772 -1.4148
10311SOL    HW236770   3.764   4.303   5.571 -0.4493 -1.0313  1.0088
10312SOL     OW36771   7.204   9.387   8.408 -0.5451  0.5079 -0.3956
10312SOL    HW136772   7.277   9.438   8.443  0.1921 -0.2525 -0.8061
10312SOL    HW236773   7.236   9.353   8.325 -0.4804 -1.7669  0.4900
10313SOL     OW36774   7.748   0.793   4.053  0.7619 -0.4362 -0.6339
10313SOL    HW136775   7.820   0.824   3.998  0.5558 -0.0676 -0.6974
10313SOL    HW236776   7.788   0.775   4.138  0.7412  0.7358 -0.3696
10314SOL     OW36777   9.090   7.400   9.307  0.1240 -0.1799  0.1337
10314SOL    HW136778   9.148   7.367   9.238 -2.0817 -3.3343 -0.3977
10314SOL    HW236779   9.066   7.322   9.357 -0.3381  1.6656  2.9741
10315SOL     OW36780   3.160   6.406   3.935  0.1330  0.3700  0.7033
10315SOL    HW136781   3.251   6.376   3.934 -0.2616 -0.8867  1.0057
10315SOL    HW236782   3.163   6.491   3.979  1.1561  0.3287  0.7260
10316SOL     OW36783   2.198   3.965   4.386 -0.3736 -0.5312  0.3430
10316SOL    HW136784   2.114   4.006   4.370  0.3234  1.4091  1.3342
10316SOL    HW236785   2.261   4.019   4.340  0.6490 -0.0304  2.2010
10317SOL     OW36786   5.028   1.376   8.738  0.8881 -0.1157  0.4218
10317SOL    HW136787   5.068   1.416   8.815  2.2102 -2.3370  0.9636
10317SOL    HW236788   4.971   1.308   8.774 -2.1947  1.8139 -0.4154
10318SOL     OW36789   8.415   3.233   7.988 -0.1119 -0.7338 -0.0791
10318SOL    HW136790   8.343   3.288   7.957 -0.3176 -0.7208  0.4063
10318SOL    HW236791   8.494   3.281   7.964 -0.2978  0.0164  0.7488
10319SOL     OW36792   0.151   1.466   5.885  0.2754 -0.3284  0.5059
10319SOL    HW136793   0.230   1.516   5.867  0.1931  0.1054  1.2786
10319SOL    HW236794   0.082   1.533   5.892  0.1851 -0.5263  1.6778
10320SOL     OW36795   1.595   7.934   4.364 -0.9589  0.2867 -0.0200
10320SOL    HW136796   1.525   7.961   4.304 -0.8283  1.5735  0.3780
10320SOL    HW236797   1.672   7.923   4.308 -1.3179 -0.5697 -0.3734
10321SOL     OW36798   8.747   6.270   3.437 -0.0193 -0.0670  0.3898
10321SOL    HW136799   8.737   6.328   3.362 -0.5889  0.6708  1.0189
10321SOL    HW236800   8.698   6.192   3.414 -0.5529  0.3272  0.1663
10322SOL     OW36801  10.650   2.868   7.996  0.6831  0.4315  0.0242
10322SOL    HW136802  10.555   2.875   8.004  0.3529 -0.6437 -2.1018
10322SOL    HW236803  10.684   2.935   8.055 -1.3186 -0.1657  2.0000
10323SOL     OW36804  10.152   2.387   5.410  0.1917  0.1229 -0.4635
10323SOL    HW136805  10.108   2.331   5.345 -0.2238 -1.9147  1.4362
10323SOL    HW236806  10.226   2.424   5.363 -0.2902 -0.9902 -2.2012
10324SOL     OW36807   1.859   1.013   7.772 -0.4532 -0.3186 -0.4115
10324SOL    HW136808   1.858   0.931   7.823 -1.0344 -0.3072 -0.3926
10324SOL    HW236809   1.937   1.058   7.802 -1.6556  0.4952  1.8129
10325SOL     OW36810   3.385   0.162   4.355  0.3058  0.2806 -0.1564
10325SOL    HW136811   3.480   0.171   4.341  0.4231 -1.2047 -0.3899
10325SOL    HW236812   3.376   0.086   4.412 -0.8210 -0.3383 -1.1333
10326SOL     OW36813   1.490   0.962   6.619  0.2231  0.2566 -0.2512
10326SOL    HW136814   1.559   0.945   6.683  0.9355 -1.0093 -1.3227
10326SOL    HW236815   1.415   0.988   6.672  0.9296 -0.3084  1.0755
10327SOL     OW36816   1.933   6.941   8.472  0.7163  0.3491 -0.0363
10327SOL    HW136817   2.001   6.971   8.412 -1.2695  3.1215 -1.1408
10327SOL    HW236818   1.909   7.020   8.520 -0.7358 -0.8793  1.3497
10328SOL     OW36819   7.686   5.065   2.924  0.1779  0.3206 -0.0147
10328SOL    HW136820   7.652   5.013   2.997 -0.0142  0.8236  0.2607
10328SOL    HW236821   7.663   5.014   2.846 -0.4607  0.2425  0.2187
10329SOL     OW36822   2.619   6.960   0.031 -0.6467 -0.5015  0.3914
10329SOL    HW136823   2.569   6.889  -0.009  0.8972 -1.3831 -0.0586
10329SOL    HW236824   2.605   6.950   0.125 -0.9903 -0.9783  0.2936
10330SOL     OW36825   6.396   6.823   0.998  0.4198  0.0336 -1.1467
10330SOL    HW136826   6.460   6.817   0.927  0.8757 -1.8597 -0.6397
10330SOL    HW236827   6.449   6.830   1.078 -0.0612  0.5260 -0.8617
10331SOL     OW36828   2.628   9.819   7.337  0.4150  0.4716 -0.2626
10331SOL    HW136829   2.713   9.794   7.302  0.0708 -1.1128 -0.0581
10331SOL    HW236830   2.639   9.909   7.367  2.2451  0.0277  0.4990
10332SOL     OW36831   7.233   1.226   0.201  0.6128 -0.6789 -0.0834
10332SOL    HW136832   7.173   1.205   0.273  2.0256  0.1368  1.4190
10332SOL    HW236833   7.242   1.145   0.152 -1.0462 -1.0323  0.1228
10333SOL     OW36834   7.384   8.280   1.057 -0.3460 -0.1346  0.4092
10333SOL    HW136835   7.320   8.227   1.105 -0.7037  0.1310  0.2285
10333SOL    HW236836   7.411   8.347   1.119  0.4836 -0.8154  0.8075
10334SOL     OW36837   5.646   5.868   4.654 -0.6741  0.8509 -0.7752
10334SOL    HW136838   5.565   5.917   4.666 -1.0287  0.4666 -1.5382
10334SOL    HW236839   5.659   5.866   4.559  0.3003  1.0217 -0.6633
10335SOL     OW36840   4.564   7.270   6.856 -0.3412  0.4647  0.2657
10335SOL    HW136841   4.634   7.329   6.830  0.3009  0.5539  2.0824
10335SOL    HW236842   4.494   7.286   6.792 -0.0059  2.8521  0.4091
10336SOL     OW36843   4.277   8.696   7.114 -0.7924 -0.4434 -0.0795
10336SOL    HW136844   4.236   8.644   7.045 -0.4673  1.0210 -1.4219
10336SOL    HW236845   4.209   8.707   7.180 -1.0214 -2.1083 -0.0045
10337SOL     OW36846   8.334   6.052  10.206  0.3784 -0.0229 -0.1690
10337SOL    HW136847   8.324   5.972  10.155  0.6385  0.3362 -0.8012
10337SOL    HW236848   8.395   6.028  10.276  0.0685 -0.5056 -0.0634
10338SOL     OW36849   3.208   8.657   6.290  0.1406  0.1818 -0.1319
10338SOL    HW136850   3.169   8.732   6.245 -0.0007  0.2300  0.0661
10338SOL    HW236851   3.270   8.620   6.227  0.4517  0.6656 -0.1123
10339SOL     OW36852   4.291   7.167   3.131  0.3315  0.2611 -0.5602
10339SOL    HW136853   4.228   7.197   3.197  1.0548  1.9819 -0.6249
10339SOL    HW236854   4.308   7.076   3.155 -1.2263  0.1355  0.1997
10340SOL     OW36855   0.620   8.052  10.008 -0.2201  0.3588 -0.5722
10340SOL    HW136856   0.555   7.982  10.005 -2.3279  2.1534  0.4135
10340SOL    HW236857   0.582   8.123   9.956  1.7344  0.8975 -1.3558
10341SOL     OW36858   2.908   2.421  10.674  0.2049  0.0570 -0.1732
10341SOL    HW136859   2.955   2.339  10.689  1.4481  0.6260 -0.8006
10341SOL    HW236860   2.935   2.448  10.586 -2.0265 -0.0352 -0.9434
10342SOL     OW36861   2.960  10.441   0.835 -0.3541  0.1215 -0.1975
10342SOL    HW136862   2.934  10.498   0.907 -0.9448  0.1545 -0.4308
10342SOL    HW236863   2.911  10.360   0.849 -0.6669  0.2180 -0.6931
10343SOL     OW36864   0.858   2.274   1.055  0.4680  0.1267  0.7022
10343SOL    HW136865   0.790   2.322   1.103  0.3915  0.2356  0.4861
10343SOL    HW236866   0.852   2.184   1.089  0.5254  0.2389  1.0157
10344SOL     OW36867   2.895   5.181   2.236  0.4592 -0.0504  0.4096
10344SOL    HW136868   2.882   5.168   2.330  0.3968 -0.7470  0.3094
10344SOL    HW236869   2.877   5.095   2.197  0.0260  0.3532 -0.2906
10345SOL     OW36870   5.397   2.392   3.020 -0.3105  0.2323 -0.8255
10345SOL    HW136871   5.454   2.465   3.047 -0.9156  0.9328 -1.3852
10345SOL    HW236872   5.364   2.419   2.934 -0.9553 -0.4751 -0.8028
10346SOL     OW36873   1.161   3.001   6.344 -0.2015  0.0957  0.8608
10346SOL    HW136874   1.173   2.925   6.402  0.3218  0.2059  0.9092
10346SOL    HW236875   1.082   3.044   6.376  0.1344  0.2093  1.5541
10347SOL     OW36876   4.419   7.399   6.524  0.2898  0.0143  0.3817
10347SOL    HW136877   4.417   7.362   6.612  3.8914  1.8719  1.4360
10347SOL    HW236878   4.511   7.421   6.509 -0.3931  1.0667 -3.3396
10348SOL     OW36879   8.519   3.561   0.739  0.0797 -0.0348 -0.1089
10348SOL    HW136880   8.605   3.557   0.782 -0.2338  1.9483  0.7760
10348SOL    HW236881   8.457   3.531   0.805 -0.1385  0.5948 -0.0276
10349SOL     OW36882   3.299   0.085   5.734 -0.2066 -0.6077  0.1597
10349SOL    HW136883   3.212   0.047   5.731  0.2507 -1.6883  0.0395
10349SOL    HW236884   3.345   0.047   5.659 -0.0673  1.0811 -0.6574
10350SOL     OW36885   2.299   6.503   8.603  0.4916 -0.4729 -0.1115
10350SOL    HW136886   2.374   6.495   8.661 -0.6317 -2.8114  1.1964
10350SOL    HW236887   2.336   6.517   8.516  2.2658  1.6922  0.9033
10351SOL     OW36888   7.586   6.076   7.797  0.2659 -0.1481  0.3031
10351SOL    HW136889   7.617   6.167   7.801 -0.6104  0.1293  1.5885
10351SOL    HW236890   7.506   6.076   7.850 -0.0246 -1.5707 -0.0980
10352SOL     OW36891   1.469   0.263   0.230  0.0556  0.5946 -0.4624
10352SOL    HW136892   1.459   0.358   0.223  0.1728  0.6220 -0.2515
10352SOL    HW236893   1.379   0.229   0.225 -0.0466  0.7588  0.1491
10353SOL     OW36894   2.118   9.360   7.796 -0.1805 -0.1627 -0.1830
10353SOL    HW136895   2.026   9.372   7.773 -0.0987 -0.5838 -0.7673
10353SOL    HW236896   2.141   9.277   7.756  0.4109 -0.1392  0.1071
10354SOL     OW36897   5.973   5.615   7.493 -0.0078 -0.4638 -0.5544
10354SOL    HW136898   5.898   5.612   7.552 -1.6368 -0.2286 -2.4881
10354SOL    HW236899   5.952   5.553   7.423  1.3434  0.0014 -1.4329
10355SOL     OW36900   4.732   0.357   2.091  0.3772  0.7638  0.0560
10355SOL    HW136901   4.778   0.393   2.015  0.1288 -1.0404 -1.0038
10355SOL    HW236902   4.641   0.351   2.064  0.1518  0.8096  0.7822
10356SOL     OW36903   5.959   9.184   5.169  0.2293 -0.0957  0.2070
10356SOL    HW136904   5.920   9.145   5.247 -0.2906 -1.4148 -0.6904
10356SOL    HW236905   6.041   9.136   5.157  0.7686  0.7387  0.4555
10357SOL     OW36906   2.866   8.542   4.754  0.6145  0.2247 -0.5470
10357SOL    HW136907   2.897   8.543   4.845 -1.2467  1.9626  0.1397
10357SOL    HW236908   2.874   8.450   4.728  1.9731 -0.1793  1.0696
10358SOL     OW36909   3.872   5.458   0.207  0.1266 -0.1793 -0.6866
10358SOL    HW136910   3.815   5.406   0.264  1.1856 -0.2099  0.3922
10358SOL    HW236911   3.914   5.393   0.150 -1.2344 -0.1096 -1.8152
10359SOL     OW36912   2.194   7.705   1.383  0.3107 -0.7238  0.0091
10359SOL    HW136913   2.271   7.674   1.336  0.3212  0.7341 -1.0354
10359SOL    HW236914   2.222   7.713   1.474  1.3100 -0.5099 -0.3060
10360SOL     OW36915   4.847   0.289   1.523  0.6447 -0.2567 -0.8489
10360SOL    HW136916   4.864   0.195   1.532  0.0876 -0.3607 -0.8562
10360SOL    HW236917   4.925   0.331   1.559 -1.0774 -0.6203  4.0480
10361SOL     OW36918   7.302   3.898   6.998 -0.1395  0.5936 -0.1456
10361SOL    HW136919   7.243   3.966   7.030 -1.8431 -0.5071 -0.8401
10361SOL    HW236920   7.249   3.846   6.939  1.1194 -1.3502  0.3551
10362SOL     OW36921   6.003   6.033   5.694 -0.0630 -0.2785  0.1294
10362SOL    HW136922   5.970   6.083   5.769  0.0933  1.3484 -0.8466
10362SOL    HW236923   6.051   6.097   5.641  0.5564 -1.5739 -0.9384
10363SOL     OW36924   6.245  10.156   7.948 -0.1619  0.0543  0.0724
10363SOL    HW136925   6.223  10.199   8.031 -0.1196  3.1966 -1.3960
10363SOL    HW236926   6.338  10.134   7.957  0.0376  1.0466  0.6091
10364SOL     OW36927   3.929   9.664   9.348  0.1457 -0.0546 -0.0926
10364SOL    HW136928   3.880   9.744   9.330  1.0219  0.6074  0.4095
10364SOL    HW236929   3.959   9.635   9.262  0.2948  0.4645 -0.2190
10365SOL     OW36930   4.446   4.644   1.481  0.6620 -0.0474 -0.1942
10365SOL    HW136931   4.422   4.665   1.391  1.5830 -1.2261 -0.7478
10365SOL    HW236932   4.392   4.569   1.504 -0.3270  0.8966  0.6292
10366SOL     OW36933   2.169   3.120   2.757 -0.3432 -0.5819 -0.4081
10366SOL    HW136934   2.199   3.055   2.821 -0.1808 -0.9460 -0.8507
10366SOL    HW236935   2.083   3.089   2.729 -0.9494  0.2160  0.5145
10367SOL     OW36936   2.210   1.072   7.466  0.0181 -0.6649  0.0545
10367SOL    HW136937   2.237   1.149   7.517 -1.9363 -0.5982  1.0520
10367SOL    HW236938   2.259   1.000   7.504  2.2767  0.0617 -1.2202
10368SOL     OW36939   6.002   3.129   0.633  0.1994 -0.2880 -0.5011
10368SOL    HW136940   5.927   3.170   0.677 -0.1782 -0.3751 -1.0550
10368SOL    HW236941   5.999   3.038   0.661  0.6549 -0.0841  0.2183
10369SOL     OW36942   1.506   2.387   4.519 -0.1039 -0.1479 -0.7637
10369SOL    HW136943   1.592   2.408   4.554 -0.6826  0.1526  0.5835
10369SOL    HW236944   1.463   2.472   4.507 -1.5290 -0.3080  2.2285
10370SOL     OW36945   8.037   0.223   7.105 -0.2002  1.1336 -0.2887
10370SOL    HW136946   8.128   0.241   7.125 -0.2475  1.8502 -0.7040
10370SOL    HW236947   8.020   0.269   7.023 -0.8977  0.9096 -0.2791
10371SOL     OW36948   2.450   6.684   2.325 -0.3063  0.3337 -0.1882
10371SOL    HW136949   2.361   6.677   2.289 -0.4155  1.2475 -0.1256
10371SOL    HW236950   2.481   6.594   2.328 -1.4396 -0.0667  0.3047
10372SOL     OW36951  10.304  10.387   9.754 -0.4677  0.2617  0.0162
10372SOL    HW136952  10.297  10.405   9.848 -1.8452  2.3516 -0.4185
10372SOL    HW236953  10.261  10.302   9.743 -1.7159  0.7185  1.0946
10373SOL     OW36954   2.958   0.417   7.827  0.3426  0.0007  0.0661
10373SOL    HW136955   2.910   0.432   7.908 -0.2341  2.1334 -0.6110
10373SOL    HW236956   2.891   0.402   7.761  0.7473 -0.3503 -0.2777
10374SOL     OW36957   6.265   0.952   4.924 -0.4952  0.5430 -0.3074
10374SOL    HW136958   6.221   1.036   4.912  2.3003  2.1026 -0.6594
10374SOL    HW236959   6.310   0.961   5.009 -2.1301 -1.6402  0.8885
10375SOL     OW36960   7.483   4.209   4.556  0.3917  0.6872  0.0323
10375SOL    HW136961   7.446   4.273   4.496 -0.7197  0.6879  0.6887
10375SOL    HW236962   7.414   4.144   4.568  0.7964  0.3943  0.8627
10376SOL     OW36963   3.667  10.248   6.087  0.1531  0.3042  0.4329
10376SOL    HW136964   3.647  10.332   6.046  0.2750  1.0365  1.8243
10376SOL    HW236965   3.761  10.235   6.070  0.0307  0.2022 -0.1927
10377SOL     OW36966   3.854   8.564   0.035 -0.6066 -0.2141  0.0347
10377SOL    HW136967   3.759   8.570   0.039 -0.5740  0.1208  0.4241
10377SOL    HW236968   3.884   8.653   0.051 -0.2401 -0.1644 -0.8567
10378SOL     OW36969   9.045   0.242   0.778 -0.0528  0.4907  0.6157
10378SOL    HW136970   9.084   0.297   0.846 -0.2576  0.0109  1.1272
10378SOL    HW236971   9.091   0.159   0.784  0.2975  0.6234 -0.1989
10379SOL     OW36972   6.937   7.394   2.126 -0.8164  0.2472  0.1871
10379SOL    HW136973   6.846   7.421   2.113 -1.0355 -0.7643 -0.4434
10379SOL    HW236974   6.983   7.426   2.049 -0.8468 -0.1471  0.0033
10380SOL     OW36975  10.009   1.367   5.502 -0.8596  0.3227  0.5540
10380SOL    HW136976  10.066   1.444   5.513 -0.0834 -0.0163 -0.8231
10380SOL    HW236977  10.054   1.297   5.549  0.3337 -0.1385 -1.1769
10381SOL     OW36978   3.868   4.671   4.666 -0.2524  0.1140 -0.5648
10381SOL    HW136979   3.839   4.752   4.622  1.6490  0.6973 -0.8385
10381SOL    HW236980   3.884   4.697   4.756 -0.3895 -0.1580 -0.4606
10382SOL     OW36981   0.705   1.570   9.356  0.0891 -0.1265 -0.3966
10382SOL    HW136982   0.645   1.509   9.400  0.3787 -0.3090 -0.2544
10382SOL    HW236983   0.679   1.656   9.389 -0.3656 -0.1601 -0.6485
10383SOL     OW36984   8.888   3.080   1.148 -0.6994 -0.7888 -0.0239
10383SOL    HW136985   8.819   3.014   1.158 -0.9992 -0.9532 -2.5005
10383SOL    HW236986   8.840   3.163   1.138 -0.4586 -0.6361  0.0786
10384SOL     OW36987   0.990   0.812   3.388  0.5469 -0.1295 -0.2345
10384SOL    HW136988   1.067   0.757   3.371  0.8219  0.8112 -2.3418
10384SOL    HW236989   1.025   0.900   3.395 -0.0361 -0.0117  1.8695
10385SOL     OW36990   2.416   8.091   3.748 -0.1324 -0.5452  0.1001
10385SOL    HW136991   2.479   8.162   3.739  0.6412 -1.4772 -2.4048
10385SOL    HW236992   2.464   8.012   3.723 -1.8028 -1.5299 -0.1335
10386SOL     OW36993   6.105   7.022   7.952 -0.4608 -0.3420 -0.3206
10386SOL    HW136994   6.095   7.106   7.997 -0.8175 -0.1632 -0.7271
10386SOL    HW236995   6.185   7.031   7.902  0.3790 -0.8311  0.8942
10387SOL     OW36996   9.143   3.434   5.334 -0.3232  0.1886 -0.2628
10387SOL    HW136997   9.196   3.474   5.402 -0.2155  0.2750 -0.3956
10387SOL    HW236998   9.066   3.401   5.379 -0.1027 -0.0409 -0.0525
10388SOL     OW36999   1.197   1.453   2.117  0.3213  0.4856  0.2437
10388SOL    HW137000   1.247   1.465   2.197  0.0787  0.4621  0.3978
10388SOL    HW237001   1.236   1.376   2.075  0.2728  0.3388  0.4693
10389SOL     OW37002   4.198   4.650   8.630 -0.6275  0.5666 -0.8118
10389SOL    HW137003   4.250   4.714   8.679 -0.8380  0.0428  0.1355
10389SOL    HW237004   4.260   4.579   8.610 -0.6677  0.5284 -0.8025
10390SOL     OW37005   4.270   7.290   7.849 -0.0919 -0.0563 -0.1042
10390SOL    HW137006   4.263   7.265   7.941 -0.7660 -0.7515 -0.3343
10390SOL    HW237007   4.192   7.342   7.832  0.8987  1.5724  0.1554
10391SOL     OW37008  10.489   4.301   9.565 -0.1609  0.1726 -0.1257
10391SOL    HW137009  10.420   4.308   9.631 -0.8400  1.0233 -0.9088
10391SOL    HW237010  10.462   4.229   9.509  2.0504 -2.8787  2.3315
10392SOL     OW37011   7.572   8.222   0.013  0.0088  0.2697 -0.1369
10392SOL    HW137012   7.662   8.254   0.013 -0.2452  1.2314  2.4435
10392SOL    HW237013   7.577   8.133   0.047  0.1188 -0.3754 -1.7502
10393SOL     OW37014   0.959   5.580   2.156  0.5272  0.0009  0.3714
10393SOL    HW137015   0.940   5.665   2.116  0.4506  0.5687  1.5913
10393SOL    HW237016   0.928   5.516   2.092 -1.1999  0.8895  0.2775
10394SOL     OW37017   9.430   3.437   3.148  0.1140 -0.3352 -0.0987
10394SOL    HW137018   9.355   3.467   3.199  1.2777 -0.6388  1.8863
10394SOL    HW237019   9.398   3.359   3.103 -0.9778 -0.0184  0.0987
10395SOL     OW37020   8.736   0.233   9.734 -0.0321  0.0107  0.4652
10395SOL    HW137021   8.651   0.276   9.731  0.6722  1.5633  1.4134
10395SOL    HW237022   8.797   0.301   9.761  1.3835 -1.2664  0.6697
10396SOL     OW37023   6.848   8.295   5.554 -0.4534  0.5771 -0.2446
10396SOL    HW137024   6.907   8.343   5.496 -0.7509  0.8846 -0.2889
10396SOL    HW237025   6.804   8.362   5.605  0.1447  0.2935  0.6768
10397SOL     OW37026   7.121   4.628   6.960  0.6137  0.1939  0.0131
10397SOL    HW137027   7.090   4.600   6.874 -0.7566  2.6710 -0.4021
10397SOL    HW237028   7.047   4.613   7.018  0.6289  0.8329  0.2099
10398SOL     OW37029   2.879  10.601   5.907 -0.2110  0.4096  0.1460
10398SOL    HW137030   2.862  10.538   5.837 -0.1608  0.7178 -0.1480
10398SOL    HW237031   2.798  10.652   5.913 -1.0221 -0.9683  1.7596
10399SOL     OW37032   2.851  10.462   9.298 -0.0491  0.3225 -0.2648
10399SOL    HW137033   2.807  10.527   9.243 -0.4467  0.4680  0.2197
10399SOL    HW237034   2.943  10.466   9.271 -0.3821 -0.2781 -1.5886
10400SOL     OW37035   6.175   6.229   8.451 -0.7209  0.5496 -0.1432
10400SOL    HW137036   6.172   6.176   8.371 -1.0247 -0.7738  0.6991
10400SOL    HW237037   6.138   6.313   8.425 -1.5589 -0.1074 -1.2201
10401SOL     OW37038   8.456  10.064   0.320 -0.3675  0.2168 -0.0832
10401SOL    HW137039   8.406  10.033   0.395  1.0032 -2.1217 -0.0214
10401SOL    HW237040   8.479   9.984   0.272  1.0878  1.4079 -1.4825
10402SOL     OW37041   4.329   5.982   6.683 -0.9486  0.2935  0.1918
10402SOL    HW137042   4.409   6.010   6.727 -0.5505  2.3409 -1.6759
10402SOL    HW237043   4.350   5.896   6.647  0.8466  1.2501 -1.1951
10403SOL     OW37044   1.461   2.211   9.406 -0.0593 -0.3979 -0.4132
10403SOL    HW137045   1.393   2.276   9.421  2.2448  1.9708  0.4395
10403SOL    HW237046   1.466   2.203   9.310 -0.9170  0.0605 -0.4984
10404SOL     OW37047   5.863  10.156   8.941 -0.1564 -0.1219 -0.4696
10404SOL    HW137048   5.912  10.193   9.015  0.1389 -1.9621  0.2909
10404SOL    HW237049   5.927  10.104   8.893 -1.3114 -2.7453  0.6594
10405SOL     OW37050   8.499   6.970   9.542  0.8556 -0.2056  0.2579
10405SOL    HW137051   8.414   6.996   9.576  0.4050 -1.5961  0.2689
10405SOL    HW237052   8.552   6.951   9.620  1.0569  0.2941  0.2449
10406SOL     OW37053   6.838   0.069   2.127 -0.0790  0.0268  0.0637
10406SOL    HW137054   6.875   0.155   2.150 -0.4157  0.0443  0.5667
10406SOL    HW237055   6.793   0.084   2.044  1.2624 -0.0648 -0.6995
10407SOL     OW37056   2.233   0.987   1.864  0.1242  0.2484 -0.2008
10407SOL    HW137057   2.160   1.043   1.838 -0.0491 -0.2690 -0.8467
10407SOL    HW237058   2.305   1.048   1.880 -0.5095  0.7863  0.6944
10408SOL     OW37059   4.097   0.159   1.649  0.6655 -0.1645 -0.4656
10408SOL    HW137060   4.115   0.079   1.698  0.5129  0.1027  0.0345
10408SOL    HW237061   4.094   0.131   1.557 -0.0951 -0.8608 -0.2437
10409SOL     OW37062  10.681   7.433   2.290 -0.4807 -0.4356 -0.3308
10409SOL    HW137063  10.665   7.347   2.250 -0.5678 -0.1727 -0.8556
10409SOL    HW237064  10.712   7.488   2.219 -1.1310  0.1781 -0.1542
10410SOL     OW37065   0.291   7.042   2.197  0.5205  0.8793  0.4253
10410SOL    HW137066   0.270   7.048   2.290  0.3635 -1.0443  0.5558
10410SOL    HW237067   0.377   7.000   2.194  0.0321 -0.1176 -0.3015
10411SOL     OW37068   9.765  10.478   0.857  0.3321  0.3638 -0.3420
10411SOL    HW137069   9.691  10.420   0.838  1.0747 -0.6903 -0.1224
10411SOL    HW237070   9.758  10.548   0.792 -0.3463 -0.2016 -0.8961
10412SOL     OW37071   1.173   9.286   2.206  0.4563 -0.3299  0.0205
10412SOL    HW137072   1.132   9.318   2.286  0.8563 -2.7873  1.2756
10412SOL    HW237073   1.266   9.282   2.226  0.9023  1.3555 -1.4532
10413SOL     OW37074   7.245  10.582  10.211  0.1192  0.2224 -0.3442
10413SOL    HW137075   7.220  10.661  10.259 -2.9907 -1.4575  1.1212
10413SOL    HW237076   7.179  10.574  10.142  0.8199 -0.7005 -0.9303
10414SOL     OW37077   3.741   9.503  10.663  0.3535 -0.4887  0.2692
10414SOL    HW137078   3.685   9.575  10.633  2.4489  1.9135  1.6870
10414SOL    HW237079   3.762   9.453  10.584 -1.4102  0.2661 -0.7221
10415SOL     OW37080   4.565   5.856   9.872  0.1255  0.3417 -0.2991
10415SOL    HW137081   4.541   5.783   9.815  1.0794  0.3061 -0.6769
10415SOL    HW237082   4.642   5.894   9.830  2.3469 -1.1167  2.1495
10416SOL     OW37083   8.877  10.013   5.324  0.2654 -0.3337 -0.3213
10416SOL    HW137084   8.784  10.001   5.304  0.1231 -0.3334  0.3160
10416SOL    HW237085   8.918  10.027   5.239 -0.2291 -0.9161 -0.6707
10417SOL     OW37086   1.415   5.605   7.523  0.7577 -0.3704  0.5186
10417SOL    HW137087   1.398   5.514   7.548 -0.1206 -1.0934 -2.3186
10417SOL    HW237088   1.496   5.627   7.569  1.6662 -3.0237  0.4020
10418SOL     OW37089   9.561   3.643   1.959 -0.5089 -0.5722 -0.4086
10418SOL    HW137090   9.605   3.567   1.922  0.1362 -0.4787  0.1301
10418SOL    HW237091   9.480   3.652   1.909  0.8161  0.2074 -2.5258
10419SOL     OW37092   4.925   7.629   2.007 -0.5118 -0.7665 -0.3795
10419SOL    HW137093   4.936   7.716   1.968  0.0166 -0.5309  0.2813
10419SOL    HW237094   5.011   7.588   2.001 -0.5185 -0.8786  0.1718
10420SOL     OW37095   2.241   7.482   3.192  0.6716  0.4731 -0.1527
10420SOL    HW137096   2.154   7.519   3.201  0.8889  0.8067  0.6142
10420SOL    HW237097   2.240   7.439   3.106 -0.7174 -0.7843  0.4404
10421SOL     OW37098  10.034   9.637  10.494 -0.4124 -0.4429 -0.2516
10421SOL    HW137099  10.030   9.686  10.412 -0.5472 -0.4555 -0.2533
10421SOL    HW237100  10.105   9.678  10.543 -1.6774  0.9598  0.5085
10422SOL     OW37101   2.628   1.298  10.129 -0.2019 -0.5290  0.1346
10422SOL    HW137102   2.657   1.307  10.038  1.2425  0.3399  0.6473
10422SOL    HW237103   2.629   1.204  10.145  0.9743 -0.6215 -0.3382
10423SOL     OW37104   7.310   1.156   7.859  0.3538 -0.4129  0.4163
10423SOL    HW137105   7.328   1.158   7.953 -1.3537 -0.2486  0.7646
10423SOL    HW237106   7.262   1.075   7.845 -2.3845  1.1082  0.3223
10424SOL     OW37107   4.501   0.366   8.272  0.6922  0.6305 -0.4658
10424SOL    HW137108   4.485   0.431   8.203 -0.6817 -1.8951 -2.6877
10424SOL    HW237109   4.587   0.330   8.251  0.5969  0.3818 -0.4331
10425SOL     OW37110   3.632  10.704   0.873 -0.1255  0.4635 -0.4260
10425SOL    HW137111   3.538  10.688   0.865 -0.3911  1.3393  0.6932
10425SOL    HW237112   3.656  10.750   0.792 -1.1545  2.3399  0.2778
10426SOL     OW37113   4.114   3.405   8.859 -0.5369  0.2597  0.0641
10426SOL    HW137114   4.175   3.391   8.932 -0.4243  2.2956  0.4262
10426SOL    HW237115   4.169   3.436   8.787 -0.7052 -1.3458 -0.7947
10427SOL     OW37116   5.735   5.477   0.396  0.1447  0.1200 -0.0458
10427SOL    HW137117   5.773   5.390   0.387  0.4209  0.0299  1.7102
10427SOL    HW237118   5.688   5.492   0.314  0.0807 -1.6751 -0.3563
10428SOL     OW37119  10.524  10.610   8.372 -0.2210 -0.4832 -0.1677
10428SOL    HW137120  10.566  10.686   8.330 -3.3577  0.6327 -1.6063
10428SOL    HW237121  10.532  10.627   8.465  1.4536  0.2488 -0.4091
10429SOL     OW37122   5.883   3.204   8.657  0.0679 -0.3134 -0.3157
10429SOL    HW137123   5.830   3.276   8.622 -0.0340 -0.9562 -1.5459
10429SOL    HW237124   5.834   3.174   8.733  0.1235  0.9198  0.2272
10430SOL     OW37125   1.536   0.461   9.459  0.2874 -0.1342 -0.4476
10430SOL    HW137126   1.624   0.431   9.436  0.9103  0.8200  0.5637
10430SOL    HW237127   1.525   0.435   9.550  0.4900  1.7892  0.1734
10431SOL     OW37128   3.575   3.840   8.771 -0.0112 -0.2987  0.6805
10431SOL    HW137129   3.538   3.806   8.690 -0.3722 -0.1673  0.7887
10431SOL    HW237130   3.667   3.815   8.768  0.8600  2.5914 -1.3802
10432SOL     OW37131   1.377   1.950  10.413  0.1633  0.0666  0.3544
10432SOL    HW137132   1.414   1.887  10.351  1.0606 -0.0772  1.0183
10432SOL    HW237133   1.303   1.904  10.452 -0.1210 -0.0131 -0.2578
10433SOL     OW37134   9.887   7.023   1.556  0.5803 -0.0531  0.3616
10433SOL    HW137135   9.887   7.008   1.650 -0.5119  1.2451  0.6124
10433SOL    HW237136   9.818   6.966   1.523  1.3194 -0.8996  0.2635
10434SOL     OW37137   5.216   8.517   3.851  0.0585  0.5064 -0.4344
10434SOL    HW137138   5.217   8.541   3.758 -0.5525  0.9336 -0.3426
10434SOL    HW237139   5.258   8.590   3.895  2.0879 -0.5305 -0.5183
10435SOL     OW37140   1.005   4.437   0.573  0.2818  0.4199 -0.6747
10435SOL    HW137141   0.985   4.421   0.665  0.9368  1.8259 -0.2594
10435SOL    HW237142   1.033   4.353   0.539 -0.1878 -0.1672  0.3524
10436SOL     OW37143   4.065   7.573   7.956  0.1926 -0.1482  0.3139
10436SOL    HW137144   3.985   7.547   7.910  0.7807 -1.5903  0.0481
10436SOL    HW237145   4.106   7.491   7.982  0.9963  0.5952  1.5040
10437SOL     OW37146   7.981   0.271   8.564 -0.0049  0.2709 -0.1482
10437SOL    HW137147   8.073   0.258   8.586  0.1086 -0.5440 -1.0307
10437SOL    HW237148   7.949   0.183   8.543 -0.9277  0.5746 -0.0630
10438SOL     OW37149   1.336   2.495   7.760  0.7102 -0.3521  0.2740
10438SOL    HW137150   1.358   2.457   7.845  3.3890  0.3469 -0.0142
10438SOL    HW237151   1.372   2.583   7.763  0.0775  0.0009 -1.2943
10439SOL     OW37152   7.754   9.902   6.623  0.0899 -0.3252  0.7451
10439SOL    HW137153   7.848   9.916   6.610 -0.0668  0.2445  0.2056
10439SOL    HW237154   7.744   9.807   6.627  1.0267 -0.4139  3.3249
10440SOL     OW37155   3.628   8.089   3.552  0.1215  0.3954  0.3687
10440SOL    HW137156   3.680   8.133   3.485  0.8681 -0.4698  0.3519
10440SOL    HW237157   3.692   8.059   3.616 -0.3521 -0.6462  0.3828
10441SOL     OW37158   3.162   5.366   5.500  0.3697 -0.1091 -0.1845
10441SOL    HW137159   3.096   5.377   5.568 -1.0319 -1.3094 -1.2605
10441SOL    HW237160   3.185   5.273   5.504  1.4195  0.1386 -0.3306
10442SOL     OW37161   6.836  10.354   6.426 -0.3666 -0.7558 -0.0234
10442SOL    HW137162   6.870  10.304   6.500 -1.3405 -0.0548  0.9123
10442SOL    HW237163   6.835  10.291   6.353  0.7649 -1.3975  0.4939
10443SOL     OW37164   1.053   1.980   6.197 -0.6423 -0.2008 -0.0636
10443SOL    HW137165   1.112   2.020   6.133  1.2348 -1.5969  0.6965
10443SOL    HW237166   0.976   1.955   6.146  0.2755 -0.1253 -1.5413
10444SOL     OW37167   1.250   1.381   0.404 -0.0849  0.1928  0.4684
10444SOL    HW137168   1.336   1.344   0.383 -0.2424  0.0488  0.0558
10444SOL    HW237169   1.238   1.363   0.497 -0.1599 -0.8243  0.2810
10445SOL     OW37170   9.791  10.639   5.522  0.2492 -0.0201 -0.0561
10445SOL    HW137171   9.810  10.584   5.445  1.8767 -0.2489  0.4638
10445SOL    HW237172   9.700  10.665   5.511  0.1499 -0.8740 -1.5502
10446SOL     OW37173   7.501   3.422   1.958 -0.5725  0.1081  0.2505
10446SOL    HW137174   7.454   3.438   2.040 -0.4720 -1.3149  0.6296
10446SOL    HW237175   7.550   3.503   1.942 -1.4250  0.7971  1.0235
10447SOL     OW37176   0.004   0.510   9.433 -0.5619 -0.0934 -0.1433
10447SOL    HW137177  -0.051   0.580   9.468 -0.4801 -0.1146  0.0294
10447SOL    HW237178  -0.023   0.432   9.481 -1.2297 -0.3516 -0.9195
10448SOL     OW37179   1.672   7.128   2.858  0.4596  0.2168  0.1092
10448SOL    HW137180   1.730   7.157   2.928  1.2120  0.3002 -0.5358
10448SOL    HW237181   1.584   7.136   2.895  0.9055 -1.4541  1.6952
10449SOL     OW37182   6.979   3.547   8.244 -0.0374 -0.1767 -0.8581
10449SOL    HW137183   7.023   3.471   8.283 -0.8727  0.5635  1.7116
10449SOL    HW237184   7.037   3.573   8.172  1.4440 -1.8515 -0.3580
10450SOL     OW37185   0.849   4.256   9.474  0.0203  0.8651  0.2122
10450SOL    HW137186   0.877   4.310   9.400 -0.8316  1.6038  0.4160
10450SOL    HW237187   0.931   4.222   9.511  0.4420  0.1894 -1.2632
10451SOL     OW37188   9.539   0.966   3.024  0.3852 -0.2097 -0.1053
10451SOL    HW137189   9.624   0.973   3.068 -0.0433 -0.3107  0.7588
10451SOL    HW237190   9.485   0.916   3.085  0.2193 -1.6971 -1.4291
10452SOL     OW37191   0.813   4.893   0.788  0.0091  0.6838  0.8420
10452SOL    HW137192   0.742   4.924   0.732  1.5536  0.8600 -1.1524
10452SOL    HW237193   0.772   4.827   0.844 -1.8133  1.1163  0.0906
10453SOL     OW37194   4.705   3.976   7.549  0.1835  0.4486  0.2332
10453SOL    HW137195   4.714   3.971   7.645  1.1781  1.3253  0.1944
10453SOL    HW237196   4.744   4.060   7.525 -0.3363  0.3800 -0.9209
10454SOL     OW37197   1.362   6.994   1.665 -1.0134 -0.2171  0.2116
10454SOL    HW137198   1.389   6.973   1.754 -1.5114  0.1791  0.4614
10454SOL    HW237199   1.370   7.090   1.660  1.4201 -0.4047 -0.9668
10455SOL     OW37200   0.093   7.842   8.855 -0.6213 -0.0168 -0.5549
10455SOL    HW137201   0.157   7.872   8.919 -0.0623  0.5494 -1.3450
10455SOL    HW237202   0.080   7.750   8.874 -1.1390  0.3322  0.9150
10456SOL     OW37203   8.193   9.709   3.840 -0.2577 -0.0625 -0.5379
10456SOL    HW137204   8.244   9.701   3.759  1.0552 -1.3197  0.3522
10456SOL    HW237205   8.117   9.762   3.816  0.5748  0.3866 -2.3556
10457SOL     OW37206   1.806   4.041  10.383 -0.1137 -0.5233  0.3064
10457SOL    HW137207   1.803   3.960  10.333 -0.5365 -0.2399 -0.1399
10457SOL    HW237208   1.794   4.014  10.474  0.8256 -1.0580  0.2832
10458SOL     OW37209   7.339   6.563   6.459  0.0916  0.0475 -0.4926
10458SOL    HW137210   7.325   6.539   6.368  0.7801 -0.1674 -0.5497
10458SOL    HW237211   7.305   6.652   6.466  2.5724  1.2068 -1.6977
10459SOL     OW37212   7.471   7.409   8.546  0.1530 -0.2863  0.2051
10459SOL    HW137213   7.379   7.402   8.571  0.6680 -2.0536  1.8890
10459SOL    HW237214   7.489   7.503   8.547 -0.6971 -0.0008  3.7692
10460SOL     OW37215   2.274   6.319   2.329 -0.1412 -0.0656  0.5409
10460SOL    HW137216   2.245   6.228   2.317 -0.7426  0.2288 -0.3903
10460SOL    HW237217   2.233   6.366   2.256 -0.0889  1.0113  1.1910
10461SOL     OW37218   5.674   9.001   3.312 -0.3256  0.0709 -0.4028
10461SOL    HW137219   5.630   9.053   3.380  0.8664  0.2672  0.2459
10461SOL    HW237220   5.603   8.968   3.257 -1.2211  1.0068  0.1641
10462SOL     OW37221   8.671   8.715   1.166 -0.1661 -0.5088 -0.0499
10462SOL    HW137222   8.701   8.785   1.224  1.2368 -1.3677  0.2902
10462SOL    HW237223   8.586   8.688   1.202 -1.2573  1.6656 -0.7890
10463SOL     OW37224   2.124   1.658   1.560  0.4508 -0.7727 -0.0476
10463SOL    HW137225   2.143   1.654   1.467  1.5218 -1.6630  0.1969
10463SOL    HW237226   2.047   1.602   1.572 -2.1677  2.3207 -0.9358
10464SOL     OW37227   1.283  10.310   2.936  0.5887  0.2203  0.2399
10464SOL    HW137228   1.302  10.296   2.843 -1.6168 -2.2321  0.0348
10464SOL    HW237229   1.368  10.307   2.979  1.6672  1.3817 -1.6584
10465SOL     OW37230   8.952   3.121   9.195  0.2847  0.1388 -0.3950
10465SOL    HW137231   8.917   3.158   9.276 -0.2020 -0.9523 -0.0898
10465SOL    HW237232   8.979   3.197   9.144  1.2941  0.8349  1.0863
10466SOL     OW37233   1.090   1.151   3.828 -0.5874 -0.0412  0.1036
10466SOL    HW137234   1.071   1.084   3.762 -1.4347  0.4250 -0.1404
10466SOL    HW237235   1.157   1.206   3.786 -1.4951  0.5599 -0.5986
10467SOL     OW37236   8.693   6.820   7.985 -0.2583  0.2187  0.4132
10467SOL    HW137237   8.752   6.894   7.993 -2.0840  1.9381 -0.9624
10467SOL    HW237238   8.660   6.824   7.895 -1.2167 -1.6224  0.6278
10468SOL     OW37239   6.379   6.207   6.957  0.3180 -0.4721  0.0737
10468SOL    HW137240   6.403   6.158   7.036  1.0198  0.1073  0.2351
10468SOL    HW237241   6.455   6.200   6.900  0.7303  1.0032  0.3945
10469SOL     OW37242   1.432   5.491   4.271  0.5384  0.2420 -0.0066
10469SOL    HW137243   1.525   5.488   4.250  0.1178 -1.8731 -2.0616
10469SOL    HW237244   1.423   5.438   4.350  0.9719 -0.7054 -0.5675
10470SOL     OW37245   6.984   3.923   7.185  0.1726  0.0450 -0.3564
10470SOL    HW137246   6.924   3.902   7.257 -1.0976  0.0711 -1.3769
10470SOL    HW237247   7.060   3.867   7.201 -0.6199 -0.8848  0.3075
10471SOL     OW37248  10.171   9.570   5.506  0.7045 -0.4797 -0.3604
10471SOL    HW137249  10.078   9.590   5.517  0.6354 -0.7852 -0.3819
10471SOL    HW237250  10.201   9.546   5.593  1.1518  1.2024 -0.0189
10472SOL     OW37251   4.586   2.456   1.775 -0.3403 -0.2116 -0.5347
10472SOL    HW137252   4.497   2.490   1.774 -0.3697 -0.3037 -1.0622
10472SOL    HW237253   4.640   2.529   1.806 -0.4521  0.2061 -1.2983
10473SOL     OW37254   6.912   6.739   8.641  0.0493 -0.0960  0.0312
10473SOL    HW137255   6.863   6.660   8.616  0.6122 -0.1248 -1.0503
10473SOL    HW237256   6.939   6.724   8.731 -2.2164  0.0636  0.8069
10474SOL     OW37257   9.060   6.329   1.056  0.0705 -0.1809  0.2792
10474SOL    HW137258   9.055   6.233   1.051 -0.2677 -0.0835 -3.5198
10474SOL    HW237259   8.970   6.358   1.046  0.3465  0.5736 -0.0445
10475SOL     OW37260   1.183   4.823   8.413 -0.0488  0.0389  0.0447
10475SOL    HW137261   1.159   4.759   8.480  0.0702 -0.0317  0.0192
10475SOL    HW237262   1.137   4.794   8.334 -3.0082  1.9987  0.8724
10476SOL     OW37263   4.860   8.149   8.144 -0.0900  0.0867 -0.4393
10476SOL    HW137264   4.803   8.149   8.067 -2.2221  1.5942  1.0323
10476SOL    HW237265   4.800   8.147   8.218  1.8348  0.6650  1.2145
10477SOL     OW37266   3.868   0.575   1.780 -0.0697  0.3933 -0.2547
10477SOL    HW137267   3.814   0.652   1.799 -0.6974  0.0902 -0.7620
10477SOL    HW237268   3.894   0.542   1.866 -0.6453  0.5805 -0.0036
10478SOL     OW37269   6.883   5.216   8.009  0.1782 -0.0815 -0.4924
10478SOL    HW137270   6.849   5.231   8.097 -0.5575 -0.2620 -0.7460
10478SOL    HW237271   6.890   5.121   8.001  0.1783 -0.0677 -0.6583
10479SOL     OW37272   4.016   2.254  10.242 -0.0819  0.3987  0.3918
10479SOL    HW137273   3.921   2.258  10.237 -0.1108  0.1530  0.6977
10479SOL    HW237274   4.041   2.195  10.171 -0.2305 -0.2981  0.9112
10480SOL     OW37275   9.932   9.583   7.408  0.0068 -0.2503  0.4800
10480SOL    HW137276   9.939   9.617   7.497  1.4818  1.6388 -0.2711
10480SOL    HW237277  10.023   9.576   7.378 -0.4599  1.0146 -1.4802
10481SOL     OW37278   4.109   9.720   2.640 -0.1283 -0.4880 -0.3674
10481SOL    HW137279   4.013   9.721   2.641 -0.1252  0.8784  1.0658
10481SOL    HW237280   4.132   9.639   2.685 -0.6113 -0.4236  0.0015
10482SOL     OW37281   9.313  10.337   6.657 -0.2424 -0.4473 -0.2657
10482SOL    HW137282   9.397  10.373   6.687 -0.1361 -1.8337  1.3281
10482SOL    HW237283   9.309  10.357   6.564  2.5820 -1.5929 -0.7357
10483SOL     OW37284   9.843   8.199   2.626 -0.0367  0.2098 -0.4196
10483SOL    HW137285   9.926   8.184   2.670  0.3449  2.1703 -0.3969
10483SOL    HW237286   9.859   8.272   2.566 -1.2583 -0.6149 -1.8365
10484SOL     OW37287   0.585   2.659   3.509 -0.2512  0.6657  0.3190
10484SOL    HW137288   0.528   2.669   3.432 -1.3470  0.8401  1.1250
10484SOL    HW237289   0.606   2.565   3.511 -0.7240  0.5531  0.1568
10485SOL     OW37290   3.543   3.067   2.901 -0.2301 -0.1024 -0.0308
10485SOL    HW137291   3.504   3.034   2.983  0.7508  1.3986  1.0970
10485SOL    HW237292   3.537   2.993   2.841  1.0958 -2.1161  2.0942
10486SOL     OW37293   2.527   6.424   2.353  0.0577  0.4009  0.1730
10486SOL    HW137294   2.600   6.361   2.359  0.5941  1.0898  1.3113
10486SOL    HW237295   2.449   6.369   2.351  0.5917 -0.3522 -0.8793
10487SOL     OW37296   5.108   4.098   3.760  0.0111  0.5497 -0.2753
10487SOL    HW137297   5.018   4.092   3.793 -0.1379 -0.7132 -0.8577
10487SOL    HW237298   5.159   4.123   3.837 -0.6831  0.1654  0.3266
10488SOL     OW37299   9.328   8.642   0.232  0.5899  0.5697 -0.3075
10488SOL    HW137300   9.309   8.587   0.308  0.4031  0.7032 -0.2575
10488SOL    HW237301   9.301   8.730   0.259  0.8682  0.6806 -0.3958
10489SOL     OW37302   8.865   3.717   1.895 -0.1044 -0.1616  0.4057
10489SOL    HW137303   8.877   3.760   1.811 -1.1173  0.1988  0.4271
10489SOL    HW237304   8.770   3.704   1.902  0.0345 -0.8635  1.1556
10490SOL     OW37305   6.092   2.930   9.364  0.1715 -0.7026  0.1124
10490SOL    HW137306   6.014   2.965   9.321  1.3308  1.6907 -0.2388
10490SOL    HW237307   6.153   2.913   9.292  0.7312 -0.4659  0.5224
10491SOL     OW37308   3.864   1.034   6.488 -0.6072 -0.2393 -0.0255
10491SOL    HW137309   3.887   1.027   6.581  1.2833  1.7195 -0.2589
10491SOL    HW237310   3.925   0.977   6.443  0.4650  1.0151 -0.2368
10492SOL     OW37311   0.319   5.737   9.824  0.2986 -0.3179 -0.2787
10492SOL    HW137312   0.386   5.765   9.761 -1.4604  0.7469 -1.7788
10492SOL    HW237313   0.328   5.641   9.826  0.7492 -0.3465 -1.7899
10493SOL     OW37314   0.682   6.724   0.093  0.0609 -0.3934  0.2637
10493SOL    HW137315   0.729   6.650   0.055  1.5265  1.1205 -0.9988
10493SOL    HW237316   0.659   6.779   0.019  0.0481  1.0142  1.2801
10494SOL     OW37317   2.033   4.055   2.365  0.5584  0.4317 -0.3088
10494SOL    HW137318   1.962   4.019   2.312  0.2879  1.3511 -0.5799
10494SOL    HW237319   1.990   4.112   2.429  0.9221 -0.3106  0.6320
10495SOL     OW37320   2.532   4.212   2.894  0.3128  0.1641 -0.2373
10495SOL    HW137321   2.471   4.255   2.835  0.8577  0.7387 -0.3983
10495SOL    HW237322   2.619   4.240   2.864  0.7175 -1.4923 -0.6822
10496SOL     OW37323   5.726   9.480   8.834  0.0161 -0.2298 -0.2485
10496SOL    HW137324   5.711   9.428   8.913 -1.1131  0.3250 -0.0698
10496SOL    HW237325   5.649   9.462   8.779 -1.8844  3.2610  0.9590
10497SOL     OW37326   5.033  10.440  10.011 -0.2164 -0.0506 -0.6438
10497SOL    HW137327   4.978  10.377  10.058  0.1479 -0.4058 -0.6867
10497SOL    HW237328   5.007  10.525  10.046 -0.4746 -0.2505 -0.3393
10498SOL     OW37329   2.268   2.283   9.603 -0.5670 -0.3878  0.0941
10498SOL    HW137330   2.232   2.254   9.687 -2.1818 -1.7839 -1.0172
10498SOL    HW237331   2.217   2.361   9.581 -0.9513 -0.6923 -0.1141
10499SOL     OW37332   0.373   3.809   3.015 -0.4888 -0.1681 -0.3404
10499SOL    HW137333   0.427   3.823   3.093  0.3856 -0.2609 -0.9211
10499SOL    HW237334   0.389   3.718   2.991  0.9598  0.4471 -1.8857
10500SOL     OW37335   7.028   5.287   4.274 -0.5016  0.2129 -0.2938
10500SOL    HW137336   7.050   5.356   4.335  0.4564  0.7358 -1.1934
10500SOL    HW237337   7.001   5.333   4.194 -1.6843 -0.4513 -0.3087
10501SOL     OW37338   4.462   7.834   6.846 -0.1890 -0.0097  0.2103
10501SOL    HW137339   4.496   7.823   6.758  1.1000 -0.5303  0.7518
10501SOL    HW237340   4.471   7.927   6.865  1.9584 -0.2764  0.7161
10502SOL     OW37341   2.805   5.074  10.390 -0.4524  0.4195  0.2025
10502SOL    HW137342   2.761   5.008  10.443  0.0711 -0.8761 -0.9073
10502SOL    HW237343   2.883   5.097  10.441  1.1775 -2.3589 -0.8154
10503SOL     OW37344   3.461   6.820   7.370 -0.4978  0.0783  0.1377
10503SOL    HW137345   3.473   6.832   7.464 -0.3999  1.5203 -0.0381
10503SOL    HW237346   3.540   6.858   7.331 -1.0115  0.4386 -0.5692
10504SOL     OW37347   2.198   9.756   6.786 -0.5061  0.0362 -0.3115
10504SOL    HW137348   2.124   9.784   6.732 -0.7148 -0.4789 -0.2933
10504SOL    HW237349   2.170   9.674   6.825 -0.2931  0.3291  0.4711
10505SOL     OW37350   7.068  10.143   0.408  0.0794  0.3358  0.2383
10505SOL    HW137351   7.039  10.098   0.329 -0.6094  0.2233  0.5526
10505SOL    HW237352   7.126  10.081   0.451 -0.8034 -0.2324  0.6275
10506SOL     OW37353   6.326   6.701   7.312 -0.1544 -0.0826 -0.1209
10506SOL    HW137354   6.399   6.754   7.280  0.7745 -0.8952  0.5326
10506SOL    HW237355   6.300   6.648   7.238  0.1678 -0.0381 -0.2680
10507SOL     OW37356  10.495   7.299   2.038  0.3060 -0.4783 -0.0203
10507SOL    HW137357  10.475   7.392   2.036 -1.1217 -0.6043  2.8586
10507SOL    HW237358  10.566   7.288   1.975  0.4088  2.4972 -0.5691
10508SOL     OW37359   5.596   1.042   3.328  0.6358 -0.1066  0.4883
10508SOL    HW137360   5.653   1.001   3.263  0.7047  0.9042 -0.1137
10508SOL    HW237361   5.653   1.059   3.403  0.9748  0.2840  0.1478
10509SOL     OW37362   3.373   1.115   1.880  0.6049  0.1505  0.3412
10509SOL    HW137363   3.438   1.115   1.951  0.8556  0.2921  0.1144
10509SOL    HW237364   3.421   1.149   1.804  0.2105  0.4493  0.2235
10510SOL     OW37365   1.922   5.490   3.444  0.6867 -0.8258  0.0259
10510SOL    HW137366   1.951   5.405   3.476 -1.0120 -1.2208  0.6137
10510SOL    HW237367   1.835   5.502   3.482  0.9317  1.2399  0.0725
10511SOL     OW37368   3.098   7.254   9.112  0.1960 -0.5046 -0.3345
10511SOL    HW137369   3.184   7.215   9.127  0.4215 -0.8025 -2.2347
10511SOL    HW237370   3.039   7.204   9.168  1.1995 -0.4419  0.8299
10512SOL     OW37371   4.734   4.166   6.192  0.3964 -0.2310  0.8818
10512SOL    HW137372   4.696   4.245   6.230 -0.2883 -1.3258  2.6476
10512SOL    HW237373   4.825   4.187   6.176 -0.0049  1.2118  0.3665
10513SOL     OW37374   4.380   6.720   1.057  0.1240 -1.1200 -0.1207
10513SOL    HW137375   4.373   6.701   0.964  0.1405 -1.3095 -0.0827
10513SOL    HW237376   4.448   6.788   1.062  0.1217 -1.1080 -0.2459
10514SOL     OW37377   1.052   2.597   8.345  0.4274  0.2384  0.0728
10514SOL    HW137378   1.134   2.553   8.366 -0.1827 -0.7834  0.3578
10514SOL    HW237379   0.996   2.581   8.421 -0.1937  0.5221 -0.3224
10515SOL     OW37380  10.295   9.162   1.009 -0.3580  0.6736  0.3578
10515SOL    HW137381  10.353   9.234   1.035  1.4966 -0.6031  0.0178
10515SOL    HW237382  10.225   9.203   0.960  0.9249  2.2027 -0.2697
10516SOL     OW37383   3.827   5.322   7.469  0.1054  0.0060  0.0663
10516SOL    HW137384   3.736   5.329   7.497  0.3356  0.9164  0.6269
10516SOL    HW237385   3.867   5.405   7.496  0.9791 -0.1742 -0.6235
10517SOL     OW37386   9.869   4.828   7.711  0.1106 -0.2469  0.1348
10517SOL    HW137387   9.946   4.853   7.660 -0.1733  1.4795  0.4849
10517SOL    HW237388   9.853   4.737   7.687  0.4557  0.2530 -2.2664
10518SOL     OW37389  10.696   2.928   2.643 -0.2254  0.4642 -0.2663
10518SOL    HW137390  10.669   3.020   2.650 -1.0087  0.1199  2.0851
10518SOL    HW237391  10.659   2.886   2.721  1.2905 -1.5521 -0.5477
10519SOL     OW37392   9.570   7.905   1.908  0.2359 -0.4448 -0.0688
10519SOL    HW137393   9.479   7.878   1.911  0.3260 -0.7934 -0.3526
10519SOL    HW237394   9.589   7.936   1.996 -0.2785  0.0362 -0.1278
10520SOL     OW37395  10.311   7.066   2.904  0.2525 -0.0907 -0.0117
10520SOL    HW137396  10.252   7.029   2.838  0.8969  1.4944 -1.5524
10520SOL    HW237397  10.292   7.017   2.984 -0.2146 -2.4609 -1.4749
10521SOL     OW37398   5.704   8.089   1.694  0.0652  0.4975 -1.2698
10521SOL    HW137399   5.758   8.154   1.738 -0.2233 -0.1451  0.0773
10521SOL    HW237400   5.619   8.133   1.682 -0.3961  0.1079  0.4061
10522SOL     OW37401   2.152  10.146   1.833 -0.3316 -0.1176 -0.0699
10522SOL    HW137402   2.246  10.157   1.843 -0.0486 -0.9465 -1.5556
10522SOL    HW237403   2.135  10.057   1.862 -0.9098  0.4692  1.5156
10523SOL     OW37404   0.176   8.258  10.529  0.0394 -0.7894 -0.5158
10523SOL    HW137405   0.193   8.323  10.461 -0.9205  1.6875  1.4689
10523SOL    HW237406   0.080   8.253  10.534 -0.1486  1.9924  3.0074
10524SOL     OW37407   0.835  10.469   5.915 -0.2200 -0.3566 -0.1381
10524SOL    HW137408   0.924  10.449   5.943 -1.0577 -2.1336  1.4363
10524SOL    HW237409   0.818  10.556   5.951  0.7778 -0.1084 -0.2360
10525SOL     OW37410   7.673   7.499   7.065  0.1249  0.1527  0.3985
10525SOL    HW137411   7.706   7.443   7.135  0.5428 -0.0970  0.0063
10525SOL    HW237412   7.582   7.514   7.088  0.0336 -0.6021  0.5713
10526SOL     OW37413   4.810  10.059   0.903  0.5032  0.4895  0.0588
10526SOL    HW137414   4.715  10.054   0.909  0.5246 -0.9578 -0.3637
10526SOL    HW237415   4.841  10.011   0.980  0.9144  1.5699  0.5872
10527SOL     OW37416   4.443   1.830   7.481 -0.0176  0.0413 -0.0272
10527SOL    HW137417   4.462   1.737   7.476  1.8748  0.4383 -1.2590
10527SOL    HW237418   4.523   1.873   7.451  0.2966  2.2003  3.3116
10528SOL     OW37419   9.998   3.091   8.098  0.1416 -0.5388  0.5365
10528SOL    HW137420   9.927   3.036   8.064 -0.3241  0.0867  0.4756
10528SOL    HW237421  10.047   3.118   8.020 -0.3642  0.1278  0.4431
10529SOL     OW37422   3.976   7.922   8.905  0.5583  0.0926  0.2513
10529SOL    HW137423   4.017   7.844   8.943 -2.2576 -1.2723  0.7023
10529SOL    HW237424   4.002   7.993   8.964  1.4894 -0.8485  1.0208
10530SOL     OW37425   9.101   3.862   7.118  0.2058 -0.3324 -0.3145
10530SOL    HW137426   9.037   3.905   7.062  1.6435  1.5066 -0.6632
10530SOL    HW237427   9.116   3.777   7.077  1.8257  1.2488 -3.3234
10531SOL     OW37428   3.233   4.788   5.929  0.4404 -0.1776  0.1213
10531SOL    HW137429   3.294   4.853   5.964 -0.1772  1.3666 -1.4898
10531SOL    HW237430   3.289   4.715   5.903  1.2930  0.1516  0.9482
10532SOL     OW37431   8.836   6.730   0.849 -0.0114 -0.4089 -0.0188
10532SOL    HW137432   8.889   6.735   0.928  1.6965  1.1671 -1.1813
10532SOL    HW237433   8.805   6.820   0.835 -0.7636 -0.7761 -0.8353
10533SOL     OW37434   8.706   1.171   4.701  0.2855 -0.4759 -0.3577
10533SOL    HW137435   8.789   1.196   4.659 -0.0967  2.8176  0.5184
10533SOL    HW237436   8.724   1.178   4.795 -0.9096  0.1342 -0.1517
10534SOL     OW37437   6.444   2.895   9.434 -0.0720  0.4198  0.2452
10534SOL    HW137438   6.505   2.955   9.477 -0.1403  1.1511 -0.6405
10534SOL    HW237439   6.390   2.861   9.504  1.5551 -0.4998  1.1200
10535SOL     OW37440   7.843   6.083   1.817 -0.1865 -0.3706  0.3597
10535SOL    HW137441   7.828   5.994   1.786 -1.5271  0.2573 -0.8963
10535SOL    HW237442   7.860   6.072   1.911 -1.6224 -1.8560  0.5076
10536SOL     OW37443   3.434   8.898   3.906  0.4159  0.3294 -0.1740
10536SOL    HW137444   3.480   8.978   3.880 -1.0971  1.2305 -0.2019
10536SOL    HW237445   3.433   8.901   4.001 -0.7671  1.0478 -0.1889
10537SOL     OW37446   4.908   7.482  10.059 -0.1310 -0.1054  0.0859
10537SOL    HW137447   4.877   7.528   9.982  0.8874 -0.8216 -0.7777
10537SOL    HW237448   4.941   7.551  10.117  0.7114  0.3247 -0.8718
10538SOL     OW37449   5.911   6.754   1.289  0.3893  0.0689 -0.0949
10538SOL    HW137450   5.940   6.666   1.314 -2.2223 -0.8411  0.0861
10538SOL    HW237451   5.816   6.744   1.275  0.0909  2.7923 -0.4449
10539SOL     OW37452   6.877   6.804   1.222  0.0808 -0.5741  0.0771
10539SOL    HW137453   6.957   6.848   1.250 -0.9113  0.8490  0.7595
10539SOL    HW237454   6.850   6.851   1.143  0.0185 -1.1816 -0.2715
10540SOL     OW37455   8.650   1.673   3.195  0.3467  0.2000  0.2333
10540SOL    HW137456   8.728   1.622   3.217 -0.5010 -1.5384 -0.6484
10540SOL    HW237457   8.671   1.713   3.111 -0.3715 -1.8381 -0.9754
10541SOL     OW37458   5.597   3.954   2.162  0.3170  0.1654  0.0240
10541SOL    HW137459   5.525   3.957   2.099 -0.5141 -0.8368  0.8781
10541SOL    HW237460   5.659   4.020   2.131 -1.0676  1.2319 -0.6208
10542SOL     OW37461   7.117   7.424   8.444  0.0862 -0.1309 -0.2461
10542SOL    HW137462   7.080   7.345   8.406 -0.3151  0.2837 -0.7307
10542SOL    HW237463   7.077   7.430   8.531  0.4854 -0.7144 -0.0175
10543SOL     OW37464   2.131   1.540   2.120  0.0131  0.0531 -0.1918
10543SOL    HW137465   2.135   1.634   2.101 -0.9025  0.0398 -0.5321
10543SOL    HW237466   2.103   1.535   2.211  1.8665  0.1059  0.4088
10544SOL     OW37467   6.238   4.244   9.938  0.5465 -0.1404  0.2733
10544SOL    HW137468   6.296   4.196   9.880 -0.3408 -1.3853  0.3681
10544SOL    HW237469   6.195   4.308   9.882  2.3597  1.1847  0.3077
10545SOL     OW37470  10.034   2.749   2.693 -0.1058  0.1459 -0.0785
10545SOL    HW137471   9.982   2.699   2.757 -0.3542 -0.4686 -0.7506
10545SOL    HW237472  10.040   2.692   2.617  3.6150 -0.8710  0.7721
10546SOL     OW37473   9.290   8.071  10.704  0.1968 -0.4295 -0.0683
10546SOL    HW137474   9.299   7.977  10.718  3.5669 -0.4138 -1.3287
10546SOL    HW237475   9.370   8.109  10.739 -0.4220  1.7918 -0.9013
10547SOL     OW37476   1.815   2.578   6.107 -0.1655 -0.0282  0.6718
10547SOL    HW137477   1.795   2.507   6.169  1.5963 -0.0546  1.2534
10547SOL    HW237478   1.780   2.547   6.024 -1.0854 -0.7484  1.2967
10548SOL     OW37479  10.641   7.456   0.374 -0.0405  0.3222  0.4582
10548SOL    HW137480  10.683   7.472   0.290 -1.2634 -1.5018 -0.5590
10548SOL    HW237481  10.603   7.369   0.366 -2.6015  1.2099  1.8892
10549SOL     OW37482   9.966   8.417   9.390 -0.5162 -0.4109 -0.1754
10549SOL    HW137483  10.034   8.378   9.446 -0.4991  0.7334  0.6338
10549SOL    HW237484   9.969   8.365   9.309  0.0399 -1.5582  0.5618
10550SOL     OW37485   0.350   4.044   1.568 -0.0025 -0.0331  0.7504
10550SOL    HW137486   0.437   4.074   1.543 -0.3859  1.5254  1.1835
10550SOL    HW237487   0.326   4.098   1.643 -1.5651 -0.0311  0.2937
10551SOL     OW37488   8.699   7.562   2.360 -0.1877  0.8858  0.0100
10551SOL    HW137489   8.742   7.641   2.326  2.2153  0.9982  2.8891
10551SOL    HW237490   8.671   7.587   2.448 -0.9268 -0.9771  0.3344
10552SOL     OW37491   7.503  10.715   4.810 -0.0262 -0.6867  0.3631
10552SOL    HW137492   7.419  10.670   4.813 -0.6140  0.4022  1.2775
10552SOL    HW237493   7.516  10.735   4.718 -1.5772  0.5218  0.3574
10553SOL     OW37494   3.111   7.127   2.548 -0.2657 -0.3721 -0.2026
10553SOL    HW137495   3.124   7.211   2.504  0.8434 -0.3886  0.0433
10553SOL    HW237496   3.042   7.084   2.499 -0.6539  0.5651 -0.5056
10554SOL     OW37497  10.245  10.077   4.812 -0.1974  0.3951  0.3816
10554SOL    HW137498  10.325  10.036   4.778 -0.8168 -0.7401  0.2756
10554SOL    HW237499  10.211  10.128   4.738  0.1766  0.5206  0.2919
10555SOL     OW37500   4.138   6.584   8.466  0.1658  0.1878  0.0737
10555SOL    HW137501   4.129   6.584   8.371 -0.3107 -1.0577  0.0989
10555SOL    HW237502   4.084   6.658   8.495 -1.1085 -0.4686 -0.5275
10556SOL     OW37503   9.999   2.512   0.966 -0.2290 -0.6598  0.7111
10556SOL    HW137504  10.061   2.464   1.020 -1.5309 -2.2272  0.8925
10556SOL    HW237505   9.929   2.538   1.026  0.6559  2.0202  0.7300
10557SOL     OW37506   0.202   1.725   1.782 -0.5306 -0.3127 -0.0475
10557SOL    HW137507   0.265   1.700   1.714  0.6610 -0.0021  0.9000
10557SOL    HW237508   0.217   1.662   1.853  0.6506  1.3546  1.2888
10558SOL     OW37509   8.796   2.158   5.388 -0.7062 -0.4350  0.5212
10558SOL    HW137510   8.710   2.174   5.427 -2.2483 -1.5030 -2.1789
10558SOL    HW237511   8.778   2.148   5.294  2.6535  1.4003 -0.4726
10559SOL     OW37512   6.687   1.513   4.270  0.3524 -0.3734  0.2153
10559SOL    HW137513   6.709   1.427   4.305  1.5280 -0.2657 -0.1992
10559SOL    HW237514   6.733   1.516   4.186  0.2521  0.6227  0.1893
10560SOL     OW37515  10.291   0.310   9.753  0.1961 -0.6682 -0.1136
10560SOL    HW137516  10.215   0.314   9.810  0.9096 -0.6733  0.8693
10560SOL    HW237517  10.291   0.394   9.706  0.6480  0.1716  1.3200
10561SOL     OW37518   3.563   9.835  10.022  0.0755 -0.2947 -0.5121
10561SOL    HW137519   3.643   9.814  10.071  1.5293  0.5915 -2.3753
10561SOL    HW237520   3.494   9.841  10.089  1.2875 -2.2912  1.0279
10562SOL     OW37521   4.141   4.358  10.405 -0.1133  0.1805  0.0779
10562SOL    HW137522   4.226   4.315  10.416 -0.5830 -0.5007  1.2576
10562SOL    HW237523   4.095   4.305  10.340  0.3725  0.5828 -0.6063
10563SOL     OW37524   6.288   7.333   8.663 -0.2593  0.4450 -0.3760
10563SOL    HW137525   6.290   7.356   8.570  3.3592 -2.1261 -1.1550
10563SOL    HW237526   6.344   7.399   8.705  1.5478 -0.7280 -0.8328
10564SOL     OW37527   6.583   5.747   4.745 -0.5791  0.5406  0.1104
10564SOL    HW137528   6.544   5.757   4.659  0.7171  2.1167 -0.3571
10564SOL    HW237529   6.631   5.665   4.741 -1.7916 -0.1705 -0.1258
10565SOL     OW37530   2.528   3.728   0.846  0.3676  0.0228 -0.1713
10565SOL    HW137531   2.489   3.783   0.913 -0.9504 -2.2820  1.0892
10565SOL    HW237532   2.609   3.695   0.886  0.2494 -0.3230 -0.2109
10566SOL     OW37533   5.978   2.992   3.076  0.4609  0.5794  0.0375
10566SOL    HW137534   6.011   2.983   3.165 -1.6914 -1.3178  0.7374
10566SOL    HW237535   6.026   2.928   3.025  1.2733  1.2550 -0.0699
10567SOL     OW37536   9.135   8.740   5.984  0.1610  0.1072 -0.4838
10567SOL    HW137537   9.189   8.661   5.998  0.2467  0.2090 -0.2297
10567SOL    HW237538   9.135   8.784   6.069 -0.9183 -0.2589 -0.2706
10568SOL     OW37539   0.511   3.124  10.456  0.7051  0.0637  0.3621
10568SOL    HW137540   0.452   3.132  10.381  0.3544  2.5067  0.8358
10568SOL    HW237541   0.598   3.123  10.417  0.4722 -1.4262 -0.2024
10569SOL     OW37542   2.638   4.714   4.013 -0.0070  0.4162 -0.4578
10569SOL    HW137543   2.682   4.755   4.087  1.0813 -1.1128 -0.2228
10569SOL    HW237544   2.666   4.765   3.937  0.2307  0.9337 -0.0265
10570SOL     OW37545   5.850   0.371   4.855 -0.1953 -0.1956 -0.4276
10570SOL    HW137546   5.865   0.305   4.923 -1.1337 -0.3253 -0.3404
10570SOL    HW237547   5.898   0.338   4.779 -0.3450 -0.7892 -0.2687
10571SOL     OW37548   6.662  10.666   5.892  0.0649 -0.0007  0.3444
10571SOL    HW137549   6.657  10.593   5.954 -1.1460  0.3611  0.6783
10571SOL    HW237550   6.633  10.742   5.941 -1.3758  0.2087 -0.7873
10572SOL     OW37551   6.275  10.317   8.418  0.8170 -0.0150  0.1768
10572SOL    HW137552   6.267  10.247   8.354  1.1790 -1.6203  1.7973
10572SOL    HW237553   6.185  10.340   8.441  0.6965 -0.5391  0.2363
10573SOL     OW37554   5.545   0.201   5.913 -0.7321  0.3421 -0.3122
10573SOL    HW137555   5.622   0.175   5.963 -0.2983 -0.1035 -1.1758
10573SOL    HW237556   5.580   0.231   5.829 -1.3897  1.6944 -0.1332
10574SOL     OW37557   2.168   1.489   6.126 -0.6687  0.0027 -0.5732
10574SOL    HW137558   2.144   1.397   6.121  2.4537 -0.8711 -2.6634
10574SOL    HW237559   2.223   1.496   6.204 -1.2230  0.2240 -0.1935
10575SOL     OW37560   4.267   8.289   2.272  0.9261  0.5835 -0.6510
10575SOL    HW137561   4.238   8.238   2.196 -3.1044  0.4647  0.7668
10575SOL    HW237562   4.257   8.380   2.244 -0.7819  0.5421 -0.2653
10576SOL     OW37563   9.592   1.480   7.126  0.6550 -0.3463  0.2720
10576SOL    HW137564   9.513   1.518   7.088  1.3833  0.3424 -0.5899
10576SOL    HW237565   9.590   1.509   7.217  0.0693 -0.0731  0.1788
10577SOL     OW37566  10.492   1.567   5.345  0.3946  0.1658  0.3913
10577SOL    HW137567  10.538   1.584   5.264  1.0846 -1.5698  0.3644
10577SOL    HW237568  10.529   1.484   5.377 -0.3084  0.4682  2.1391
10578SOL     OW37569  10.267   1.889   7.551  0.1185  0.6012 -0.6072
10578SOL    HW137570  10.335   1.923   7.608  0.1675  2.0365 -1.4551
10578SOL    HW237571  10.259   1.955   7.481 -1.7843  0.2495 -0.7938
10579SOL     OW37572   7.796   4.429   4.012 -0.2411 -0.1634 -0.7538
10579SOL    HW137573   7.805   4.524   4.019  1.0205 -0.3810  1.3626
10579SOL    HW237574   7.707   4.416   3.982 -0.2788  1.6900 -1.6210
10580SOL     OW37575   7.217   4.911   2.205 -0.5555 -0.0435  0.0015
10580SOL    HW137576   7.184   4.914   2.295  0.4806 -0.5052  0.4114
10580SOL    HW237577   7.312   4.914   2.214 -0.2882 -2.9273 -0.8894
10581SOL     OW37578   2.932   8.100   9.634 -0.2887  0.0788  0.0384
10581SOL    HW137579   2.957   8.058   9.716 -0.3605 -0.0297  0.0054
10581SOL    HW237580   2.939   8.031   9.568 -0.4773  0.0978 -0.0041
10582SOL     OW37581   1.958   6.217   2.515  1.0688  0.5681  0.2538
10582SOL    HW137582   1.926   6.262   2.436  0.1071 -1.5122 -0.6388
10582SOL    HW237583   1.888   6.230   2.579  0.0305 -0.8353 -0.5062
10583SOL     OW37584   2.876   3.763   6.908 -0.1941 -0.0630 -0.7203
10583SOL    HW137585   2.816   3.741   6.979  0.9343  0.9310  0.5752
10583SOL    HW237586   2.929   3.684   6.897  0.3773  0.1560  0.3435
10584SOL     OW37587   5.462   1.883   3.825 -0.3374  0.2404 -0.1474
10584SOL    HW137588   5.402   1.855   3.894  0.3751 -0.3126  0.2660
10584SOL    HW237589   5.463   1.810   3.763  0.3654 -0.0248  0.1615
10585SOL     OW37590   8.712   4.599   1.165  0.2470  0.2611 -0.1847
10585SOL    HW137591   8.743   4.510   1.152 -0.6857  0.0480 -1.0760
10585SOL    HW237592   8.667   4.621   1.084  1.3805  1.9477 -0.4208
10586SOL     OW37593   6.857   6.225   8.750  0.0022  0.5780  0.8202
10586SOL    HW137594   6.891   6.313   8.762  0.7604  0.3181  0.6327
10586SOL    HW237595   6.888   6.176   8.826 -0.2736  0.4269  0.8386
10587SOL     OW37596  10.340   6.825   1.435 -0.4142 -0.4607 -0.1923
10587SOL    HW137597  10.354   6.916   1.408  2.0145 -0.4189  0.9813
10587SOL    HW237598  10.322   6.778   1.354 -2.6799  1.1743 -0.7294
10588SOL     OW37599   4.903   9.653   3.026 -0.0580 -0.2371  0.4503
10588SOL    HW137600   4.966   9.724   3.018 -0.9880  0.6360  0.6203
10588SOL    HW237601   4.954   9.578   3.056  1.2526 -0.1270 -1.3189
10589SOL     OW37602   6.630   1.486   6.575  0.0446  0.6146  0.6101
10589SOL    HW137603   6.675   1.497   6.659 -1.6526 -0.0601  1.6715
10589SOL    HW237604   6.634   1.573   6.535  2.2338  0.5720  0.6333
10590SOL     OW37605   5.064   5.782   2.532 -0.1201 -0.2495  0.0768
10590SOL    HW137606   5.012   5.831   2.595  0.9331  0.5052  0.3911
10590SOL    HW237607   5.124   5.731   2.585  2.4855  2.2563 -0.2225
10591SOL     OW37608   3.990   7.894   2.231 -0.4965 -0.2022  0.3440
10591SOL    HW137609   3.931   7.900   2.155 -2.4928 -1.3733  1.7162
10591SOL    HW237610   3.971   7.973   2.282  2.2723  1.6410 -1.2106
10592SOL     OW37611   2.802   3.388   9.107 -0.0930 -0.3043 -0.1584
10592SOL    HW137612   2.817   3.370   9.014 -1.6488 -2.3667 -0.0693
10592SOL    HW237613   2.884   3.362   9.150  0.1776 -0.5548 -0.8157
10593SOL     OW37614   9.659   0.367   2.062 -0.0873  0.0936 -0.2642
10593SOL    HW137615   9.747   0.330   2.054  1.2829  2.1067  3.1822
10593SOL    HW237616   9.609   0.300   2.109  0.3300 -0.0619 -0.0425
10594SOL     OW37617   5.633   0.460   8.212  0.2587 -0.1096 -1.1555
10594SOL    HW137618   5.690   0.482   8.139  1.1170 -2.0042 -1.1087
10594SOL    HW237619   5.692   0.426   8.279 -0.2932  2.8888  1.0834
10595SOL     OW37620   5.802  10.337   6.977  0.4392 -0.7439 -0.0992
10595SOL    HW137621   5.821  10.430   6.967  0.6856 -0.8241 -0.3594
10595SOL    HW237622   5.883  10.293   6.954  0.0229 -1.0730 -0.9710
10596SOL     OW37623   5.494   3.583   6.973 -0.1779 -0.8752 -0.0836
10596SOL    HW137624   5.448   3.500   6.967  1.0694 -1.6899  0.9963
10596SOL    HW237625   5.458   3.626   7.051  0.9055 -1.5660  0.8309
10597SOL     OW37626   5.722   7.404   0.832 -0.4592 -0.1546 -0.0399
10597SOL    HW137627   5.778   7.452   0.770  0.9592  0.6462  1.7553
10597SOL    HW237628   5.692   7.471   0.893  0.4897 -1.3140  1.7619
10598SOL     OW37629   1.676   0.276   7.501  0.0466 -0.2006  0.3139
10598SOL    HW137630   1.625   0.200   7.475  1.5036 -0.9005 -0.6466
10598SOL    HW237631   1.694   0.263   7.594 -0.7059 -0.4202  0.4314
10599SOL     OW37632   3.049   7.730   8.176 -0.1707  0.7566 -0.0764
10599SOL    HW137633   3.120   7.731   8.112 -0.9612  0.5306 -0.9720
10599SOL    HW237634   3.016   7.640   8.175 -0.7488  0.9616  0.0172
10600SOL     OW37635   1.295   9.671   2.523 -0.9107 -0.2175 -0.0636
10600SOL    HW137636   1.241   9.719   2.586 -0.8181 -0.9418  0.5805
10600SOL    HW237637   1.385   9.696   2.544 -0.9470  0.7528 -0.9418
10601SOL     OW37638  10.701   7.968   8.427 -0.0220 -0.2761 -0.2919
10601SOL    HW137639  10.746   7.984   8.510 -1.0776  1.1056  0.0587
10601SOL    HW237640  10.632   7.905   8.448  1.4201 -2.0946 -0.7497
10602SOL     OW37641   9.471   0.025   1.226  0.2967  0.2727  0.3793
10602SOL    HW137642   9.430  -0.055   1.194 -1.7352  1.4515 -0.1428
10602SOL    HW237643   9.461   0.021   1.321 -2.4397  1.1481  0.2162
10603SOL     OW37644   5.031   9.090   1.060  0.3122  0.9085  0.2850
10603SOL    HW137645   4.996   9.047   0.981 -1.4126 -1.0150  1.9801
10603SOL    HW237646   4.954   9.102   1.116  1.6051  1.5222  2.0013
10604SOL     OW37647   6.998   2.146   0.933  0.3900  0.1957  0.2125
10604SOL    HW137648   6.913   2.164   0.973  0.8356 -1.0474  1.7849
10604SOL    HW237649   7.061   2.190   0.989  0.8751  0.3078 -0.4046
10605SOL     OW37650  10.543   3.858   7.462 -0.1009 -0.0883 -0.4487
10605SOL    HW137651  10.564   3.765   7.452  0.2621  0.0160 -0.6779
10605SOL    HW237652  10.608   3.903   7.408 -0.2626  0.3002 -0.3215
10606SOL     OW37653   8.348   9.415   2.246 -1.1611  0.1034  0.1834
10606SOL    HW137654   8.401   9.441   2.171 -2.2291  0.3775 -0.4877
10606SOL    HW237655   8.384   9.467   2.319  0.2516 -0.5890  0.0156
10607SOL     OW37656   9.289   4.350   2.322  0.3395  0.0161 -0.1143
10607SOL    HW137657   9.331   4.436   2.321  0.1861  0.1089  0.5848
10607SOL    HW237658   9.196   4.368   2.315  0.3779 -0.1772 -1.3808
10608SOL     OW37659   1.585   9.844   1.117 -0.0845  0.2668 -0.3071
10608SOL    HW137660   1.647   9.833   1.188  1.7188 -2.6809 -2.1236
10608SOL    HW237661   1.629   9.902   1.055 -0.3071  0.3089 -0.4291
10609SOL     OW37662   8.308  10.447   6.247 -0.1458 -0.5576  0.0783
10609SOL    HW137663   8.300  10.434   6.341 -0.1585  0.4717  0.2367
10609SOL    HW237664   8.304  10.542   6.236  2.3171 -0.4764 -0.7133
10610SOL     OW37665   0.748   1.469   2.819 -0.1136 -1.1100  0.0262
10610SOL    HW137666   0.774   1.537   2.882  1.0702  2.5773 -3.9019
10610SOL    HW237667   0.653   1.475   2.815  0.0027  2.2597 -1.7525
10611SOL     OW37668   1.752   5.612   0.561  0.2965  0.4197 -0.4886
10611SOL    HW137669   1.695   5.561   0.618  2.1576 -0.8052  0.3835
10611SOL    HW237670   1.778   5.688   0.613 -0.3260  0.8456 -0.7934
10612SOL     OW37671   0.048   1.140   6.863  0.5685  0.2075  0.1648
10612SOL    HW137672  -0.016   1.211   6.871  2.3077  1.7305  1.8944
10612SOL    HW237673   0.115   1.175   6.805 -0.9746 -2.1739 -3.4333
10613SOL     OW37674   7.135   1.378   5.268  0.3237  0.4184 -0.3304
10613SOL    HW137675   7.113   1.432   5.191  0.5361  0.6003 -0.2678
10613SOL    HW237676   7.112   1.289   5.242  0.3963  0.4772 -0.6113
10614SOL     OW37677   1.384   4.233   3.628  0.0824  0.1717 -1.0186
10614SOL    HW137678   1.352   4.253   3.716 -0.9648 -2.3457 -0.7277
10614SOL    HW237679   1.478   4.221   3.638  0.0132  0.2207 -0.3069
10615SOL     OW37680   3.675   6.920   9.032  0.1173 -0.7311 -0.3524
10615SOL    HW137681   3.707   6.959   9.114 -0.3089 -0.2478 -0.4125
10615SOL    HW237682   3.742   6.943   8.967  1.2340 -2.3969  0.1406
10616SOL     OW37683   3.668   5.643   6.690  0.1045 -0.6711 -0.1596
10616SOL    HW137684   3.574   5.629   6.678 -0.0760 -0.9134  1.3255
10616SOL    HW237685   3.700   5.562   6.730  0.6464 -0.0209  0.7653
10617SOL     OW37686   4.800   2.829  10.393  0.0005 -0.0917  0.1091
10617SOL    HW137687   4.801   2.924  10.391  1.6135 -0.0792 -1.2937
10617SOL    HW237688   4.857   2.806  10.466 -1.2288 -0.0041  1.1107
10618SOL     OW37689   8.167   3.473   3.548  0.0321 -0.2490  0.1599
10618SOL    HW137690   8.102   3.413   3.585  0.9887 -0.7623  1.0562
10618SOL    HW237691   8.118   3.553   3.531 -1.6108 -1.6693 -2.3680
10619SOL     OW37692   6.404   1.441   9.855 -0.6427  0.3879 -0.0210
10619SOL    HW137693   6.486   1.474   9.892 -0.1314 -0.4518 -0.3828
10619SOL    HW237694   6.375   1.509   9.795  0.2081  0.3444 -0.4911
10620SOL     OW37695   5.709   3.710   1.283  0.2722 -0.0477 -0.1519
10620SOL    HW137696   5.698   3.801   1.256  0.0779 -0.0613 -0.1188
10620SOL    HW237697   5.794   3.708   1.328  0.5386  0.0011 -0.6435
10621SOL     OW37698   9.935   2.921   8.759 -0.1394 -0.4892 -0.1225
10621SOL    HW137699   9.962   2.976   8.685 -1.8912 -0.6633 -0.9341
10621SOL    HW237700   9.892   2.846   8.719  1.9456 -2.3842  0.9888
10622SOL     OW37701   3.177  10.197   0.064  0.2465  0.0540  0.3137
10622SOL    HW137702   3.239  10.257   0.106  0.6339  0.1636 -0.3895
10622SOL    HW237703   3.102  10.195   0.122  0.2604  1.1591  0.3905
10623SOL     OW37704   6.767  10.003   1.783 -0.4004  0.0692 -0.5030
10623SOL    HW137705   6.711   9.928   1.805 -0.7872  0.5598  0.2097
10623SOL    HW237706   6.720  10.079   1.816  0.0956  0.6157 -1.0271
10624SOL     OW37707   9.159   1.706   5.123  0.5740  0.1382 -0.0360
10624SOL    HW137708   9.166   1.743   5.035  0.1401 -1.7648 -0.9245
10624SOL    HW237709   9.087   1.643   5.117 -0.6694  1.2203  2.1805
10625SOL     OW37710  10.235   6.120   9.551  0.1827 -0.0573 -0.1990
10625SOL    HW137711  10.199   6.037   9.518 -0.3808  0.0929  0.0275
10625SOL    HW237712  10.292   6.093   9.623  0.9547 -0.3383 -0.9003
10626SOL     OW37713   3.752   2.928   0.631 -0.1263 -0.1980  0.4626
10626SOL    HW137714   3.796   2.845   0.649  1.3432  0.4266 -0.0576
10626SOL    HW237715   3.821   2.994   0.641 -1.0939  0.8881  0.1624
10627SOL     OW37716   8.436   5.748  10.187  0.2199  0.2885 -0.3469
10627SOL    HW137717   8.343   5.728  10.183  0.0161  0.7684  1.2156
10627SOL    HW237718   8.474   5.703  10.112 -1.6267  2.3150 -2.6611
10628SOL     OW37719   5.432   0.522   8.729 -0.5797 -0.6768 -0.3395
10628SOL    HW137720   5.384   0.458   8.781  0.1212 -0.3663  0.7194
10628SOL    HW237721   5.475   0.471   8.661  0.9814 -1.5444  1.2348
10629SOL     OW37722   0.953   7.750   5.473 -0.6698 -0.2489 -0.2847
10629SOL    HW137723   1.027   7.700   5.508 -0.5743  0.7604  1.0406
10629SOL    HW237724   0.957   7.736   5.379  2.3680  1.2584 -0.5040
10630SOL     OW37725   2.881   6.615   8.505 -0.0112  0.4783  0.5105
10630SOL    HW137726   2.869   6.650   8.593 -1.1986 -1.0280  0.9929
10630SOL    HW237727   2.921   6.529   8.518 -0.0397  0.3083 -0.4223
10631SOL     OW37728   7.505   5.684   0.653  0.3177  0.0620 -0.5393
10631SOL    HW137729   7.541   5.624   0.587 -0.9932 -2.7460  1.1044
10631SOL    HW237730   7.513   5.637   0.736  0.5425  2.8539  1.1468
10632SOL     OW37731   4.837   0.859   0.996 -0.4120 -0.1626 -0.7795
10632SOL    HW137732   4.825   0.943   1.040  0.7360 -0.5117  0.2728
10632SOL    HW237733   4.919   0.870   0.948  0.6474 -1.1787  0.7082
10633SOL     OW37734   8.610   6.684   4.506  0.9797  0.1665  0.2507
10633SOL    HW137735   8.616   6.614   4.571 -0.8126  0.6722  1.0411
10633SOL    HW237736   8.608   6.639   4.422 -1.0144 -0.8700  0.7755
10634SOL     OW37737   9.751   3.766   6.278 -0.2221 -0.0009  0.1914
10634SOL    HW137738   9.791   3.694   6.326 -0.9224  0.4215  1.4451
10634SOL    HW237739   9.812   3.784   6.207  0.8149 -0.6749  0.8828
10635SOL     OW37740   7.668   2.358   1.944  0.4461  0.4660  0.4716
10635SOL    HW137741   7.705   2.375   1.858  0.4746  0.0188  0.3908
10635SOL    HW237742   7.702   2.428   1.999  3.2657 -1.1056  0.9455
10636SOL     OW37743   2.697   8.934   1.874  0.0009  0.2868 -0.1648
10636SOL    HW137744   2.770   8.977   1.917  0.4098  0.2831 -0.8330
10636SOL    HW237745   2.736   8.855   1.835 -0.9901 -1.5420  2.2767
10637SOL     OW37746   5.581   6.608   9.794  0.0001 -0.2543  0.2596
10637SOL    HW137747   5.580   6.560   9.877  0.2534  0.5826  0.7607
10637SOL    HW237748   5.494   6.648   9.789 -0.3206 -1.0126 -0.3097
10638SOL     OW37749   0.943   3.115   1.109  0.3651 -0.4377  0.2648
10638SOL    HW137750   0.918   3.091   1.020 -0.8068 -2.0908  0.9883
10638SOL    HW237751   0.982   3.202   1.100 -1.3326  0.2261 -1.6328
10639SOL     OW37752   5.891   8.570   0.742  0.3167 -0.3413  0.8754
10639SOL    HW137753   5.874   8.575   0.648 -0.3386  1.1527  1.0370
10639SOL    HW237754   5.862   8.655   0.776  2.1083 -0.1938  2.1815
10640SOL     OW37755   3.207   8.899   2.567  0.5827 -0.4034  0.2396
10640SOL    HW137756   3.201   8.832   2.635  1.2654 -0.9074 -0.1878
10640SOL    HW237757   3.160   8.974   2.604 -0.0401 -1.0472  0.7957
10641SOL     OW37758   1.333   3.446   4.781 -0.2056 -0.3608 -0.1500
10641SOL    HW137759   1.384   3.442   4.699 -0.7304  1.9357 -0.6597
10641SOL    HW237760   1.242   3.447   4.753 -0.4432 -1.1350  0.5702
10642SOL     OW37761   8.284   1.677   2.663 -0.0156 -0.0476 -0.1372
10642SOL    HW137762   8.217   1.743   2.678  0.2148  0.2362 -0.3498
10642SOL    HW237763   8.355   1.724   2.619  0.6739 -0.1715  0.8281
10643SOL     OW37764   6.203   2.756   8.730 -0.2110  0.0057 -0.1356
10643SOL    HW137765   6.271   2.806   8.776 -0.3799 -0.2939  0.4525
10643SOL    HW237766   6.215   2.779   8.638  2.0455 -1.6005 -0.3452
10644SOL     OW37767   2.307   6.329   9.639 -0.2503 -0.4084 -0.0922
10644SOL    HW137768   2.388   6.338   9.690  0.6420 -1.5622 -1.2442
10644SOL    HW237769   2.243   6.295   9.702  0.3677 -0.2193  0.6523
10645SOL     OW37770   5.387   7.192   6.475  0.2304 -0.4221 -0.1249
10645SOL    HW137771   5.333   7.117   6.453  2.4556 -3.0333  2.4250
10645SOL    HW237772   5.376   7.204   6.570  1.9119  0.7685 -0.0151
10646SOL     OW37773   5.682   8.101   3.736 -0.0835 -0.0263 -0.0276
10646SOL    HW137774   5.757   8.151   3.704 -0.8600  0.9499 -0.3850
10646SOL    HW237775   5.687   8.109   3.831 -0.3433  0.9992 -0.0843
10647SOL     OW37776   2.576   8.274   7.686  0.6398 -0.3052  0.7323
10647SOL    HW137777   2.512   8.232   7.742  2.6262 -1.5419  2.2140
10647SOL    HW237778   2.619   8.202   7.640  0.2980  0.5658 -1.0402
10648SOL     OW37779   6.928   0.559   7.221 -0.2769  0.4326  0.0131
10648SOL    HW137780   6.969   0.606   7.294  2.2566 -2.2224  0.4773
10648SOL    HW237781   6.951   0.468   7.235 -4.5052 -1.0504 -1.1065
10649SOL     OW37782   5.086   5.319   1.385  0.0980 -0.2609  0.1088
10649SOL    HW137783   5.059   5.231   1.360 -0.2048  0.2036 -1.2736
10649SOL    HW237784   5.160   5.306   1.444 -0.2208 -1.4387  0.2738
10650SOL     OW37785   0.157   2.631   9.161 -0.4162  0.6942 -0.2186
10650SOL    HW137786   0.062   2.641   9.169 -0.4145 -0.4321  2.4907
10650SOL    HW237787   0.190   2.650   9.249  1.8204  0.4280 -0.9325
10651SOL     OW37788   5.336   5.736   9.989 -0.1795 -0.0747 -0.3119
10651SOL    HW137789   5.311   5.819   9.948  0.7989 -0.0254 -0.8422
10651SOL    HW237790   5.430   5.727   9.970 -0.6493 -2.3007 -2.1352
10652SOL     OW37791  10.222   9.433  10.593 -0.0602  0.8809  0.0806
10652SOL    HW137792  10.154   9.499  10.579 -0.3960  0.4687 -0.2471
10652SOL    HW237793  10.304   9.479  10.575 -0.3927  0.6815 -2.2108
10653SOL     OW37794   4.033   6.664   3.471 -0.2584 -0.6498 -1.0847
10653SOL    HW137795   4.029   6.709   3.387  1.0222  0.3237 -0.6502
10653SOL    HW237796   4.120   6.625   3.474  1.3814  2.6806  1.3682
10654SOL     OW37797   4.607   7.574   3.338  0.0676 -0.3695 -0.6315
10654SOL    HW137798   4.613   7.636   3.266 -0.6648 -1.1455 -1.3822
10654SOL    HW237799   4.668   7.504   3.315 -1.4719 -1.5097 -1.4466
10655SOL     OW37800   5.074   7.736   8.648 -0.1802  0.3412 -0.0199
10655SOL    HW137801   5.034   7.666   8.597  0.7113  0.8517 -1.4795
10655SOL    HW237802   5.023   7.814   8.627  1.1936  0.8892 -1.4851
10656SOL     OW37803   6.411   6.664   2.623 -0.4332 -0.0459 -0.4227
10656SOL    HW137804   6.409   6.604   2.697 -1.4586 -0.2713 -0.6097
10656SOL    HW237805   6.441   6.611   2.549  1.2410  0.3407 -0.0593
10657SOL     OW37806   2.512   3.472   0.163  0.3110  0.0471  0.2127
10657SOL    HW137807   2.508   3.423   0.245  1.8315 -1.0970 -0.3305
10657SOL    HW237808   2.575   3.542   0.180 -1.2785  1.3875  0.7533
10658SOL     OW37809   1.105   4.729   9.083  0.0765  0.4695  0.1817
10658SOL    HW137810   1.108   4.638   9.054  0.2276  0.5989 -0.2167
10658SOL    HW237811   1.061   4.776   9.011  2.0435  1.0972 -0.6855
10659SOL     OW37812  10.041   8.366   0.456  0.0550  0.4081  0.1942
10659SOL    HW137813   9.968   8.357   0.517 -0.6901  1.8261 -0.4395
10659SOL    HW237814  10.008   8.332   0.373 -0.2532  1.8768 -0.3296
10660SOL     OW37815   0.373   0.277   0.587 -0.3994  0.1908 -0.1466
10660SOL    HW137816   0.313   0.225   0.533 -0.4834  0.0656  0.0659
10660SOL    HW237817   0.451   0.287   0.532 -0.2829 -0.3814 -0.0886
10661SOL     OW37818   1.383  10.210   7.382  0.5792 -0.1387  0.5152
10661SOL    HW137819   1.333  10.214   7.300  0.4318  3.7135  0.6062
10661SOL    HW237820   1.320  10.178   7.446 -0.7720  1.1689 -0.0809
10662SOL     OW37821   7.967   0.270   2.548  0.0071  0.6120  0.5054
10662SOL    HW137822   8.051   0.224   2.539  0.5641  1.6277  0.4249
10662SOL    HW237823   7.912   0.232   2.480  0.7044  0.5845 -0.0632
10663SOL     OW37824   8.715   1.234   4.964  0.1081 -0.1101  0.4347
10663SOL    HW137825   8.636   1.270   5.005  0.6090  0.3206  1.0559
10663SOL    HW237826   8.755   1.309   4.920  0.2455 -0.2886  0.2557
10664SOL     OW37827  10.053  10.147   7.438  0.6423 -0.3861  0.4092
10664SOL    HW137828  10.107  10.106   7.506  0.6853  0.0799  0.6575
10664SOL    HW237829   9.985  10.081   7.419 -0.1679 -0.0064  1.8639
10665SOL     OW37830   5.235   8.267   7.731 -0.0250 -0.1218  0.0565
10665SOL    HW137831   5.296   8.279   7.803 -0.6208 -1.0294  0.7285
10665SOL    HW237832   5.264   8.187   7.688 -1.7629 -1.6159  1.4915
10666SOL     OW37833  10.149   3.613   2.788  0.1713 -0.8476  0.3241
10666SOL    HW137834  10.212   3.578   2.851  0.6039 -0.5055  0.0882
10666SOL    HW237835  10.201   3.672   2.732 -0.0893 -1.5212 -0.6624
10667SOL     OW37836   9.429   5.930  10.335  0.3541  0.0497  0.2218
10667SOL    HW137837   9.375   5.976  10.399  0.7721  3.1361 -1.4916
10667SOL    HW237838   9.519   5.941  10.366  0.4661  0.4423 -0.2450
10668SOL     OW37839   9.196   8.062   9.579  0.0450  0.8584  0.8835
10668SOL    HW137840   9.128   8.044   9.515  0.2741  0.1639  0.8310
10668SOL    HW237841   9.214   8.156   9.570 -1.9203  1.3743  1.9000
10669SOL     OW37842   6.418   8.258   1.150 -0.0026 -0.0098 -0.1415
10669SOL    HW137843   6.447   8.183   1.098 -0.5843  0.1043 -0.6391
10669SOL    HW237844   6.462   8.334   1.110  1.6528 -0.2132  1.1846
10670SOL     OW37845   8.201   2.047   3.690 -0.1031 -0.0589 -0.0131
10670SOL    HW137846   8.140   2.057   3.617 -0.4143 -0.6961  0.1511
10670SOL    HW237847   8.286   2.029   3.648 -0.0836  0.5483 -0.2348
10671SOL     OW37848  10.662   4.917   2.061 -0.1769 -0.0383  0.0317
10671SOL    HW137849  10.654   4.985   1.994 -2.0589 -0.9313 -0.7183
10671SOL    HW237850  10.600   4.943   2.129 -1.3678 -1.2687 -0.5373
10672SOL     OW37851   7.266   3.383   9.105  0.0261 -0.0697 -0.3027
10672SOL    HW137852   7.309   3.434   9.174 -0.1942  2.3091 -1.8060
10672SOL    HW237853   7.331   3.381   9.034 -0.5331 -0.6791 -0.8035
10673SOL     OW37854   6.520   7.312   0.168 -0.2612 -0.3210 -0.4091
10673SOL    HW137855   6.602   7.346   0.132 -0.3529  0.5857  0.1849
10673SOL    HW237856   6.452   7.354   0.116 -0.3611 -1.3342 -1.1244
10674SOL     OW37857   6.810   4.960   8.154 -0.7290  0.4171 -0.3961
10674SOL    HW137858   6.824   5.005   8.238 -1.3367 -1.2186  0.6241
10674SOL    HW237859   6.717   4.972   8.135 -0.4891  1.2453 -1.1563
10675SOL     OW37860   6.943   2.335   5.358 -0.8777 -0.1223  0.4060
10675SOL    HW137861   6.950   2.269   5.289  0.9834  1.0178 -0.5848
10675SOL    HW237862   6.966   2.289   5.439  0.5220 -0.6810 -0.2815
10676SOL     OW37863   8.569   1.144   7.489 -0.6627  0.7693 -0.0601
10676SOL    HW137864   8.590   1.166   7.580 -0.7418  1.1734 -0.1372
10676SOL    HW237865   8.635   1.190   7.438  1.5385 -2.1236 -0.0890
10677SOL     OW37866   8.086   6.421   1.159  0.1395  0.2501  0.2516
10677SOL    HW137867   8.045   6.353   1.106 -0.3887  1.0253 -0.3399
10677SOL    HW237868   8.106   6.492   1.098  1.4200  0.3249  0.7104
10678SOL     OW37869   6.292   2.099   8.137  0.2579 -0.1363 -0.4861
10678SOL    HW137870   6.224   2.066   8.078  0.2611 -0.1532 -0.4807
10678SOL    HW237871   6.245   2.147   8.205  0.2406 -0.2731 -0.4006
10679SOL     OW37872  10.286   8.534  10.030 -0.0410 -0.2719 -0.2609
10679SOL    HW137873  10.246   8.621  10.035  1.2284  0.2967  0.3988
10679SOL    HW237874  10.380   8.551  10.019  0.1348 -1.5660 -1.0414
10680SOL     OW37875  10.082   5.338   0.460  0.9576 -0.6368  0.7150
10680SOL    HW137876  10.031   5.419   0.448 -0.4368 -1.3496  1.5687
10680SOL    HW237877  10.057   5.307   0.547  1.6496 -1.8753  0.4904
10681SOL     OW37878  10.448   4.201   2.945  0.2048 -0.5004 -1.1741
10681SOL    HW137879  10.376   4.231   2.889 -0.6205  0.2766  0.2549
10681SOL    HW237880  10.526   4.239   2.905 -0.4016  0.3212 -1.6239
10682SOL     OW37881   8.841   4.103   2.173 -0.4995 -0.2108  0.1146
10682SOL    HW137882   8.803   4.026   2.132  0.3095  0.8571 -2.9017
10682SOL    HW237883   8.775   4.172   2.161  0.0775  0.3113 -0.1483
10683SOL     OW37884   8.395   9.382   5.133  0.4681  0.1420  0.1236
10683SOL    HW137885   8.487   9.360   5.151  0.8962  0.3030 -1.6763
10683SOL    HW237886   8.363   9.307   5.083  0.2528  1.0236 -1.0857
10684SOL     OW37887   4.523   4.451   3.507  0.5691  0.0316  0.0117
10684SOL    HW137888   4.582   4.379   3.488 -1.0672 -1.4071  0.1646
10684SOL    HW237889   4.553   4.485   3.591  2.1092  0.3612 -0.6484
10685SOL     OW37890   0.292   9.495   2.076 -0.0981  0.1057 -0.1963
10685SOL    HW137891   0.282   9.502   2.171 -0.9834 -1.1323 -0.1708
10685SOL    HW237892   0.297   9.586   2.046 -2.6826  0.6512  0.7769
10686SOL     OW37893   8.433   6.740   9.926  0.1337 -0.5467 -0.2803
10686SOL    HW137894   8.464   6.708  10.011  1.2859 -1.2150 -0.9156
10686SOL    HW237895   8.504   6.795   9.894  0.1523 -1.1049 -1.2378
10687SOL     OW37896   0.972   8.160   9.155  0.2305  0.3432 -0.2630
10687SOL    HW137897   0.917   8.135   9.080 -0.9027  0.0738  0.6399
10687SOL    HW237898   0.922   8.133   9.232  1.4973  0.3877  0.5963
10688SOL     OW37899   4.561   8.997   2.789  0.1335 -0.1744  0.2420
10688SOL    HW137900   4.584   8.984   2.881 -1.2406 -0.3926  0.5778
10688SOL    HW237901   4.564   9.092   2.778  0.4662 -0.1541  0.4578
10689SOL     OW37902   5.656   8.715   4.058 -0.0034 -0.5674 -0.3440
10689SOL    HW137903   5.742   8.756   4.053  0.0064 -0.2504  1.5876
10689SOL    HW237904   5.676   8.622   4.072 -0.0283 -1.1189 -3.3795
10690SOL     OW37905   1.808   3.951   2.181 -0.5270  0.0595 -0.4786
10690SOL    HW137906   1.718   3.940   2.150 -0.0774  1.3921 -2.4562
10690SOL    HW237907   1.854   3.875   2.148 -0.8211 -0.4288  0.2060
10691SOL     OW37908   7.216   6.993   0.407 -0.1070  0.8577 -0.7685
10691SOL    HW137909   7.143   6.973   0.466  1.2206  1.1572  1.0474
10691SOL    HW237910   7.239   6.908   0.369 -1.1066  0.6867 -1.0311
10692SOL     OW37911   8.711   3.074   4.888 -0.1522 -0.0070  0.7581
10692SOL    HW137912   8.745   2.984   4.888 -0.4716 -0.1538  1.9909
10692SOL    HW237913   8.644   3.075   4.820 -0.4733 -0.8358  1.0539
10693SOL     OW37914   1.314  10.678   1.721 -0.5402 -0.0288  0.3735
10693SOL    HW137915   1.340  10.766   1.692  0.3191 -0.3716  0.0565
10693SOL    HW237916   1.297  10.688   1.815  1.0142  0.1873  0.6700
10694SOL     OW37917   6.030   6.168   0.993 -0.0064 -0.2218  0.4420
10694SOL    HW137918   6.049   6.201   0.905 -1.2685  1.1406  0.6397
10694SOL    HW237919   6.079   6.226   1.052  0.6820 -1.0081  0.6582
10695SOL     OW37920   7.656   7.118   2.558 -0.0816 -0.2425 -0.3272
10695SOL    HW137921   7.684   7.096   2.469 -1.3439 -1.6185 -0.4238
10695SOL    HW237922   7.728   7.169   2.594  0.5970  0.0747 -2.0216
10696SOL     OW37923   1.274   8.712   2.237  0.8401  0.3399 -0.8102
10696SOL    HW137924   1.326   8.660   2.174 -0.6872  0.1619 -1.9864
10696SOL    HW237925   1.213   8.761   2.182  0.4989  1.4033  0.4729
10697SOL     OW37926   8.764   4.300   1.885 -0.4701 -0.0830 -0.2128
10697SOL    HW137927   8.752   4.206   1.870 -2.8463 -0.1620  1.6259
10697SOL    HW237928   8.677   4.337   1.874  0.3300  1.8615 -0.3745
10698SOL     OW37929   9.604   7.732   8.295 -0.6268  0.4626  0.0128
10698SOL    HW137930   9.549   7.705   8.368  0.8519 -2.8911  0.0496
10698SOL    HW237931   9.545   7.731   8.219 -1.0949 -1.1697  0.3596
10699SOL     OW37932   7.338   7.972   4.050  0.2055  0.0903  0.2715
10699SOL    HW137933   7.339   8.030   3.974  1.6773  1.0822  1.0062
10699SOL    HW237934   7.369   7.888   4.016  0.1377  0.3164 -0.3674
10700SOL     OW37935   2.415   5.744   7.169  0.1703 -0.1221 -0.7322
10700SOL    HW137936   2.341   5.795   7.202  0.0842  0.2349 -1.4694
10700SOL    HW237937   2.442   5.691   7.244 -1.4434 -0.9883 -0.7221
10701SOL     OW37938   2.161   8.091  10.318 -0.7434 -0.0839  0.5421
10701SOL    HW137939   2.096   8.023  10.300 -0.1729 -0.6743  0.6877
10701SOL    HW237940   2.115   8.173  10.301 -0.6697 -0.5380 -2.2313
10702SOL     OW37941   0.668   0.644   5.336 -0.0549 -0.3842  0.1446
10702SOL    HW137942   0.675   0.630   5.430 -2.8506 -0.2910  0.4657
10702SOL    HW237943   0.707   0.566   5.297  3.8866  0.8763  1.1752
10703SOL     OW37944   4.362   7.343   9.378  0.0808 -0.3251  0.5489
10703SOL    HW137945   4.387   7.369   9.467  1.3047 -1.4419  0.5648
10703SOL    HW237946   4.289   7.401   9.355  1.5005  1.8573  1.2304
10704SOL     OW37947   9.342   4.456   8.706 -0.1493  0.1316 -0.0321
10704SOL    HW137948   9.271   4.434   8.766  0.5609 -1.7057  0.1782
10704SOL    HW237949   9.297   4.473   8.623 -0.8951 -0.4101  0.2428
10705SOL     OW37950   9.232   6.885  10.662  0.3317  0.1135 -0.9031
10705SOL    HW137951   9.273   6.815  10.612  0.7403 -0.4723  0.2243
10705SOL    HW237952   9.296   6.908  10.729 -0.6750  0.0190  0.1226
10706SOL     OW37953   6.289   0.623   3.135  0.2169 -0.0084  0.2208
10706SOL    HW137954   6.305   0.586   3.049  0.2988  1.7210 -0.5434
10706SOL    HW237955   6.199   0.597   3.156 -0.3855  0.8625 -1.1188
10707SOL     OW37956   7.209   7.458   6.857 -0.0274 -0.2348  0.5935
10707SOL    HW137957   7.194   7.535   6.911  1.7475 -1.7160  3.4906
10707SOL    HW237958   7.148   7.392   6.891  0.0993 -0.7685 -0.1863
10708SOL     OW37959  10.275   3.093   7.435  0.1758  0.7727 -0.3183
10708SOL    HW137960  10.259   3.033   7.362 -0.6857  0.0789  0.4114
10708SOL    HW237961  10.192   3.095   7.483  0.9858  0.5065  1.1488
10709SOL     OW37962   4.523   4.653   5.663 -0.4367  0.7892  0.2042
10709SOL    HW137963   4.460   4.584   5.684 -0.5698  1.1095  0.8990
10709SOL    HW237964   4.475   4.712   5.605 -0.4715  0.5363 -0.0255
10710SOL     OW37965   7.033   2.373   8.981  0.0848 -0.1737  0.2634
10710SOL    HW137966   7.121   2.336   8.995  0.5149  0.6048 -0.2562
10710SOL    HW237967   7.050   2.461   8.948 -0.9053  0.0150  0.2331
10711SOL     OW37968   3.113   2.252   3.014 -0.2499  0.3919 -0.5542
10711SOL    HW137969   3.156   2.177   3.057  0.0708  0.7076 -0.3175
10711SOL    HW237970   3.185   2.312   2.994 -0.6553  1.2740  0.5377
10712SOL     OW37971   4.527   3.662   9.889  0.5552 -0.5063  0.1604
10712SOL    HW137972   4.602   3.626   9.936  1.1561  0.7268  0.1897
10712SOL    HW237973   4.526   3.755   9.913  0.5593  0.0541 -1.8201
10713SOL     OW37974   4.472   1.994   4.215 -0.1443  0.9124  0.3273
10713SOL    HW137975   4.501   1.970   4.127  1.3209 -0.9069  1.2245
10713SOL    HW237976   4.409   1.925   4.239  0.7790  0.3759  1.3126
10714SOL     OW37977   3.664   1.871   5.537 -0.2048  0.0820 -0.5115
10714SOL    HW137978   3.662   1.782   5.571  0.9584  0.1922 -0.1332
10714SOL    HW237979   3.580   1.881   5.491 -1.2429 -0.5177  1.1550
10715SOL     OW37980   1.529   4.076   5.599 -0.0856  0.4846  0.3067
10715SOL    HW137981   1.616   4.090   5.562  0.6817  0.8438  2.1502
10715SOL    HW237982   1.522   4.141   5.669 -1.8232  0.4074  0.2542
10716SOL     OW37983   7.557  10.599   0.950  0.0152  0.3861  0.7400
10716SOL    HW137984   7.523  10.575   0.864  3.1345 -5.7318  0.6286
10716SOL    HW237985   7.481  10.596   1.008 -1.3166 -1.8172 -0.9559
10717SOL     OW37986   0.281   5.273   1.465  0.1700 -0.0350 -0.3759
10717SOL    HW137987   0.194   5.249   1.497  0.8653 -0.2753  1.4133
10717SOL    HW237988   0.266   5.351   1.411 -1.1350 -0.0404 -0.0548
10718SOL     OW37989   7.647   0.659   0.514 -0.2210  0.7276 -0.5576
10718SOL    HW137990   7.709   0.717   0.558 -0.0138 -1.7638  2.8499
10718SOL    HW237991   7.582   0.638   0.581 -2.2638 -0.2769 -2.6872
10719SOL     OW37992   6.611   3.031   0.404  0.2935 -0.8964 -0.3598
10719SOL    HW137993   6.634   3.018   0.312  0.3764 -0.2281 -0.4355
10719SOL    HW237994   6.532   2.978   0.416  0.4758 -1.2614 -0.7231
10720SOL     OW37995   1.886   3.744   4.510  0.5881  0.0152 -0.0243
10720SOL    HW137996   1.870   3.814   4.447 -0.0261 -0.1567 -0.0602
10720SOL    HW237997   1.968   3.704   4.480 -0.6785 -1.3619 -1.9287
10721SOL     OW37998   6.314   7.002   4.970 -0.2809  0.1789  0.2819
10721SOL    HW137999   6.278   7.046   5.046 -1.2552 -1.9757  1.1605
10721SOL    HW238000   6.281   7.052   4.895 -0.0884  1.7735  1.2294
10722SOL     OW38001   3.178   9.024  10.558  0.1560 -0.2784 -0.0051
10722SOL    HW138002   3.113   9.089  10.528  1.1942  1.2542  0.8997
10722SOL    HW238003   3.133   8.975  10.626 -0.1109  0.7217  0.5663
10723SOL     OW38004   9.349   3.806   2.552 -0.3046 -0.4504 -0.5069
10723SOL    HW138005   9.349   3.750   2.474  0.1009  0.7368 -1.3885
10723SOL    HW238006   9.332   3.894   2.518  0.6654  0.2024  0.6478
10724SOL     OW38007   0.728  10.500   9.540  0.2872  0.6400 -0.2416
10724SOL    HW138008   0.822  10.496   9.519  0.5250  1.1383  0.6575
10724SOL    HW238009   0.724  10.481   9.634 -0.6271 -0.4830 -0.4975
10725SOL     OW38010   2.066   0.942   2.870 -0.0667 -0.3916 -0.5324
10725SOL    HW138011   2.060   0.885   2.947  0.6050 -0.0351 -0.2043
10725SOL    HW238012   2.022   0.894   2.801  0.1906 -1.1567 -0.1752
10726SOL     OW38013   3.754  10.257   3.780 -0.5792 -0.2332 -0.5882
10726SOL    HW138014   3.720  10.197   3.846  0.7056 -2.6040 -1.9320
10726SOL    HW238015   3.803  10.322   3.829  0.8235 -2.2497  0.8320
10727SOL     OW38016   3.934  10.579   6.594 -0.5384  0.0341 -0.5382
10727SOL    HW138017   3.865  10.624   6.642 -0.7824  0.5002 -1.3158
10727SOL    HW238018   3.971  10.646   6.536  2.5023  0.6130  1.8286
10728SOL     OW38019  10.378   1.343   9.418  0.5655  0.1569  0.8380
10728SOL    HW138020  10.317   1.391   9.363  0.6752 -0.9758 -0.3376
10728SOL    HW238021  10.438   1.409   9.452 -1.0001  1.2099  1.6157
10729SOL     OW38022   5.078   9.548   1.596  0.2759 -0.3835  0.1088
10729SOL    HW138023   5.095   9.479   1.661 -0.2569 -0.3365  0.3020
10729SOL    HW238024   5.028   9.614   1.644 -0.0245 -0.2939 -0.3228
10730SOL     OW38025   7.026   3.163   3.514  0.7960  0.0280  0.1745
10730SOL    HW138026   7.072   3.167   3.598  0.1996 -1.6694  0.6110
10730SOL    HW238027   6.959   3.096   3.525 -0.1386  0.6570 -1.2686
10731SOL     OW38028   8.216   7.762   8.625  0.0620 -0.2055 -0.0158
10731SOL    HW138029   8.138   7.728   8.582  1.0684 -2.6765 -0.0704
10731SOL    HW238030   8.191   7.849   8.656 -2.3092 -0.4538 -1.0395
10732SOL     OW38031   3.286   8.749   8.183 -0.2799 -0.0737 -0.3420
10732SOL    HW138032   3.348   8.742   8.255  0.3079 -1.5648 -0.9689
10732SOL    HW238033   3.202   8.721   8.220 -0.9106  2.8488  0.7765
10733SOL     OW38034   0.022   6.349   1.404  0.3220  0.1611  0.4119
10733SOL    HW138035  -0.036   6.388   1.470 -0.8974  0.9430 -1.0509
10733SOL    HW238036   0.106   6.337   1.449  0.0070  2.1736  1.6334
10734SOL     OW38037   8.480  10.230   8.842  0.5891 -0.4464 -0.0927
10734SOL    HW138038   8.479  10.138   8.869 -0.7747 -0.8480 -1.4054
10734SOL    HW238039   8.452  10.229   8.751 -0.3704  1.3458  0.1328
10735SOL     OW38040   0.571   2.245   4.499  0.8149  0.0648 -0.0316
10735SOL    HW138041   0.534   2.239   4.411  0.2712  0.6818  0.1395
10735SOL    HW238042   0.651   2.193   4.496  0.6782 -0.1101 -0.8212
10736SOL     OW38043   9.129   8.163   8.461  0.3998  0.0212  0.5283
10736SOL    HW138044   9.074   8.091   8.492 -0.4068  0.6865  0.6812
10736SOL    HW238045   9.210   8.121   8.433 -0.3100 -1.0185 -0.0197
10737SOL     OW38046   2.538   5.588   3.604  0.2497  0.4113 -0.2899
10737SOL    HW138047   2.549   5.594   3.509 -0.3505  0.9419 -0.3363
10737SOL    HW238048   2.456   5.541   3.616  1.2886 -1.3829  0.0082
10738SOL     OW38049   1.468   6.838   3.565  0.0641 -1.4001  1.0181
10738SOL    HW138050   1.487   6.853   3.657  2.2547 -2.6484  0.8232
10738SOL    HW238051   1.506   6.753   3.545  1.3364 -0.3714 -1.4682
10739SOL     OW38052   1.685   9.252   9.551 -0.7361  0.1194 -0.5565
10739SOL    HW138053   1.675   9.266   9.457 -0.2167  1.7648 -0.3945
10739SOL    HW238054   1.737   9.326   9.581  0.8404 -1.4364  0.7167
10740SOL     OW38055  10.460   2.781   7.041  0.3109  0.2249  0.3175
10740SOL    HW138056  10.398   2.717   7.076 -0.6829  1.6940  1.3111
10740SOL    HW238057  10.511   2.731   6.976  0.4586 -1.9175  1.9604
10741SOL     OW38058   5.067   5.978   7.534  0.1047  0.1586  0.7093
10741SOL    HW138059   5.089   6.064   7.499  1.0076  0.1868  1.3124
10741SOL    HW238060   5.015   5.998   7.613 -1.8999  0.0966 -0.5346
10742SOL     OW38061   8.314   8.481   7.089  0.0033  0.0060  0.4728
10742SOL    HW138062   8.299   8.400   7.138 -0.8887  0.8354  1.6285
10742SOL    HW238063   8.408   8.497   7.096 -0.1329  0.2171  2.1226
10743SOL     OW38064   6.978   8.287   1.106 -1.0205 -0.4799 -0.0442
10743SOL    HW138065   6.978   8.379   1.081 -1.3137 -0.2597  0.7546
10743SOL    HW238066   6.931   8.284   1.189  1.8447 -0.8662  1.6930
10744SOL     OW38067   3.994   1.363   8.637 -0.5039 -0.0800 -0.0237
10744SOL    HW138068   3.914   1.316   8.615 -0.7856 -0.3989  1.5392
10744SOL    HW238069   3.964   1.443   8.681  0.0123 -0.4141  0.9727
10745SOL     OW38070   6.128   0.118   5.805 -0.4338  0.1682 -0.3428
10745SOL    HW138071   6.156   0.188   5.864  0.6777 -0.1530 -0.4715
10745SOL    HW238072   6.200   0.108   5.743 -1.0088 -0.4168 -0.9391
10746SOL     OW38073   3.148   0.812   2.172 -0.3626 -0.0671 -0.3947
10746SOL    HW138074   3.071   0.793   2.226 -0.3154  1.0746  0.0983
10746SOL    HW238075   3.113   0.822   2.084 -0.6361 -0.5734 -0.3456
10747SOL     OW38076   8.834  10.685   9.314 -0.0697  0.1492  0.1607
10747SOL    HW138077   8.865  10.694   9.224 -0.4460  0.1954  0.0342
10747SOL    HW238078   8.869  10.601   9.343 -0.4530 -0.1520 -0.2382
10748SOL     OW38079   7.764   1.429   5.781 -0.1680 -0.3893  0.1020
10748SOL    HW138080   7.824   1.416   5.854 -3.0529 -1.2899  2.5016
10748SOL    HW238081   7.747   1.342   5.747  0.3407 -0.0746 -1.0148
10749SOL     OW38082   6.095   2.247   4.888  0.1541 -0.8026  0.4048
10749SOL    HW138083   6.181   2.218   4.919  1.7312  0.9007 -2.0434
10749SOL    HW238084   6.093   2.341   4.910 -0.0399 -0.3064 -1.5781
10750SOL     OW38085   3.157   7.175   8.832  0.6732 -0.4375  0.9561
10750SOL    HW138086   3.137   7.206   8.920  1.0098  0.0043  0.8861
10750SOL    HW238087   3.095   7.222   8.775  0.3938 -0.7915  0.9640
10751SOL     OW38088   5.505   8.154   2.487 -0.2058  0.1934 -0.0708
10751SOL    HW138089   5.543   8.242   2.484  0.2313  0.0312  0.4540
10751SOL    HW238090   5.413   8.167   2.464 -0.3704  0.9350  0.9193
10752SOL     OW38091   9.411  10.504   3.236 -0.0083 -0.1591  0.9725
10752SOL    HW138092   9.324  10.465   3.237  0.3913 -1.0977  0.1135
10752SOL    HW238093   9.472  10.430   3.238  0.7672  0.4123 -0.0399
10753SOL     OW38094   2.095   1.406   4.296  0.2796 -0.5082 -0.5661
10753SOL    HW138095   2.059   1.355   4.224 -0.2382 -1.4422  0.3322
10753SOL    HW238096   2.058   1.366   4.375 -1.5633  2.3041  0.1510
10754SOL     OW38097   4.192   4.473   7.725 -0.2750 -0.3407  0.8694
10754SOL    HW138098   4.251   4.485   7.651  0.4335 -1.2419  1.2636
10754SOL    HW238099   4.242   4.420   7.787 -1.3160 -0.6987  1.4365
10755SOL     OW38100   7.824   8.808   2.780 -0.2341  0.1739 -0.1364
10755SOL    HW138101   7.745   8.788   2.730  0.8485 -0.4537 -1.6659
10755SOL    HW238102   7.874   8.726   2.781  1.2147  1.0048 -0.7496
10756SOL     OW38103   1.058   6.514   0.720 -0.2943 -0.7244 -0.6439
10756SOL    HW138104   1.136   6.551   0.679 -0.0315  0.8467  1.1219
10756SOL    HW238105   0.988   6.530   0.657  0.2361  0.8528 -0.8891
10757SOL     OW38106   5.145   3.080   5.622 -0.4475 -0.4237 -0.4928
10757SOL    HW138107   5.211   3.016   5.595 -0.7110 -0.0853 -2.0241
10757SOL    HW238108   5.067   3.028   5.640 -0.7672 -0.5484 -2.0806
10758SOL     OW38109   3.977   8.065   9.436 -0.2643 -0.1499 -0.3687
10758SOL    HW138110   3.914   8.058   9.364 -0.8044 -0.0316  0.0790
10758SOL    HW238111   4.045   8.124   9.404 -0.3603 -0.3178 -0.8798
10759SOL     OW38112  10.276   9.296   1.451 -0.2789  0.3176  0.0186
10759SOL    HW138113  10.208   9.356   1.420  1.8996  2.1094 -1.5871
10759SOL    HW238114  10.287   9.318   1.544 -2.0497 -0.2458  0.3990
10760SOL     OW38115   8.186   9.664   4.673  0.5333  0.1643  0.2514
10760SOL    HW138116   8.130   9.590   4.650  0.9774 -0.6098  1.5264
10760SOL    HW238117   8.158   9.687   4.762  0.4302  1.5249 -0.1157
10761SOL     OW38118   3.989   8.845   5.378  0.5308 -0.0495  0.1702
10761SOL    HW138119   4.055   8.800   5.325  1.3356  0.1483  0.9718
10761SOL    HW238120   3.971   8.785   5.450  0.1002  0.0548  0.1484
10762SOL     OW38121   1.431   9.953   2.057  0.3945  0.4721 -0.2213
10762SOL    HW138122   1.393  10.040   2.056 -1.3882 -0.2102 -3.0589
10762SOL    HW238123   1.356   9.893   2.052  1.6393 -1.1223 -0.9402
10763SOL     OW38124   8.044   6.717   0.643  0.0563 -0.3827 -0.2882
10763SOL    HW138125   7.987   6.674   0.578  1.4731 -1.1319 -1.0811
10763SOL    HW238126   7.983   6.752   0.708 -1.2793 -2.0143 -0.5680
10764SOL     OW38127   4.339   8.543   9.257 -0.7175  0.2020  0.2647
10764SOL    HW138128   4.382   8.460   9.274 -1.1864 -0.3511 -1.0643
10764SOL    HW238129   4.410   8.608   9.257  0.1528 -0.6672 -1.7362
10765SOL     OW38130   6.702   9.914   8.485  0.3343  0.0235  0.2625
10765SOL    HW138131   6.752   9.980   8.438 -0.5062  0.6600  0.2378
10765SOL    HW238132   6.763   9.842   8.498  0.8533  0.2281 -0.9599
10766SOL     OW38133   4.970   3.459   5.515  0.1014  0.4719 -0.0209
10766SOL    HW138134   4.947   3.402   5.588 -2.0541  0.4128 -0.6794
10766SOL    HW238135   4.936   3.545   5.540  2.3335  1.2836  0.4668
10767SOL     OW38136   8.472   1.350   8.368 -0.2771 -0.4344 -0.0731
10767SOL    HW138137   8.400   1.304   8.413  0.5578 -1.8398 -0.1220
10767SOL    HW238138   8.551   1.306   8.399  0.5219  0.6242 -0.5766
10768SOL     OW38139   8.497   9.015  10.184 -0.4887 -0.4785 -0.4141
10768SOL    HW138140   8.431   9.005  10.253  0.3927  0.6975  0.6607
10768SOL    HW238141   8.580   9.001  10.229  0.0326 -1.5124 -1.6555
10769SOL     OW38142   8.025   2.157  10.710 -0.5675  0.0133  0.2975
10769SOL    HW138143   8.059   2.090  10.651 -1.3657  0.2938 -0.5053
10769SOL    HW238144   8.084   2.155  10.785 -0.6665 -1.6949  0.3695
10770SOL     OW38145   0.056  10.067   4.760  0.5717 -1.2423  0.4965
10770SOL    HW138146   0.137  10.066   4.810  1.3153  0.2743 -0.6271
10770SOL    HW238147   0.082  10.048   4.670 -0.1205  0.5134 -0.1111
10771SOL     OW38148   2.273   7.271   5.164 -0.1372  0.2922  0.2510
10771SOL    HW138149   2.177   7.276   5.173 -0.0871 -0.4776  1.4826
10771SOL    HW238150   2.287   7.239   5.075 -0.9338  2.5607 -0.7878
10772SOL     OW38151   6.582   2.666   3.081  0.2071  0.0609  0.3457
10772SOL    HW138152   6.674   2.658   3.105  0.0722 -0.3290  0.7353
10772SOL    HW238153   6.583   2.720   3.002  0.8474 -0.7285 -0.1981
10773SOL     OW38154  10.372   1.771   9.597 -0.0549  0.2578 -0.0846
10773SOL    HW138155  10.348   1.859   9.624 -2.1264 -0.7845  1.8434
10773SOL    HW238156  10.407   1.730   9.677 -0.4786 -1.0706 -0.5510
10774SOL     OW38157   8.466   1.868   2.229 -0.0141  0.1476  0.2449
10774SOL    HW138158   8.387   1.821   2.202 -0.9962  0.5530  2.2458
10774SOL    HW238159   8.517   1.803   2.278  0.4074  0.1830 -0.1367
10775SOL     OW38160   7.756   4.981   1.463 -0.2212  0.0798 -0.1589
10775SOL    HW138161   7.685   4.932   1.503 -1.2937  1.0273 -0.8297
10775SOL    HW238162   7.836   4.936   1.491 -1.0312 -0.5302  1.2679
10776SOL     OW38163   7.899   8.703   0.067 -0.1386 -0.0340  0.2331
10776SOL    HW138164   7.855   8.719   0.150 -0.1132 -2.9697  0.9284
10776SOL    HW238165   7.992   8.699   0.089  0.1282  1.6961 -0.4387
10777SOL     OW38166   1.648   5.296   5.415 -0.2272  0.3701  0.1705
10777SOL    HW138167   1.668   5.285   5.322  0.5766 -2.6117  0.5951
10777SOL    HW238168   1.605   5.214   5.440 -2.2084  1.8490  2.0512
10778SOL     OW38169   8.107   0.558   6.064 -0.3004  0.3323  0.1016
10778SOL    HW138170   8.161   0.591   5.992 -2.3568  2.4317 -0.6189
10778SOL    HW238171   8.160   0.572   6.142  0.6863  1.1955 -0.6910
10779SOL     OW38172  10.156   0.016   9.648  0.1739 -0.5122 -0.4462
10779SOL    HW138173  10.074   0.007   9.600  0.6196  0.0839 -1.3456
10779SOL    HW238174  10.130   0.052   9.733 -0.6423 -1.7496 -0.1354
10780SOL     OW38175   9.980   5.125   1.737  0.3159 -0.1385 -0.1267
10780SOL    HW138176   9.927   5.123   1.817  0.7837 -0.0668  0.1905
10780SOL    HW238177   9.916   5.125   1.666 -0.1041 -1.3848  0.2182
10781SOL     OW38178   8.465   4.411   7.262  0.1236 -0.2804 -0.0817
10781SOL    HW138179   8.379   4.393   7.224  0.2970 -1.9225  0.2389
10781SOL    HW238180   8.447   4.436   7.352 -0.1966  2.4640 -0.7875
10782SOL     OW38181   9.254   2.141   5.575 -0.2338  0.3637  0.4547
10782SOL    HW138182   9.193   2.115   5.506 -2.5355  1.4911  1.9488
10782SOL    HW238183   9.339   2.147   5.531 -1.5541  0.8491 -2.2247
10783SOL     OW38184   2.993   1.182   4.914 -0.3808  0.1317  0.0559
10783SOL    HW138185   2.963   1.121   4.982 -0.6271  0.3721  0.1679
10783SOL    HW238186   3.064   1.231   4.955 -0.6592  0.4139  0.2167
10784SOL     OW38187   4.742   8.647   3.022  0.1274 -0.0398  0.2287
10784SOL    HW138188   4.817   8.588   3.019 -0.6965 -1.0534 -1.9966
10784SOL    HW238189   4.688   8.613   3.094  1.8862  0.9324  2.1204
10785SOL     OW38190   2.190   0.879   5.943  0.0199 -0.2541  0.4352
10785SOL    HW138191   2.156   0.925   5.866  0.2782  0.8509  0.9598
10785SOL    HW238192   2.127   0.809   5.959 -0.9791  0.5745  0.2473
10786SOL     OW38193   2.356   5.725   1.404 -0.0006 -0.3538 -0.0901
10786SOL    HW138194   2.425   5.766   1.352  0.6303 -1.4892 -0.1793
10786SOL    HW238195   2.358   5.633   1.378 -0.3968 -0.7381  1.1626
10787SOL     OW38196   5.697   6.248   7.417 -1.0585  0.3754 -0.5103
10787SOL    HW138197   5.707   6.326   7.471 -1.3731  0.2490 -0.2649
10787SOL    HW238198   5.669   6.180   7.478  1.3224 -0.4947 -0.3065
10788SOL     OW38199   2.233   1.631   3.405  0.5491 -0.6718  0.6408
10788SOL    HW138200   2.229   1.672   3.491  1.8688  1.7929 -0.3544
10788SOL    HW238201   2.161   1.672   3.356  0.3529 -1.3979  0.3125
10789SOL     OW38202  10.645   2.973   4.490  0.3974  0.3567 -0.3243
10789SOL    HW138203  10.643   2.987   4.584 -0.6963  0.3908 -0.3404
10789SOL    HW238204  10.714   2.908   4.477  1.2152  1.0570  0.3848
10790SOL     OW38205   9.812   1.655   6.662 -0.1851 -0.4173  0.3983
10790SOL    HW138206   9.891   1.600   6.668 -0.0843 -0.2009  1.1714
10790SOL    HW238207   9.746   1.607   6.712  0.5534  1.2336  3.2342
10791SOL     OW38208   7.019   0.062   4.226 -0.5329  0.2370  0.0385
10791SOL    HW138209   7.013   0.136   4.166  0.9429 -0.0455 -0.5008
10791SOL    HW238210   6.978   0.093   4.307 -2.0414  0.8235 -0.8981
10792SOL     OW38211   5.161   0.450   1.748 -0.4545  0.0405  0.0160
10792SOL    HW138212   5.249   0.413   1.761 -0.6144 -0.2510  0.2844
10792SOL    HW238213   5.172   0.544   1.764 -0.2452 -0.0336  0.3193
10793SOL     OW38214   5.035   5.820   1.311  0.6569 -0.1975 -0.1713
10793SOL    HW138215   5.100   5.751   1.299  1.3066  0.0862  1.3923
10793SOL    HW238216   4.993   5.798   1.394 -1.4566 -0.5019 -1.2571
10794SOL     OW38217   6.545   9.780   1.169 -0.4937 -0.5395  0.2407
10794SOL    HW138218   6.563   9.798   1.077  1.1554 -0.1212  0.6231
10794SOL    HW238219   6.498   9.696   1.168  1.4198 -1.6619 -0.8462
10795SOL     OW38220   3.642   4.072   3.298  0.1598 -0.5016  0.0375
10795SOL    HW138221   3.699   4.137   3.256  0.4424 -1.6855 -1.5038
10795SOL    HW238222   3.557   4.083   3.254 -0.4915  0.3729  1.4225
10796SOL     OW38223   1.888   7.689   2.167  0.0658 -0.2195  0.3304
10796SOL    HW138224   1.953   7.736   2.115  1.0359 -0.3711  1.3530
10796SOL    HW238225   1.914   7.597   2.161 -0.1511 -0.3009  0.5983
10797SOL     OW38226   5.122   8.826   3.794  0.2757  0.1819 -0.6702
10797SOL    HW138227   5.111   8.872   3.878  0.4134  0.4256 -0.7840
10797SOL    HW238228   5.049   8.764   3.791  1.3285 -1.1832  0.5001
10798SOL     OW38229   7.422   6.998   2.441  0.5265 -0.6312 -0.7937
10798SOL    HW138230   7.508   7.018   2.477  1.3215 -0.0738 -2.8637
10798SOL    HW238231   7.411   6.904   2.452 -0.0211 -0.3208  2.3065
10799SOL     OW38232   9.010   7.827   7.529 -0.2733  0.1176 -0.7727
10799SOL    HW138233   8.953   7.892   7.571  0.7149  2.1387 -2.3802
10799SOL    HW238234   8.953   7.751   7.513 -2.1387  1.5039 -1.0215
10800SOL     OW38235   5.989   9.912  10.564  0.0332 -0.3000 -0.2603
10800SOL    HW138236   5.985   9.881  10.473  0.7413 -0.9722 -0.0746
10800SOL    HW238237   5.903   9.949  10.580 -0.1210 -0.2189 -1.1937
10801SOL     OW38238   6.165   8.190   8.977  0.4698 -0.0332 -0.7190
10801SOL    HW138239   6.216   8.124   9.023 -0.6734 -2.0235 -2.1530
10801SOL    HW238240   6.208   8.198   8.892 -0.8377 -0.8547 -1.4955
10802SOL     OW38241   6.955   7.652  10.099  0.0566  0.8456  0.4054
10802SOL    HW138242   6.870   7.691  10.116  0.2225  1.5099 -0.2386
10802SOL    HW238243   6.964   7.652  10.004 -0.1575 -1.2858  0.3397
10803SOL     OW38244   9.430   9.500   1.582  0.1928  0.5963 -0.2935
10803SOL    HW138245   9.476   9.530   1.503  1.3698 -1.0120 -0.2743
10803SOL    HW238246   9.392   9.416   1.557 -0.7903  0.8167  0.4051
10804SOL     OW38247   2.770   9.828   5.543  0.5734  0.2958 -0.6283
10804SOL    HW138248   2.755   9.923   5.550  3.3861  0.7836 -0.1269
10804SOL    HW238249   2.806   9.816   5.455 -0.6911 -0.5102 -1.0674
10805SOL     OW38250   4.665   3.123   7.995  0.2330  0.2000  0.4120
10805SOL    HW138251   4.619   3.096   8.074  0.2057  0.9521  0.6628
10805SOL    HW238252   4.717   3.198   8.022  0.7118  0.0729 -0.1418
10806SOL     OW38253   2.044   2.213   7.545 -0.0141  0.6840  0.7418
10806SOL    HW138254   2.008   2.147   7.605 -2.5476  0.9705 -0.3144
10806SOL    HW238255   2.010   2.296   7.578  1.2263  1.2199  0.7146
10807SOL     OW38256   4.089  10.639   9.736 -0.0442  0.5332 -0.3228
10807SOL    HW138257   4.123  10.726   9.760 -0.7855  0.8261 -0.3073
10807SOL    HW238258   4.114  10.628   9.645  1.5272  0.0337  0.1353
10808SOL     OW38259   8.728   3.180   4.060  0.3691  0.1081 -0.3975
10808SOL    HW138260   8.730   3.084   4.064 -0.8360  0.1221  0.8807
10808SOL    HW238261   8.817   3.206   4.084  0.4831 -0.6583  0.0431
10809SOL     OW38262   0.917   8.229   8.240 -0.1152  0.4778  0.1394
10809SOL    HW138263   0.970   8.270   8.173 -0.7090  1.6408  0.3595
10809SOL    HW238264   0.970   8.234   8.320  0.9144 -1.5899 -0.3482
10810SOL     OW38265   6.927   6.240   4.919 -0.6209  0.1527  0.3253
10810SOL    HW138266   6.864   6.268   4.985 -1.5868 -1.1480  0.0012
10810SOL    HW238267   6.905   6.148   4.902  2.0738 -0.7085  1.0002
10811SOL     OW38268   5.751   5.834   3.977 -0.6188  0.4762  0.5197
10811SOL    HW138269   5.841   5.807   3.993 -0.6322  0.6776  0.9560
10811SOL    HW238270   5.757   5.902   3.910 -0.5065  0.0461  0.0844
10812SOL     OW38271   8.803  10.067   9.341  0.0199 -0.6493  0.3463
10812SOL    HW138272   8.746  10.027   9.407 -0.5491  1.2150  1.0277
10812SOL    HW238273   8.818  10.156   9.372  2.6434 -0.8005 -0.2490
10813SOL     OW38274   7.268   3.498   5.610  0.1404 -0.7819 -0.0731
10813SOL    HW138275   7.228   3.579   5.577 -1.6655 -1.0734  1.2365
10813SOL    HW238276   7.282   3.515   5.703 -0.8160 -2.1741  0.3421
10814SOL     OW38277   4.287   1.206   7.076  0.2034  0.0313 -0.1299
10814SOL    HW138278   4.274   1.265   7.002  2.0243 -0.4571 -0.9119
10814SOL    HW238279   4.224   1.136   7.062  0.4221  0.0215 -1.1563
10815SOL     OW38280   4.719   0.022   5.632  0.0324 -0.6087  0.0659
10815SOL    HW138281   4.716  -0.049   5.696 -0.3514 -1.9147 -1.3399
10815SOL    HW238282   4.813   0.040   5.621  0.1783 -1.5153 -0.2215
10816SOL     OW38283   2.351   4.254   0.471 -0.0521  0.4234 -0.0058
10816SOL    HW138284   2.268   4.238   0.515  0.0325  0.8686  0.3278
10816SOL    HW238285   2.417   4.220   0.531 -0.0540 -1.1356 -0.8632
10817SOL     OW38286   7.358   4.759   7.000 -0.5611 -0.2428  0.3673
10817SOL    HW138287   7.371   4.730   7.090 -1.6389  2.3935  1.4976
10817SOL    HW238288   7.277   4.717   6.972  1.0311 -3.0622 -0.4042
10818SOL     OW38289   6.012   1.655   5.655  0.5124 -0.3061 -0.0709
10818SOL    HW138290   5.928   1.666   5.611  0.7596  0.9787 -0.2545
10818SOL    HW238291   6.018   1.729   5.715  1.7261 -0.0787 -0.4338
10819SOL     OW38292   7.271   4.022   5.643  0.7094 -0.0475 -1.1231
10819SOL    HW138293   7.298   4.106   5.681 -0.5790  0.7268 -1.8416
10819SOL    HW238294   7.273   4.037   5.548 -1.8200 -0.0033 -1.2556
10820SOL     OW38295   6.123   7.680   7.350 -0.4687 -0.2147 -0.2465
10820SOL    HW138296   6.130   7.673   7.445  1.5987 -1.5381 -0.4237
10820SOL    HW238297   6.206   7.720   7.323 -1.8257  2.0067 -1.3949
10821SOL     OW38298   1.470   9.757   4.804  0.1933 -0.1479 -0.0440
10821SOL    HW138299   1.504   9.690   4.744  0.3437  1.2340 -1.5736
10821SOL    HW238300   1.433   9.823   4.747 -1.3312  0.3778  1.4843
10822SOL     OW38301   0.094   9.598  10.052  0.1582  0.3956  0.3032
10822SOL    HW138302   0.180   9.639  10.049 -0.1532  1.0204 -0.5055
10822SOL    HW238303   0.079   9.580  10.145  1.8095 -1.1723  0.3026
10823SOL     OW38304   3.483   4.931   8.346  0.0934 -0.5231 -0.4113
10823SOL    HW138305   3.462   4.861   8.409  0.1761 -0.9377 -0.8403
10823SOL    HW238306   3.572   4.956   8.368  0.4781 -1.3449 -0.9801
10824SOL     OW38307   2.528   2.749   9.371 -0.0643  0.6059  0.3634
10824SOL    HW138308   2.459   2.752   9.305  0.4844 -3.0186 -0.6071
10824SOL    HW238309   2.608   2.765   9.322  0.1763 -0.1860  0.4861
10825SOL     OW38310   9.732   8.824   1.593  0.4293  0.1575 -0.6917
10825SOL    HW138311   9.772   8.873   1.665 -1.3623  1.2602 -0.3645
10825SOL    HW238312   9.792   8.836   1.520  2.4595 -1.2487  0.6446
10826SOL     OW38313   4.762   1.906   1.994 -0.3897 -0.3867 -0.0777
10826SOL    HW138314   4.728   1.990   2.026  1.2224  0.0914  0.4928
10826SOL    HW238315   4.684   1.857   1.968 -1.4051  1.1045  0.0124
10827SOL     OW38316   5.140   3.873   6.954 -0.0466  0.5542  0.4627
10827SOL    HW138317   5.185   3.946   6.996  1.0058  0.0706  0.2166
10827SOL    HW238318   5.199   3.846   6.883 -1.5679  1.0902 -1.0931
10828SOL     OW38319   4.583   9.455   6.627  0.2163  0.3128 -0.2679
10828SOL    HW138320   4.678   9.447   6.623  0.3060 -0.4885  2.0181
10828SOL    HW238321   4.551   9.365   6.619 -0.3442  0.5429 -0.6954
10829SOL     OW38322   2.556   5.404  10.477 -0.0744 -0.1673 -0.3572
10829SOL    HW138323   2.493   5.370  10.414  0.4596 -0.8823 -0.5222
10829SOL    HW238324   2.615   5.330  10.494  1.7663  0.9429 -1.5188
10830SOL     OW38325   8.126   0.295   4.542  0.4308  0.6609  0.2601
10830SOL    HW138326   8.207   0.323   4.499  0.0620  2.0711  0.4320
10830SOL    HW238327   8.056   0.336   4.492 -0.2057 -0.5921  0.0779
10831SOL     OW38328   9.248   3.419   0.494 -0.0018 -0.0298 -0.3337
10831SOL    HW138329   9.218   3.405   0.404  1.0813  0.8116 -0.8596
10831SOL    HW238330   9.271   3.512   0.497 -1.6110  0.3725  1.3367
10832SOL     OW38331   3.941   3.040  10.166 -0.1586 -0.2899  0.2675
10832SOL    HW138332   3.872   3.094  10.128  0.0127  0.2247  0.6793
10832SOL    HW238333   3.993   3.011  10.091 -2.1988 -2.7286 -0.3732
10833SOL     OW38334   0.266   9.219   6.436  0.1605 -0.2971  0.3502
10833SOL    HW138335   0.337   9.226   6.372  0.0851  0.6248  0.3570
10833SOL    HW238336   0.311   9.208   6.520  0.3109  0.6807  0.4040
10834SOL     OW38337   3.026   4.016   4.934 -0.3320 -0.1398  0.0262
10834SOL    HW138338   3.092   4.031   4.866  0.7435 -0.6992  0.9099
10834SOL    HW238339   2.949   4.064   4.904  0.1733 -0.2260 -1.4898
10835SOL     OW38340   6.424   7.685   3.840 -0.1728 -0.5472  0.2364
10835SOL    HW138341   6.468   7.714   3.761  0.9115  0.4592  1.1754
10835SOL    HW238342   6.482   7.618   3.877 -0.9228 -1.3872 -0.0625
10836SOL     OW38343   5.100   4.261  10.718  0.2827  0.4290 -0.2310
10836SOL    HW138344   5.194   4.276  10.705 -0.1609  2.9394 -0.9830
10836SOL    HW238345   5.081   4.299  10.803 -0.4509  2.2601 -1.1542
10837SOL     OW38346   9.344  10.398   2.015  0.0221 -0.1660  0.5007
10837SOL    HW138347   9.297  10.333   2.067  0.8411 -0.3956  0.9713
10837SOL    HW238348   9.359  10.471   2.075  0.9741 -0.4322  0.6069
10838SOL     OW38349   1.638   5.480   7.412 -0.7029  0.0271  0.0623
10838SOL    HW138350   1.692   5.401   7.407 -1.7819 -0.7067 -0.3071
10838SOL    HW238351   1.661   5.519   7.496  1.1718  0.3277 -0.5348
10839SOL     OW38352   8.851   3.282   0.644 -0.1502  0.0070  0.2290
10839SOL    HW138353   8.941   3.251   0.647 -0.1223 -0.7067 -3.1383
10839SOL    HW238354   8.799   3.203   0.627 -1.3342  0.5074  1.3995
10840SOL     OW38355   5.537   1.384   9.795  0.1480  0.5809 -0.2912
10840SOL    HW138356   5.442   1.377   9.792  0.2701 -2.7110 -0.4385
10840SOL    HW238357   5.556   1.405   9.887 -0.7245 -0.7172  0.2237
10841SOL     OW38358   6.532  10.250   2.616  0.0816 -0.0079 -0.7698
10841SOL    HW138359   6.556  10.221   2.704 -0.4053  0.1383 -0.5849
10841SOL    HW238360   6.537  10.345   2.619 -0.9848  0.0537 -0.5812
10842SOL     OW38361   8.521   3.718   7.067  0.5069 -0.0370  0.1092
10842SOL    HW138362   8.509   3.712   6.972 -0.6662 -0.6757  0.2706
10842SOL    HW238363   8.534   3.627   7.095 -1.4400 -0.1557  0.7939
10843SOL     OW38364   7.785   2.499   7.591 -0.3149 -0.5268  0.5379
10843SOL    HW138365   7.769   2.513   7.685  0.0297  0.4804  0.4628
10843SOL    HW238366   7.856   2.560   7.570 -0.7687 -0.3445 -0.5076
10844SOL     OW38367  10.695   0.079   3.440 -0.0165  0.4816  0.0859
10844SOL    HW138368  10.627   0.145   3.426 -0.5370 -0.0310  0.1553
10844SOL    HW238369  10.673   0.009   3.379  0.2398  0.1506  0.3701
10845SOL     OW38370   2.977   6.589   8.169 -0.0922 -0.2110 -0.1755
10845SOL    HW138371   3.034   6.578   8.093 -0.9740 -1.3201 -0.7048
10845SOL    HW238372   3.026   6.550   8.242  0.3190 -0.0678 -0.3728
10846SOL     OW38373   1.810  10.365   1.657  0.2900  0.3672  0.0321
10846SOL    HW138374   1.747  10.381   1.728  0.3135 -0.4419  0.2490
10846SOL    HW238375   1.756  10.366   1.577  0.2318  1.0757  0.0734
10847SOL     OW38376  10.069   7.623  10.007  0.2429 -0.3339 -0.1004
10847SOL    HW138377   9.996   7.584   9.959  0.9203 -0.6737 -0.8633
10847SOL    HW238378  10.075   7.712   9.972 -1.2345  0.5036  1.5666
10848SOL     OW38379   5.116  10.131   3.927  0.4630  0.3208  0.5382
10848SOL    HW138380   5.125  10.095   4.015  1.0777 -0.1573  0.2868
10848SOL    HW238381   5.023  10.154   3.919  0.1985 -0.5752  0.9485
10849SOL     OW38382   0.300   9.349   0.286  0.1531  0.2624  0.1878
10849SOL    HW138383   0.241   9.338   0.360  0.4853  1.8120  0.7030
10849SOL    HW238384   0.261   9.295   0.217 -1.1381  0.2208  0.9146
10850SOL     OW38385   9.607   2.109   0.993 -0.1349  0.1525 -0.1138
10850SOL    HW138386   9.514   2.124   1.007 -0.5630 -1.4816 -1.0244
10850SOL    HW238387   9.616   2.014   0.989  1.6126  0.2700  0.1563
10851SOL     OW38388   5.843   1.866   6.512  0.5980  0.2955 -0.6051
10851SOL    HW138389   5.759   1.869   6.466 -0.2878  2.4622  0.9413
10851SOL    HW238390   5.866   1.774   6.514 -1.3900 -0.2928 -1.7345
10852SOL     OW38391   7.382   4.927   9.793  0.0876  0.7553 -0.5371
10852SOL    HW138392   7.321   4.952   9.863 -0.1365  0.8455 -0.7653
10852SOL    HW238393   7.327   4.913   9.717  0.2847  0.2408 -0.5937
10853SOL     OW38394   3.947   1.993   1.184  0.6627 -0.1159  0.4468
10853SOL    HW138395   4.018   1.931   1.204  0.6553 -1.3355 -2.7112
10853SOL    HW238396   3.867   1.944   1.202  0.6581 -0.3605 -0.2080
10854SOL     OW38397   4.804   1.574   0.105 -0.1295  0.0737  0.0234
10854SOL    HW138398   4.815   1.604   0.015  1.3794 -0.8115 -0.1230
10854SOL    HW238399   4.725   1.520   0.103 -0.4251  0.5280 -0.6486
10855SOL     OW38400   9.997   3.731   8.697  0.5587 -0.0819 -0.0407
10855SOL    HW138401   9.936   3.740   8.624 -2.4891 -2.1131  1.9747
10855SOL    HW238402   9.993   3.816   8.741  2.5744  1.2286 -2.1612
10856SOL     OW38403   2.613   5.431   9.378 -0.1483 -0.1579 -0.1060
10856SOL    HW138404   2.560   5.431   9.298 -1.6363  2.5021  0.7472
10856SOL    HW238405   2.598   5.345   9.417  0.1785 -1.3197 -2.3379
10857SOL     OW38406   5.300   5.648   8.187  0.3456 -0.9385  0.0814
10857SOL    HW138407   5.241   5.652   8.263  0.2616  1.2486 -0.0443
10857SOL    HW238408   5.384   5.620   8.224  0.9841  2.3853  1.5637
10858SOL     OW38409   2.267   0.912  10.468  0.0463  0.1887 -0.1020
10858SOL    HW138410   2.296   0.973  10.536 -1.3061 -0.2630  0.9249
10858SOL    HW238411   2.196   0.863  10.508 -0.1003 -0.8274 -1.5119
10859SOL     OW38412   3.593   4.738   7.298 -0.5018  0.0276 -0.4251
10859SOL    HW138413   3.561   4.732   7.208  0.4942  1.2721 -0.8836
10859SOL    HW238414   3.678   4.694   7.297  1.6137  3.6953 -1.2209
10860SOL     OW38415   4.881   2.542   8.426  0.1460 -0.1308  0.2559
10860SOL    HW138416   4.875   2.611   8.359  0.3744 -0.1498  0.2150
10860SOL    HW238417   4.947   2.482   8.392 -0.8095 -0.9410 -0.2149
10861SOL     OW38418   4.705   8.125   4.530  0.1444 -0.4326 -0.4305
10861SOL    HW138419   4.691   8.034   4.504  2.6463 -0.6989 -1.1630
10861SOL    HW238420   4.657   8.176   4.466 -0.5900 -1.2230 -0.5289
10862SOL     OW38421   2.772   1.315   9.420  0.4314 -0.3093  0.5004
10862SOL    HW138422   2.733   1.354   9.499 -0.8883 -1.1295  0.2835
10862SOL    HW238423   2.720   1.237   9.404  0.8795 -0.3224 -1.0214
10863SOL     OW38424   7.148   7.901   6.913  0.3333 -0.2883 -0.5719
10863SOL    HW138425   7.093   7.921   6.838  0.1761  3.4608  0.3914
10863SOL    HW238426   7.235   7.934   6.889  0.1418  1.5476  1.0479
10864SOL     OW38427   3.770   3.945   4.872  0.6001 -0.6978  0.5636
10864SOL    HW138428   3.781   4.008   4.801  0.4231 -0.1003  1.0608
10864SOL    HW238429   3.721   3.873   4.832  0.0645 -0.1443  0.2112
10865SOL     OW38430   3.791  10.537   4.065 -0.0075  0.8130  0.4272
10865SOL    HW138431   3.845  10.468   4.103 -1.0841  0.8288  2.0760
10865SOL    HW238432   3.757  10.585   4.140 -0.2160  2.4332 -0.6582
10866SOL     OW38433   5.074   9.293   0.462 -0.0241  0.0940 -0.0639
10866SOL    HW138434   5.005   9.358   0.474  0.9426  0.9939  0.8134
10866SOL    HW238435   5.048   9.245   0.383 -2.2504 -0.3838  0.8868
10867SOL     OW38436   1.921   6.215   8.726 -0.3329 -0.2630  0.4219
10867SOL    HW138437   1.908   6.124   8.754  3.0631 -1.0103  0.0394
10867SOL    HW238438   1.889   6.217   8.636  0.4864 -1.4021  0.0839
10868SOL     OW38439   7.027   5.877   5.810 -0.2254 -0.0609  0.3154
10868SOL    HW138440   7.042   5.802   5.753  1.3699 -0.0763  0.7083
10868SOL    HW238441   7.025   5.952   5.751  0.0819 -0.2206  0.1012
10869SOL     OW38442   6.525   2.647   8.406 -0.0532  0.3353  0.3208
10869SOL    HW138443   6.520   2.604   8.320 -1.0378  1.3067 -0.1313
10869SOL    HW238444   6.489   2.583   8.467  1.9094 -0.9160  0.2612
10870SOL     OW38445   5.899   2.235   3.821 -0.5360  0.7061 -0.1084
10870SOL    HW138446   5.836   2.259   3.888 -2.7018 -2.3950 -0.8100
10870SOL    HW238447   5.962   2.178   3.865 -1.0449 -0.0409 -0.3121
10871SOL     OW38448   2.913   3.322   5.214  0.4356 -0.4487 -0.6261
10871SOL    HW138449   2.873   3.240   5.184  3.3977 -2.6436  0.9678
10871SOL    HW238450   2.932   3.307   5.306  1.5498  1.8543 -0.4196
10872SOL     OW38451   6.789   7.327   3.659  0.7821  0.3934  0.3161
10872SOL    HW138452   6.828   7.263   3.718 -0.0320 -1.8236 -1.3967
10872SOL    HW238453   6.699   7.337   3.690  1.0405  1.0598  0.8525
10873SOL     OW38454   4.902   6.167   0.840 -0.1218 -0.3756 -0.6280
10873SOL    HW138455   4.832   6.103   0.840 -1.0743  0.6354 -0.5708
10873SOL    HW238456   4.885   6.221   0.917  0.1750  0.4508 -1.1316
10874SOL     OW38457   9.708   7.990  10.066  0.5289 -0.5463  0.3448
10874SOL    HW138458   9.681   8.008   9.976  2.4043 -1.0927 -0.3740
10874SOL    HW238459   9.697   8.073  10.112  2.5794  0.6572 -1.1986
10875SOL     OW38460   6.524   0.373   4.114 -0.0148  0.6139 -0.5931
10875SOL    HW138461   6.458   0.370   4.183  0.8278 -1.0628  0.2094
10875SOL    HW238462   6.605   0.393   4.160  0.4719 -0.0270 -1.1614
10876SOL     OW38463   6.834   1.732   5.793 -0.4102 -0.1064  0.3208
10876SOL    HW138464   6.788   1.649   5.808 -1.4611  0.4707  0.3964
10876SOL    HW238465   6.764   1.797   5.782  0.3643  0.5421 -1.1294
10877SOL     OW38466   5.577   3.034   4.903 -0.1096 -0.1510  0.0878
10877SOL    HW138467   5.620   2.949   4.892 -0.7992 -0.3164 -1.5292
10877SOL    HW238468   5.646   3.092   4.936  0.2818 -1.3906  1.5961
10878SOL     OW38469  10.182   5.969   2.389  0.2108  0.0438 -0.2087
10878SOL    HW138470  10.266   5.936   2.421 -0.1921 -0.0400  0.7937
10878SOL    HW238471  10.206   6.044   2.334  0.9518 -0.0983 -0.0949
10879SOL     OW38472   5.148   8.226   3.239 -0.0019  0.6181  0.0623
10879SOL    HW138473   5.235   8.227   3.279  0.2256  1.1588 -0.4304
10879SOL    HW238474   5.148   8.302   3.181  0.1227 -0.7564 -1.8365
10880SOL     OW38475   3.339   3.076   0.933  0.6285  0.4233 -0.3775
10880SOL    HW138476   3.380   3.136   0.995 -0.4782  0.8226 -0.0156
10880SOL    HW238477   3.404   3.007   0.920  0.9440  0.4163  1.0976
10881SOL     OW38478   6.740   0.693   8.986  0.0310  0.6889  0.3526
10881SOL    HW138479   6.747   0.740   8.902 -3.9181  1.1254  0.0769
10881SOL    HW238480   6.670   0.738   9.032  0.6559 -0.8954  3.0317
10882SOL     OW38481   0.467   3.981  10.411  0.6846 -0.1698 -0.3196
10882SOL    HW138482   0.387   3.931  10.430  0.8870 -0.3330  0.1148
10882SOL    HW238483   0.530   3.915  10.383  0.4896  0.0313 -1.2397
10883SOL     OW38484   9.222   0.046   0.827 -0.5714  0.3828 -0.0549
10883SOL    HW138485   9.267   0.048   0.743 -0.7521  1.4421 -0.1423
10883SOL    HW238486   9.263  -0.026   0.875  0.7617  0.8988 -0.3773
10884SOL     OW38487   0.108   7.961   9.837  0.2848  0.4423  0.0105
10884SOL    HW138488   0.060   8.043   9.842  1.2975  0.9757  1.7637
10884SOL    HW238489   0.166   7.962   9.913  0.1377 -2.0169  0.2562
10885SOL     OW38490   4.652  10.028   3.101  0.0662 -0.4850 -0.1408
10885SOL    HW138491   4.638  10.069   3.187  0.0083 -1.2799  0.2371
10885SOL    HW238492   4.745  10.040   3.084 -0.0110  0.0967 -0.1964
10886SOL     OW38493   0.454   2.938   7.145  0.5588 -0.1670 -0.1122
10886SOL    HW138494   0.402   2.891   7.211  0.2690  1.8437  1.1819
10886SOL    HW238495   0.390   2.965   7.079  0.2715  0.5714  0.4529
10887SOL     OW38496   9.658   3.395   7.319  0.4669  0.5301 -0.0605
10887SOL    HW138497   9.727   3.421   7.258  0.1418  1.0327 -0.2284
10887SOL    HW238498   9.579   3.392   7.265  0.3971 -0.3021  0.0732
10888SOL     OW38499   4.558   6.198   8.645 -0.3794  0.1654  0.2895
10888SOL    HW138500   4.647   6.171   8.624 -0.5877 -1.1691  1.0582
10888SOL    HW238501   4.512   6.198   8.560  0.7913  2.7864 -0.4407
10889SOL     OW38502   4.801   8.323   7.829 -0.2817 -0.1925  0.0369
10889SOL    HW138503   4.768   8.306   7.741  1.8957  3.7146 -1.8186
10889SOL    HW238504   4.860   8.249   7.848 -1.2996 -1.4393 -1.4451
10890SOL     OW38505   1.536   0.963   6.358  0.0569 -0.3373  0.6519
10890SOL    HW138506   1.512   0.992   6.446  0.9352  1.1311  0.4389
10890SOL    HW238507   1.459   0.917   6.326  0.1903 -2.1148  2.6765
10891SOL     OW38508   0.786   3.696   1.751  0.8525  0.6740  0.1786
10891SOL    HW138509   0.803   3.637   1.678  0.8954  0.5946  0.2523
10891SOL    HW238510   0.801   3.783   1.716 -1.4314  0.8165 -0.5936
10892SOL     OW38511   5.019   4.849   5.205  0.3471 -0.1557  0.6075
10892SOL    HW138512   5.022   4.754   5.190  1.5420  0.3160 -3.2943
10892SOL    HW238513   4.943   4.879   5.156 -1.0566  0.8783  3.1884
10893SOL     OW38514   4.992   3.926   6.258 -0.3989 -0.0760  0.5158
10893SOL    HW138515   4.931   3.970   6.317 -0.1558 -0.7308  1.2665
10893SOL    HW238516   5.073   3.920   6.308 -0.0569 -0.2405 -0.0520
10894SOL     OW38517   9.836   4.756   3.760  0.2086  0.3170 -0.0181
10894SOL    HW138518   9.901   4.771   3.691 -0.4291  1.6076 -0.3567
10894SOL    HW238519   9.823   4.661   3.760  1.7732  0.0797 -0.2275
10895SOL     OW38520   6.346   2.968   0.935 -0.5459  0.5662 -0.0574
10895SOL    HW138521   6.362   3.022   0.857  1.2265 -1.1166 -0.9473
10895SOL    HW238522   6.355   2.878   0.904 -0.6940 -0.1880  1.9373
10896SOL     OW38523   3.598   5.839   3.887  0.0912  0.2215 -0.4392
10896SOL    HW138524   3.640   5.902   3.945  2.0190 -1.2408 -0.1634
10896SOL    HW238525   3.624   5.865   3.799 -1.3999  1.3925 -0.5826
10897SOL     OW38526   0.866   0.311   6.182 -0.1489  0.4984 -0.1974
10897SOL    HW138527   0.884   0.237   6.241  1.6018  0.8633 -0.2424
10897SOL    HW238528   0.784   0.286   6.138  0.3419 -1.3946 -0.1529
10898SOL     OW38529   8.625   0.776   4.070 -0.7251  0.2006  0.4565
10898SOL    HW138530   8.659   0.811   4.152  1.8437 -0.1219 -0.3875
10898SOL    HW238531   8.538   0.741   4.093 -0.2127  0.3849  2.9373
10899SOL     OW38532   7.230   5.576   6.931  0.0825 -0.1240 -0.4178
10899SOL    HW138533   7.299   5.641   6.938  0.5786 -0.8114  1.5862
10899SOL    HW238534   7.265   5.497   6.972 -2.1270 -0.2552  1.4583
10900SOL     OW38535   7.571   5.971   0.730  0.0213 -0.2227  0.2509
10900SOL    HW138536   7.625   6.004   0.659  0.2540  0.9906  0.9681
10900SOL    HW238537   7.531   5.892   0.694  0.2248  0.2872 -1.1837
10901SOL     OW38538   2.869   2.004   4.079  0.2396 -0.1873 -0.3574
10901SOL    HW138539   2.841   1.923   4.122  0.7393 -0.4336 -0.4938
10901SOL    HW238540   2.856   1.987   3.986 -0.5961  0.2519 -0.3258
10902SOL     OW38541   0.878  10.131   0.676  0.0119 -0.0412  0.3539
10902SOL    HW138542   0.798  10.091   0.710 -1.2367  1.9981  0.0370
10902SOL    HW238543   0.875  10.221   0.709 -0.5220  1.6464 -3.7234
10903SOL     OW38544   3.193   3.288   4.383  0.2734 -0.3904 -0.3231
10903SOL    HW138545   3.161   3.218   4.439  1.4800 -1.4840 -0.9291
10903SOL    HW238546   3.135   3.287   4.307  0.8168 -1.3830 -0.7508
10904SOL     OW38547   1.142   1.277   6.246 -0.5495  0.0067  0.2015
10904SOL    HW138548   1.157   1.262   6.339  0.8699 -2.7370 -0.3650
10904SOL    HW238549   1.052   1.247   6.230 -0.0275 -1.6977  0.3310
10905SOL     OW38550   3.915   0.074   0.143  0.4379  0.4063  0.0725
10905SOL    HW138551   3.898  -0.014   0.177  1.0237  0.5248  0.6991
10905SOL    HW238552   3.833   0.100   0.101  0.5251 -0.7527 -0.8382
10906SOL     OW38553   4.755   5.857   5.554 -0.5249  0.6802  0.5150
10906SOL    HW138554   4.695   5.807   5.610  0.3986  0.6608  1.5195
10906SOL    HW238555   4.705   5.872   5.473 -1.7995  0.5001  1.2413
10907SOL     OW38556   3.256   5.341   3.107  0.1757 -0.0756  0.0912
10907SOL    HW138557   3.235   5.289   3.184 -2.5488 -0.4901 -0.8043
10907SOL    HW238558   3.248   5.432   3.136  2.7116 -0.1096  1.0990
10908SOL     OW38559   4.356   6.449   8.517  0.0306 -0.4274 -0.8726
10908SOL    HW138560   4.273   6.497   8.516 -1.3990 -2.7732 -0.4832
10908SOL    HW238561   4.379   6.442   8.609 -0.8275 -2.1370 -0.7521
10909SOL     OW38562   2.865   1.141  10.401  0.8039  0.2139 -0.0303
10909SOL    HW138563   2.838   1.194  10.475  0.4783  1.8286 -1.2571
10909SOL    HW238564   2.898   1.203  10.337 -1.7360 -0.7059 -2.4761
10910SOL     OW38565   6.317   5.931   6.340  0.2572  0.5500  0.7476
10910SOL    HW138566   6.269   5.956   6.419 -2.4465  1.3738 -0.9819
10910SOL    HW238567   6.264   5.861   6.301 -0.3630  2.3646 -1.9257
10911SOL     OW38568   8.456   1.121   1.733  0.2736 -0.0565  0.1418
10911SOL    HW138569   8.540   1.162   1.714  0.0985 -0.2475 -1.1731
10911SOL    HW238570   8.467   1.030   1.708 -0.3501 -0.0544 -0.1827
10912SOL     OW38571   5.780   3.122   8.317  0.8093 -0.0025  0.0454
10912SOL    HW138572   5.687   3.117   8.293  1.5447 -0.8306 -3.1274
10912SOL    HW238573   5.793   3.047   8.375 -0.5607  0.3036  0.7807
10913SOL     OW38574   7.083   8.158   7.777 -0.0460 -0.7243 -0.1373
10913SOL    HW138575   7.109   8.162   7.869  0.3481  1.8244 -0.2856
10913SOL    HW238576   7.159   8.121   7.732  1.1541  1.2204  0.1811
10914SOL     OW38577  10.473   0.959   8.635  0.0150  0.0872  0.1916
10914SOL    HW138578  10.492   0.984   8.726  1.4294 -0.2927  0.0085
10914SOL    HW238579  10.490   0.865   8.631 -2.6249 -0.4639  0.1713
10915SOL     OW38580   3.385   6.626   6.797 -0.1254  0.2174  0.1008
10915SOL    HW138581   3.313   6.566   6.777  1.1185 -0.9342 -1.1292
10915SOL    HW238582   3.449   6.571   6.843  0.7776  0.7341 -0.5141
10916SOL     OW38583   6.364   3.177   3.517 -0.5661 -0.2561  0.3377
10916SOL    HW138584   6.311   3.191   3.595 -2.5245 -0.1227 -0.9387
10916SOL    HW238585   6.335   3.092   3.483  1.3713 -1.0501  0.5660
10917SOL     OW38586   1.492   8.217   9.097 -0.2067  0.3638  0.1871
10917SOL    HW138587   1.403   8.210   9.131 -0.7636  2.1775 -0.7462
10917SOL    HW238588   1.548   8.194   9.171 -1.4294  0.6393  1.2334
10918SOL     OW38589   5.997   4.937   8.150 -0.2924  0.0831 -0.2490
10918SOL    HW138590   6.057   4.911   8.220  0.1936 -0.9630 -1.0298
10918SOL    HW238591   5.916   4.962   8.195  0.3944  0.5776  0.7521
10919SOL     OW38592   2.492   2.409  10.656 -0.4096 -0.2379 -0.2148
10919SOL    HW138593   2.465   2.459  10.733  1.8112  0.2718  0.2976
10919SOL    HW238594   2.531   2.474  10.598  0.5994 -1.0415 -0.4673
10920SOL     OW38595   8.979   2.565   9.410  0.2355 -0.6809  0.0546
10920SOL    HW138596   8.909   2.522   9.460  1.5571 -0.6310  2.0102
10920SOL    HW238597   8.944   2.652   9.390 -0.5149 -0.8929  0.3963
10921SOL     OW38598   0.267   4.042   5.517  0.4704 -0.0261  0.2599
10921SOL    HW138599   0.325   3.966   5.524  1.0445  0.4363  0.6670
10921SOL    HW238600   0.324   4.117   5.537 -0.2602  0.4474  0.5896
10922SOL     OW38601   0.202   2.006   1.053 -0.0563  0.6958 -0.4795
10922SOL    HW138602   0.273   2.063   1.084 -0.3487  0.3517  0.9034
10922SOL    HW238603   0.208   1.928   1.109 -0.8720  0.2057 -1.0515
10923SOL     OW38604   9.960   6.245   3.775  0.0047 -0.6298  0.5114
10923SOL    HW138605   9.920   6.321   3.735 -1.5270 -1.6586 -0.0012
10923SOL    HW238606  10.039   6.278   3.817 -0.7997  1.2712  0.5832
10924SOL     OW38607   7.085   9.372   6.101  0.4138  0.2453  0.5684
10924SOL    HW138608   7.066   9.291   6.148  2.0713 -1.0985 -0.9093
10924SOL    HW238609   7.150   9.417   6.156 -1.9297  1.6438  2.3746
10925SOL     OW38610   9.160   8.461   2.128 -0.1148 -0.9162 -0.1448
10925SOL    HW138611   9.211   8.539   2.106 -0.2385 -0.8540 -0.2122
10925SOL    HW238612   9.101   8.449   2.054 -1.8071  0.3524  0.9190
10926SOL     OW38613   5.663   0.450   3.926 -0.3629  0.5049  0.4772
10926SOL    HW138614   5.595   0.425   3.864 -1.9858  0.7428  2.0632
10926SOL    HW238615   5.705   0.526   3.886 -1.0460  0.3691 -0.5400
10927SOL     OW38616   3.878   0.862   5.123 -0.0055 -0.0219 -1.0943
10927SOL    HW138617   3.814   0.923   5.084 -0.7832  0.3448  0.6150
10927SOL    HW238618   3.932   0.918   5.179 -0.2572 -0.7785 -0.0649
10928SOL     OW38619   9.214   0.067  10.376  0.0017  0.4969 -0.2330
10928SOL    HW138620   9.215   0.032  10.466 -1.1491  1.8128  0.3284
10928SOL    HW238621   9.122   0.091  10.361  0.7758  3.9912 -0.2370
10929SOL     OW38622   1.055   4.290   9.824  0.3441  0.0544  0.1981
10929SOL    HW138623   1.106   4.214   9.851 -1.6244 -0.9063  1.3962
10929SOL    HW238624   1.116   4.364   9.832  1.5205 -1.0193  1.6882
10930SOL     OW38625   0.222   9.841   7.830 -0.3344  0.1014  0.2224
10930SOL    HW138626   0.297   9.814   7.882 -0.1016  1.5163  0.6574
10930SOL    HW238627   0.148   9.791   7.865  0.5988 -2.4698 -1.2052
10931SOL     OW38628   1.106   0.506   0.136  0.4289 -0.0982 -0.0789
10931SOL    HW138629   1.116   0.414   0.163  1.4320 -0.4836 -1.6128
10931SOL    HW238630   1.157   0.555   0.200  0.4964 -0.6893  0.3333
10932SOL     OW38631   6.677   9.641   9.402  0.0597  0.0191  0.3510
10932SOL    HW138632   6.757   9.658   9.452  1.0405 -2.0750 -0.3670
10932SOL    HW238633   6.635   9.568   9.448 -1.3190  0.9013  0.5487
10933SOL     OW38634   2.028   1.308   2.728  0.4175 -0.0219 -0.4699
10933SOL    HW138635   2.074   1.386   2.698  1.6535  0.3024  1.9734
10933SOL    HW238636   2.092   1.237   2.719 -0.6391 -0.7832 -2.5099
10934SOL     OW38637   5.757   2.502  10.104 -0.9912 -0.3030 -0.3590
10934SOL    HW138638   5.845   2.479  10.132 -0.9397 -0.7762 -0.8824
10934SOL    HW238639   5.760   2.494  10.008 -1.3119  0.6985 -0.4580
10935SOL     OW38640   1.881   7.040   2.583  0.3353  0.4135 -0.0849
10935SOL    HW138641   1.788   7.048   2.558  0.5754 -0.6493 -1.4862
10935SOL    HW238642   1.906   6.953   2.552  1.1764 -0.3500  2.4977
10936SOL     OW38643   5.532   9.407   6.758  0.6544 -0.1595  0.2758
10936SOL    HW138644   5.447   9.449   6.742  0.8501  0.6244  1.1829
10936SOL    HW238645   5.511   9.316   6.779  0.1603 -0.3501 -0.9871
10937SOL     OW38646   3.694   9.932   8.428  0.1743 -0.2755 -0.8598
10937SOL    HW138647   3.671   9.841   8.447  0.8539 -0.4432 -0.8055
10937SOL    HW238648   3.612   9.972   8.399 -0.7794 -0.1600  1.7797
10938SOL     OW38649   2.025   8.230   5.369  0.0676  0.1367 -0.4207
10938SOL    HW138650   2.083   8.273   5.306  1.9800 -1.6370  0.0428
10938SOL    HW238651   2.005   8.298   5.433  0.5263  1.1532 -1.3193
10939SOL     OW38652   1.983   1.822   8.617  0.0784 -0.1047 -0.1612
10939SOL    HW138653   1.894   1.794   8.639 -0.6547  2.6834  0.7338
10939SOL    HW238654   2.040   1.763   8.667 -1.2671 -1.0498  0.3135
10940SOL     OW38655   3.170   6.931   3.148  0.4718  0.1009  0.0986
10940SOL    HW138656   3.136   7.021   3.143 -0.5229 -0.1903  1.2065
10940SOL    HW238657   3.107   6.878   3.099 -0.6632 -0.4180  2.0300
10941SOL     OW38658   7.018   6.312   5.258  0.2242 -0.6381 -0.2443
10941SOL    HW138659   7.017   6.407   5.254  0.0987 -0.6166  0.2511
10941SOL    HW238660   6.928   6.285   5.241 -0.0615 -0.5970  1.1110
10942SOL     OW38661   3.158   5.989   2.690  0.1415 -0.1955 -0.0261
10942SOL    HW138662   3.183   5.902   2.659  1.9991  0.7770 -1.4699
10942SOL    HW238663   3.239   6.026   2.726 -0.8886  0.5126  1.6923
10943SOL     OW38664  10.301   1.628   1.995 -0.0904 -0.6447  0.1501
10943SOL    HW138665  10.392   1.640   2.020 -0.6182  1.3712  1.3157
10943SOL    HW238666  10.299   1.641   1.900  0.7828 -0.3971  0.1641
10944SOL     OW38667   3.637   0.386   4.712  0.4334 -0.6841  0.3759
10944SOL    HW138668   3.686   0.464   4.687 -0.8121 -0.0474 -0.1263
10944SOL    HW238669   3.684   0.314   4.670 -0.0555  0.0885 -1.5804
10945SOL     OW38670   1.200   1.538   5.600 -0.0140 -0.3426 -0.2740
10945SOL    HW138671   1.288   1.509   5.621  0.2119 -1.0185 -1.9416
10945SOL    HW238672   1.170   1.586   5.677  2.4090  1.3102 -0.2835
10946SOL     OW38673  10.501   3.034   3.915  0.2686  0.0201  0.1864
10946SOL    HW138674  10.458   2.987   3.843  1.6240 -0.3162 -0.4423
10946SOL    HW238675  10.472   3.125   3.905 -0.2673 -0.1882 -0.2232
10947SOL     OW38676   8.773   2.584   7.835  0.2264 -0.2518  0.3115
10947SOL    HW138677   8.799   2.589   7.927  1.1967 -0.2987  0.0518
10947SOL    HW238678   8.856   2.584   7.786 -0.2978  1.0014 -0.6316
10948SOL     OW38679   6.401   1.123   2.790  0.0880 -0.4846 -0.2829
10948SOL    HW138680   6.370   1.117   2.700 -2.7127 -0.5214  0.6032
10948SOL    HW238681   6.416   1.217   2.804  1.1998 -0.5450 -0.9550
10949SOL     OW38682  10.468   1.722  10.171  0.3462  0.0399  0.1850
10949SOL    HW138683  10.509   1.636  10.162  0.0822 -0.1718  0.9151
10949SOL    HW238684  10.394   1.707  10.230  1.3970  1.1288  1.8455
10950SOL     OW38685   1.128   8.486   1.982  0.3225 -0.4953  0.1299
10950SOL    HW138686   1.080   8.531   1.913  0.8823 -1.7087 -1.0996
10950SOL    HW238687   1.211   8.461   1.941  2.5243  2.3471  2.4370
10951SOL     OW38688   9.110   1.099  10.462  0.1906  0.1976 -0.4306
10951SOL    HW138689   9.016   1.113  10.448  0.2112 -0.6909 -1.6681
10951SOL    HW238690   9.148   1.186  10.461 -0.7882  0.6934  1.5751
10952SOL     OW38691   0.463   9.029   8.945  0.2818  0.0748  0.0031
10952SOL    HW138692   0.546   9.038   8.897  0.0359  1.4430 -0.2156
10952SOL    HW238693   0.428   8.945   8.917  1.3876 -0.3234 -0.2418
10953SOL     OW38694   3.723   7.770   2.907  0.1223  0.2052 -0.5737
10953SOL    HW138695   3.811   7.801   2.884  1.7542 -0.2601  4.0080
10953SOL    HW238696   3.736   7.681   2.938 -2.0026  0.0836  0.1321
10954SOL     OW38697   3.361   5.100   2.820  0.0435  0.0780 -0.6048
10954SOL    HW138698   3.387   5.097   2.727 -0.6217  1.5323 -0.8560
10954SOL    HW238699   3.442   5.121   2.866  0.4299 -0.8799 -0.8156
10955SOL     OW38700   3.190   0.784   0.141 -0.1050  0.1901 -0.5029
10955SOL    HW138701   3.130   0.724   0.185 -0.1752 -0.2451 -1.1763
10955SOL    HW238702   3.133   0.848   0.098 -0.1563 -0.7476 -1.9004
10956SOL     OW38703  10.140   3.769   5.001 -0.3720  0.2464  0.4337
10956SOL    HW138704  10.232   3.751   4.982 -0.7404 -0.1774 -1.0803
10956SOL    HW238705  10.141   3.854   5.045  0.5942  1.1935 -1.3326
10957SOL     OW38706   1.995   0.134   3.413 -0.5900 -0.5059 -0.2767
10957SOL    HW138707   1.931   0.113   3.481  1.0268 -2.2558  0.8039
10957SOL    HW238708   1.992   0.230   3.406 -0.5898 -0.2292  2.5147
10958SOL     OW38709   2.870   3.331   6.545 -0.2446 -0.5132  0.4119
10958SOL    HW138710   2.797   3.329   6.608  0.3553  3.0444  1.4270
10958SOL    HW238711   2.937   3.276   6.584 -1.3148 -1.5677  0.8460
10959SOL     OW38712   9.757   4.261   8.591 -0.1622  0.4584 -0.4197
10959SOL    HW138713   9.836   4.224   8.552  0.2933 -0.6899  1.4916
10959SOL    HW238714   9.685   4.222   8.540  0.3673 -2.0311  0.6244
10960SOL     OW38715   1.446   8.736   3.547 -0.1449 -0.2575  0.2854
10960SOL    HW138716   1.352   8.718   3.540 -0.1673  0.1446 -0.6549
10960SOL    HW238717   1.457   8.775   3.633 -0.8816 -0.0757  0.3038
10961SOL     OW38718   1.670   0.289   2.625 -0.1784 -0.0225 -0.0760
10961SOL    HW138719   1.574   0.284   2.618 -0.3791  0.5428  1.8106
10961SOL    HW238720   1.697   0.199   2.641 -0.2945 -0.3122 -1.4026
10962SOL     OW38721   3.021   5.267   7.394 -0.6103  0.5773 -0.0297
10962SOL    HW138722   2.997   5.187   7.347 -1.1886 -0.1712  1.4475
10962SOL    HW238723   2.937   5.309   7.414 -0.4062  0.6924  0.6077
10963SOL     OW38724   0.313   4.415   2.369  0.3492  0.0457  0.3320
10963SOL    HW138725   0.378   4.417   2.299  0.8552 -2.2254  0.6471
10963SOL    HW238726   0.357   4.458   2.443  1.1665 -0.6303  0.2608
10964SOL     OW38727   1.368   3.007   7.669 -0.5485 -0.0599 -0.0415
10964SOL    HW138728   1.281   3.006   7.628 -1.1654  0.9865  1.1646
10964SOL    HW238729   1.396   3.098   7.663  0.6145 -0.4488 -0.6879
10965SOL     OW38730   8.318   1.938   1.116 -0.1277 -0.4016 -0.8323
10965SOL    HW138731   8.242   1.961   1.169  0.4513 -2.1121  0.8364
10965SOL    HW238732   8.366   2.020   1.107 -0.6949  0.1196  0.5805
10966SOL     OW38733   4.892  10.078   2.915 -0.3106 -0.2286  0.3034
10966SOL    HW138734   4.860  10.115   2.833 -0.0319 -0.3584  0.1353
10966SOL    HW238735   4.951  10.145   2.950  3.0575 -1.8680 -1.7530
10967SOL     OW38736   8.124   2.110  10.313 -0.0729 -0.1820 -0.3379
10967SOL    HW138737   8.168   2.167  10.376 -0.1634  0.3653 -0.7634
10967SOL    HW238738   8.076   2.048  10.367  1.1152 -0.7215  0.1429
10968SOL     OW38739   4.479   0.376   1.979 -0.0754 -0.0167  0.6332
10968SOL    HW138740   4.420   0.331   1.919 -0.4527  1.2914 -0.0149
10968SOL    HW238741   4.450   0.350   2.066  0.8130 -2.3812  0.3167
10969SOL     OW38742   0.334   3.960   9.203  0.2187 -0.4464 -0.0361
10969SOL    HW138743   0.339   3.870   9.172  2.4800  0.1969 -1.7957
10969SOL    HW238744   0.306   4.011   9.127  0.4218  0.5102  0.5043
10970SOL     OW38745   5.394   5.948   2.673 -0.0668 -0.0992 -0.4358
10970SOL    HW138746   5.319   6.006   2.658 -0.5775 -0.9278 -1.2205
10970SOL    HW238747   5.360   5.860   2.655  0.5827 -0.6980  1.0843
10971SOL     OW38748   4.866   1.846   5.136 -0.2585 -0.1495 -0.0112
10971SOL    HW138749   4.835   1.784   5.202  2.3364 -1.2001  0.3497
10971SOL    HW238750   4.896   1.791   5.063  0.1904  0.7865 -0.5528
10972SOL     OW38751   8.107   2.244   0.253 -0.4133  0.2033  0.2309
10972SOL    HW138752   8.154   2.324   0.276 -1.4016  0.5236  1.1997
10972SOL    HW238753   8.022   2.274   0.220  0.5580 -0.2771 -3.0744
10973SOL     OW38754   0.812  10.711   0.320 -0.3722  0.1324  0.2142
10973SOL    HW138755   0.869  10.745   0.390  0.1616 -1.2476  0.4854
10973SOL    HW238756   0.808  10.617   0.336 -0.0689 -0.2600 -1.7382
10974SOL     OW38757   3.397   2.019  10.168  0.2684  0.4603 -0.3094
10974SOL    HW138758   3.488   1.992  10.152  0.3198  1.1866 -1.3783
10974SOL    HW238759   3.386   2.097  10.113 -0.3085  1.7599  1.5686
10975SOL     OW38760   5.921   2.469   5.175 -0.4141  0.3483 -0.1206
10975SOL    HW138761   5.929   2.529   5.249  0.3706 -2.3115  2.0679
10975SOL    HW238762   5.996   2.490   5.119  0.6832  0.4478  1.3452
10976SOL     OW38763   8.870   0.303   1.130  0.4931 -0.1825 -0.5309
10976SOL    HW138764   8.876   0.392   1.097  1.0116 -0.1694 -0.4129
10976SOL    HW238765   8.814   0.310   1.207  1.1433  0.1742 -0.0796
10977SOL     OW38766   4.978   9.229   3.812  0.4475 -0.2591  0.5812
10977SOL    HW138767   4.946   9.159   3.756  0.1585 -0.1206  0.5740
10977SOL    HW238768   4.976   9.191   3.900  0.5281 -0.3438  0.5469
10978SOL     OW38769   3.760   6.884   7.501 -0.3103  0.0994 -0.3090
10978SOL    HW138770   3.820   6.893   7.427 -0.8774  1.3981 -0.6608
10978SOL    HW238771   3.767   6.968   7.548 -1.2090 -0.0425  0.1101
10979SOL     OW38772   4.054   3.635  10.647  0.6219  0.3496 -0.0334
10979SOL    HW138773   4.061   3.610  10.739 -2.8350  1.0174  0.5415
10979SOL    HW238774   4.074   3.554  10.599 -0.6667 -0.9132  1.4378
10980SOL     OW38775   3.523   7.545  10.085 -0.0775 -0.3471  0.1172
10980SOL    HW138776   3.463   7.581  10.021 -0.5672 -1.1260  0.1295
10980SOL    HW238777   3.539   7.616  10.146  1.8834  1.0472 -1.8663
10981SOL     OW38778   5.506   5.124  10.595 -0.0862  0.2780  0.0741
10981SOL    HW138779   5.470   5.104  10.508  0.4231 -0.1053 -0.0522
10981SOL    HW238780   5.600   5.117  10.584 -0.0635 -1.2346  1.0184
10982SOL     OW38781   2.601   8.393   9.540 -0.1320 -0.6277 -0.0039
10982SOL    HW138782   2.663   8.428   9.476  0.1518 -2.1431 -0.5985
10982SOL    HW238783   2.525   8.367   9.488 -0.2483 -1.0750  0.3758
10983SOL     OW38784   1.510   0.156   4.101  0.0600  0.0246 -0.1090
10983SOL    HW138785   1.576   0.151   4.170  0.4787  0.8336 -0.4344
10983SOL    HW238786   1.426   0.160   4.147  0.2025 -1.2935  0.3043
10984SOL     OW38787   1.815   8.449   6.802 -0.4521  0.6459  0.6041
10984SOL    HW138788   1.731   8.417   6.770 -0.7373  1.8621  0.0877
10984SOL    HW238789   1.793   8.523   6.859  0.2896  1.7743 -0.5085
10985SOL     OW38790   0.210   0.294   1.222 -0.1471  0.6087 -0.0213
10985SOL    HW138791   0.177   0.332   1.141  1.4460  1.0652 -0.4947
10985SOL    HW238792   0.169   0.346   1.291 -0.4365  1.1287 -0.5742
10986SOL     OW38793   5.640   9.515   4.934  0.0864  0.0508 -0.7374
10986SOL    HW138794   5.692   9.453   4.984 -1.1651 -2.2422 -2.0742
10986SOL    HW238795   5.549   9.495   4.957 -0.4077  0.5864 -2.0873
10987SOL     OW38796  10.685   1.485   3.213  0.0660 -0.2965  0.0913
10987SOL    HW138797  10.771   1.467   3.175  0.2346 -0.4427  0.5331
10987SOL    HW238798  10.627   1.420   3.174 -0.5175  1.6030 -2.5015
10988SOL     OW38799   1.726   7.429   5.303 -0.1185  0.6165 -0.7572
10988SOL    HW138800   1.750   7.519   5.280  0.6297  0.6136 -0.0313
10988SOL    HW238801   1.787   7.405   5.373 -1.6405  0.2610  0.5054
10989SOL     OW38802   9.478   7.391   2.039 -0.4898 -0.0922  0.0431
10989SOL    HW138803   9.389   7.402   2.003 -0.5325 -1.7948 -0.4415
10989SOL    HW238804   9.499   7.300   2.023  1.9534  0.6129 -1.1551
10990SOL     OW38805   5.046   8.922   8.616 -0.8329  0.2110  0.0500
10990SOL    HW138806   5.009   8.837   8.639 -0.5169 -0.2307 -0.9982
10990SOL    HW238807   4.986   8.958   8.550 -1.3596  1.1393  1.0028
10991SOL     OW38808   8.117   5.154   9.392 -0.0579  0.2612  0.4991
10991SOL    HW138809   8.077   5.101   9.323  0.7647  0.7049 -0.3257
10991SOL    HW238810   8.194   5.104   9.418  1.2112  1.4252 -0.8861
10992SOL     OW38811   4.424   4.558   4.971  0.0547 -0.0188  0.3718
10992SOL    HW138812   4.431   4.639   4.921  1.4341 -1.2428 -1.5703
10992SOL    HW238813   4.335   4.527   4.954 -0.7572  1.4276  1.7706
10993SOL     OW38814   2.144  10.190   9.236 -0.1121  0.4416  0.0290
10993SOL    HW138815   2.129  10.253   9.306 -0.3808  0.0237  0.3527
10993SOL    HW238816   2.184  10.114   9.280 -2.4768 -0.8088  0.1888
10994SOL     OW38817   3.600   1.913   2.603 -0.1460 -0.1392 -0.5393
10994SOL    HW138818   3.656   1.920   2.525  0.5485 -0.3182 -0.0699
10994SOL    HW238819   3.638   1.975   2.665 -0.2843 -0.4824 -0.1064
10995SOL     OW38820   3.326   6.439   0.067 -0.4080 -0.7435  0.1863
10995SOL    HW138821   3.336   6.350   0.099 -3.3910 -0.9283  0.8462
10995SOL    HW238822   3.267   6.432  -0.007 -1.3215  0.7491  0.7240
10996SOL     OW38823   5.206   8.600   2.224  0.5434  0.5743 -0.2700
10996SOL    HW138824   5.157   8.566   2.149  0.7406 -0.9346  0.2604
10996SOL    HW238825   5.298   8.590   2.201  0.6413 -1.5736  0.8399
10997SOL     OW38826   9.283   6.958   8.930 -0.1357 -0.3924 -0.0503
10997SOL    HW138827   9.323   6.871   8.920 -1.1099 -0.7318 -1.2374
10997SOL    HW238828   9.266   6.987   8.840 -0.3790  0.7765  0.3522
10998SOL     OW38829   2.867   5.172   8.687  0.2481  0.2288  0.2818
10998SOL    HW138830   2.863   5.103   8.753  1.4654 -1.2764 -1.1235
10998SOL    HW238831   2.944   5.150   8.635  0.3373  2.3597 -0.5800
10999SOL     OW38832   3.098   3.690   9.032 -0.9741 -0.3055 -0.3217
10999SOL    HW138833   3.056   3.756   8.978  0.4348  0.3861 -0.6306
10999SOL    HW238834   3.146   3.635   8.970  0.2813  0.2168  0.1416
11000SOL     OW38835   5.700   9.404   7.908 -0.2131 -0.2753 -0.1585
11000SOL    HW138836   5.669   9.314   7.908  1.2428 -0.8078 -0.3506
11000SOL    HW238837   5.694   9.431   7.816  1.3145 -0.9261 -0.4821
11001SOL     OW38838   1.853   0.169   9.852  0.4933 -0.3159  0.6710
11001SOL    HW138839   1.876   0.217   9.931  0.3063 -1.1255  1.2268
11001SOL    HW238840   1.758   0.160   9.857  0.5244 -0.7146  0.5560
11002SOL     OW38841   0.377   3.655   9.095 -0.2280 -0.7510 -0.2541
11002SOL    HW138842   0.359   3.607   9.176 -0.3356  1.6946  1.2734
11002SOL    HW238843   0.473   3.656   9.089 -0.1946 -0.2484  0.3018
11003SOL     OW38844   4.363   2.626   5.743 -0.3087 -0.2906 -0.6080
11003SOL    HW138845   4.345   2.602   5.834 -1.1640  2.7591  0.1242
11003SOL    HW238846   4.456   2.604   5.731 -0.2129 -0.8664  0.9464
11004SOL     OW38847   7.918   3.865   5.298 -0.5196  0.4830  0.2804
11004SOL    HW138848   7.972   3.895   5.225  1.7376 -0.9629  1.2486
11004SOL    HW238849   7.828   3.867   5.264  0.2136  1.8876 -1.7802
11005SOL     OW38850   9.104   4.110   8.785  0.0027  0.4636 -0.8084
11005SOL    HW138851   9.096   4.170   8.859  1.2900 -1.1763  0.7617
11005SOL    HW238852   9.182   4.139   8.739  0.9217 -0.2563  0.2448
11006SOL     OW38853   7.657   5.900   2.691 -0.3224 -0.1246  0.1228
11006SOL    HW138854   7.710   5.886   2.769  0.5152 -0.6351 -0.5277
11006SOL    HW238855   7.716   5.884   2.618 -0.7222  1.6813 -0.6493
11007SOL     OW38856   1.842   4.859   0.440 -0.1028 -0.8772 -0.4933
11007SOL    HW138857   1.909   4.913   0.398 -0.9980 -1.6742 -3.1414
11007SOL    HW238858   1.831   4.784   0.381 -1.2303 -2.2768  1.3971
11008SOL     OW38859   6.648   1.622   1.765  0.1899 -0.1953  0.1030
11008SOL    HW138860   6.696   1.567   1.704  1.7006  1.2374 -0.0656
11008SOL    HW238861   6.710   1.689   1.792 -1.3191  0.9448  0.9480
11009SOL     OW38862   5.637   8.626   3.038  0.1191  0.1252 -0.5976
11009SOL    HW138863   5.636   8.592   3.127  2.4327  1.9877  0.2374
11009SOL    HW238864   5.642   8.548   2.983 -0.7521 -1.0401  0.9003
11010SOL     OW38865   8.275   3.550   5.505  0.0836  0.3419  0.2539
11010SOL    HW138866   8.225   3.623   5.540  3.0761  2.6204  0.1867
11010SOL    HW238867   8.323   3.515   5.580  1.0038  0.4909 -0.2448
11011SOL     OW38868  10.508   2.422   8.854  0.5539  0.0280 -0.0724
11011SOL    HW138869  10.517   2.414   8.759 -0.2779  2.3091 -0.4047
11011SOL    HW238870  10.593   2.454   8.884  0.6803 -0.2862 -0.0885
11012SOL     OW38871   1.478   9.802   3.258  0.5470  0.4753 -0.1194
11012SOL    HW138872   1.413   9.794   3.328  0.0253  0.2370 -0.6312
11012SOL    HW238873   1.467   9.891   3.225  1.4984  0.9489  0.7819
11013SOL     OW38874   5.257   5.602  10.249  0.1996  0.8100  0.6140
11013SOL    HW138875   5.275   5.510  10.229 -4.5716 -0.4013  0.6151
11013SOL    HW238876   5.252   5.645  10.163  0.4370  0.6142  0.5013
11014SOL     OW38877   3.179   8.786   6.535 -0.3985  0.1690  0.1620
11014SOL    HW138878   3.148   8.873   6.561 -0.0983  0.4704 -0.4660
11014SOL    HW238879   3.182   8.789   6.440  1.7620  0.2372  0.1774
11015SOL     OW38880   2.011   4.808   3.890 -1.0394  0.1432 -0.3601
11015SOL    HW138881   2.074   4.857   3.941 -2.6672  1.6394  0.3070
11015SOL    HW238882   2.012   4.720   3.929  0.5050  0.1617 -0.3065
11016SOL     OW38883   1.048   2.975  10.275 -0.4321 -0.0353  0.0250
11016SOL    HW138884   1.082   2.920  10.345 -0.2986  1.2891  1.0310
11016SOL    HW238885   1.016   2.913  10.210 -0.3077 -1.2973  1.1218
11017SOL     OW38886   5.630   5.487   5.718  0.2903 -0.1376 -0.3449
11017SOL    HW138887   5.551   5.501   5.770  0.3309 -0.7720 -0.1081
11017SOL    HW238888   5.611   5.527   5.633 -0.6378 -1.0837 -0.6028
11018SOL     OW38889   2.468   2.393   3.892  0.5030  0.6716  0.1851
11018SOL    HW138890   2.537   2.454   3.866  1.3055 -0.2950 -0.0240
11018SOL    HW238891   2.513   2.327   3.945 -0.4334  0.5355  0.8296
11019SOL     OW38892   8.009   8.111   3.335  0.3981 -0.1239  0.1017
11019SOL    HW138893   8.103   8.123   3.348  0.1250  2.5555  0.0185
11019SOL    HW238894   7.997   8.016   3.340  3.0651 -0.5400  0.2624
11020SOL     OW38895   7.629   9.095   9.699  0.0943 -0.0610 -0.2770
11020SOL    HW138896   7.723   9.108   9.713  0.2109 -0.9618 -0.2037
11020SOL    HW238897   7.595   9.184   9.685  1.1226  0.1943 -1.3902
11021SOL     OW38898   4.665   5.964   5.291  0.5121  0.0765 -0.4967
11021SOL    HW138899   4.631   6.054   5.295 -1.8919 -0.7743 -0.1687
11021SOL    HW238900   4.596   5.914   5.248  1.2024 -1.8887  0.5469
11022SOL     OW38901   2.004   9.011   3.578  0.5270 -0.7770  0.1631
11022SOL    HW138902   2.024   8.932   3.527 -0.3416  0.5056 -2.3528
11022SOL    HW238903   1.926   8.988   3.628  0.0266 -1.4269 -0.8638
11023SOL     OW38904   6.620   3.053   7.059  0.0010  0.1638 -0.3541
11023SOL    HW138905   6.535   3.084   7.030  0.2010  0.5929 -0.4914
11023SOL    HW238906   6.675   3.059   6.981 -0.0890 -1.0461 -0.5262
11024SOL     OW38907   4.592   1.450   0.017 -0.1351 -0.3445 -0.0287
11024SOL    HW138908   4.609   1.433  -0.076  0.9636  1.4716 -0.2135
11024SOL    HW238909   4.505   1.488   0.019  1.0510  2.7049 -0.8171
11025SOL     OW38910   9.502   5.720   1.527 -0.1199 -0.0187  0.2390
11025SOL    HW138911   9.418   5.724   1.482  0.4694  2.1327 -0.7782
11025SOL    HW238912   9.552   5.654   1.479 -1.2554 -1.4794  0.9932
11026SOL     OW38913   6.304   6.325   0.570  0.2521 -0.0584  0.4327
11026SOL    HW138914   6.242   6.386   0.610 -0.4353 -0.5158  0.0902
11026SOL    HW238915   6.381   6.378   0.552 -0.9344  1.1575 -1.4150
11027SOL     OW38916   5.571   9.167   7.379 -0.8578  0.5864  0.6678
11027SOL    HW138917   5.581   9.094   7.440 -2.3847 -0.0428  0.2094
11027SOL    HW238918   5.478   9.189   7.382 -0.7873  1.2048 -0.6744
11028SOL     OW38919   5.804   8.124   2.804  0.0997 -0.5588 -0.4912
11028SOL    HW138920   5.833   8.054   2.862 -1.2206 -0.1047  0.7518
11028SOL    HW238921   5.748   8.081   2.739 -0.3251 -0.7316 -0.0138
11029SOL     OW38922   9.579   8.935   2.899 -0.2493  0.3739  0.1964
11029SOL    HW138923   9.632   8.889   2.964 -1.4650  0.3621  1.2323
11029SOL    HW238924   9.551   8.867   2.838  0.8829  0.3796 -0.3406
11030SOL     OW38925   7.367  10.269   4.805  0.4677  0.3137  0.2035
11030SOL    HW138926   7.296  10.234   4.751  0.4674  0.3027  0.2108
11030SOL    HW238927   7.392  10.197   4.862  0.7465  0.1977 -0.0618
11031SOL     OW38928   8.536   5.609   8.860  0.2424  0.5257 -0.1753
11031SOL    HW138929   8.461   5.595   8.917  1.4411  1.7127  1.7970
11031SOL    HW238930   8.583   5.526   8.860 -0.7101 -0.0281 -0.9183
11032SOL     OW38931   4.489   2.369   7.602 -0.4646  0.4733 -0.0602
11032SOL    HW138932   4.459   2.282   7.626 -0.8447  0.9733  1.3555
11032SOL    HW238933   4.584   2.360   7.594 -0.2804  0.2976  1.8555
11033SOL     OW38934   3.639   8.947   9.415 -0.5924 -0.2622  0.2961
11033SOL    HW138935   3.628   8.953   9.510 -2.6143  0.6818  0.0277
11033SOL    HW238936   3.564   8.992   9.378  0.2572 -0.4322 -1.7848
11034SOL     OW38937   2.520   4.917   5.077  0.0753  0.4249 -0.1056
11034SOL    HW138938   2.477   4.906   5.162  0.5892  1.3717  0.2874
11034SOL    HW238939   2.554   5.007   5.079  0.6688  0.2283 -1.0464
11035SOL     OW38940   7.050   8.019   9.295 -0.6733 -0.0966  0.1663
11035SOL    HW138941   6.973   8.038   9.242 -0.0823  1.0705 -0.3085
11035SOL    HW238942   7.034   7.931   9.330 -1.8464 -0.1924 -0.5609
11036SOL     OW38943   4.423   4.817   0.041  0.1285 -0.6108  0.1149
11036SOL    HW138944   4.419   4.721   0.042 -0.4283 -0.5903  0.1883
11036SOL    HW238945   4.508   4.837   0.001  0.6887 -1.1355  0.9918
11037SOL     OW38946   2.144   0.629   7.589 -0.3514  0.5618 -0.1644
11037SOL    HW138947   2.079   0.648   7.657  0.5266  1.1944  0.5357
11037SOL    HW238948   2.094   0.592   7.517 -1.4409  0.7534  0.4695
11038SOL     OW38949  10.705   1.259   1.207 -0.2186 -1.0382  0.0441
11038SOL    HW138950  10.800   1.264   1.221 -0.5490  0.6639  2.1175
11038SOL    HW238951  10.676   1.188   1.264 -0.5384  0.6213  2.0711
11039SOL     OW38952  10.671   9.877   8.373  0.6562  0.3114 -0.2758
11039SOL    HW138953  10.672   9.817   8.447  1.2160  0.1358 -0.4155
11039SOL    HW238954  10.632   9.827   8.301  1.2349  0.0600 -0.4259
11040SOL     OW38955   7.067   0.594   9.586  0.2834  0.0049 -0.1075
11040SOL    HW138956   6.996   0.582   9.649  1.0573 -0.0262  0.7832
11040SOL    HW238957   7.046   0.533   9.515 -0.9571  0.5333 -0.2176
11041SOL     OW38958   3.546   7.180   1.221 -0.3952 -0.4030  0.7350
11041SOL    HW138959   3.621   7.230   1.188 -0.3812  0.0354  1.4330
11041SOL    HW238960   3.498   7.241   1.276 -0.2883 -1.1988  1.7348
11042SOL     OW38961   4.168  10.397   6.124  0.0797  0.2440  0.5371
11042SOL    HW138962   4.205  10.449   6.196 -0.0539  0.1940  0.6427
11042SOL    HW238963   4.143  10.463   6.059  1.5281  0.2118 -0.1030
11043SOL     OW38964   9.455   8.436   2.243  0.5433 -0.2112  0.9451
11043SOL    HW138965   9.493   8.461   2.159 -1.6072  0.8220  0.1878
11043SOL    HW238966   9.404   8.357   2.224 -0.9470  0.7047  0.9266
11044SOL     OW38967   7.076  10.234   0.055 -0.4089  0.1937 -0.6483
11044SOL    HW138968   7.038  10.287   0.125 -1.6705  0.1978 -1.3169
11044SOL    HW238969   7.140  10.179   0.099  0.8498  2.1478  0.0924
11045SOL     OW38970   0.219   6.492   2.769 -0.2725 -0.6423  0.3796
11045SOL    HW138971   0.206   6.409   2.722 -0.2820  0.4330 -1.6467
11045SOL    HW238972   0.130   6.524   2.786 -0.2695 -0.8611  0.8032
11046SOL     OW38973   6.598   4.164  10.120 -0.0384 -0.2561  0.0654
11046SOL    HW138974   6.630   4.200  10.037  0.1919  0.9652  0.6501
11046SOL    HW238975   6.659   4.093  10.140  0.5954  0.1858 -0.2511
11047SOL     OW38976   1.497  10.707   5.080  0.8264  0.7510  0.2374
11047SOL    HW138977   1.562  10.655   5.033 -0.6750  0.7492 -1.9998
11047SOL    HW238978   1.519  10.695   5.172  0.4562 -4.0981 -0.0282
11048SOL     OW38979   7.470   5.493  10.085 -0.2937 -0.2270  0.0846
11048SOL    HW138980   7.458   5.422  10.148 -1.3028  1.1413  1.5069
11048SOL    HW238981   7.507   5.450  10.008  1.8876 -1.8563  1.8664
11049SOL     OW38982   7.136   9.622   6.373 -0.4056  0.1112  0.0629
11049SOL    HW138983   7.089   9.665   6.303  1.2630 -0.7668 -1.6918
11049SOL    HW238984   7.208   9.681   6.394 -1.8278  1.1898  2.3466
11050SOL     OW38985   5.367   1.424  10.722 -0.6003  0.2723  0.1057
11050SOL    HW138986   5.360   1.475  10.803 -2.2203  1.6355 -0.8442
11050SOL    HW238987   5.336   1.482  10.653 -0.7318 -1.3732 -1.3030
11051SOL     OW38988   4.000   7.190   9.468  0.4722  0.2041 -0.1822
11051SOL    HW138989   3.980   7.280   9.491  0.4760 -0.1665  1.3487
11051SOL    HW238990   3.949   7.137   9.529 -1.0875 -0.8983 -2.3033
11052SOL     OW38991   7.999   1.743   2.194 -0.1424  0.3010 -0.4977
11052SOL    HW138992   8.000   1.804   2.268  0.5641 -1.1918  0.7766
11052SOL    HW238993   8.090   1.742   2.163  0.0612 -0.8144  0.1129
11053SOL     OW38994   5.711   2.923  10.305 -0.4879  0.7124  0.2119
11053SOL    HW138995   5.786   2.891  10.254 -2.7188 -2.2340 -1.4772
11053SOL    HW238996   5.656   2.967  10.241 -2.9459 -2.3200  0.0515
11054SOL     OW38997   7.710   9.066   9.189  0.0177  0.1968 -0.0438
11054SOL    HW138998   7.797   9.029   9.173 -0.0120  0.2615 -0.3569
11054SOL    HW238999   7.672   9.009   9.256  0.8073  0.9455  1.0742
11055SOL     OW39000   2.798   9.989   7.480 -0.4240  0.3464 -0.3731
11055SOL    HW139001   2.814  10.083   7.475  1.1948  0.0831 -0.6662
11055SOL    HW239002   2.874   9.949   7.438 -2.5368 -1.0501 -3.2514
11056SOL     OW39003  10.151   6.982   5.382 -0.0394 -0.7626 -0.1346
11056SOL    HW139004  10.115   6.926   5.450 -1.0638 -1.6358 -1.3603
11056SOL    HW239005  10.195   6.922   5.321 -0.5775 -0.1859 -1.1196
11057SOL     OW39006   2.597   0.995   4.063  0.5214  0.7552 -0.0030
11057SOL    HW139007   2.644   0.963   3.985  0.6890 -2.4407  1.2487
11057SOL    HW239008   2.505   0.992   4.039  0.6402  1.0187 -0.4946
11058SOL     OW39009   1.846   1.541   4.066  0.3828 -0.1990 -0.2570
11058SOL    HW139010   1.932   1.570   4.038  0.0018  0.6386 -0.5952
11058SOL    HW239011   1.813   1.612   4.121 -0.3850 -0.1829 -0.7188
11059SOL     OW39012   3.866  10.470   3.384 -0.2865 -0.4259 -0.0149
11059SOL    HW139013   3.930  10.423   3.437 -1.5840 -0.9921  1.0995
11059SOL    HW239014   3.790  10.412   3.382 -0.7141  0.1600 -1.4519
11060SOL     OW39015   9.091   3.705   1.235  0.0984 -0.4137 -0.2990
11060SOL    HW139016   9.094   3.623   1.283 -1.8614  0.1009  0.7979
11060SOL    HW239017   9.093   3.773   1.303  0.2994  0.4162 -1.1077
11061SOL     OW39018   5.655   1.905   6.271  0.1600 -0.5827 -0.2063
11061SOL    HW139019   5.655   1.869   6.182 -0.9602 -0.9538 -0.0724
11061SOL    HW239020   5.633   1.830   6.327 -0.7283 -0.0033  0.2268
11062SOL     OW39021   4.111   6.498   7.280 -0.3281  0.7359 -0.1196
11062SOL    HW139022   4.158   6.506   7.363 -1.3870  1.1759  0.4513
11062SOL    HW239023   4.063   6.580   7.271 -2.3389 -0.3614  0.1776
11063SOL     OW39024  10.439   8.332   4.465 -0.1463  0.1776  0.3572
11063SOL    HW139025  10.523   8.367   4.437 -0.4333  0.9192  0.3721
11063SOL    HW239026  10.457   8.285   4.547  0.1461  0.9400  0.7432
11064SOL     OW39027   1.796   8.470   0.028 -0.2483  0.4116  0.3228
11064SOL    HW139028   1.832   8.387  -0.003 -1.9356 -1.2524  2.4558
11064SOL    HW239029   1.814   8.471   0.122  0.5766  2.9793  0.2245
11065SOL     OW39030   1.666   3.541   7.360 -0.8688 -0.6439  0.0421
11065SOL    HW139031   1.731   3.567   7.295 -0.1274 -2.2186  0.1051
11065SOL    HW239032   1.702   3.572   7.443  0.1668 -2.0762  0.1572
11066SOL     OW39033   3.514   1.199   1.027 -0.4489 -0.0481 -0.2078
11066SOL    HW139034   3.465   1.226   1.105 -1.3780  0.3400 -0.9028
11066SOL    HW239035   3.469   1.120   0.997  0.3958 -0.6529  0.0905
11067SOL     OW39036   5.157   4.631  10.005 -0.8165 -0.1559  0.1672
11067SOL    HW139037   5.105   4.555   9.980 -0.4583  0.2866 -2.1216
11067SOL    HW239038   5.120   4.703   9.956  1.2307  0.3859 -0.6809
11068SOL     OW39039   8.564   3.338   5.084 -0.1199  0.1207 -0.7722
11068SOL    HW139040   8.588   3.334   4.991 -1.7868 -1.0759 -1.1862
11068SOL    HW239041   8.469   3.340   5.084 -0.2141 -1.9802  0.9611
11069SOL     OW39042   4.437   4.605   2.682  0.1011  0.0062 -0.1699
11069SOL    HW139043   4.463   4.669   2.748  0.5092 -0.7090  0.3781
11069SOL    HW239044   4.520   4.574   2.646 -0.1059  0.0266 -0.6654
11070SOL     OW39045   8.867   8.017  10.663 -0.1233 -0.4850 -0.0231
11070SOL    HW139046   8.801   7.968  10.614 -0.6727  0.4409 -0.2417
11070SOL    HW239047   8.950   7.991  10.623 -0.4827 -0.5149 -0.7842
11071SOL     OW39048   6.024  10.418   2.792  0.5405 -0.0726  0.6794
11071SOL    HW139049   5.998  10.328   2.811 -1.6901  0.3721 -0.0095
11071SOL    HW239050   6.000  10.431   2.701  2.1533  0.8188  0.3438
11072SOL     OW39051   0.790   4.490   2.134  0.5593 -0.1746  0.0795
11072SOL    HW139052   0.840   4.571   2.125  0.8266 -0.0007  2.5626
11072SOL    HW239053   0.698   4.516   2.128  0.6589 -0.0982 -1.6441
11073SOL     OW39054   8.646   2.522   6.444 -0.0259 -0.6155 -0.2227
11073SOL    HW139055   8.722   2.483   6.488  0.1307 -0.7824 -0.6334
11073SOL    HW239056   8.657   2.616   6.455 -0.0415 -0.6602  0.1815
11074SOL     OW39057   0.025   3.289   8.955 -0.4680 -0.5327  0.4075
11074SOL    HW139058   0.034   3.374   8.912  0.3671 -1.2541 -0.8857
11074SOL    HW239059   0.065   3.302   9.041 -1.0548  0.5836  0.5426
11075SOL     OW39060   9.842   8.838   3.413  0.2391 -0.0863 -0.2777
11075SOL    HW139061   9.853   8.830   3.507  0.6741  0.5359 -0.2650
11075SOL    HW239062   9.826   8.749   3.382 -3.7724  0.0436  0.8423
11076SOL     OW39063   6.766   1.909  10.466 -0.4403  0.0597 -0.4044
11076SOL    HW139064   6.681   1.886  10.505  0.0260  0.8372  1.1147
11076SOL    HW239065   6.771   2.004  10.473  1.3669 -0.1007  1.3348
11077SOL     OW39066   4.249   4.241   9.981 -0.5106 -0.0014  0.1780
11077SOL    HW139067   4.215   4.207   9.898 -1.1315  1.6014 -0.2500
11077SOL    HW239068   4.218   4.331   9.985 -1.0478 -0.2217  2.4670
11078SOL     OW39069  10.118   3.366   3.167  0.2039 -0.2782 -0.0500
11078SOL    HW139070  10.136   3.302   3.237  0.7192  0.1534  0.2172
11078SOL    HW239071  10.043   3.329   3.120 -0.2155 -0.5378  0.7835
11079SOL     OW39072   4.335   0.711   9.560 -0.2026 -0.4263 -0.2938
11079SOL    HW139073   4.279   0.785   9.536  0.4461  0.2140  0.1395
11079SOL    HW239074   4.402   0.710   9.492  0.2973 -0.0596  0.1901
11080SOL     OW39075   6.267   4.675   7.976  0.7299 -0.0280  0.7390
11080SOL    HW139076   6.361   4.689   7.980  0.9607 -1.0359 -0.4044
11080SOL    HW239077   6.253   4.595   8.026  0.3668  0.5190  1.5293
11081SOL     OW39078   8.399   0.514   8.712 -0.2319 -0.2017 -0.1426
11081SOL    HW139079   8.434   0.602   8.727 -0.7943 -0.0077  0.0388
11081SOL    HW239080   8.310   0.528   8.680  0.2990 -0.6523 -1.9422
11082SOL     OW39081   8.482   3.596   5.238  0.1208 -0.3000 -0.3966
11082SOL    HW139082   8.536   3.522   5.211 -0.2413 -1.7311  2.4708
11082SOL    HW239083   8.434   3.565   5.314 -1.8110  2.1855 -0.4596
11083SOL     OW39084   2.265   6.473   1.343  0.6868 -0.2044  0.0839
11083SOL    HW139085   2.328   6.437   1.281  1.1118 -3.2178  2.0618
11083SOL    HW239086   2.180   6.443   1.311  0.7154 -0.1618 -0.0339
11084SOL     OW39087   6.624   3.442   5.945  0.4420 -0.1019 -0.3704
11084SOL    HW139088   6.662   3.398   5.869 -0.7469 -0.6876 -0.6405
11084SOL    HW239089   6.668   3.527   5.948  1.3887 -0.5546 -0.9676
11085SOL     OW39090  10.566   5.984   3.102 -0.4664  0.3018  0.1468
11085SOL    HW139091  10.647   5.941   3.128 -0.7235  0.1534  0.7165
11085SOL    HW239092  10.581   6.011   3.011  0.1232  0.0525  0.1670
11086SOL     OW39093   0.466   9.084   5.524 -0.0096 -0.4638  0.2121
11086SOL    HW139094   0.398   9.026   5.491 -1.1358  1.3557 -0.7685
11086SOL    HW239095   0.515   9.029   5.586  0.6650 -3.2806 -2.5525
11087SOL     OW39096  10.566   7.910   0.584  0.5901 -0.1857 -0.3890
11087SOL    HW139097  10.646   7.912   0.637  0.7336 -0.1976 -0.6068
11087SOL    HW239098  10.509   7.976   0.624  0.1934 -1.0811  0.5863
11088SOL     OW39099   6.308   1.174   3.277 -0.3636 -0.7155  0.0378
11088SOL    HW139100   6.358   1.252   3.254 -1.3269 -0.7633 -2.5861
11088SOL    HW239101   6.374   1.108   3.297  0.4899  0.3741  0.9294
11089SOL     OW39102   5.088   4.120   5.326  0.6729  0.6781  0.2720
11089SOL    HW139103   5.050   4.191   5.377  2.1318  2.0432 -0.4446
11089SOL    HW239104   5.151   4.079   5.386 -0.0654  0.0642  0.6392
11090SOL     OW39105   0.732   6.028   9.910  0.0426  0.0144  0.4950
11090SOL    HW139106   0.816   5.986   9.929 -0.0148 -0.3537 -0.0321
11090SOL    HW239107   0.750   6.122   9.914  0.0682 -0.0313  2.1412
11091SOL     OW39108   0.662   4.943   4.537  0.1067  0.7268  0.1635
11091SOL    HW139109   0.568   4.951   4.521 -0.0097  0.0669  0.4503
11091SOL    HW239110   0.693   5.033   4.547 -0.3187  1.0053 -0.8663
11092SOL     OW39111   0.357   4.905   6.243 -0.2696 -0.1883  0.1956
11092SOL    HW139112   0.403   4.965   6.184 -3.3268 -1.7486 -4.2736
11092SOL    HW239113   0.426   4.847   6.277  1.9875  2.3629  0.3496
11093SOL     OW39114   0.622   1.830   3.346 -0.0231 -0.0075  0.2004
11093SOL    HW139115   0.623   1.843   3.441  1.5668  0.1965  0.1910
11093SOL    HW239116   0.675   1.751   3.333 -1.3367 -0.8013 -0.4335
11094SOL     OW39117   1.168   3.093   3.078  0.1523  0.4376  0.0266
11094SOL    HW139118   1.242   3.151   3.062  0.6367 -0.0937  0.3201
11094SOL    HW239119   1.207   3.013   3.113 -0.3985 -0.4509 -1.2952
11095SOL     OW39120   8.352   0.732   9.432  0.3442 -0.1473  0.2091
11095SOL    HW139121   8.418   0.676   9.472  1.1978 -0.2020 -1.2219
11095SOL    HW239122   8.312   0.678   9.364 -0.8390  0.0626  0.6933
11096SOL     OW39123   8.689   0.117   2.960 -0.2549  0.0100  0.2186
11096SOL    HW139124   8.622   0.143   2.898 -1.6551 -0.7603  1.3472
11096SOL    HW239125   8.770   0.113   2.909 -0.4173  3.7709 -0.6195
11097SOL     OW39126   9.242   9.779  10.108 -0.4316  0.1962 -0.2731
11097SOL    HW139127   9.306   9.850  10.120 -1.4434  1.0079  0.4970
11097SOL    HW239128   9.230   9.742  10.195 -0.3768 -0.5235 -0.5656
11098SOL     OW39129   1.170   0.716   0.955 -0.1831  0.0065  0.4320
11098SOL    HW139130   1.112   0.641   0.969 -0.0735  0.0069  0.8958
11098SOL    HW239131   1.187   0.750   1.042  1.6799 -0.8751  0.4678
11099SOL     OW39132   1.473   7.054   8.872 -0.2524 -0.3684 -0.4200
11099SOL    HW139133   1.421   7.129   8.901 -1.5125 -2.1873  2.4232
11099SOL    HW239134   1.535   7.039   8.944  1.5624 -0.7111 -1.9682
11100SOL     OW39135   8.402   6.173   0.294  0.6237  0.0996 -0.3937
11100SOL    HW139136   8.401   6.142   0.203  0.7815  0.5085 -0.5362
11100SOL    HW239137   8.447   6.257   0.290  0.0876  0.4053 -0.0236
11101SOL     OW39138  10.665   4.236   7.205 -0.2384  0.2885 -0.1459
11101SOL    HW139139  10.579   4.248   7.246 -0.6528 -2.6108  0.0692
11101SOL    HW239140  10.721   4.203   7.274 -0.2339 -2.1291 -1.1964
11102SOL     OW39141  10.190   4.351   1.324 -0.0267 -0.0239  0.1768
11102SOL    HW139142  10.098   4.378   1.315 -0.1636 -0.6737 -0.4698
11102SOL    HW239143  10.218   4.389   1.407 -0.6235  0.9004 -0.0335
11103SOL     OW39144   8.316   7.803   9.937  0.2213  0.6914  0.3254
11103SOL    HW139145   8.330   7.712   9.911 -1.3168  0.6842 -0.5467
11103SOL    HW239146   8.284   7.798  10.027 -1.0420  0.2788 -0.1354
11104SOL     OW39147   8.354   8.700   3.042 -0.4148 -0.4004 -0.1705
11104SOL    HW139148   8.278   8.657   3.003  1.0133 -1.6429 -1.7202
11104SOL    HW239149   8.383   8.639   3.110 -0.5929 -0.0674  0.2121
11105SOL     OW39150   0.283   4.041   6.988 -0.8691  0.3565  0.1461
11105SOL    HW139151   0.307   3.990   6.910  1.3383  0.3192  0.7804
11105SOL    HW239152   0.215   4.101   6.957  0.0668  0.4823 -1.8776
11106SOL     OW39153   3.073   1.733   2.263 -0.0544 -0.2823 -0.4277
11106SOL    HW139154   3.051   1.822   2.238 -1.2116 -0.1192  0.9752
11106SOL    HW239155   3.015   1.714   2.337  1.9677 -1.2596  1.0219
11107SOL     OW39156   8.202   3.140   4.431  0.0908 -0.3345  0.0037
11107SOL    HW139157   8.216   3.176   4.518 -0.2890 -1.2997  0.4764
11107SOL    HW239158   8.160   3.056   4.446 -0.9051 -0.0698 -1.1538
11108SOL     OW39159   3.650   5.408   3.404  0.0634 -0.2475  0.4428
11108SOL    HW139160   3.630   5.500   3.424  1.3656 -0.2997  2.1796
11108SOL    HW239161   3.582   5.358   3.448 -0.1786 -0.1655  0.1699
11109SOL     OW39162   7.075   9.412   5.354  0.2312 -0.0473  1.1141
11109SOL    HW139163   6.998   9.356   5.341  0.7998 -0.7819  0.8445
11109SOL    HW239164   7.039   9.494   5.388 -0.7279 -0.1440  0.3742
11110SOL     OW39165  10.253   2.340  10.688 -0.1909  0.6022  0.7276
11110SOL    HW139166  10.349   2.337  10.687 -0.2076 -0.6375  0.5746
11110SOL    HW239167  10.230   2.338  10.780 -0.0732  0.5112  0.7563
11111SOL     OW39168   5.683  10.078   7.101 -0.2919 -0.0467  0.1421
11111SOL    HW139169   5.671  10.058   7.193  1.0360 -1.9467 -0.0390
11111SOL    HW239170   5.605  10.042   7.058 -0.1681 -0.5914  0.3674
11112SOL     OW39171   7.209  10.115   3.703  0.3021  0.7212 -0.8909
11112SOL    HW139172   7.174  10.196   3.667 -0.6519  0.6739 -0.1063
11112SOL    HW239173   7.171  10.109   3.790  1.8765  0.3978 -0.1853
11113SOL     OW39174   0.947   4.927   1.439  0.2810 -0.0897 -0.0418
11113SOL    HW139175   0.851   4.927   1.432  0.1935  1.5543  0.6146
11113SOL    HW239176   0.977   4.891   1.356 -0.8981  0.9446 -0.9524
11114SOL     OW39177   5.519   8.828   2.300  0.3304  0.0247  0.5018
11114SOL    HW139178   5.529   8.907   2.247  0.1896 -0.2343  0.0859
11114SOL    HW239179   5.449   8.849   2.362 -1.3533 -0.5529 -1.1104
11115SOL     OW39180   8.195   2.764   0.182  0.1689 -0.1470 -0.2424
11115SOL    HW139181   8.102   2.755   0.161  0.0915  0.8621 -0.3421
11115SOL    HW239182   8.198   2.835   0.246  0.8335 -0.4543  0.0708
11116SOL     OW39183   2.494   5.826   1.639 -0.9389  0.0442  0.3456
11116SOL    HW139184   2.449   5.795   1.561  2.4323 -0.0123 -1.7777
11116SOL    HW239185   2.505   5.920   1.624  2.6437 -0.4504 -1.0894
11117SOL     OW39186   0.034   4.259   7.561 -0.2830 -0.1947 -0.0836
11117SOL    HW139187  -0.046   4.285   7.515 -0.6373  0.9492  1.1194
11117SOL    HW239188   0.104   4.300   7.511 -0.6864  1.2689  0.4911
11118SOL     OW39189   2.316   4.990   7.586  0.0523  0.5242  0.4331
11118SOL    HW139190   2.348   4.917   7.533 -0.4422  0.7697 -0.2078
11118SOL    HW239191   2.309   4.953   7.675 -1.5391 -0.6591 -0.1185
11119SOL     OW39192   9.400   7.168   1.148 -0.5135 -0.4419  0.0675
11119SOL    HW139193   9.446   7.245   1.115 -0.7106 -0.3332  0.0400
11119SOL    HW239194   9.402   7.178   1.244 -0.3967 -0.4870  0.0700
11120SOL     OW39195   7.205   7.662   5.250 -0.0253 -0.5118 -0.2264
11120SOL    HW139196   7.240   7.642   5.337 -0.7120 -1.1766 -0.0937
11120SOL    HW239197   7.279   7.702   5.204 -0.0665  1.2741  1.1369
11121SOL     OW39198   4.277   6.975   1.490  0.5435 -0.4247 -0.0322
11121SOL    HW139199   4.341   6.956   1.421 -0.6405  0.0182 -1.3162
11121SOL    HW239200   4.211   6.906   1.480 -1.0982  1.2317 -1.2706
11122SOL     OW39201   7.823   7.042   6.337 -0.5591  0.0823 -0.2664
11122SOL    HW139202   7.869   7.037   6.421 -0.3249  0.0863 -0.3949
11122SOL    HW239203   7.784   6.955   6.327 -2.4588  0.7431  0.9066
11123SOL     OW39204   3.864   0.022   5.875  0.5328  0.4563  0.1176
11123SOL    HW139205   3.877   0.090   5.941 -0.0483 -0.5115  1.2851
11123SOL    HW239206   3.771   0.027   5.853  0.6170  0.4360 -0.2435
11124SOL     OW39207   1.482   0.508   6.820 -0.0558  0.4524 -0.0635
11124SOL    HW139208   1.519   0.569   6.883 -0.9528 -0.0591  0.9819
11124SOL    HW239209   1.468   0.427   6.869 -0.6818  0.0141 -0.9316
11125SOL     OW39210   6.436  10.703   6.531  0.3714 -0.3118 -0.0318
11125SOL    HW139211   6.375  10.774   6.511  0.0388 -0.3616  0.7611
11125SOL    HW239212   6.514  10.748   6.566  0.0199 -0.3437  0.8175
11126SOL     OW39213   5.960   1.981   0.248  0.7085  0.7469  0.0884
11126SOL    HW139214   6.034   1.956   0.303  0.6040  0.1066 -0.0488
11126SOL    HW239215   6.000   2.008   0.165  0.7476 -1.4323 -0.6889
11127SOL     OW39216   2.901   3.085   3.018  0.6582  0.1490 -0.3182
11127SOL    HW139217   2.946   3.005   2.990  1.9453  0.9088 -0.4477
11127SOL    HW239218   2.812   3.074   2.984  1.5550  0.0528 -2.9017
11128SOL     OW39219   8.574   2.666   8.147 -0.1463  0.2669  0.0239
11128SOL    HW139220   8.655   2.696   8.106 -1.2279  0.3256 -2.2171
11128SOL    HW239221   8.522   2.746   8.157  0.2933  0.3541  2.1603
11129SOL     OW39222   4.749   8.266   1.164  0.1720 -0.5142 -0.7558
11129SOL    HW139223   4.670   8.299   1.122 -0.7935 -0.8549  0.7310
11129SOL    HW239224   4.762   8.179   1.125 -0.2734 -0.5229 -0.8939
11130SOL     OW39225   5.302   9.987   1.154  0.1467  0.2717  0.5863
11130SOL    HW139226   5.397   9.992   1.144  0.0437 -0.0653 -0.8314
11130SOL    HW239227   5.271   9.957   1.068 -1.1273 -1.0317  1.4612
11131SOL     OW39228   3.248   9.795   0.390 -0.4100  0.2633 -0.2598
11131SOL    HW139229   3.291   9.720   0.430  0.9024  0.6744 -0.8561
11131SOL    HW239230   3.176   9.758   0.339  0.3475 -0.6106 -0.7079
11132SOL     OW39231   1.218   2.933   8.169  0.5915  0.6495 -0.1129
11132SOL    HW139232   1.167   2.880   8.108 -0.7260  1.3793  0.3241
11132SOL    HW239233   1.205   3.023   8.140  1.9636  0.8351 -0.2190
11133SOL     OW39234   1.740   5.273   0.428  0.2424  0.1529 -0.5339
11133SOL    HW139235   1.791   5.196   0.403 -0.0289 -0.1806 -0.0657
11133SOL    HW239236   1.782   5.305   0.508 -1.4750 -1.3075  1.0173
11134SOL     OW39237   9.191  10.647  10.066 -0.6910  0.2358 -0.2231
11134SOL    HW139238   9.238  10.659   9.984 -1.5037  0.2453 -0.6934
11134SOL    HW239239   9.248  10.590  10.118 -0.3308 -0.0591 -0.9231
11135SOL     OW39240   4.164   4.480   6.615  0.2255  0.1072  0.2954
11135SOL    HW139241   4.226   4.410   6.633  0.6892  0.1744 -0.9771
11135SOL    HW239242   4.167   4.492   6.520 -0.8598  0.9207  0.3398
11136SOL     OW39243   4.738   2.223   4.906 -0.1420 -0.0140 -0.0705
11136SOL    HW139244   4.667   2.159   4.906  0.1872 -0.4065  1.1073
11136SOL    HW239245   4.710   2.290   4.968 -0.0878  0.5313 -0.6296
11137SOL     OW39246   9.726   2.156   9.866 -0.0810  0.2492 -0.4250
11137SOL    HW139247   9.779   2.197   9.934  0.0436 -0.4800 -0.0782
11137SOL    HW239248   9.644   2.205   9.867  0.4234  1.1166 -0.6866
11138SOL     OW39249   6.837   5.366   7.133 -0.1326  0.7842  0.2056
11138SOL    HW139250   6.867   5.443   7.084  1.2781  0.1675  0.0483
11138SOL    HW239251   6.784   5.317   7.070  2.2133 -0.3503 -1.0461
11139SOL     OW39252   0.084   5.580   9.247 -0.0255 -0.3950  0.4385
11139SOL    HW139253   0.164   5.527   9.251  1.2479  1.4747  1.0000
11139SOL    HW239254   0.063   5.600   9.338 -1.2696 -1.0025  0.3084
11140SOL     OW39255   1.129   1.230   8.834 -0.1442  0.5048  0.1060
11140SOL    HW139256   1.131   1.184   8.918 -1.7888  0.5902  0.2134
11140SOL    HW239257   1.219   1.223   8.802  0.5975  0.7356  1.9952
11141SOL     OW39258   0.814   1.870   9.177 -0.1508 -0.5316  0.1216
11141SOL    HW139259   0.841   1.835   9.263 -0.7116 -0.0819  0.4878
11141SOL    HW239260   0.730   1.911   9.194  0.0618  0.1755 -0.5081
11142SOL     OW39261   4.642   4.079   3.637  0.2048  0.1947 -0.5065
11142SOL    HW139262   4.550   4.055   3.643  0.6477 -1.4017  0.4147
11142SOL    HW239263   4.688   3.996   3.627  1.4784  1.0439 -2.2539
11143SOL     OW39264   9.218   7.648   9.267 -0.1256  0.3002  0.3685
11143SOL    HW139265   9.219   7.655   9.171 -1.2620 -0.5557  0.2777
11143SOL    HW239266   9.183   7.561   9.284 -0.7339  0.7689  1.5797
11144SOL     OW39267   4.013   1.518   3.810  0.1644  0.1458  0.1672
11144SOL    HW139268   3.949   1.563   3.865  1.1712  0.0021  1.4855
11144SOL    HW239269   3.985   1.426   3.809 -0.9647  0.4608 -1.2086
11145SOL     OW39270   9.186   0.399   8.224 -0.2473  0.5227  0.2672
11145SOL    HW139271   9.242   0.439   8.158  0.0465  0.5661  0.5368
11145SOL    HW239272   9.134   0.472   8.258 -0.9821  0.3578 -0.4824
11146SOL     OW39273   6.640   8.314  10.268  0.1067 -0.2197 -0.4638
11146SOL    HW139274   6.674   8.346  10.352 -1.4150 -0.1928  0.1848
11146SOL    HW239275   6.588   8.388  10.235 -1.1649 -1.0182 -0.3024
11147SOL     OW39276  10.461   1.745   8.502  0.2351  0.7048 -0.1398
11147SOL    HW139277  10.417   1.805   8.442  1.0448  0.7188 -0.7457
11147SOL    HW239278  10.518   1.693   8.445 -0.7459 -0.9223  0.3143
11148SOL     OW39279   5.027   1.315  10.271 -0.0672 -0.2881  0.1105
11148SOL    HW139280   4.982   1.379  10.327  0.2712 -0.8656  1.0693
11148SOL    HW239281   4.958   1.282  10.213 -0.2613  0.8750 -0.3558
11149SOL     OW39282   2.591   0.235   3.859  0.8837  0.5443  0.4950
11149SOL    HW139283   2.665   0.293   3.841  1.5710 -0.1986  0.8411
11149SOL    HW239284   2.520   0.294   3.885  1.7158  1.2003  1.3654
11150SOL     OW39285   2.650   1.251   4.172  0.1917  0.5668 -0.0721
11150SOL    HW139286   2.640   1.177   4.112  0.7403 -0.9425  1.6136
11150SOL    HW239287   2.571   1.249   4.225  1.5463 -0.8203  2.0368
11151SOL     OW39288   0.453   4.164   7.645  0.3374  1.2232 -0.5626
11151SOL    HW139289   0.471   4.194   7.734  1.0719  0.9507 -0.6129
11151SOL    HW239290   0.374   4.211   7.619 -1.8793 -1.0766  1.4370
11152SOL     OW39291   6.422   5.647   8.599 -0.0894  0.0742  0.1937
11152SOL    HW139292   6.476   5.682   8.671  0.4599  0.6547 -0.4872
11152SOL    HW239293   6.433   5.710   8.528 -3.9830  1.9120  0.9026
11153SOL     OW39294   2.073   6.298   3.809 -0.3917  0.4042 -0.3511
11153SOL    HW139295   2.046   6.381   3.849 -1.7937 -1.0331  1.9536
11153SOL    HW239296   2.000   6.274   3.752 -1.1191 -0.3596  0.8602
11154SOL     OW39297   3.744   0.431   8.517  0.1084 -0.4294 -0.0570
11154SOL    HW139298   3.778   0.429   8.428 -0.4236  1.0286 -0.3116
11154SOL    HW239299   3.649   0.436   8.507 -0.1184 -2.4272  0.6304
11155SOL     OW39300   9.897   3.692   9.857  0.6643  0.2439 -0.1013
11155SOL    HW139301   9.922   3.738   9.776  0.0834  0.6977 -0.0325
11155SOL    HW239302   9.828   3.746   9.894 -0.4471 -0.9822 -0.3064
11156SOL     OW39303   7.779   5.423   1.939 -0.0613  0.1433 -0.2058
11156SOL    HW139304   7.718   5.435   2.012  0.2151 -0.6234  0.1624
11156SOL    HW239305   7.726   5.436   1.861 -0.8319 -0.9979  0.0970
11157SOL     OW39306   6.153   9.209   3.349  0.3399 -0.0404  0.0123
11157SOL    HW139307   6.134   9.250   3.265  0.2232  0.0679  0.0904
11157SOL    HW239308   6.194   9.125   3.326  1.3175  0.4714 -0.1411
11158SOL     OW39309  10.207   5.591   2.262  0.0141 -0.0538 -0.6103
11158SOL    HW139310  10.166   5.505   2.254 -2.1536  0.8215  0.2937
11158SOL    HW239311  10.224   5.602   2.355  0.2460  0.5173 -0.7145
11159SOL     OW39312   8.856   0.792   7.262 -0.0833  0.5979 -0.2277
11159SOL    HW139313   8.761   0.780   7.258 -0.0346 -0.0291  0.3630
11159SOL    HW239314   8.874   0.865   7.202 -1.0847  1.5249  0.5541
11160SOL     OW39315   4.577   7.310   8.416 -0.4507 -0.1501  0.2139
11160SOL    HW139316   4.646   7.362   8.456  0.6151 -0.4957 -1.1149
11160SOL    HW239317   4.533   7.371   8.356  0.4074 -0.5734 -0.8860
11161SOL     OW39318   0.601   0.896   3.292  0.4430  0.4067  0.6827
11161SOL    HW139319   0.682   0.852   3.266  0.8373  0.9652  0.9153
11161SOL    HW239320   0.565   0.842   3.362  0.2150 -0.2489  0.0580
11162SOL     OW39321   9.386   4.390   3.093  0.3402 -0.5087 -0.3411
11162SOL    HW139322   9.319   4.426   3.152 -0.1211 -2.2325  0.2316
11162SOL    HW239323   9.414   4.310   3.136  0.1184 -1.7427 -2.4068
11163SOL     OW39324   1.073   1.096   7.331 -0.2829  0.7393  0.1917
11163SOL    HW139325   1.128   1.174   7.332  0.2808  0.3562 -0.3616
11163SOL    HW239326   1.010   1.112   7.261  0.2750  0.4138 -0.4019
11164SOL     OW39327   4.445   2.947   6.197 -0.5443  0.1806  0.4792
11164SOL    HW139328   4.454   2.895   6.118 -0.2014  0.2600  0.4640
11164SOL    HW239329   4.533   2.948   6.235 -0.3765  1.3398  0.1095
11165SOL     OW39330   8.274   8.182   3.311 -0.1624  0.5099  0.2872
11165SOL    HW139331   8.367   8.169   3.290  0.6251  2.0433  2.4381
11165SOL    HW239332   8.234   8.205   3.227  1.3744 -0.2437 -0.7074
11166SOL     OW39333   7.741   9.433   2.725  0.0929  0.5137 -0.1879
11166SOL    HW139334   7.822   9.480   2.741  0.3715 -0.2360  0.6809
11166SOL    HW239335   7.682   9.461   2.794 -0.9451  2.2140 -1.6806
11167SOL     OW39336   4.433   9.114   5.725 -0.3138  0.0499  0.0638
11167SOL    HW139337   4.421   9.208   5.739 -0.2036  0.1776 -0.6336
11167SOL    HW239338   4.404   9.100   5.634  0.0735 -0.5110  0.0221
11168SOL     OW39339   9.443   2.393   2.329  0.8083 -0.1167 -0.0574
11168SOL    HW139340   9.383   2.386   2.255  1.0530 -0.1502 -0.2541
11168SOL    HW239341   9.529   2.403   2.289  1.0123 -0.7139  0.2213
11169SOL     OW39342   4.538   2.999   6.825  0.0539 -0.7622 -0.2267
11169SOL    HW139343   4.614   3.018   6.770  0.1947 -1.9282 -0.4575
11169SOL    HW239344   4.465   2.996   6.764 -0.3781  1.2650  0.1034
11170SOL     OW39345   7.218   8.198   3.365 -0.6852 -0.6101  0.4073
11170SOL    HW139346   7.178   8.123   3.322 -0.0351 -0.5410 -0.3477
11170SOL    HW239347   7.186   8.195   3.455 -2.3362 -0.5647 -0.1583
11171SOL     OW39348   3.838   0.433   9.836  0.1318 -0.4207 -0.3002
11171SOL    HW139349   3.928   0.448   9.806 -0.6239  2.4770 -1.4156
11171SOL    HW239350   3.838   0.463   9.927  0.7249 -2.4250  0.4096
11172SOL     OW39351   0.869   8.176   1.802 -0.0704  0.2867 -0.0562
11172SOL    HW139352   0.835   8.252   1.849 -0.6429 -0.7570  1.3071
11172SOL    HW239353   0.813   8.103   1.832  2.6160 -1.3265  1.4250
11173SOL     OW39354   2.476   6.634   9.486  0.3665  1.0854 -0.9001
11173SOL    HW139355   2.466   6.538   9.482 -1.3614  1.1690  0.3861
11173SOL    HW239356   2.550   6.647   9.546 -0.4845  0.5475  0.3066
11174SOL     OW39357   1.114   8.615   4.973 -0.4242 -0.6091  0.3095
11174SOL    HW139358   1.175   8.547   4.945  0.1858  0.2699 -0.5642
11174SOL    HW239359   1.156   8.698   4.947 -1.5959  0.0562  0.4556
11175SOL     OW39360   5.327   6.926   5.429  0.3385  0.4132 -0.2025
11175SOL    HW139361   5.304   6.833   5.428 -0.8349  0.6892 -0.1314
11175SOL    HW239362   5.387   6.935   5.504  1.1260 -0.4197 -0.7202
11176SOL     OW39363   0.095   0.856   2.611  0.1592  0.2164 -0.6435
11176SOL    HW139364   0.187   0.831   2.605  0.1766  0.3558 -0.9408
11176SOL    HW239365   0.065   0.859   2.521 -0.1862 -0.0071 -0.5361
11177SOL     OW39366   6.724   1.788   6.190 -0.0780  0.1092  0.1975
11177SOL    HW139367   6.669   1.794   6.112  0.5021 -1.2626 -0.3403
11177SOL    HW239368   6.668   1.744   6.255 -0.0133 -0.2398  0.0199
11178SOL     OW39369   1.019   2.431   6.539  0.2663  0.2030  0.4924
11178SOL    HW139370   0.938   2.385   6.558  0.3353 -0.1585 -0.0786
11178SOL    HW239371   1.020   2.504   6.601 -1.5863  1.5166 -0.9181
11179SOL     OW39372   7.297  10.675   5.300  0.8298 -0.1151  0.5386
11179SOL    HW139373   7.230  10.671   5.368 -1.5406 -1.6062 -1.6899
11179SOL    HW239374   7.375  10.635   5.340 -0.5434 -1.1698  2.2851
11180SOL     OW39375   2.315   9.724   3.989 -0.0221  0.1139  0.7022
11180SOL    HW139376   2.239   9.776   4.015 -0.3165 -0.6504  1.4313
11180SOL    HW239377   2.389   9.784   3.997 -0.5807  1.0088 -0.4711
11181SOL     OW39378   8.524   3.127   6.338  0.3808 -0.1463  0.7984
11181SOL    HW139379   8.469   3.082   6.274  0.6401  1.3012 -0.5192
11181SOL    HW239380   8.465   3.153   6.408 -0.1251 -0.8344  0.6264
11182SOL     OW39381   6.654   1.384  10.241 -0.3114  0.1838 -0.0842
11182SOL    HW139382   6.575   1.344  10.277  0.0573 -1.6564 -1.1777
11182SOL    HW239383   6.661   1.468  10.286 -2.6771  0.2472  0.2826
11183SOL     OW39384   7.669   8.167   7.730 -0.0425 -0.9734  0.0504
11183SOL    HW139385   7.663   8.124   7.645 -0.6008 -2.1641  0.6781
11183SOL    HW239386   7.717   8.248   7.712  0.3500 -1.4763 -1.2958
11184SOL     OW39387   8.328   4.005   0.174  0.2646 -0.0085  0.1370
11184SOL    HW139388   8.257   4.038   0.229 -0.7990 -1.0199 -0.5779
11184SOL    HW239389   8.397   3.980   0.236 -1.3398 -2.1881  1.1726
11185SOL     OW39390   2.984   4.524   5.775 -0.4285 -0.1669 -0.1823
11185SOL    HW139391   3.046   4.504   5.845 -0.4761  1.6057  0.4006
11185SOL    HW239392   2.899   4.527   5.819 -0.5479  0.2636 -0.4369
11186SOL     OW39393   9.065   4.701   9.662 -0.5069 -0.6104  0.6924
11186SOL    HW139394   8.976   4.723   9.632  0.0997 -1.0283 -1.6201
11186SOL    HW239395   9.087   4.771   9.723 -1.8068  0.4684 -0.0085
11187SOL     OW39396   4.990   5.445   8.831  0.3272 -0.2090 -0.0059
11187SOL    HW139397   4.974   5.356   8.799 -0.4506  0.3456 -1.2225
11187SOL    HW239398   4.943   5.502   8.770 -0.7680  0.9478  1.8129
11188SOL     OW39399   3.485   9.473   3.241  0.2838  0.2489 -0.5239
11188SOL    HW139400   3.510   9.486   3.333  3.1404 -1.0600 -1.0005
11188SOL    HW239401   3.529   9.543   3.194  1.1987 -0.7245 -1.1629
11189SOL     OW39402   5.375   9.301   2.166 -0.2935 -0.2719 -0.4034
11189SOL    HW139403   5.360   9.251   2.247  0.9218  0.5285  0.3464
11189SOL    HW239404   5.417   9.239   2.107  2.5325  0.1376  1.0077
11190SOL     OW39405   8.539   1.910   0.019  0.4006 -0.4649  0.0239
11190SOL    HW139406   8.515   1.961   0.096 -0.6680 -1.7952  0.6056
11190SOL    HW239407   8.586   1.972  -0.037 -1.0177  1.2245  0.6048
11191SOL     OW39408   8.897   8.860   3.237  0.1283  0.7080 -0.7437
11191SOL    HW139409   8.880   8.770   3.212  1.2502  0.6610 -1.4082
11191SOL    HW239410   8.861   8.868   3.325 -0.0766 -0.3516 -0.7188
11192SOL     OW39411   2.915   0.779   8.922 -0.4808 -0.4178 -0.1662
11192SOL    HW139412   2.834   0.825   8.900 -0.7778 -0.8117  0.1047
11192SOL    HW239413   2.973   0.797   8.848 -1.0506 -0.7088 -0.6917
11193SOL     OW39414   2.451   4.764   9.912  0.5368  0.0795 -0.4819
11193SOL    HW139415   2.409   4.848   9.897 -0.3868 -0.2107  0.3358
11193SOL    HW239416   2.522   4.783   9.974 -1.6028 -0.1398  2.2420
11194SOL     OW39417   2.731   2.690   1.553  0.3683 -0.3635 -0.4468
11194SOL    HW139418   2.694   2.682   1.641  1.8876 -0.0404  0.2614
11194SOL    HW239419   2.734   2.784   1.537 -0.8937 -0.4429 -1.3245
11195SOL     OW39420   8.631   7.686  10.328  0.6508 -0.1469  0.5529
11195SOL    HW139421   8.584   7.626  10.387  0.4031  0.6372  1.1617
11195SOL    HW239422   8.627   7.642  10.243 -0.2946 -0.5933  0.8029
11196SOL     OW39423   8.272   5.632   6.443  0.5032  0.5535 -0.1571
11196SOL    HW139424   8.343   5.620   6.506  0.9619 -2.5692 -1.0803
11196SOL    HW239425   8.316   5.636   6.358 -0.2862 -2.7261 -0.8817
11197SOL     OW39426   8.657   9.161   3.056 -0.3207 -0.1123  0.1745
11197SOL    HW139427   8.642   9.068   3.039 -0.6012  0.2524 -1.7864
11197SOL    HW239428   8.573   9.193   3.090  0.0878 -0.7455  1.9026
11198SOL     OW39429  10.138   3.148   5.892  0.0902 -0.2260  0.8646
11198SOL    HW139430  10.074   3.077   5.881  1.1314 -1.0886  0.1870
11198SOL    HW239431  10.151   3.182   5.803 -0.2638  0.7240  1.1591
11199SOL     OW39432   7.327   3.378   1.091  0.1876  0.4269  0.0679
11199SOL    HW139433   7.263   3.450   1.092  1.6638  1.8167 -0.8473
11199SOL    HW239434   7.286   3.310   1.039 -1.4734  0.3593  1.3953
11200SOL     OW39435  10.068   8.094   3.963 -0.4274 -0.4907  0.2363
11200SOL    HW139436  10.096   8.175   4.006 -0.5726  0.3945 -1.2476
11200SOL    HW239437  10.136   8.077   3.898  0.2981 -2.3439  1.4102
11201SOL     OW39438   5.282   5.335   0.614 -0.1462 -0.1339  0.2163
11201SOL    HW139439   5.295   5.411   0.557  2.0983  0.6735  1.6637
11201SOL    HW239440   5.310   5.260   0.561 -0.4954  0.2774 -0.5579
11202SOL     OW39441   4.536   5.056   3.336  0.3352  0.5059  0.1335
11202SOL    HW139442   4.513   4.970   3.371  1.5096 -0.6205 -1.7151
11202SOL    HW239443   4.461   5.082   3.283  1.3619 -1.1194 -2.2692
11203SOL     OW39444   1.719   9.439   4.666 -0.6165 -0.1075 -0.2831
11203SOL    HW139445   1.669   9.361   4.693 -1.0423  0.0401 -0.6311
11203SOL    HW239446   1.809   9.419   4.690 -1.0424  0.2296  1.7192
11204SOL     OW39447   1.796   5.861   0.699  0.5110 -0.5868 -0.4774
11204SOL    HW139448   1.848   5.914   0.638  1.2780  1.3332  1.7238
11204SOL    HW239449   1.855   5.845   0.773 -1.2646 -0.4463  1.0197
11205SOL     OW39450   1.074   1.959   6.964  0.2871  0.0171 -0.2636
11205SOL    HW139451   1.117   1.981   7.046 -1.0434  0.0384  0.4453
11205SOL    HW239452   1.031   1.874   6.980 -0.6205  0.3797 -0.6743
11206SOL     OW39453   9.238   5.800   6.552 -0.4944  0.0497 -0.2450
11206SOL    HW139454   9.314   5.772   6.601  0.1004 -0.7907 -1.5781
11206SOL    HW239455   9.256   5.773   6.462 -2.3953 -0.2593 -0.5864
11207SOL     OW39456   9.720   5.497   4.565 -0.0160  0.1849 -0.3822
11207SOL    HW139457   9.740   5.590   4.564 -3.6857  1.1761  0.9887
11207SOL    HW239458   9.758   5.465   4.647  0.4034  0.7277 -0.3638
11208SOL     OW39459   4.328  10.258   6.666 -0.0881 -0.1000 -0.3513
11208SOL    HW139460   4.410  10.305   6.684  0.8232 -1.5728 -0.4716
11208SOL    HW239461   4.263  10.303   6.720  1.4308 -0.8706  2.3633
11209SOL     OW39462   9.156   2.989   8.847  0.1020  0.0273  0.3248
11209SOL    HW139463   9.063   3.009   8.831 -0.0489 -0.5308  0.5024
11209SOL    HW239464   9.186   3.063   8.900 -0.1304  0.4210 -0.0765
11210SOL     OW39465   4.050   1.600   6.392  0.3989  0.3472 -0.4439
11210SOL    HW139466   4.071   1.520   6.344  0.4919 -0.0078  0.1720
11210SOL    HW239467   4.111   1.600   6.466  0.6387  1.1734 -0.6373
11211SOL     OW39468   2.672   0.861   5.385  0.0544 -0.0241  0.5191
11211SOL    HW139469   2.674   0.927   5.315 -0.7772 -1.0891 -0.5578
11211SOL    HW239470   2.745   0.884   5.441 -1.2732  2.9240  1.2452
11212SOL     OW39471   1.175   7.770   1.721 -0.1948 -1.0416  0.0652
11212SOL    HW139472   1.269   7.787   1.724 -0.0967 -1.6071  0.3182
11212SOL    HW239473   1.137   7.836   1.779 -0.2121  0.7457 -1.8873
11213SOL     OW39474   9.739   0.567   5.232  0.0205  0.3411  0.3481
11213SOL    HW139475   9.778   0.586   5.147 -0.5208 -0.1223 -0.0077
11213SOL    HW239476   9.711   0.476   5.226  0.8382 -0.0046  1.3639
11214SOL     OW39477   4.276   6.327   0.852 -0.2015 -0.3766 -0.1080
11214SOL    HW139478   4.237   6.292   0.931 -0.2364  0.8752  0.4554
11214SOL    HW239479   4.210   6.311   0.784 -0.4266 -0.9123  0.2288
11215SOL     OW39480   8.235   1.202   0.801  0.0876  0.4030 -0.3232
11215SOL    HW139481   8.192   1.117   0.814  0.2922  0.3329 -0.0964
11215SOL    HW239482   8.227   1.245   0.886  3.2058 -0.8455  0.7568
11216SOL     OW39483   8.857   7.695   1.811 -0.1606  0.5511  0.3176
11216SOL    HW139484   8.855   7.602   1.788 -1.8290  0.5026  0.5661
11216SOL    HW239485   8.859   7.740   1.727 -0.0588  0.3094  0.1885
11217SOL     OW39486   3.375   2.227   2.940 -0.0007  0.8675 -0.0983
11217SOL    HW139487   3.398   2.172   2.865 -3.0819 -1.2995  0.3451
11217SOL    HW239488   3.411   2.313   2.919  1.3615 -0.2566 -2.8740
11218SOL     OW39489   4.270   9.590   8.955  0.0512  0.1669 -0.3965
11218SOL    HW139490   4.338   9.655   8.968 -0.0548  0.5038 -1.3840
11218SOL    HW239491   4.277   9.566   8.862 -0.0516 -1.0710 -0.1011
11219SOL     OW39492   7.527   3.441  10.207 -0.1538  0.1034 -0.2998
11219SOL    HW139493   7.503   3.475  10.120  0.6317  0.0843 -0.5345
11219SOL    HW239494   7.581   3.364  10.189  0.3557  0.3347  0.1941
11220SOL     OW39495   7.240   5.023   0.280  0.0062  0.3443 -0.2292
11220SOL    HW139496   7.292   4.963   0.226 -0.0839  1.5185 -1.6919
11220SOL    HW239497   7.150   4.991   0.272  0.0963  0.0597 -0.1317
11221SOL     OW39498   6.120   2.194  10.607 -0.1462  0.0137 -0.2005
11221SOL    HW139499   6.026   2.199  10.623 -0.1449 -2.0007  0.8860
11221SOL    HW239500   6.148   2.119  10.660  2.1266  0.7671 -0.2584
11222SOL     OW39501   8.420   7.105   7.298  0.1687 -0.5587 -0.2596
11222SOL    HW139502   8.458   7.019   7.316  1.1950 -0.1621 -0.4597
11222SOL    HW239503   8.406   7.105   7.204  1.4256 -0.0352 -0.4697
11223SOL     OW39504   4.286   0.732   3.142  0.0118 -0.3811 -0.2428
11223SOL    HW139505   4.211   0.789   3.127  1.6954  1.5564 -1.9866
11223SOL    HW239506   4.299   0.686   3.058  1.1374 -0.1578 -0.2155
11224SOL     OW39507   0.127   6.329   8.335 -0.3283  0.4387 -0.0905
11224SOL    HW139508   0.194   6.349   8.270 -0.4415 -1.1944 -0.7642
11224SOL    HW239509   0.158   6.248   8.376 -2.8793 -1.6255 -1.9353
11225SOL     OW39510   6.017   2.499   7.906  0.2865 -0.6355 -0.0814
11225SOL    HW139511   6.092   2.476   7.962  2.5727 -0.2908 -2.7973
11225SOL    HW239512   6.027   2.443   7.829 -1.3455  0.5802 -1.2308
11226SOL     OW39513   6.734   7.091  10.679  0.1777 -0.3069  0.1698
11226SOL    HW139514   6.818   7.081  10.634  0.6120  2.0908  0.3187
11226SOL    HW239515   6.758   7.103  10.771 -0.5694 -2.6555  0.7629
11227SOL     OW39516   6.035  10.487   1.247 -0.2989 -0.0401 -0.3305
11227SOL    HW139517   5.988  10.538   1.312 -1.5783  0.1692 -1.3955
11227SOL    HW239518   6.100  10.438   1.298 -0.9615  0.4628  1.0427
11228SOL     OW39519   8.277   1.827   7.327  0.5509 -0.0488 -0.5954
11228SOL    HW139520   8.266   1.850   7.419 -1.7573 -0.2266 -0.7476
11228SOL    HW239521   8.325   1.745   7.328  0.3556 -0.1610  0.4631
11229SOL     OW39522   6.170   7.819   9.688  0.0020  0.4416 -0.1466
11229SOL    HW139523   6.148   7.760   9.760 -0.1172  1.0709  0.3520
11229SOL    HW239524   6.089   7.829   9.639 -0.2448  0.9818  0.3637
11230SOL     OW39525   2.768   5.829   1.053  0.2601 -0.0174 -0.0757
11230SOL    HW139526   2.794   5.920   1.042  0.3554 -0.0807 -0.3752
11230SOL    HW239527   2.846   5.778   1.027  0.6374 -0.1678  1.2484
11231SOL     OW39528   0.359  10.584   0.950 -0.0782  0.1873  0.2249
11231SOL    HW139529   0.351  10.655   1.014  1.8675  0.9157 -0.2729
11231SOL    HW239530   0.292  10.604   0.884  0.0578  1.2487  0.3905
11232SOL     OW39531   6.407   7.073   4.052 -0.7507  0.3642  0.4713
11232SOL    HW139532   6.354   7.023   3.990  0.4142  1.4330 -1.4522
11232SOL    HW239533   6.348   7.141   4.085 -1.8411 -1.1525  1.8298
11233SOL     OW39534   4.748  10.595   3.052  0.1964  0.1588 -0.1017
11233SOL    HW139535   4.767  10.689   3.058 -0.5154  0.3479 -0.6322
11233SOL    HW239536   4.737  10.567   3.143  1.1505  0.4200  0.1054
11234SOL     OW39537   1.569   5.761   8.525 -0.4453 -0.5898  0.5860
11234SOL    HW139538   1.633   5.726   8.463 -1.7466 -0.9227 -0.6292
11234SOL    HW239539   1.486   5.723   8.496 -1.5514  1.6157  0.7008
11235SOL     OW39540   5.248   7.458   6.677 -0.3140  0.3324  0.0321
11235SOL    HW139541   5.252   7.506   6.760  1.6124  0.5228 -0.1193
11235SOL    HW239542   5.265   7.367   6.702 -0.1894  0.3211 -0.0932
11236SOL     OW39543   6.474   4.315   7.475  0.4060 -0.1575 -0.2227
11236SOL    HW139544   6.468   4.398   7.522 -0.1945  0.2610 -1.0141
11236SOL    HW239545   6.477   4.339   7.382 -0.2275 -1.0184 -0.4884
11237SOL     OW39546   9.977   8.379  10.025 -0.1051 -0.2795  0.3442
11237SOL    HW139547   9.962   8.336  10.109  1.0527  0.0499  0.7342
11237SOL    HW239548  10.059   8.428  10.037 -1.5245  2.3511  0.0404
11238SOL     OW39549   9.408   8.164   2.439  0.2143  0.0144  0.4997
11238SOL    HW139550   9.496   8.186   2.408  0.0048 -0.1247 -0.2253
11238SOL    HW239551   9.388   8.230   2.505  0.4272  0.7133 -0.1315
11239SOL     OW39552   2.329  10.217   6.108  0.1476 -0.2731  0.4155
11239SOL    HW139553   2.361  10.279   6.174  0.1608  0.2886 -0.1180
11239SOL    HW239554   2.237  10.240   6.096  0.2517 -0.1051 -0.0679
11240SOL     OW39555   8.338   8.806   0.316 -0.0667  0.6813  0.4907
11240SOL    HW139556   8.396   8.823   0.390 -0.1185 -1.5890  1.1199
11240SOL    HW239557   8.311   8.893   0.287  0.7823  1.6787  2.4663
11241SOL     OW39558   5.021   0.252   6.764  0.2492  0.5214 -0.1882
11241SOL    HW139559   4.952   0.288   6.708 -0.7969  0.8345  1.2639
11241SOL    HW239560   4.997   0.277   6.852  0.8276 -1.5882  0.6348
11242SOL     OW39561  10.128   8.772   7.673  0.5859 -0.4026 -0.1342
11242SOL    HW139562  10.068   8.841   7.701  1.2109  0.0523  0.1002
11242SOL    HW239563  10.171   8.808   7.596  2.8009  0.5525  1.4506
11243SOL     OW39564   0.091   2.411   5.350  0.5773  0.0376 -0.1845
11243SOL    HW139565   0.102   2.385   5.259 -1.5597  0.0027 -0.4690
11243SOL    HW239566   0.087   2.507   5.348 -0.6919 -0.0028 -0.3114
11244SOL     OW39567   3.998   5.667   4.503  0.4745  0.7928  0.0727
11244SOL    HW139568   3.981   5.587   4.454  0.8575  1.2379 -0.8110
11244SOL    HW239569   3.953   5.654   4.587  0.7184 -0.4309  0.0360
11245SOL     OW39570   7.115   6.523   8.232 -0.1240 -0.0847  0.2554
11245SOL    HW139571   7.121   6.618   8.245  2.8916  0.2462 -2.2551
11245SOL    HW239572   7.195   6.489   8.271  1.1267 -0.9082 -2.7793
11246SOL     OW39573   1.896   3.428  10.377  0.0853  0.2451  0.2173
11246SOL    HW139574   1.928   3.498  10.320 -0.3161  0.0652 -0.2348
11246SOL    HW239575   1.823   3.389  10.328 -1.6433  1.4205  1.6990
11247SOL     OW39576   3.538   2.484   8.308  0.5475  0.1089 -0.2574
11247SOL    HW139577   3.485   2.555   8.346 -1.5513 -1.9842  0.9818
11247SOL    HW239578   3.548   2.421   8.379 -1.1635 -2.6940 -2.2816
11248SOL     OW39579   8.861   4.636  10.317 -0.3440 -0.3081 -0.1860
11248SOL    HW139580   8.768   4.652  10.333 -0.1685  1.2938 -0.5404
11248SOL    HW239581   8.887   4.707  10.257  1.3370 -0.0896  0.7465
11249SOL     OW39582   1.921   0.204   1.974 -0.6349  0.0294  0.6706
11249SOL    HW139583   1.922   0.142   1.901 -0.9961  0.4364  0.3095
11249SOL    HW239584   1.959   0.156   2.047  2.7734  0.5254 -0.5501
11250SOL     OW39585   5.776   8.462   9.008 -0.5190 -0.7756  0.1178
11250SOL    HW139586   5.830   8.384   9.025  0.6893 -0.2387 -1.1181
11250SOL    HW239587   5.818   8.505   8.934 -1.0131  1.2201  0.9289
11251SOL     OW39588   0.605   4.062   7.033  0.4068  0.6357  0.1275
11251SOL    HW139589   0.665   4.009   7.085 -0.0571 -0.1174 -0.0829
11251SOL    HW239590   0.522   4.014   7.036  0.6607 -0.0914 -2.2994
11252SOL     OW39591   7.997   5.247   5.906  0.1090 -0.0838 -0.4255
11252SOL    HW139592   7.934   5.239   5.834 -1.2250 -0.5869  0.7548
11252SOL    HW239593   7.946   5.230   5.985  2.1059 -2.5682  0.4805
11253SOL     OW39594   4.764   7.746   8.610  0.1593 -0.3288 -0.1100
11253SOL    HW139595   4.677   7.763   8.575  0.5925 -0.3397 -1.2100
11253SOL    HW239596   4.767   7.798   8.691 -1.5978 -1.9320  1.0844
11254SOL     OW39597   4.458   8.738   3.747 -0.4482 -0.1847  0.1430
11254SOL    HW139598   4.475   8.809   3.810  1.7735 -2.2504  2.0950
11254SOL    HW239599   4.531   8.743   3.686  0.0773 -1.1220  0.6735
11255SOL     OW39600   3.265   7.985  10.461  0.8460  0.0934 -0.0378
11255SOL    HW139601   3.326   8.058  10.476 -0.2765  1.4106 -1.5107
11255SOL    HW239602   3.317   7.918  10.418  1.8702  0.0568  1.2074
11256SOL     OW39603   6.977   4.164   4.742 -0.2136 -1.1175  0.1884
11256SOL    HW139604   6.926   4.122   4.672 -2.6589  2.1793 -0.2574
11256SOL    HW239605   7.034   4.225   4.697 -1.0902  0.3189  0.9531
11257SOL     OW39606   4.136   7.210   0.596 -0.2385  0.4372 -0.2445
11257SOL    HW139607   4.107   7.212   0.504 -1.5780 -0.5777  0.1297
11257SOL    HW239608   4.143   7.116   0.616 -0.7259  0.6400  0.9166
11258SOL     OW39609   6.982   0.618   2.223  0.3140  0.1890  0.1358
11258SOL    HW139610   6.992   0.551   2.291 -2.4077  0.2291  0.6579
11258SOL    HW239611   6.960   0.698   2.270  2.8558  1.4011 -0.5441
11259SOL     OW39612   2.178   8.061   6.995 -0.3767  0.1673  0.3737
11259SOL    HW139613   2.257   8.050   7.049 -0.2565 -1.1447 -0.0411
11259SOL    HW239614   2.108   8.020   7.046 -0.0944 -1.9125 -0.8084
11260SOL     OW39615  10.558  10.520   7.256  0.0383 -0.6431 -0.0460
11260SOL    HW139616  10.622  10.470   7.206  0.4950  0.8521 -1.0047
11260SOL    HW239617  10.477  10.469   7.250  0.4440 -1.1785 -1.1532
11261SOL     OW39618   7.328   2.065  10.414 -0.6177  0.4304  1.1646
11261SOL    HW139619   7.307   1.987  10.466 -0.9761  0.6763  1.3881
11261SOL    HW239620   7.336   2.032  10.325 -0.6961  0.1245  1.2679
11262SOL     OW39621   3.643   7.845   7.739  0.0862 -0.3797 -0.0399
11262SOL    HW139622   3.683   7.914   7.792 -1.1874 -0.5922  1.2235
11262SOL    HW239623   3.624   7.775   7.801 -1.1675 -0.7558 -0.8258
11263SOL     OW39624   2.468   7.822   3.977 -0.2248  0.5560 -0.1981
11263SOL    HW139625   2.396   7.884   3.986  0.2744  1.0257  0.6365
11263SOL    HW239626   2.488   7.822   3.883 -1.6532  0.0053 -0.5356
11264SOL     OW39627   9.983   2.334   7.052  0.0431 -0.1211  0.4379
11264SOL    HW139628   9.940   2.382   6.981  3.4573  0.6216 -1.3339
11264SOL    HW239629  10.001   2.399   7.119  0.3247  0.0203  0.2237
11265SOL     OW39630   2.908   2.254   8.447  0.5312 -0.7132  0.3469
11265SOL    HW139631   2.919   2.333   8.500 -1.8426 -0.7616  1.0019
11265SOL    HW239632   2.901   2.183   8.510 -0.9275 -0.9528 -0.0511
11266SOL     OW39633   5.044   0.111   1.641 -0.4006 -0.1801  0.4421
11266SOL    HW139634   5.003   0.128   1.727  1.3873 -1.8591  1.7053
11266SOL    HW239635   5.134   0.140   1.652  0.2404 -1.7586 -0.3598
11267SOL     OW39636   2.384   8.882   6.556  0.1608 -0.3121  0.1372
11267SOL    HW139637   2.331   8.945   6.507 -0.2286 -0.0680  0.8758
11267SOL    HW239638   2.468   8.927   6.570  1.5272 -1.5368 -3.0903
11268SOL     OW39639   8.396   2.382   4.239  0.1378 -0.1392 -0.3322
11268SOL    HW139640   8.483   2.415   4.262 -0.2646  1.1023 -0.5380
11268SOL    HW239641   8.405   2.287   4.244  1.4929 -0.0314 -0.2971
11269SOL     OW39642   4.492  10.380   1.443 -0.5805 -0.0633 -0.3230
11269SOL    HW139643   4.564  10.442   1.456 -0.2877 -0.1613 -1.3486
11269SOL    HW239644   4.413  10.434   1.451 -0.3356  0.3990 -0.8673
11270SOL     OW39645   4.022   0.209   9.270  0.5742 -0.0846  0.0828
11270SOL    HW139646   4.038   0.277   9.204  0.0861  1.7674  1.7830
11270SOL    HW239647   3.928   0.192   9.264  0.2643  1.0739  1.1320
11271SOL     OW39648   1.166   0.082   9.772 -0.3237 -0.2842  0.0926
11271SOL    HW139649   1.198   0.065   9.861 -2.0474 -1.0522  0.6064
11271SOL    HW239650   1.125   0.168   9.777  2.4454  1.2291 -0.8445
11272SOL     OW39651   8.665   5.030   5.468 -0.4779  0.7026  0.0807
11272SOL    HW139652   8.688   5.123   5.469 -2.3425  1.2079  2.0185
11272SOL    HW239653   8.600   5.020   5.537 -1.3835 -1.7932 -1.0053
11273SOL     OW39654   5.911   3.216  10.469  0.3071 -0.1106  0.5612
11273SOL    HW139655   5.925   3.173  10.385  1.4531 -0.5563  0.9512
11273SOL    HW239656   5.828   3.182  10.500 -1.2629  1.7266 -1.3626
11274SOL     OW39657   2.572   4.472   1.324 -0.0471  0.2223 -0.0821
11274SOL    HW139658   2.602   4.383   1.340  0.4976  0.8678  3.3086
11274SOL    HW239659   2.479   4.471   1.347 -0.0736  0.4846 -0.1760
11275SOL     OW39660   0.521   4.997   4.130  0.7902 -0.0850 -0.1542
11275SOL    HW139661   0.581   4.923   4.141  1.0910  0.0880 -0.5839
11275SOL    HW239662   0.436   4.963   4.157  1.3049  0.0463  1.7081
11276SOL     OW39663   1.657   8.444   7.490 -0.0541 -0.0085 -0.8485
11276SOL    HW139664   1.598   8.440   7.566  2.2466 -3.3547  1.0284
11276SOL    HW239665   1.617   8.386   7.426 -1.0331  1.3426 -1.5143
11277SOL     OW39666   8.664   0.982  10.528 -0.1571  0.4213  0.7112
11277SOL    HW139667   8.659   1.013  10.619  0.0188 -0.6080  1.0857
11277SOL    HW239668   8.722   0.906  10.532  0.4215  0.7835 -0.3932
11278SOL     OW39669   3.926   9.226   6.843  0.3525 -0.0203  0.1180
11278SOL    HW139670   3.834   9.243   6.824 -0.6533 -0.7670  3.6190
11278SOL    HW239671   3.937   9.255   6.934  2.5276 -3.4976  1.1538
11279SOL     OW39672   2.425   1.526   3.675 -0.4486 -0.4681  0.1372
11279SOL    HW139673   2.337   1.494   3.653 -0.1744 -0.8981 -0.3730
11279SOL    HW239674   2.419   1.550   3.767 -1.2841  0.1586 -0.0645
11280SOL     OW39675   9.311   8.776   4.916 -0.0222 -0.4000  0.1435
11280SOL    HW139676   9.293   8.870   4.921 -1.8174 -0.5044 -2.2985
11280SOL    HW239677   9.402   8.770   4.889 -0.4096  0.7527 -1.5743
11281SOL     OW39678   9.309  10.150   3.782  0.2014  0.0892 -0.3504
11281SOL    HW139679   9.226  10.102   3.782  1.4822 -2.2990 -1.0112
11281SOL    HW239680   9.352  10.124   3.864  0.2441  1.4843  0.0993
11282SOL     OW39681   3.957   3.824   3.896  0.3237 -0.1873  0.0579
11282SOL    HW139682   3.935   3.749   3.841  0.2001 -0.0218 -0.1178
11282SOL    HW239683   4.008   3.881   3.839 -0.2968  0.2584 -0.0688
11283SOL     OW39684   9.468   8.491   3.505  0.8836  0.0685 -0.4141
11283SOL    HW139685   9.464   8.542   3.585  2.2313 -0.1901 -0.1469
11283SOL    HW239686   9.378   8.486   3.474  0.4266  0.6496  0.7772
11284SOL     OW39687   7.605   1.674   1.399  0.3281 -0.4432  0.0088
11284SOL    HW139688   7.619   1.762   1.364 -0.7583 -0.0443  0.5371
11284SOL    HW239689   7.686   1.627   1.379  0.6291  0.4512 -0.9478
11285SOL     OW39690   9.019   7.573   6.207 -0.0065 -0.1304 -0.4035
11285SOL    HW139691   9.038   7.558   6.299 -2.3319 -1.4693 -0.0805
11285SOL    HW239692   9.049   7.494   6.163  2.1836  0.9727 -1.0475
11286SOL     OW39693   3.954  10.568   1.583 -0.1746 -0.0459 -0.3363
11286SOL    HW139694   3.975  10.646   1.532 -1.6106  2.1598  2.1640
11286SOL    HW239695   3.875  10.532   1.542  0.9273 -0.7042 -1.9606
11287SOL     OW39696   1.795   9.653   5.689  0.0926  0.2841  0.1603
11287SOL    HW139697   1.848   9.598   5.747 -0.7230 -0.4062  0.2585
11287SOL    HW239698   1.825   9.632   5.601  0.5852  0.5403  0.2645
11288SOL     OW39699   7.197   9.587  10.129  0.0170  0.4468  0.2331
11288SOL    HW139700   7.212   9.526  10.057 -0.5255 -1.7075  1.8219
11288SOL    HW239701   7.280   9.632  10.140  0.4937 -0.1107 -0.9038
11289SOL     OW39702   6.331   7.374  10.124  0.6217  0.4510  0.1307
11289SOL    HW139703   6.365   7.424  10.050 -0.7365  1.4739  0.1711
11289SOL    HW239704   6.384   7.294  10.125  1.1194  0.7257 -1.5238
11290SOL     OW39705   5.138   6.911   8.578  0.4154  0.1322 -0.1724
11290SOL    HW139706   5.043   6.909   8.584  0.4464 -0.1652  0.3240
11290SOL    HW239707   5.159   7.002   8.557  0.0293  0.2274 -0.1568
11291SOL     OW39708   8.472   9.537   0.151  0.3750 -0.1995  0.2490
11291SOL    HW139709   8.450   9.512   0.241  1.6517  0.8958  0.9037
11291SOL    HW239710   8.466   9.633   0.151 -2.8140 -0.2683 -1.7464
11292SOL     OW39711   5.936   4.576   1.267 -0.6662 -0.7101  0.1434
11292SOL    HW139712   5.991   4.530   1.204 -0.5674  0.5949 -0.7757
11292SOL    HW239713   5.850   4.537   1.259 -0.4916 -0.9976 -0.3294
11293SOL     OW39714   3.469   5.173   1.290 -0.1041 -0.1323  0.2571
11293SOL    HW139715   3.459   5.215   1.376  0.6558 -0.5345  0.5537
11293SOL    HW239716   3.527   5.099   1.306 -0.0017 -0.2493 -0.5968
11294SOL     OW39717   5.135   8.839   1.871 -0.0721 -0.5301 -0.5585
11294SOL    HW139718   5.080   8.861   1.795 -0.3271 -0.8918 -0.4818
11294SOL    HW239719   5.225   8.840   1.837 -0.0137  1.2693 -0.4086
11295SOL     OW39720   1.795  10.478   1.191 -0.1479  0.2014 -0.0980
11295SOL    HW139721   1.736  10.547   1.159  1.7901  1.2540 -1.6120
11295SOL    HW239722   1.838  10.517   1.267 -1.2185 -0.5121  0.9132
11296SOL     OW39723   9.321   8.160   0.950 -0.1617 -0.2967 -0.4554
11296SOL    HW139724   9.406   8.122   0.930 -0.4845 -1.6086  0.4701
11296SOL    HW239725   9.309   8.143   1.044 -2.4603 -2.3939 -1.0282
11297SOL     OW39726   5.431   3.187  10.267  0.1784  0.3547 -0.2268
11297SOL    HW139727   5.407   3.151  10.353 -0.5515  1.6295  0.1382
11297SOL    HW239728   5.424   3.113  10.207 -1.2306 -0.1328  0.4911
11298SOL     OW39729   9.959   6.258   9.632 -0.6480 -0.1370 -0.2917
11298SOL    HW139730   9.867   6.271   9.611 -0.2843  1.3786 -1.1054
11298SOL    HW239731  10.004   6.328   9.586  0.7203  0.3296  1.6278
11299SOL     OW39732   8.368   3.167   7.184 -0.4196 -0.0648 -0.4031
11299SOL    HW139733   8.363   3.240   7.247 -0.8048 -0.9331  0.6070
11299SOL    HW239734   8.307   3.102   7.218  0.2312 -1.0448 -1.0474
11300SOL     OW39735   5.279   0.692   1.878  0.7067  0.4327  0.5219
11300SOL    HW139736   5.296   0.762   1.815  0.5276 -0.1947 -0.2376
11300SOL    HW239737   5.210   0.727   1.935 -0.5811  0.2799 -0.8792
11301SOL     OW39738   4.648   1.363   8.138 -0.1057 -0.5354  0.2260
11301SOL    HW139739   4.586   1.435   8.149  0.2542 -0.0593 -0.7339
11301SOL    HW239740   4.695   1.358   8.221 -0.5906 -0.1021  0.5292
11302SOL     OW39741   7.308   5.163   2.079 -0.6487 -0.1104 -0.5918
11302SOL    HW139742   7.300   5.195   2.169 -0.7924 -0.5990 -0.4283
11302SOL    HW239743   7.250   5.087   2.075 -1.4306  0.5000 -1.3908
11303SOL     OW39744   7.963   8.912   4.244  0.5235  0.4992 -0.0539
11303SOL    HW139745   7.892   8.874   4.193  0.4220  0.5955  0.0146
11303SOL    HW239746   8.023   8.948   4.178  0.0951  1.1569 -0.0925
11304SOL     OW39747   7.700   2.254   9.593  0.1665 -0.2492  0.3763
11304SOL    HW139748   7.784   2.278   9.552 -0.7175  0.0666 -1.3582
11304SOL    HW239749   7.635   2.270   9.524 -1.2407 -1.1909  1.4380
11305SOL     OW39750   8.599   6.515   3.956 -0.1485  0.2820 -0.4201
11305SOL    HW139751   8.662   6.458   3.912 -1.5281 -1.0325 -0.7946
11305SOL    HW239752   8.652   6.582   3.997  1.8146 -2.5144  2.0120
11306SOL     OW39753   3.366   6.861   0.210 -0.0010  0.4082  0.0811
11306SOL    HW139754   3.442   6.906   0.246  1.5132 -1.4071 -0.6754
11306SOL    HW239755   3.362   6.889   0.118  0.8925 -0.8424 -0.3675
11307SOL     OW39756   2.847   2.906   6.979 -0.0128  0.2949  0.4322
11307SOL    HW139757   2.803   2.989   6.959 -1.0760 -0.2019  0.6657
11307SOL    HW239758   2.776   2.842   6.986  0.9438 -1.1907 -2.3060
11308SOL     OW39759   4.730   0.626   4.902  1.0192  0.7475 -0.4433
11308SOL    HW139760   4.653   0.624   4.958  1.2659  2.6536  0.0518
11308SOL    HW239761   4.782   0.699   4.936  2.3353  0.4304 -1.6768
11309SOL     OW39762   1.247   6.438   3.297  0.1274  0.4055  0.2085
11309SOL    HW139763   1.196   6.390   3.231  2.0936 -1.5287 -0.0417
11309SOL    HW239764   1.239   6.386   3.377  2.1250 -0.3593 -0.0071
11310SOL     OW39765   2.477  10.510   2.295  0.3961  0.0496  0.1428
11310SOL    HW139766   2.479  10.605   2.305  0.2452 -0.0334  1.0949
11310SOL    HW239767   2.386  10.486   2.313  0.4564 -0.2836  0.0091
11311SOL     OW39768   7.593   5.128   5.455  0.5862 -0.3544 -0.5880
11311SOL    HW139769   7.624   5.052   5.406 -2.0753 -0.3886 -2.4187
11311SOL    HW239770   7.500   5.110   5.470 -0.0253  2.3301 -0.7187
11312SOL     OW39771   5.704   0.732   6.887  0.0623 -0.2582 -0.0968
11312SOL    HW139772   5.763   0.705   6.958 -0.5615  1.0111  0.9433
11312SOL    HW239773   5.664   0.813   6.919 -0.4938  0.1594 -1.7711
11313SOL     OW39774   0.958   3.770   8.165  0.4957 -0.4227 -0.5755
11313SOL    HW139775   0.992   3.681   8.177 -1.8149 -1.4928 -1.2814
11313SOL    HW239776   0.864   3.757   8.151 -0.0224  2.2138  0.0302
11314SOL     OW39777   3.194   5.309   1.568 -0.3642 -0.0927 -0.0557
11314SOL    HW139778   3.144   5.385   1.537 -1.3891 -1.1148 -1.0128
11314SOL    HW239779   3.131   5.257   1.617  0.4914 -0.0298  1.1287
11315SOL     OW39780   3.505   5.798  10.100 -0.1184 -0.5923  0.5458
11315SOL    HW139781   3.486   5.755  10.183  1.3284 -0.0438  1.1897
11315SOL    HW239782   3.508   5.726  10.036  0.1011 -1.1818  1.2112
11316SOL     OW39783   3.329   2.256   0.711  0.0368 -0.0678 -0.1309
11316SOL    HW139784   3.279   2.203   0.648  0.9431  0.2572 -1.1683
11316SOL    HW239785   3.419   2.226   0.701  0.1260 -0.4294  1.4938
11317SOL     OW39786  10.570   1.407   7.340 -0.2376 -0.5009  0.1882
11317SOL    HW139787  10.490   1.359   7.318 -0.4749  0.1874 -0.4545
11317SOL    HW239788  10.612   1.425   7.256 -0.7545  1.4548  0.3082
11318SOL     OW39789  10.677   2.931   9.782 -0.4678 -0.4350  0.2005
11318SOL    HW139790  10.703   2.853   9.733  1.8613  0.6113 -0.3673
11318SOL    HW239791  10.664   2.900   9.872 -0.1958 -1.5894 -0.1504
11319SOL     OW39792   5.666   6.824   6.097  0.2102 -0.6812 -0.0650
11319SOL    HW139793   5.574   6.837   6.119  0.0169 -1.8940 -0.0707
11319SOL    HW239794   5.682   6.884   6.024 -0.5077 -0.2765  0.1050
11320SOL     OW39795   3.489   0.865   1.389  0.1099 -0.1459  0.3788
11320SOL    HW139796   3.410   0.886   1.340  0.1245 -3.6368 -1.4785
11320SOL    HW239797   3.457   0.822   1.468  0.1790  1.4337  1.3093
11321SOL     OW39798   5.161   6.724   6.879  0.2835  0.4816 -0.1339
11321SOL    HW139799   5.148   6.657   6.811 -0.8586 -1.2711  1.6856
11321SOL    HW239800   5.185   6.803   6.830 -1.5508 -0.3778 -2.6770
11322SOL     OW39801   7.209   3.938   6.065 -0.1507 -0.6611 -0.6177
11322SOL    HW139802   7.237   3.891   5.987 -1.7149 -0.4413 -1.3565
11322SOL    HW239803   7.162   3.873   6.117  2.1456 -1.1939  0.9197
11323SOL     OW39804   0.623   3.290   5.628  0.2494  0.5644  0.2514
11323SOL    HW139805   0.652   3.202   5.608  0.5075  0.8316 -0.5554
11323SOL    HW239806   0.537   3.278   5.669  0.6498 -0.1036  0.9125
11324SOL     OW39807   7.646   0.402   2.340  0.1672 -0.1458 -0.1851
11324SOL    HW139808   7.678   0.312   2.331 -0.2659 -0.2364 -0.8804
11324SOL    HW239809   7.647   0.437   2.251  0.8789  0.7332  0.1474
11325SOL     OW39810   9.558   7.182   5.985 -0.1785 -0.0469  0.4685
11325SOL    HW139811   9.601   7.252   6.035  3.1333 -1.4657 -0.1544
11325SOL    HW239812   9.585   7.196   5.895 -2.3966 -0.1575 -0.2729
11326SOL     OW39813   7.332   3.010   3.028  0.2171  0.2311 -0.6100
11326SOL    HW139814   7.389   3.087   3.022  0.1268  0.4883  1.3535
11326SOL    HW239815   7.366   2.960   3.102  0.1792 -1.5834 -1.7555
11327SOL     OW39816   4.398   1.993   0.336 -0.1027 -0.5993 -0.0440
11327SOL    HW139817   4.430   1.904   0.325  0.2765 -0.4009 -0.5784
11327SOL    HW239818   4.341   2.008   0.261 -0.3909 -0.4927  0.1972
11328SOL     OW39819   8.009   4.279   5.438 -0.0412  0.0469 -0.4704
11328SOL    HW139820   7.931   4.285   5.383 -2.0265 -4.0483  1.4259
11328SOL    HW239821   8.065   4.217   5.393  0.2159 -0.1586  0.1238
11329SOL     OW39822   5.355  10.444  10.353 -0.2564 -0.0562 -0.2045
11329SOL    HW139823   5.270  10.479  10.378 -0.9671 -0.2018 -2.2607
11329SOL    HW239824   5.336  10.383  10.282  1.3944 -1.4358  0.4765
11330SOL     OW39825   1.888   4.901   1.579  0.6023 -0.5365  0.0251
11330SOL    HW139826   1.896   4.964   1.651 -1.0534  0.2996 -0.4836
11330SOL    HW239827   1.805   4.922   1.537 -0.0659 -3.1215 -0.1356
11331SOL     OW39828   8.777   9.572   4.369 -0.1208  0.3438  0.1428
11331SOL    HW139829   8.749   9.636   4.434 -0.4255  0.1772  0.1771
11331SOL    HW239830   8.713   9.582   4.298  0.8922  1.3513 -0.6547
11332SOL     OW39831   1.947   7.158   0.012 -0.1567 -0.0353  0.1173
11332SOL    HW139832   2.001   7.193   0.082 -0.7121  0.4951  0.2912
11332SOL    HW239833   2.005   7.100  -0.038 -0.4397 -2.8801  2.7790
11333SOL     OW39834   3.073   4.395   8.850  0.0312  0.1753  0.0716
11333SOL    HW139835   3.044   4.373   8.939  0.6445  0.3290  0.3221
11333SOL    HW239836   3.169   4.387   8.855  0.0310 -0.4161 -0.7433
11334SOL     OW39837   8.085   7.003   1.966 -0.1965  0.0518  0.1903
11334SOL    HW139838   8.099   6.970   1.877 -1.5176  0.2097 -0.0871
11334SOL    HW239839   8.160   7.061   1.981  0.2871 -0.3315 -0.6354
11335SOL     OW39840   6.309   2.689   7.927 -0.7322  0.0907  0.0618
11335SOL    HW139841   6.242   2.660   7.866 -0.2135  0.1417 -0.5495
11335SOL    HW239842   6.261   2.718   8.004 -1.4919  1.2217 -0.8019
11336SOL     OW39843   9.254   7.624   8.993  0.2015 -0.2773 -0.1851
11336SOL    HW139844   9.170   7.666   8.973 -0.4129 -0.6127  1.4964
11336SOL    HW239845   9.256   7.546   8.937  0.6665  1.1362 -2.2187
11337SOL     OW39846   1.323   4.794  10.712 -0.5127  1.3008  0.0395
11337SOL    HW139847   1.242   4.744  10.727  0.2718 -0.6522 -1.8508
11337SOL    HW239848   1.299   4.858  10.646 -0.4577  0.4749 -0.7997
11338SOL     OW39849   4.419   5.576   4.950  0.0250 -0.1630 -0.7139
11338SOL    HW139850   4.431   5.669   4.929  1.1774 -0.1423 -0.0357
11338SOL    HW239851   4.371   5.576   5.033  0.5488 -0.1677 -0.4122
11339SOL     OW39852   5.646   2.322   2.751 -0.3377 -0.6713 -0.2720
11339SOL    HW139853   5.601   2.373   2.817 -0.0761 -1.2449  0.3677
11339SOL    HW239854   5.633   2.370   2.669  0.7862  0.9609  0.4713
11340SOL     OW39855   0.341   5.308   2.100  0.2595 -0.5087  0.0870
11340SOL    HW139856   0.362   5.356   2.020  0.6826 -1.7707 -0.5843
11340SOL    HW239857   0.261   5.259   2.079  0.3286 -0.7909  0.4528
11341SOL     OW39858  10.334   3.706   3.758 -0.1311 -0.1553  0.5206
11341SOL    HW139859  10.359   3.634   3.815  2.2915  0.3726  0.2240
11341SOL    HW239860  10.317   3.779   3.817  2.8260  0.5266  0.6789
11342SOL     OW39861   5.362   9.567   5.250  0.3301 -0.3873  0.2377
11342SOL    HW139862   5.317   9.578   5.166 -0.2020 -0.6101  0.4922
11342SOL    HW239863   5.386   9.656   5.276  1.3397 -0.3875 -0.5995
11343SOL     OW39864   7.467   4.787   4.395 -0.6806  0.1078  0.0275
11343SOL    HW139865   7.552   4.829   4.380 -0.4554 -0.6101 -0.7977
11343SOL    HW239866   7.470   4.707   4.342 -2.0727  0.3369 -0.4460
11344SOL     OW39867   8.760   9.128   9.226  0.1257  0.2319 -0.2375
11344SOL    HW139868   8.757   9.048   9.278  0.5438 -0.1307 -0.7663
11344SOL    HW239869   8.803   9.192   9.283 -1.7628  0.6009  0.8666
11345SOL     OW39870   3.777   1.532   9.672  0.2023  0.2707 -0.3753
11345SOL    HW139871   3.809   1.586   9.745 -1.0396 -3.5124  3.4336
11345SOL    HW239872   3.849   1.471   9.655 -0.3163 -0.2384 -0.7657
11346SOL     OW39873   7.095   4.521   9.713  0.0297  0.1647 -0.6133
11346SOL    HW139874   7.083   4.451   9.648  1.7554 -0.9010  0.1526
11346SOL    HW239875   7.190   4.533   9.718 -0.2207  2.5335 -0.6511
11347SOL     OW39876   5.604   6.636   9.036  0.4961 -0.1613  0.3363
11347SOL    HW139877   5.605   6.677   8.950  0.7590 -1.1494 -0.1456
11347SOL    HW239878   5.511   6.622   9.055  0.4071  0.5447  0.4681
11348SOL     OW39879   4.543   6.709   4.619  0.1778  0.1607 -0.1108
11348SOL    HW139880   4.621   6.729   4.568  0.9035  0.6372  1.1333
11348SOL    HW239881   4.470   6.735   4.562  0.9697  1.3355 -0.6386
11349SOL     OW39882   0.007   3.905   7.251  0.4286  0.0624  0.0609
11349SOL    HW139883  -0.025   3.925   7.164 -2.1034  0.5723  1.0303
11349SOL    HW239884   0.046   3.818   7.243  1.4317  0.6169 -1.7958
11350SOL     OW39885   8.057   0.045   0.295  0.2420  0.2956 -0.0419
11350SOL    HW139886   8.135   0.030   0.350  0.4380 -0.3605 -0.4880
11350SOL    HW239887   8.073  -0.007   0.216 -0.8064 -0.1285  0.0080
11351SOL     OW39888   3.615   0.341   2.805 -0.1887  0.2552 -0.1262
11351SOL    HW139889   3.578   0.259   2.773  2.9252 -1.4728  0.2529
11351SOL    HW239890   3.709   0.331   2.793  0.4525  3.1203  1.5081
11352SOL     OW39891   8.384   5.347  10.676  0.2027 -0.4974 -0.3562
11352SOL    HW139892   8.297   5.371  10.707  1.4217  3.1141  0.7670
11352SOL    HW239893   8.433   5.325  10.755  0.2093 -3.3113 -1.0472
11353SOL     OW39894   5.799   6.114   2.271 -0.0750  0.1049  0.0530
11353SOL    HW139895   5.726   6.138   2.328 -0.3849 -1.8688  0.5523
11353SOL    HW239896   5.852   6.194   2.265 -1.5788  1.1983  0.7190
11354SOL     OW39897   0.590   4.558   1.339 -0.1990  0.4358  0.8235
11354SOL    HW139898   0.619   4.632   1.286  1.5956 -1.2875 -0.7120
11354SOL    HW239899   0.655   4.551   1.409  0.5065 -0.5775  0.0883
11355SOL     OW39900   2.043   0.560  10.057 -0.4346  0.1112 -0.2853
11355SOL    HW139901   1.949   0.562  10.039 -0.5920 -0.8525  0.3532
11355SOL    HW239902   2.066   0.651  10.077 -0.9523  0.5811 -1.7545
11356SOL     OW39903   7.344   3.542   6.624  0.1447 -0.6843 -0.6490
11356SOL    HW139904   7.353   3.455   6.663 -1.3455 -1.1208 -1.2252
11356SOL    HW239905   7.378   3.533   6.535  2.6389  0.0747  0.1332
11357SOL     OW39906   1.001   1.856   8.532 -0.1374 -0.2448  0.4188
11357SOL    HW139907   0.959   1.804   8.601 -0.2949 -1.1090 -0.3084
11357SOL    HW239908   1.091   1.870   8.563  0.0801 -1.4640  0.3635
11358SOL     OW39909   0.248   1.347   0.902 -0.3485  0.8869 -0.3345
11358SOL    HW139910   0.339   1.363   0.877 -0.7329  0.4429 -2.1610
11358SOL    HW239911   0.241   1.251   0.907 -0.5855  0.9337  0.3723
11359SOL     OW39912   0.830   4.171   9.057 -0.0745 -0.3240  0.3813
11359SOL    HW139913   0.766   4.135   9.119 -1.9463 -0.8830 -1.7288
11359SOL    HW239914   0.802   4.138   8.972  3.9924 -1.8536 -0.5732
11360SOL     OW39915   2.163   5.205   7.122  0.3345  0.2154  0.3771
11360SOL    HW139916   2.155   5.251   7.206  1.1549  1.1564 -0.0313
11360SOL    HW239917   2.258   5.195   7.110  0.4055  2.3247 -1.5599
11361SOL     OW39918   7.602   3.592   3.295  0.1788  0.5794  0.0244
11361SOL    HW139919   7.539   3.635   3.352  0.1631  1.9674 -0.9891
11361SOL    HW239920   7.557   3.587   3.210  1.4160  1.6448 -0.7283
11362SOL     OW39921  10.368   8.977   0.615  0.0021 -0.3857 -0.2313
11362SOL    HW139922  10.454   8.942   0.637 -0.7259 -1.4004  1.1381
11362SOL    HW239923  10.379   9.012   0.527  1.9370 -0.0570  0.0778
11363SOL     OW39924   1.111   9.962   9.678 -0.0271  0.3749  0.3468
11363SOL    HW139925   1.199   9.996   9.693 -0.4010  0.8299  1.7121
11363SOL    HW239926   1.107   9.883   9.733 -0.4099  0.2567  0.1489
11364SOL     OW39927   3.467   1.156  10.439 -0.3412  0.5973  0.3575
11364SOL    HW139928   3.484   1.116  10.524 -0.5137  0.1527  0.1862
11364SOL    HW239929   3.375   1.181  10.442 -0.0975  1.5005  0.6707
11365SOL     OW39930  10.619   0.632  10.070 -0.3398  0.2240 -0.5845
11365SOL    HW139931  10.593   0.703  10.012 -1.0665  0.9199  0.5437
11365SOL    HW239932  10.667   0.571  10.014 -0.4348  1.1877 -1.7529
11366SOL     OW39933   2.014   1.266   4.551  0.0207  0.2640 -0.0698
11366SOL    HW139934   1.958   1.193   4.525 -0.3748  0.3985  0.3903
11366SOL    HW239935   2.031   1.252   4.644 -2.6460  2.3890  0.8706
11367SOL     OW39936   2.292   0.870   7.631 -0.2032 -0.2440  0.0503
11367SOL    HW139937   2.387   0.859   7.643 -0.3158 -0.3305  0.9546
11367SOL    HW239938   2.263   0.787   7.596 -0.1046 -0.6193  0.8403
11368SOL     OW39939  10.172   2.660   6.524 -0.3831  0.0166 -0.2651
11368SOL    HW139940  10.240   2.704   6.575 -0.7835 -0.8695  1.0716
11368SOL    HW239941  10.166   2.573   6.562 -1.1934 -0.4433 -1.3953
11369SOL     OW39942   3.719   0.703   5.290  0.7564 -0.4664  0.4725
11369SOL    HW139943   3.786   0.751   5.242  1.0184 -1.4809 -0.2215
11369SOL    HW239944   3.695   0.760   5.363  0.3169  1.1380 -0.8732
11370SOL     OW39945   8.601   5.890   0.586  0.1848  0.1824  0.4334
11370SOL    HW139946   8.662   5.964   0.579 -1.6669  1.6553 -1.2037
11370SOL    HW239947   8.516   5.930   0.600 -0.5892 -1.7845  1.6916
11371SOL     OW39948   2.853   7.225   4.464 -0.2438  0.3828  0.6914
11371SOL    HW139949   2.940   7.209   4.501 -0.8932 -0.6108  1.8965
11371SOL    HW239950   2.841   7.155   4.399  0.9788  2.2482 -1.6976
11372SOL     OW39951   6.739   3.338   2.794  0.2121  0.3012 -0.6300
11372SOL    HW139952   6.660   3.388   2.772  0.0547 -0.2343 -1.2863
11372SOL    HW239953   6.713   3.247   2.789  0.7296  0.1278 -0.2799
11373SOL     OW39954   6.025  10.429   7.255 -0.5593 -0.0448  0.1600
11373SOL    HW139955   6.049  10.413   7.164 -0.5898  1.0581 -0.0596
11373SOL    HW239956   6.099  10.477   7.292 -1.5683  1.7196 -0.0028
11374SOL     OW39957   5.751   3.281   3.157 -0.5576  0.1611 -0.5153
11374SOL    HW139958   5.741   3.212   3.092 -2.0390  0.7911 -1.0092
11374SOL    HW239959   5.789   3.355   3.108  1.2046 -0.3185  0.0506
11375SOL     OW39960   2.237   3.047   9.800 -0.0881  0.8540  0.6337
11375SOL    HW139961   2.231   3.121   9.860 -0.1816  0.8608  0.6166
11375SOL    HW239962   2.171   2.985   9.831 -1.7253  1.8067 -0.7694
11376SOL     OW39963   0.107   4.183   1.042  0.2924  0.5606 -0.1840
11376SOL    HW139964   0.117   4.169   1.136  0.7297 -0.5806 -0.3845
11376SOL    HW239965   0.026   4.231   1.033  0.0325  0.3113  0.7569
11377SOL     OW39966   4.343   1.385   4.581  0.8058 -0.0067  0.0617
11377SOL    HW139967   4.314   1.443   4.652  1.9599 -0.4599  0.9450
11377SOL    HW239968   4.262   1.353   4.541  0.0365 -1.0526  2.2804
11378SOL     OW39969   5.656   9.355   6.160  0.1461  0.8292 -0.0312
11378SOL    HW139970   5.736   9.397   6.129 -0.3806  1.9391  0.0366
11378SOL    HW239971   5.686   9.280   6.211  1.0666  0.0034 -1.7218
11379SOL     OW39972   8.239   9.646   1.596  0.0279  0.2233  0.2074
11379SOL    HW139973   8.157   9.694   1.592 -0.2999 -0.3081  0.4784
11379SOL    HW239974   8.214   9.554   1.599  0.5867  0.0856  1.2444
11380SOL     OW39975   6.792   1.158   3.008 -0.6370  0.1300  0.1669
11380SOL    HW139976   6.771   1.223   2.941  1.2549 -0.1387 -0.7587
11380SOL    HW239977   6.774   1.074   2.967 -1.6405  0.0005  0.8324
11381SOL     OW39978   6.222  10.591   0.347  0.1014  0.5484 -0.3173
11381SOL    HW139979   6.231  10.625   0.258 -0.2164 -1.6426 -1.2700
11381SOL    HW239980   6.207  10.497   0.334  0.1209  0.1722  2.0692
11382SOL     OW39981   0.181   2.001  10.255  0.1949 -0.6076  0.5215
11382SOL    HW139982   0.272   2.022  10.234  0.0423 -2.2175 -2.3000
11382SOL    HW239983   0.185   1.912  10.291 -0.1976 -0.4873  0.8597
11383SOL     OW39984   6.694   3.406   8.690 -0.2090 -0.2143 -0.1303
11383SOL    HW139985   6.626   3.471   8.708 -0.3537 -0.8709  1.9851
11383SOL    HW239986   6.645   3.324   8.681  0.1637 -0.3921 -0.5520
11384SOL     OW39987   4.829   3.842   9.791 -0.0729 -0.2051 -0.2329
11384SOL    HW139988   4.921   3.816   9.783  0.1694 -0.9931  3.2763
11384SOL    HW239989   4.779   3.766   9.763  0.3230  0.0027 -1.5536
11385SOL     OW39990   9.838   1.131   6.619 -0.0830 -0.0544 -0.1649
11385SOL    HW139991   9.785   1.136   6.540 -0.1744 -1.5628 -0.2312
11385SOL    HW239992   9.869   1.040   6.622  3.4774  0.9740 -0.7418
11386SOL     OW39993   9.423   3.791   8.218 -0.1489 -0.3258 -0.8177
11386SOL    HW139994   9.366   3.867   8.212  1.2317  0.6726 -1.9682
11386SOL    HW239995   9.459   3.794   8.307 -0.5080  0.0519 -0.6827
11387SOL     OW39996   4.288   7.416   9.673  0.5152 -0.0605  0.1036
11387SOL    HW139997   4.379   7.392   9.654  0.2248 -1.0156 -0.1055
11387SOL    HW239998   4.249   7.336   9.708 -0.8256 -0.2884 -1.7940
11388SOL     OW39999   2.215   1.926   9.684  0.2415  0.1689  0.3059
11388SOL    HW140000   2.129   1.886   9.699  0.3544 -0.3660 -0.4369
11388SOL    HW240001   2.209   1.963   9.596  0.9258 -0.2857  0.0598
11389SOL     OW40002   2.777   3.977   9.188 -0.3769  0.0240 -0.8234
11389SOL    HW140003   2.849   3.934   9.234  1.0214 -1.9804 -4.4675
11389SOL    HW240004   2.700   3.925   9.211 -0.4081  1.0304  1.6181
11390SOL     OW40005  10.558   3.989   0.952  0.7632 -0.3335 -0.0608
11390SOL    HW140006  10.509   3.964   0.874  2.3001 -3.3334 -0.2032
11390SOL    HW240007  10.509   3.950   1.025  1.0476 -0.2776  0.1621
11391SOL     OW40008   0.739   4.301   2.945 -0.0210  0.5520 -0.8885
11391SOL    HW140009   0.786   4.230   2.989 -2.3977  0.4063  1.7229
11391SOL    HW240010   0.744   4.279   2.852  1.3953 -1.6910 -0.3650
11392SOL     OW40011   6.781   1.383   8.940  0.3339 -0.1335  0.1471
11392SOL    HW140012   6.742   1.337   8.865  1.0698  0.4087 -0.5973
11392SOL    HW240013   6.762   1.475   8.924  0.5834 -0.0043  0.5763
11393SOL     OW40014   2.206  10.259   2.592 -0.2653  0.5869 -0.8263
11393SOL    HW140015   2.119  10.220   2.597 -0.1693  0.5058  0.5136
11393SOL    HW240016   2.196  10.332   2.530 -1.8617  2.0183  0.9965
11394SOL     OW40017   4.781   0.655   6.557  0.7013  0.1897 -0.2473
11394SOL    HW140018   4.725   0.705   6.498  0.5381 -0.2888 -0.5058
11394SOL    HW240019   4.788   0.709   6.635  0.6151  0.6613 -0.5643
11395SOL     OW40020   9.455   8.680   3.142  0.0573  0.2903 -0.3965
11395SOL    HW140021   9.550   8.676   3.130  0.3963  0.5224  1.9190
11395SOL    HW240022   9.438   8.770   3.169 -0.9618  0.4849 -1.5642
11396SOL     OW40023   1.287   8.174   2.104  0.0485  0.3675 -0.3336
11396SOL    HW140024   1.199   8.176   2.141  0.1174  0.2803 -0.1657
11396SOL    HW240025   1.273   8.162   2.010 -0.0970 -2.7270 -0.0457
11397SOL     OW40026   2.135   7.551  10.594 -0.1135 -0.0526  0.3758
11397SOL    HW140027   2.179   7.469  10.613  2.6651  1.2621  0.0426
11397SOL    HW240028   2.198   7.602  10.543 -1.2898  2.7336  1.4798
11398SOL     OW40029   9.603   2.758   1.463 -0.5035  0.5593 -0.1642
11398SOL    HW140030   9.637   2.670   1.445 -0.4353  1.0936 -3.2157
11398SOL    HW240031   9.641   2.782   1.548  0.2285 -1.9579  0.3033
11399SOL     OW40032   3.079   1.185   8.034  0.2968  0.4777 -0.0072
11399SOL    HW140033   3.172   1.170   8.050  0.2464 -0.1968 -0.3329
11399SOL    HW240034   3.051   1.111   7.980 -0.5633  0.3544  0.5827
11400SOL     OW40035   2.570   5.882   5.295  0.4702  0.1672  0.6089
11400SOL    HW140036   2.569   5.786   5.299 -1.3385  0.0422 -1.4022
11400SOL    HW240037   2.616   5.908   5.375 -1.1646 -2.3077  2.5146
11401SOL     OW40038   3.451   1.619   4.541  0.2660 -0.0685 -0.0279
11401SOL    HW140039   3.488   1.697   4.584  1.4975 -0.3257 -0.5840
11401SOL    HW240040   3.408   1.653   4.463  0.4152  0.1053 -0.0354
11402SOL     OW40041   2.176   7.040   3.615 -0.5211 -0.5016 -0.4888
11402SOL    HW140042   2.236   6.973   3.648  0.7685 -0.1778 -2.0491
11402SOL    HW240043   2.094   6.993   3.600  0.7068 -2.1374 -2.7491
11403SOL     OW40044   2.922   5.899   5.666 -0.3866 -0.2639 -0.2839
11403SOL    HW140045   2.988   5.872   5.730  0.4786  3.8082  0.8349
11403SOL    HW240046   2.967   5.961   5.609 -2.5126  0.3418 -1.4156
11404SOL     OW40047   8.363   2.978   4.032  0.4777 -0.2250  0.0049
11404SOL    HW140048   8.434   2.924   3.997  0.3246  0.5311 -1.5654
11404SOL    HW240049   8.397   3.067   4.028  0.8308 -0.1511  2.8266
11405SOL     OW40050   1.946  10.441   0.938 -0.6877  0.0746  0.3153
11405SOL    HW140051   2.031  10.447   0.982 -0.6170 -1.4916  0.4367
11405SOL    HW240052   1.882  10.444   1.009 -0.6997  0.2552  0.2986
11406SOL     OW40053   6.530   0.273   8.806  0.0751  0.3576  0.6952
11406SOL    HW140054   6.521   0.305   8.716 -0.0900  1.4647  1.0916
11406SOL    HW240055   6.554   0.350   8.856  0.2745 -0.2770  1.5947
11407SOL     OW40056   8.998   4.368   2.323 -0.0146  0.2942  0.2358
11407SOL    HW140057   8.909   4.397   2.344 -0.2557 -0.7358  0.7245
11407SOL    HW240058   8.996   4.348   2.229 -0.5211 -0.4262  0.3891
11408SOL     OW40059   5.382   5.921   4.746  0.1734 -0.7751  0.3742
11408SOL    HW140060   5.309   5.953   4.693  0.7367 -1.7016 -1.0477
11408SOL    HW240061   5.341   5.863   4.811 -0.5417  0.4359  1.0302
11409SOL     OW40062   5.961   5.236   6.945  0.1536 -0.2018 -0.1241
11409SOL    HW140063   6.052   5.266   6.950 -0.5073  2.0347 -0.7592
11409SOL    HW240064   5.958   5.187   6.862  0.7409 -0.1846 -0.1647
11410SOL     OW40065   4.833   0.431  10.020 -0.1600 -0.2758 -0.7593
11410SOL    HW140066   4.748   0.465   9.994  0.8345  1.5080 -1.8240
11410SOL    HW240067   4.839   0.346   9.978 -2.3028 -1.5167  1.1811
11411SOL     OW40068   7.023   6.032   5.193  0.5617  0.7653 -0.7480
11411SOL    HW140069   7.111   5.996   5.188  0.2870 -0.2088  0.7621
11411SOL    HW240070   7.035   6.122   5.224  1.0259  0.5700 -0.3508
11412SOL     OW40071   8.181   3.409   6.012  0.2224 -0.5078 -0.2374
11412SOL    HW140072   8.227   3.441   5.935  1.1943 -0.6730  0.2568
11412SOL    HW240073   8.199   3.475   6.080 -0.8010 -0.2486 -0.2029
11413SOL     OW40074   3.737   7.306   1.056 -0.4503  1.1025 -0.2072
11413SOL    HW140075   3.820   7.336   1.093 -1.1622  1.9028  0.8025
11413SOL    HW240076   3.683   7.385   1.051 -1.1598  0.5893 -0.8244
11414SOL     OW40077   0.546   7.887   4.304 -0.4639 -0.1062 -0.3372
11414SOL    HW140078   0.573   7.828   4.233  1.2935  0.0140  0.1706
11414SOL    HW240079   0.462   7.852   4.334 -1.5272  0.1639 -2.7957
11415SOL     OW40080   9.842   9.416   0.729  0.2976 -0.1708  0.1583
11415SOL    HW140081   9.832   9.393   0.821 -0.2901  1.8254  0.6417
11415SOL    HW240082   9.753   9.410   0.693  0.3490  0.0665 -0.0122
11416SOL     OW40083   4.197   8.405   9.724 -0.1362  0.2070 -0.0231
11416SOL    HW140084   4.119   8.452   9.756  0.3779 -0.4376  2.2926
11416SOL    HW240085   4.257   8.475   9.699 -1.5694  0.7308 -2.3778
11417SOL     OW40086   3.620   5.453   2.527 -0.0579 -0.2114  0.1637
11417SOL    HW140087   3.659   5.437   2.441 -2.4376  0.3503 -1.1041
11417SOL    HW240088   3.662   5.389   2.584  1.6709 -0.5369 -1.3706
11418SOL     OW40089   6.252   8.811   1.617  0.5503 -0.6960  0.0828
11418SOL    HW140090   6.202   8.746   1.568 -2.4699  1.5548 -0.0716
11418SOL    HW240091   6.257   8.776   1.706 -1.3403 -1.0243  0.0884
11419SOL     OW40092   4.186  10.702   7.398 -0.0571 -0.4739 -0.1464
11419SOL    HW140093   4.171  10.609   7.415  2.1696 -0.8153  0.2161
11419SOL    HW240094   4.183  10.743   7.484  1.0243 -0.5711 -0.0463
11420SOL     OW40095  10.696   3.478   2.681  0.0894  0.7524  0.1307
11420SOL    HW140096  10.762   3.497   2.615 -0.3165 -0.4376 -0.6597
11420SOL    HW240097  10.744   3.432   2.750 -0.1692 -2.0247 -1.3806
11421SOL     OW40098   2.114   8.288   4.277  0.0317 -0.5412  0.4123
11421SOL    HW140099   2.177   8.361   4.277 -2.0749  1.4189  0.9639
11421SOL    HW240100   2.147   8.228   4.211  2.7350  0.1106  1.0346
11422SOL     OW40101   9.454   3.062   7.631  0.3177 -0.2621  0.0299
11422SOL    HW140102   9.493   3.066   7.543  0.3007  0.0963  0.0387
11422SOL    HW240103   9.390   3.133   7.632  2.1274  1.4502  1.2111
11423SOL     OW40104   2.323   7.639   9.063 -0.2112  0.2632  0.4826
11423SOL    HW140105   2.301   7.629   8.970  2.0229 -1.8098  0.0873
11423SOL    HW240106   2.270   7.572   9.107 -0.6418  0.6891  0.6284
11424SOL     OW40107   4.144   1.645   0.520  0.5646  0.2783  0.1443
11424SOL    HW140108   4.218   1.595   0.554  0.2231  0.5550  1.3398
11424SOL    HW240109   4.099   1.585   0.461  1.4238 -0.0699 -0.1746
11425SOL     OW40110   8.035   4.958   9.605 -0.0439  0.7644  0.6271
11425SOL    HW140111   8.112   4.913   9.571 -1.0501  0.1274 -0.9249
11425SOL    HW240112   8.061   4.989   9.691  3.0495  3.4771 -1.0999
11426SOL     OW40113   6.504   9.301   9.439  0.3509 -0.0518 -0.2872
11426SOL    HW140114   6.514   9.359   9.364  0.3055 -1.0024 -1.0605
11426SOL    HW240115   6.570   9.330   9.502  0.1688  0.9691 -0.5567
11427SOL     OW40116   1.715   5.969   1.087 -0.2054 -0.5180 -0.2871
11427SOL    HW140117   1.664   6.041   1.052  1.6046  0.9551 -0.0359
11427SOL    HW240118   1.693   5.894   1.031 -2.2635  0.1164 -0.4232
11428SOL     OW40119  10.178   3.080   2.460  0.3070  0.3295  0.3134
11428SOL    HW140120  10.189   3.157   2.404  1.1317 -0.0131 -0.0036
11428SOL    HW240121  10.238   3.094   2.533 -0.3857  0.5252  0.8647
11429SOL     OW40122   5.873   7.977   6.870 -0.1399  0.3052  0.7179
11429SOL    HW140123   5.941   7.988   6.937 -0.1908 -0.6779  0.9515
11429SOL    HW240124   5.799   7.938   6.917 -0.1277 -0.5284  0.0658
11430SOL     OW40125   4.419  10.009   6.355 -0.2437 -0.0651  0.6864
11430SOL    HW140126   4.347   9.948   6.340 -0.4491 -0.1883  2.0717
11430SOL    HW240127   4.377  10.090   6.384  0.1582 -0.1268  1.4823
11431SOL     OW40128   5.599   1.541   5.158  0.1778  0.1769  0.0179
11431SOL    HW140129   5.678   1.535   5.105 -0.1148 -0.3741 -0.3668
11431SOL    HW240130   5.528   1.551   5.095 -0.1561 -0.3067  0.3080
11432SOL     OW40131  10.579   3.087   6.951  0.0330 -0.4087 -0.2860
11432SOL    HW140132  10.513   3.017   6.953  0.0383 -0.4002  1.2406
11432SOL    HW240133  10.544   3.151   6.890 -1.1642 -0.6271  0.1409
11433SOL     OW40134   6.246   9.533   7.741 -0.1293  0.0673 -0.2533
11433SOL    HW140135   6.317   9.521   7.677 -0.2383 -1.0887 -0.1770
11433SOL    HW240136   6.263   9.467   7.808  0.3230  1.6557  1.2628
11434SOL     OW40137   2.577   4.204   0.630 -0.2791  0.0792  0.2447
11434SOL    HW140138   2.563   4.183   0.722  0.9465  0.2085  0.4715
11434SOL    HW240139   2.632   4.133   0.597  0.7913  0.9658  0.0800
11435SOL     OW40140   4.153  10.207   1.016  0.2155  0.7587 -0.1037
11435SOL    HW140141   4.144  10.288   1.065 -1.0118  0.5150  0.1092
11435SOL    HW240142   4.124  10.139   1.077  2.8663 -0.0947  0.3484
11436SOL     OW40143   3.279   1.246   2.637 -0.3125 -0.0393 -0.1001
11436SOL    HW140144   3.220   1.173   2.614 -1.4733  0.7824  0.1548
11436SOL    HW240145   3.249   1.318   2.582  1.3249  0.0573 -0.9100
11437SOL     OW40146   0.286   2.225   0.120 -0.6012  0.4261  0.4730
11437SOL    HW140147   0.251   2.177   0.045  1.9236  0.4779 -0.8413
11437SOL    HW240148   0.257   2.174   0.196 -0.5163 -1.5040 -0.7051
11438SOL     OW40149   5.800   6.926   8.183  0.0283 -0.0883 -0.2194
11438SOL    HW140150   5.865   6.857   8.173  1.4086  1.2072 -0.4803
11438SOL    HW240151   5.822   6.968   8.266 -0.6354  0.2275 -0.1959
11439SOL     OW40152   2.093   3.003   9.414 -0.2739  0.4440  0.1121
11439SOL    HW140153   2.036   3.079   9.407  0.0369  0.7466  0.7572
11439SOL    HW240154   2.073   2.966   9.501  0.5378  0.5803  0.3658
11440SOL     OW40155   2.010   7.322   5.083  0.6580 -0.0543  0.0529
11440SOL    HW140156   1.929   7.271   5.077 -1.0400  2.2058  1.8666
11440SOL    HW240157   2.040   7.329   4.992 -0.3255 -2.1513 -0.5094
11441SOL     OW40158   6.278   2.513   7.139 -0.6630  0.1084  0.1901
11441SOL    HW140159   6.322   2.458   7.203  0.4914  0.5376 -0.2089
11441SOL    HW240160   6.315   2.600   7.153 -0.5276  0.2432 -0.9285
11442SOL     OW40161   9.499   2.424   0.997 -0.0543  0.9092  1.0178
11442SOL    HW140162   9.535   2.452   1.081  0.5842  1.4210  0.5832
11442SOL    HW240163   9.449   2.345   1.017 -0.0042  1.0934  1.8948
11443SOL     OW40164   6.842   8.936   2.288  0.1904 -0.2289  0.5105
11443SOL    HW140165   6.828   8.907   2.198  0.5516 -0.7065  0.6037
11443SOL    HW240166   6.784   9.012   2.298  0.3023 -0.0463 -0.1813
11444SOL     OW40167   5.850   6.921   6.568  0.1264  0.5696  0.0733
11444SOL    HW140168   5.926   6.864   6.574  0.1292  0.4808 -0.7539
11444SOL    HW240169   5.778   6.867   6.602  0.3998  0.6147  0.7474
11445SOL     OW40170   0.618   8.790   9.867  0.1455 -0.6610  0.3986
11445SOL    HW140171   0.673   8.837   9.804  2.1223  0.1567  2.5745
11445SOL    HW240172   0.680   8.756   9.932 -1.8032 -0.9967  2.1808
11446SOL     OW40173   5.340   5.628   4.539 -0.2599 -0.2298  0.7009
11446SOL    HW140174   5.363   5.556   4.481  1.1867  0.7791 -0.0172
11446SOL    HW240175   5.372   5.601   4.625 -1.0894 -1.0857  0.7563
11447SOL     OW40176   0.375   6.056   8.066  0.2904 -0.5922 -0.4550
11447SOL    HW140177   0.368   5.960   8.061 -2.7381 -0.5354  0.6548
11447SOL    HW240178   0.336   6.087   7.984  0.3902 -0.3054 -0.3930
11448SOL     OW40179   1.775   7.882  10.582  0.0180 -0.4727 -0.1902
11448SOL    HW140180   1.821   7.931  10.650 -0.5705  1.2531 -0.9640
11448SOL    HW240181   1.835   7.811  10.559  0.9841 -0.0391  0.8731
11449SOL     OW40182   5.271  10.332   0.332 -0.1404  0.2911  0.2696
11449SOL    HW140183   5.197  10.343   0.273 -0.9614 -0.7587  1.0767
11449SOL    HW240184   5.283  10.238   0.339 -0.7540  0.3261  2.5962
11450SOL     OW40185   8.278   6.227   8.645 -0.3098 -0.2691  0.0973
11450SOL    HW140186   8.337   6.206   8.572  1.8701  1.4517  1.2194
11450SOL    HW240187   8.228   6.147   8.660  2.6943 -2.3568 -0.0941
11451SOL     OW40188   3.205   7.570   1.134 -0.7868 -0.4008 -0.6439
11451SOL    HW140189   3.165   7.539   1.053 -1.3574  0.5397 -0.7280
11451SOL    HW240190   3.140   7.627   1.174  0.5948  1.5191 -0.9941
11452SOL     OW40191   0.451   0.576   4.421 -0.0721  0.0050 -0.4464
11452SOL    HW140192   0.525   0.515   4.420  0.2925  0.3210  1.7992
11452SOL    HW240193   0.483   0.654   4.376 -0.4452 -1.2403 -3.0832
11453SOL     OW40194   9.124   2.225   4.471 -0.7623 -0.3374 -0.2591
11453SOL    HW140195   9.140   2.151   4.412 -0.1284  0.4956 -1.1558
11453SOL    HW240196   9.061   2.280   4.426 -1.2723 -0.3436  0.4279
11454SOL     OW40197   0.213   0.005   0.762 -0.4569 -0.0111 -0.1570
11454SOL    HW140198   0.217   0.002   0.667 -1.1198  1.0923 -0.2351
11454SOL    HW240199   0.144   0.069   0.781  1.1313  1.4360  1.0546
11455SOL     OW40200  10.348   2.558   7.399 -0.3438  0.2857 -0.3056
11455SOL    HW140201  10.372   2.465   7.403 -0.5751  0.2705  1.1234
11455SOL    HW240202  10.255   2.558   7.378 -0.1686  0.2349 -1.1376
11456SOL     OW40203   1.278   4.928   8.672 -0.5147  0.7461 -0.5160
11456SOL    HW140204   1.332   4.935   8.751  0.9175 -0.1799 -1.3552
11456SOL    HW240205   1.191   4.904   8.704 -0.3870  1.9855  0.8638
11457SOL     OW40206   0.997   2.706   4.155  0.6722 -0.3907 -0.0521
11457SOL    HW140207   0.992   2.647   4.080 -0.8686 -0.1914 -0.1453
11457SOL    HW240208   1.028   2.652   4.227 -1.5540 -1.6174  0.0945
11458SOL     OW40209   4.108   7.374   3.593 -0.4056 -0.5608 -0.2692
11458SOL    HW140210   4.146   7.349   3.678  1.4395 -0.0605 -0.8960
11458SOL    HW240211   4.037   7.434   3.616  1.0155  0.7660  0.9242
11459SOL     OW40212   4.796   0.097   6.773 -0.1903  0.1930 -0.4362
11459SOL    HW140213   4.877   0.147   6.765 -0.4805  0.5673 -1.0790
11459SOL    HW240214   4.789   0.077   6.866  0.7341 -0.0040 -0.4020
11460SOL     OW40215   9.864   8.454   9.049 -0.1140 -0.3867  0.6413
11460SOL    HW140216   9.923   8.518   9.089  0.6274 -1.4899  1.3429
11460SOL    HW240217   9.838   8.495   8.966  0.5386  0.7121  0.9541
11461SOL     OW40218   6.124   8.136   6.656 -0.0050 -0.5475 -0.7982
11461SOL    HW140219   6.215   8.156   6.679 -1.4842  3.4379  2.9358
11461SOL    HW240220   6.108   8.183   6.574  0.5650  1.5821  0.2388
11462SOL     OW40221   5.798   8.314   9.635 -0.1909  0.1123 -0.4888
11462SOL    HW140222   5.853   8.391   9.647 -0.1459  0.1192 -0.7398
11462SOL    HW240223   5.813   8.287   9.545  1.4284 -1.4274  0.1696
11463SOL     OW40224   9.798   4.193   4.771 -0.2468  0.5127 -0.1490
11463SOL    HW140225   9.829   4.141   4.697 -0.9286 -1.0216  0.6220
11463SOL    HW240226   9.716   4.232   4.741 -2.1888 -2.5631  0.7086
11464SOL     OW40227   5.837   2.674   2.006 -0.4239 -0.6033  0.8397
11464SOL    HW140228   5.804   2.629   2.083  1.5027 -2.9473  0.4354
11464SOL    HW240229   5.780   2.643   1.935 -1.5087  0.6997  1.1019
11465SOL     OW40230   2.802   9.142   9.258 -0.4618 -0.6753  0.1872
11465SOL    HW140231   2.755   9.099   9.330 -0.9256 -1.2243 -0.4302
11465SOL    HW240232   2.888   9.161   9.294 -0.2245 -2.1674  0.4889
11466SOL     OW40233   9.195   0.790   1.105  0.4362 -0.1582  0.3302
11466SOL    HW140234   9.183   0.866   1.048  1.2651  0.7020  1.2630
11466SOL    HW240235   9.128   0.799   1.172 -0.3733 -1.0322 -0.3356
11467SOL     OW40236   5.478   9.341   4.256  0.4396 -0.0576  0.2418
11467SOL    HW140237   5.558   9.290   4.239  0.6836  1.0846 -2.6081
11467SOL    HW240238   5.408   9.275   4.257  1.3322 -1.0700  2.6994
11468SOL     OW40239   1.091   1.481   1.172  0.1435 -0.7355  0.1250
11468SOL    HW140240   1.094   1.543   1.246 -0.4571 -0.3003 -0.2046
11468SOL    HW240241   1.182   1.465   1.150  0.3397  1.4496 -0.9437
11469SOL     OW40242   2.172   5.726   1.911  1.1349 -0.4903  0.5064
11469SOL    HW140243   2.266   5.744   1.910  0.9139  0.8245  0.8788
11469SOL    HW240244   2.150   5.716   2.003  1.3471 -3.5779  0.3045
11470SOL     OW40245   9.969   8.094   9.218  0.1211 -0.1752 -0.1112
11470SOL    HW140246   9.929   8.105   9.304  0.5982  0.4896  0.0330
11470SOL    HW240247   9.910   8.035   9.171 -0.9903  0.7281  0.1178
11471SOL     OW40248   9.690   1.248   9.537 -0.3522 -0.1660 -0.1786
11471SOL    HW140249   9.761   1.235   9.601 -1.0753 -2.5049  0.2558
11471SOL    HW240250   9.610   1.239   9.588 -0.9798  0.4598 -1.0163
11472SOL     OW40251   9.420   4.831   8.897  0.3241  0.0916  0.7451
11472SOL    HW140252   9.362   4.755   8.898 -0.8018  0.8408 -1.2807
11472SOL    HW240253   9.377   4.895   8.955 -0.7698  0.5248 -0.4956
11473SOL     OW40254   8.932   6.489   3.955  0.4781 -0.0697  0.0749
11473SOL    HW140255   8.937   6.439   4.037  1.8765  1.4056  0.9597
11473SOL    HW240256   8.915   6.579   3.983  0.7873  0.4354 -1.2784
11474SOL     OW40257   2.649   5.204   5.489 -0.1736  0.1634  0.1845
11474SOL    HW140258   2.685   5.153   5.561  0.3222  1.7015  1.0736
11474SOL    HW240259   2.720   5.210   5.426 -0.7704 -1.6224 -0.7300
11475SOL     OW40260   2.637   3.437   3.042 -0.2775  0.1520  0.6784
11475SOL    HW140261   2.548   3.467   3.022  0.2508  0.0178 -2.4215
11475SOL    HW240262   2.644   3.353   2.998  1.6879  0.6696 -0.0945
11476SOL     OW40263   6.804   1.103   2.658 -0.8935 -0.3240  0.1935
11476SOL    HW140264   6.874   1.099   2.593  0.3665 -1.0988  1.5562
11476SOL    HW240265   6.791   1.197   2.673  0.3653 -0.1746  0.4541
11477SOL     OW40266   4.361   0.953   2.593 -0.2258  0.6566  0.4912
11477SOL    HW140267   4.309   0.897   2.652 -2.5322  0.4003 -1.6042
11477SOL    HW240268   4.301   1.023   2.567  1.4239  1.9893  0.1277
11478SOL     OW40269   5.685   1.697   2.914  0.0295 -0.4494  0.3943
11478SOL    HW140270   5.699   1.787   2.887 -1.9547  0.6472  2.6034
11478SOL    HW240271   5.756   1.648   2.874  0.9335  2.0052 -1.2154
11479SOL     OW40272   5.527   0.188   7.654 -0.3750  0.4697 -0.0194
11479SOL    HW140273   5.612   0.172   7.614 -0.8537  0.3828 -1.0372
11479SOL    HW240274   5.465   0.142   7.597 -1.2564  1.7865 -0.1733
11480SOL     OW40275   5.596   7.693   3.706  0.3526  0.0020  0.0986
11480SOL    HW140276   5.648   7.772   3.721  0.6257  0.1398 -1.4357
11480SOL    HW240277   5.655   7.621   3.727  0.4421  0.1876  0.4890
11481SOL     OW40278   0.317   3.449   3.188  0.1255 -0.0452  0.4416
11481SOL    HW140279   0.344   3.471   3.098 -0.2945  2.0627  0.7812
11481SOL    HW240280   0.229   3.413   3.178 -0.1159  0.6397  0.0503
11482SOL     OW40281   8.489   7.347   0.652 -0.4662  0.1822  0.0747
11482SOL    HW140282   8.440   7.272   0.620  0.3995  0.2645 -1.5457
11482SOL    HW240283   8.438   7.379   0.726 -2.2593 -0.3792 -0.8634
11483SOL     OW40284   8.077   2.949   4.871 -0.0168  0.1661  0.0702
11483SOL    HW140285   8.015   2.906   4.812  1.2764 -1.1878 -0.3550
11483SOL    HW240286   8.054   2.917   4.958 -0.7038  0.6637  0.0794
11484SOL     OW40287  10.465   9.489   9.280 -0.1349 -0.6946  0.0596
11484SOL    HW140288  10.531   9.430   9.241 -0.5017 -2.5050  2.0300
11484SOL    HW240289  10.493   9.500   9.371 -0.5741  1.5582 -0.0091
11485SOL     OW40290   3.201   2.612   9.160  0.7159 -0.2925 -0.3364
11485SOL    HW140291   3.115   2.614   9.202  0.6216  0.8619 -0.5623
11485SOL    HW240292   3.182   2.619   9.067  1.0985  2.7545 -0.2937
11486SOL     OW40293   4.794   7.469   6.846 -0.3442  0.0156  0.6226
11486SOL    HW140294   4.855   7.395   6.847 -2.1166 -1.5635 -0.2880
11486SOL    HW240295   4.805   7.511   6.931 -0.8772 -2.7194  2.1524
11487SOL     OW40296   4.839   8.343   1.845  0.1170 -0.0165  0.2386
11487SOL    HW140297   4.841   8.252   1.873 -0.8127 -0.5103 -1.1736
11487SOL    HW240298   4.837   8.394   1.926  1.6524 -1.1943  1.0476
11488SOL     OW40299  10.195   0.816   0.372  0.2289  0.2570 -0.0482
11488SOL    HW140300  10.288   0.816   0.350  0.1833 -3.5935 -0.9196
11488SOL    HW240301  10.153   0.861   0.299  1.1315 -1.6085 -1.7862
11489SOL     OW40302   8.934   6.159   7.480  0.2099  0.2158 -0.6205
11489SOL    HW140303   8.961   6.192   7.566 -0.3725 -0.8855 -0.0023
11489SOL    HW240304   9.015   6.128   7.439  0.2222 -1.1301  0.3709
11490SOL     OW40305   0.899   3.010   4.119 -0.1411  0.4273 -0.0543
11490SOL    HW140306   0.961   2.938   4.134 -0.2878  0.1096 -0.9096
11490SOL    HW240307   0.873   3.000   4.027 -0.1639  1.5821 -0.1833
11491SOL     OW40308   8.987   9.273   3.633  0.5175 -0.1229  0.4499
11491SOL    HW140309   8.988   9.187   3.675  0.2642 -1.6329 -2.3832
11491SOL    HW240310   8.900   9.308   3.650  0.1277 -1.0722  0.4562
11492SOL     OW40311   6.196   5.381   0.621 -0.1539  0.2235 -0.2658
11492SOL    HW140312   6.269   5.323   0.601 -0.6999 -0.0557 -1.5158
11492SOL    HW240313   6.160   5.348   0.703  1.0006  0.2636  0.2790
11493SOL     OW40314   5.334   5.550   4.828 -0.7756  0.8786  0.2188
11493SOL    HW140315   5.250   5.523   4.790  0.0202 -1.4536 -0.0819
11493SOL    HW240316   5.311   5.586   4.914 -2.0399 -0.9134  0.7069
11494SOL     OW40317   1.289   2.154   1.051 -0.3697  0.1352 -0.0913
11494SOL    HW140318   1.357   2.199   1.002  0.3418 -1.5430 -0.7309
11494SOL    HW240319   1.207   2.185   1.012  0.0601  1.2428 -0.1470
11495SOL     OW40320   6.887   7.282   9.523 -0.3853  0.4158 -0.3998
11495SOL    HW140321   6.865   7.353   9.462 -0.1865  0.7078 -0.1362
11495SOL    HW240322   6.959   7.236   9.480 -1.3260 -0.4038 -1.1569
11496SOL     OW40323   8.402   5.221   4.835 -0.1164  0.1091  0.2057
11496SOL    HW140324   8.469   5.168   4.792  0.8904  0.5079  1.2517
11496SOL    HW240325   8.431   5.230   4.926 -0.6365  1.8164  0.2546
11497SOL     OW40326   5.514   5.149   0.179  0.4001  0.1491 -0.5229
11497SOL    HW140327   5.530   5.176   0.089 -0.0019  0.5944 -0.4656
11497SOL    HW240328   5.597   5.113   0.209  0.6801  0.4769 -0.9020
11498SOL     OW40329   8.215   6.874   0.368 -0.1907  0.2441 -0.2277
11498SOL    HW140330   8.209   6.871   0.463  3.7497  0.8610  0.2148
11498SOL    HW240331   8.213   6.782   0.341 -0.9401  0.0514  0.4697
11499SOL     OW40332   3.138   4.203   1.441 -0.2202 -0.3555 -0.0343
11499SOL    HW140333   3.056   4.202   1.489 -0.0480 -1.0662  0.2545
11499SOL    HW240334   3.125   4.141   1.370 -0.6554  1.0453 -1.2478
11500SOL     OW40335   5.018   3.876   6.699  0.0950  0.0505  0.0721
11500SOL    HW140336   4.951   3.817   6.665 -0.0157  0.3306 -0.2004
11500SOL    HW240337   4.970   3.943   6.748  0.2612 -0.3968  0.8533
11501SOL     OW40338  10.394   1.120   3.085 -0.1088 -0.0738  0.0303
11501SOL    HW140339  10.484   1.135   3.114  0.1637 -2.0096  0.3307
11501SOL    HW240340  10.365   1.045   3.137 -1.4070 -0.3747 -1.0819
11502SOL     OW40341  10.497   1.735   0.459  0.1851  0.2465  0.7558
11502SOL    HW140342  10.495   1.721   0.553 -0.2407 -0.3814  0.6555
11502SOL    HW240343  10.543   1.659   0.424  2.4652  1.5686  0.6463
11503SOL     OW40344   9.387   4.009   2.857  0.2035  0.0342 -0.2975
11503SOL    HW140345   9.384   4.080   2.793 -1.0981  0.0159 -0.2894
11503SOL    HW240346   9.296   4.001   2.888  0.3942 -1.3750 -0.0322
11504SOL     OW40347   3.630   2.958   8.922 -0.0412 -0.2328 -0.0832
11504SOL    HW140348   3.548   2.910   8.936  0.7070 -0.9250  2.7910
11504SOL    HW240349   3.629   3.027   8.988  0.6117  1.3680 -1.6682
11505SOL     OW40350   5.175   8.830   0.078 -0.3391  0.2165 -0.3358
11505SOL    HW140351   5.093   8.813   0.032  0.0750  1.9552 -1.8505
11505SOL    HW240352   5.201   8.917   0.049  0.0828  1.3908  3.1565
11506SOL     OW40353   9.514   0.899  10.186 -0.6993  0.4252  0.1520
11506SOL    HW140354   9.588   0.890  10.246 -0.0896 -0.5076 -0.7061
11506SOL    HW240355   9.438   0.913  10.242 -0.0253  0.3748  1.0922
11507SOL     OW40356   5.208   5.953   5.017  0.2597  0.6360  0.3236
11507SOL    HW140357   5.226   6.022   5.082  1.9046  1.5120 -0.9813
11507SOL    HW240358   5.114   5.959   5.001  0.0900  1.4421  1.4654
11508SOL     OW40359   7.044  10.258   5.186 -0.2209 -0.0115  0.4902
11508SOL    HW140360   7.115  10.321   5.174  0.8980 -0.9584  1.8028
11508SOL    HW240361   7.058  10.223   5.274 -1.6371 -1.0803  0.3224
11509SOL     OW40362   9.471   0.548   6.734 -0.1121 -0.1804 -0.3179
11509SOL    HW140363   9.450   0.639   6.758 -0.4443 -0.4438  0.4208
11509SOL    HW240364   9.472   0.501   6.818  2.3589 -0.4145 -0.4141
11510SOL     OW40365   3.107   1.298   5.308  0.1257 -0.5872  0.0305
11510SOL    HW140366   3.139   1.211   5.285  1.5987 -0.2452  0.6629
11510SOL    HW240367   3.012   1.290   5.305  0.1792 -2.6261  1.5372
11511SOL     OW40368   0.044   9.700   1.906 -0.1783  0.4425  0.4316
11511SOL    HW140369   0.054   9.721   1.813  0.8251  1.4832  0.7495
11511SOL    HW240370   0.005   9.613   1.906  1.3684 -0.3328 -0.9868
11512SOL     OW40371   8.341   5.764   7.426  0.9778 -0.2703  0.5318
11512SOL    HW140372   8.380   5.718   7.501  1.6186 -0.8469 -0.1382
11512SOL    HW240373   8.401   5.836   7.408  1.1933 -0.5454  0.1429
11513SOL     OW40374   6.168  10.197   5.606  0.4045  0.3010  0.9557
11513SOL    HW140375   6.076  10.172   5.597  0.3914  0.7526 -0.3523
11513SOL    HW240376   6.217  10.117   5.584  0.3388  0.8918 -1.6322
11514SOL     OW40377   5.278   2.468   0.181  0.3724  0.3051  0.0576
11514SOL    HW140378   5.314   2.493   0.095  0.6740 -1.3259 -0.3213
11514SOL    HW240379   5.193   2.430   0.161  0.0744  0.6818  0.5832
11515SOL     OW40380   9.193   2.663   0.243 -0.3919  0.0551 -0.7721
11515SOL    HW140381   9.279   2.664   0.201 -0.4056  0.5885 -0.7944
11515SOL    HW240382   9.156   2.750   0.225 -0.9786 -0.2065 -0.8504
11516SOL     OW40383   5.740   4.847   9.566  0.5508 -0.6041  0.1298
11516SOL    HW140384   5.659   4.845   9.616  1.0234 -2.2933  0.8782
11516SOL    HW240385   5.809   4.846   9.632  1.2143 -4.1932 -0.4438
11517SOL     OW40386   0.774   9.593   0.710  0.6455  0.4007  0.4742
11517SOL    HW140387   0.819   9.552   0.636  0.8124  0.3119  0.6241
11517SOL    HW240388   0.743   9.677   0.676  0.8037  0.4014  0.3309
11518SOL     OW40389   7.743   1.799   0.869 -1.0198  0.7790  0.0325
11518SOL    HW140390   7.730   1.705   0.882 -2.4362  0.9338 -0.1181
11518SOL    HW240391   7.835   1.814   0.892 -0.8981 -0.5573  0.4983
11519SOL     OW40392   7.063   0.853   7.939 -0.0632  0.0834  0.1363
11519SOL    HW140393   7.048   0.945   7.959 -1.2296 -0.2840  1.0734
11519SOL    HW240394   6.979   0.821   7.906  0.5998 -0.4225 -1.1540
11520SOL     OW40395   0.519   7.788   0.543  0.3809  0.5164 -0.2100
11520SOL    HW140396   0.433   7.751   0.561  1.5615 -1.7749  1.1080
11520SOL    HW240397   0.522   7.868   0.596 -0.4910 -0.0284  0.6999
11521SOL     OW40398   6.817   9.286   3.857  0.0863 -0.1426  0.3767
11521SOL    HW140399   6.794   9.252   3.770  0.2683 -2.4081  1.1394
11521SOL    HW240400   6.881   9.224   3.891 -0.1257  0.5763  2.2178
11522SOL     OW40401   3.968   0.921  10.130 -0.4120 -1.0795  0.2360
11522SOL    HW140402   4.041   0.933  10.069  0.3935 -1.1173  1.1538
11522SOL    HW240403   3.900   0.877  10.079  1.3933 -4.0354  0.1096
11523SOL     OW40404   4.400   0.837   3.488  0.4755 -0.1793 -0.2949
11523SOL    HW140405   4.460   0.863   3.557  0.0421  0.2883 -0.0889
11523SOL    HW240406   4.388   0.917   3.436 -1.9467  0.4938  1.1387
11524SOL     OW40407   4.989  10.673   4.716 -0.2575 -0.1888 -0.3310
11524SOL    HW140408   4.907  10.656   4.670  0.4607  0.1499 -1.8160
11524SOL    HW240409   4.984  10.620   4.795 -1.2914 -1.2729 -1.0949
11525SOL     OW40410   2.147  10.053   4.686  0.5142 -0.4808 -0.2917
11525SOL    HW140411   2.237  10.084   4.675 -0.1339  1.3481 -0.7593
11525SOL    HW240412   2.121  10.024   4.599  0.3286 -0.0727 -0.3730
11526SOL     OW40413   0.721   9.585   8.804 -1.0076 -0.3317 -0.1226
11526SOL    HW140414   0.727   9.678   8.827 -1.6750  0.0583 -1.4467
11526SOL    HW240415   0.724   9.583   8.708 -1.1668 -1.6701 -0.1266
11527SOL     OW40416   1.595   8.768   4.885 -0.1447  0.3916 -0.1333
11527SOL    HW140417   1.604   8.690   4.939 -1.1837  1.2489  1.3636
11527SOL    HW240418   1.595   8.736   4.795  0.4349 -1.2087  0.4105
11528SOL     OW40419   5.441   8.947   3.165 -0.2462  0.0805  0.3398
11528SOL    HW140420   5.427   9.041   3.175  0.1499  0.1507  0.2407
11528SOL    HW240421   5.467   8.936   3.074  2.2177  0.1972  0.9639
11529SOL     OW40422   9.444  10.390   9.299 -0.2472 -0.3526 -0.1564
11529SOL    HW140423   9.460  10.483   9.284  0.9384 -0.6692 -1.0421
11529SOL    HW240424   9.408  10.358   9.216 -3.9150 -0.0778  1.1523
11530SOL     OW40425   5.119   1.294   0.965  0.3826 -0.6152  0.4219
11530SOL    HW140426   5.059   1.362   0.994  1.0787 -0.4154  1.4512
11530SOL    HW240427   5.139   1.317   0.874 -0.7590 -0.4600  0.1955
11531SOL     OW40428   1.565   6.140   0.933  0.0184  1.2305  0.5249
11531SOL    HW140429   1.623   6.207   0.897  0.4805  1.2598  1.3078
11531SOL    HW240430   1.520   6.103   0.856 -0.4649  2.6304  0.1139
11532SOL     OW40431   1.143   9.142   8.897 -0.8569  0.2602 -0.0739
11532SOL    HW140432   1.127   9.216   8.956 -1.7284 -0.1214  0.1778
11532SOL    HW240433   1.149   9.067   8.956 -1.3383 -0.0647 -0.4404
11533SOL     OW40434   6.903   1.268   3.525  0.1198 -0.6971 -0.7291
11533SOL    HW140435   6.973   1.271   3.460 -0.4891 -0.9208 -1.4037
11533SOL    HW240436   6.827   1.235   3.477 -0.4272 -0.5400  0.0154
11534SOL     OW40437   3.358   1.904   0.745  0.2078 -0.0644 -0.3167
11534SOL    HW140438   3.307   1.954   0.680  0.2842  0.2423 -0.1423
11534SOL    HW240439   3.427   1.863   0.695  1.8489  2.2292 -0.1019
11535SOL     OW40440   0.568   0.708   3.661  0.0260 -0.4055 -0.1086
11535SOL    HW140441   0.529   0.639   3.714  0.0128  0.9035  1.7064
11535SOL    HW240442   0.637   0.664   3.611 -0.6486 -1.8900  0.2116
11536SOL     OW40443   7.015   4.543   8.278 -0.3896  0.0704 -0.2664
11536SOL    HW140444   7.060   4.528   8.361 -2.1421 -0.5348  0.6272
11536SOL    HW240445   7.017   4.638   8.266 -0.2420  0.1707  0.5258
11537SOL     OW40446   0.163   3.698   8.190  0.3180  0.0424 -0.6208
11537SOL    HW140447   0.101   3.757   8.233 -0.5195 -0.5852 -0.9247
11537SOL    HW240448   0.107   3.640   8.138  0.9321 -2.3100  1.1917
11538SOL     OW40449   4.330   3.794   6.035  0.0352  0.4301  0.0438
11538SOL    HW140450   4.381   3.866   6.073 -0.7325 -0.1215  2.3250
11538SOL    HW240451   4.288   3.831   5.958 -0.3010  2.4280  1.1275
11539SOL     OW40452   0.302   1.170   4.264  0.1786  0.0552  0.4922
11539SOL    HW140453   0.246   1.095   4.284  1.1366 -0.6731  0.5278
11539SOL    HW240454   0.348   1.145   4.184  0.5639  0.5715  0.5438
11540SOL     OW40455   5.732   9.204   2.584 -0.4487  0.7949 -0.0022
11540SOL    HW140456   5.735   9.299   2.596 -0.0853  0.6998  0.6978
11540SOL    HW240457   5.781   9.169   2.659 -1.6193  0.0101  0.4239
11541SOL     OW40458   8.314   4.139   7.518 -0.4118 -0.1097 -0.0840
11541SOL    HW140459   8.375   4.114   7.449  1.7510 -1.8692  2.2847
11541SOL    HW240460   8.339   4.229   7.540  1.2882 -0.7450  0.7368
11542SOL     OW40461   6.018   4.666   4.530  0.3162  0.4829  0.4842
11542SOL    HW140462   5.994   4.645   4.620  1.5117  0.2944  0.7737
11542SOL    HW240463   5.992   4.589   4.479  0.3448  0.2667  0.7944
11543SOL     OW40464   5.650   8.136   6.186  0.3600 -0.5765  0.0486
11543SOL    HW140465   5.731   8.173   6.149 -0.4962 -0.4990 -1.8889
11543SOL    HW240466   5.676   8.049   6.217  1.6172  0.2364  1.3767
11544SOL     OW40467   7.964   1.147   3.378 -0.4063  0.4492 -0.5966
11544SOL    HW140468   7.997   1.220   3.327  1.2885 -0.0879 -0.3509
11544SOL    HW240469   8.042   1.112   3.423 -1.1543 -1.4845 -0.6991
11545SOL     OW40470   9.889   0.052   5.729 -0.1250 -0.1946  0.1907
11545SOL    HW140471   9.801   0.057   5.765  0.3535  0.9858  1.2944
11545SOL    HW240472   9.880  -0.002   5.650 -1.8687  0.1295  0.1247
11546SOL     OW40473   7.769   0.253   0.846 -0.4504 -0.2750 -0.0044
11546SOL    HW140474   7.793   0.167   0.879 -0.1637 -0.3116 -0.3020
11546SOL    HW240475   7.678   0.265   0.874 -0.1295 -0.1798  1.0403
11547SOL     OW40476   4.626   3.502   5.557 -0.3997  0.0857 -0.1241
11547SOL    HW140477   4.532   3.485   5.553 -0.4853  0.1062  1.3153
11547SOL    HW240478   4.667   3.416   5.549 -0.4908  0.1436 -1.4534
11548SOL     OW40479   9.934   5.722   1.599  0.0396  0.0305  0.0117
11548SOL    HW140480   9.998   5.763   1.657  0.2851  1.0061 -0.9248
11548SOL    HW240481   9.915   5.789   1.533 -1.8918 -0.2666  0.2164
11549SOL     OW40482   6.950   8.116   4.907  0.7584 -0.1457  0.0734
11549SOL    HW140483   6.944   8.030   4.948  2.8068 -1.3941 -2.0249
11549SOL    HW240484   6.870   8.124   4.855  0.8674 -1.1225 -0.2595
11550SOL     OW40485   5.075   9.330   8.029  0.5270  0.6635  0.4835
11550SOL    HW140486   5.018   9.392   8.074  0.6058  1.1274 -0.0346
11550SOL    HW240487   5.081   9.255   8.088 -0.7751  0.5160  0.4732
11551SOL     OW40488   9.732   3.052   0.205 -0.0048 -0.9153 -0.1963
11551SOL    HW140489   9.725   2.977   0.264 -0.0936  1.2392  2.7783
11551SOL    HW240490   9.813   3.096   0.232 -1.0579  1.2121 -0.2890
11552SOL     OW40491   2.530   7.338   4.167  0.0480 -0.4923 -0.4531
11552SOL    HW140492   2.463   7.397   4.130  1.1201  1.1783  0.1368
11552SOL    HW240493   2.496   7.316   4.254 -0.8103 -1.5653 -1.0358
11553SOL     OW40494   8.973  10.151   5.094  0.1230  0.0508 -0.1619
11553SOL    HW140495   8.923  10.178   5.017 -0.3482  1.4030  0.5844
11553SOL    HW240496   9.060  10.188   5.080 -0.4511  1.8563  0.7383
11554SOL     OW40497   5.613   2.186   7.663  0.4383  0.3350 -0.3889
11554SOL    HW140498   5.555   2.112   7.645  0.0908  0.6782 -0.7282
11554SOL    HW240499   5.695   2.147   7.693 -0.0418 -0.1484  0.3046
11555SOL     OW40500   1.972   5.533   0.797  0.5963  0.1173 -0.1629
11555SOL    HW140501   1.955   5.464   0.733  1.2111  0.4248 -0.6663
11555SOL    HW240502   2.015   5.602   0.748 -0.9990  1.3522  0.1039
11556SOL     OW40503   8.758   8.048   5.649  0.0819  0.0472  0.2318
11556SOL    HW140504   8.848   8.055   5.683  0.2564  0.3605 -0.2852
11556SOL    HW240505   8.709   8.005   5.720  0.6778 -0.2992  0.4434
11557SOL     OW40506   7.296   2.381   5.459  0.2099 -0.0032 -0.4010
11557SOL    HW140507   7.233   2.317   5.425 -0.8946  0.6836  0.2826
11557SOL    HW240508   7.327   2.343   5.541 -0.6205  0.4182  0.1217
11558SOL     OW40509   1.108   6.569   9.006 -0.3087 -1.0084 -0.2182
11558SOL    HW140510   1.044   6.634   8.976  2.0548  0.8101 -1.7129
11558SOL    HW240511   1.143   6.606   9.087 -0.5090 -1.5230  0.1016
11559SOL     OW40512   4.744   0.780   2.736 -0.6857  0.6439  0.3532
11559SOL    HW140513   4.836   0.771   2.759 -1.0059 -1.2685  1.1041
11559SOL    HW240514   4.733   0.872   2.715  1.7728  0.6234 -1.4177
11560SOL     OW40515   3.790   1.337   2.317 -0.2387  0.7455  0.4782
11560SOL    HW140516   3.709   1.287   2.304  0.6354 -0.6938  0.3867
11560SOL    HW240517   3.805   1.381   2.234 -1.6855  2.2451  0.9438
11561SOL     OW40518   9.352   5.469   3.520 -0.5641 -0.4615  0.3390
11561SOL    HW140519   9.373   5.468   3.427  0.5743 -2.4130  0.5404
11561SOL    HW240520   9.401   5.543   3.555 -0.7307  0.0859 -0.5582
11562SOL     OW40521   2.006  10.435   5.314  0.1096 -0.3354 -0.7263
11562SOL    HW140522   2.070  10.486   5.263 -0.7312 -0.6886 -2.2006
11562SOL    HW240523   1.942  10.405   5.249 -2.0772  0.7429  0.8110
11563SOL     OW40524   6.280   6.701   8.011  0.4351 -0.2920 -0.1873
11563SOL    HW140525   6.373   6.697   7.988  0.7710 -3.6290  1.1512
11563SOL    HW240526   6.238   6.639   7.951 -0.8757  0.7769 -0.4275
11564SOL     OW40527   3.600   7.947   9.926 -0.4036 -0.1241 -0.0148
11564SOL    HW140528   3.632   8.031   9.894  0.8079 -0.2412  0.8385
11564SOL    HW240529   3.540   7.969   9.997 -1.6491  0.0624 -1.0769
11565SOL     OW40530   7.529   1.076   6.140  0.4110  0.1427  0.8539
11565SOL    HW140531   7.481   1.157   6.156 -1.6849 -1.0027  0.7112
11565SOL    HW240532   7.475   1.007   6.179  2.0357 -1.2323  0.8188
11566SOL     OW40533   3.410   0.003   2.229  0.0779 -0.2510 -0.3338
11566SOL    HW140534   3.470  -0.052   2.180 -0.7663 -0.9818 -0.5711
11566SOL    HW240535   3.461   0.081   2.252  1.7384 -1.7025  1.1972
11567SOL     OW40536   7.539   4.516   9.537 -0.0311 -0.3218 -0.2737
11567SOL    HW140537   7.459   4.550   9.496 -1.5353 -0.1157  2.5546
11567SOL    HW240538   7.595   4.593   9.546 -0.5216  0.0289 -0.1546
11568SOL     OW40539  10.487   7.589   9.053 -0.2864  0.2413  0.3163
11568SOL    HW140540  10.440   7.539   9.120  0.8346  0.7915  1.5464
11568SOL    HW240541  10.427   7.660   9.029 -0.6692  0.0763  0.7664
11569SOL     OW40542   4.618   7.540   7.372 -0.6908  0.0348 -0.7433
11569SOL    HW140543   4.530   7.509   7.353 -0.8624  0.4247 -0.5891
11569SOL    HW240544   4.628   7.618   7.318 -0.5204  0.1177 -0.5918
11570SOL     OW40545   6.435   6.149   0.397 -0.4596  0.7053 -0.3137
11570SOL    HW140546   6.422   6.057   0.418 -0.9269  0.1694 -2.6972
11570SOL    HW240547   6.386   6.196   0.464 -1.9078 -0.8333 -0.2355
11571SOL     OW40548   7.503   3.840   5.929 -0.3209 -0.0261  0.0648
11571SOL    HW140549   7.537   3.881   6.008 -1.2669  0.5296  0.2079
11571SOL    HW240550   7.464   3.758   5.959 -1.1841  0.4472  0.2900
11572SOL     OW40551   8.132   7.137   3.428  0.1399  0.2389 -0.0244
11572SOL    HW140552   8.130   7.172   3.517 -1.5912 -0.2253  0.1625
11572SOL    HW240553   8.200   7.188   3.384 -1.7450  3.4257  0.4398
11573SOL     OW40554   2.126   5.277   4.513  0.0784  0.0783 -0.2977
11573SOL    HW140555   2.050   5.328   4.486  0.4228  1.1405  0.6572
11573SOL    HW240556   2.089   5.193   4.541 -1.3136  1.7296  3.5148
11574SOL     OW40557   5.359   2.866   4.503 -0.1405  0.3250  0.0670
11574SOL    HW140558   5.445   2.824   4.499 -0.1535  0.1329  1.3077
11574SOL    HW240559   5.373   2.942   4.560 -1.1001 -0.5518  1.5222
11575SOL     OW40560   5.765  10.053  10.172 -0.1356  0.0351 -0.1097
11575SOL    HW140561   5.730  10.142  10.182  0.1193  0.0310  0.9537
11575SOL    HW240562   5.826  10.059  10.098  0.6658  1.0069  0.6058
11576SOL     OW40563   6.942   6.388   7.655 -0.6889 -0.2376 -0.6724
11576SOL    HW140564   6.985   6.472   7.639 -0.5585 -0.7286 -3.3678
11576SOL    HW240565   7.006   6.336   7.704 -0.7221  1.1198  0.9092
11577SOL     OW40566   0.681  10.028   5.886  0.2889  0.1633  0.0546
11577SOL    HW140567   0.681  10.123   5.897  1.6311  0.1839  0.0500
11577SOL    HW240568   0.774  10.005   5.879 -0.0545 -0.7529 -3.3777
11578SOL     OW40569   8.156   5.506   2.143 -0.2427 -0.6949  0.3726
11578SOL    HW140570   8.090   5.573   2.163 -0.8552 -1.0825 -0.2737
11578SOL    HW240571   8.110   5.445   2.085  0.4701 -1.3853  0.5266
11579SOL     OW40572   3.263   2.334   8.605  0.1878  0.1057  0.4178
11579SOL    HW140573   3.291   2.267   8.543 -0.6290  0.4335 -0.3225
11579SOL    HW240574   3.269   2.291   8.690 -0.3817 -0.9333 -0.0527
11580SOL     OW40575   4.407   3.442   7.608  0.0754 -0.0023  0.7062
11580SOL    HW140576   4.488   3.403   7.576 -0.8479 -1.6609  0.2462
11580SOL    HW240577   4.432   3.529   7.638  1.4836  0.7108 -2.1866
11581SOL     OW40578   3.442   7.147   8.419 -0.1304  0.1095  0.0491
11581SOL    HW140579   3.445   7.228   8.471  1.7553  0.3854 -0.4153
11581SOL    HW240580   3.349   7.128   8.410 -0.5720  1.0364  2.0027
11582SOL     OW40581  10.411  10.652   5.539 -0.1037 -0.2733 -0.3115
11582SOL    HW140582  10.365  10.719   5.488  0.4159  0.5129  0.2186
11582SOL    HW240583  10.371  10.656   5.626  0.0050 -0.5661 -0.2458
11583SOL     OW40584   8.190   4.394   6.371  0.4347 -0.1242  0.0174
11583SOL    HW140585   8.231   4.460   6.314 -1.3953 -0.1859 -1.4817
11583SOL    HW240586   8.131   4.444   6.426  0.5567 -0.3032  0.3101
11584SOL     OW40587   6.962  10.361   3.560 -0.1405  0.6722  0.0631
11584SOL    HW140588   6.868  10.349   3.546 -0.1636 -2.8041  2.0595
11584SOL    HW240589   6.968  10.415   3.639 -0.5620 -0.1838  0.7043
11585SOL     OW40590   2.248   2.172   5.407  1.0084  0.5448 -0.2873
11585SOL    HW140591   2.196   2.226   5.466  0.9052  1.0227 -0.8058
11585SOL    HW240592   2.294   2.111   5.464 -0.3837 -0.1269  0.1718
11586SOL     OW40593   0.907   0.673   8.211  0.0023  0.0308  0.4656
11586SOL    HW140594   0.904   0.713   8.297  1.9281 -0.2225  0.7073
11586SOL    HW240595   0.990   0.623   8.210 -1.3438 -2.3887 -0.4922
11587SOL     OW40596   3.625   9.971   7.070 -0.1722  0.8507 -0.3267
11587SOL    HW140597   3.716  10.002   7.069 -0.0709  0.6009 -2.1954
11587SOL    HW240598   3.573  10.050   7.054 -0.3178  1.0246  0.9249
11588SOL     OW40599   0.773   1.940   8.774 -0.6959 -0.2405 -0.7431
11588SOL    HW140600   0.779   1.855   8.731  0.5655 -1.1434  1.1167
11588SOL    HW240601   0.797   2.003   8.706 -0.0140 -1.5105 -1.7101
11589SOL     OW40602   3.392   6.453   0.903 -0.7095  0.6943 -0.3222
11589SOL    HW140603   3.455   6.488   0.966  0.1235  0.7839 -1.1904
11589SOL    HW240604   3.328   6.407   0.957 -0.4836  1.4755  0.6589
11590SOL     OW40605   0.454   8.898   4.119 -0.2029  0.1045  0.0211
11590SOL    HW140606   0.423   8.955   4.189  0.7422  1.1707 -0.4150
11590SOL    HW240607   0.407   8.927   4.041  2.8749  2.8882 -1.0425
11591SOL     OW40608   8.101   5.581   0.811  0.4205  0.3120 -0.1713
11591SOL    HW140609   8.024   5.588   0.868  0.8546  2.6499  0.2359
11591SOL    HW240610   8.068   5.539   0.732 -0.8142 -0.5075  0.7378
11592SOL     OW40611   4.321   5.228   2.043  0.3568  0.4649  0.1869
11592SOL    HW140612   4.311   5.152   1.986 -0.3930  1.3772 -0.9314
11592SOL    HW240613   4.234   5.269   2.045  0.3937  0.5334  1.8975
11593SOL     OW40614   9.215   1.622   2.928 -0.4432 -0.1533 -0.1988
11593SOL    HW140615   9.120   1.611   2.920 -0.7283  2.0650 -0.2358
11593SOL    HW240616   9.228   1.715   2.946  1.7691 -0.2822 -0.8117
11594SOL     OW40617   4.008   2.762   5.150  0.8151  0.3049  0.4052
11594SOL    HW140618   4.090   2.812   5.144 -0.9154  3.2502 -3.5024
11594SOL    HW240619   3.953   2.815   5.206  0.5665  0.0724  0.3803
11595SOL     OW40620   5.558   3.781   7.712 -0.3494  0.2973  0.3922
11595SOL    HW140621   5.639   3.736   7.689  0.9140  1.6155  1.9640
11595SOL    HW240622   5.508   3.716   7.762 -0.2199 -0.4795 -0.4650
11596SOL     OW40623   8.282   8.027   9.647 -0.1681 -0.3453 -0.1405
11596SOL    HW140624   8.375   8.024   9.623  0.0742 -2.7129  0.8572
11596SOL    HW240625   8.260   8.120   9.644  3.2042  0.8274  3.0510
11597SOL     OW40626   8.273   3.481   0.225 -0.3757 -0.3495 -0.2705
11597SOL    HW140627   8.248   3.574   0.225  1.5838  0.2172 -0.6172
11597SOL    HW240628   8.189   3.434   0.228 -1.3822  1.4046  1.1239
11598SOL     OW40629   8.631   0.755   0.314 -0.2851 -0.0109  0.2819
11598SOL    HW140630   8.635   0.841   0.355 -0.4646 -0.5408  1.4477
11598SOL    HW240631   8.663   0.695   0.381  1.7833 -0.6587 -1.1799
11599SOL     OW40632   1.645   5.503   3.527  0.8930  0.0682  0.0567
11599SOL    HW140633   1.592   5.551   3.590 -0.3931 -0.1983 -0.8045
11599SOL    HW240634   1.602   5.516   3.443 -0.2777 -3.5241 -0.0919
11600SOL     OW40635   4.733   3.916   5.362 -0.2423  0.7474 -0.1542
11600SOL    HW140636   4.722   4.007   5.392  2.2208  0.6526  1.3290
11600SOL    HW240637   4.781   3.924   5.279 -1.1037  0.8094 -0.6575
11601SOL     OW40638   6.043   7.992  10.469 -0.0609  0.2826  0.1429
11601SOL    HW140639   6.129   8.023  10.438  0.8728 -0.4691  1.8139
11601SOL    HW240640   6.031   7.908  10.426  0.2429  0.1955  0.2241
11602SOL     OW40641   8.499   0.377   9.787  0.0865  0.2819 -0.6973
11602SOL    HW140642   8.512   0.386   9.881  0.1162  0.6029 -0.7288
11602SOL    HW240643   8.406   0.361   9.777  0.1695 -0.3039 -0.5802
11603SOL     OW40644   5.767   6.240   5.639  0.4122 -0.1622  0.2005
11603SOL    HW140645   5.787   6.226   5.547  1.6700  0.6114  0.3437
11603SOL    HW240646   5.826   6.309   5.667 -1.2837  1.0010  1.1042
11604SOL     OW40647   3.708   9.840   6.757  0.0008 -0.5644 -0.2186
11604SOL    HW140648   3.800   9.830   6.779  0.8096  0.7680 -2.6488
11604SOL    HW240649   3.662   9.782   6.818  2.3832 -1.0311  1.2554
11605SOL     OW40650   8.116   4.115   2.212 -0.2225 -0.0310  0.0249
11605SOL    HW140651   8.185   4.105   2.277  3.3570 -0.1151 -3.3475
11605SOL    HW240652   8.072   4.030   2.208  1.9106 -1.1919 -0.0434
11606SOL     OW40653   0.714   0.630   8.017  0.6150  0.0712  0.1472
11606SOL    HW140654   0.648   0.699   8.006  0.0714 -0.3444  0.7181
11606SOL    HW240655   0.778   0.666   8.078  2.2862  1.4242 -2.2545
11607SOL     OW40656   9.840   1.710   9.114  0.5043 -0.0974 -0.5620
11607SOL    HW140657   9.757   1.724   9.160  0.3363 -1.1917 -0.5198
11607SOL    HW240658   9.830   1.626   9.070  1.8363 -0.5717 -0.0006
11608SOL     OW40659   6.136   1.190   6.908 -0.1758  0.5359  0.3454
11608SOL    HW140660   6.097   1.162   6.826 -1.3608  1.3249  0.6064
11608SOL    HW240661   6.186   1.114   6.938 -1.7221 -0.6378  0.1027
11609SOL     OW40662   6.984   8.231   8.913  0.0821  0.4483  0.4408
11609SOL    HW140663   6.919   8.203   8.978 -1.2971  2.5231  0.0440
11609SOL    HW240664   6.975   8.167   8.842  0.2159 -0.7002  1.4387
11610SOL     OW40665   3.796   5.597   9.538 -0.3428  0.5013  0.3072
11610SOL    HW140666   3.826   5.558   9.620 -4.2251 -0.5490  1.4621
11610SOL    HW240667   3.776   5.522   9.482 -2.6353  0.9412  0.4508
11611SOL     OW40668   2.963   7.062   1.356 -0.2802 -0.2886  0.0807
11611SOL    HW140669   2.930   6.974   1.371  0.5440 -0.5955  0.1689
11611SOL    HW240670   2.913   7.117   1.416 -0.2471 -0.8156  0.5989
11612SOL     OW40671   1.590   8.699   2.811 -0.2933  0.1125 -0.0880
11612SOL    HW140672   1.635   8.631   2.761 -1.2592 -1.3036  0.8972
11612SOL    HW240673   1.507   8.712   2.764 -1.0764 -1.0144  0.9291
11613SOL     OW40674   7.424   0.126  10.148  0.4031 -0.0598 -0.3449
11613SOL    HW140675   7.350   0.131  10.209 -2.0264 -1.7257 -2.8676
11613SOL    HW240676   7.486   0.068  10.191 -1.4344 -1.5719  0.4399
11614SOL     OW40677   8.790   8.725   1.440 -0.4020 -0.0288 -0.2950
11614SOL    HW140678   8.705   8.757   1.472 -0.4744 -1.3655  0.9603
11614SOL    HW240679   8.773   8.637   1.409  0.2232  0.2972 -1.6545
11615SOL     OW40680   8.653   1.328   6.420  0.4222 -0.5345 -0.1482
11615SOL    HW140681   8.631   1.369   6.336  0.9687 -1.1109 -0.5840
11615SOL    HW240682   8.632   1.235   6.407 -0.3340 -0.4846  0.6559
11616SOL     OW40683   0.931   1.685   8.933  0.3259  0.1055 -0.3900
11616SOL    HW140684   0.967   1.608   8.976  0.4417 -0.0714 -0.8026
11616SOL    HW240685   0.880   1.729   9.001  0.2680 -0.3280 -0.1546
11617SOL     OW40686   6.276   0.851   6.132 -0.1492 -0.0501  0.6503
11617SOL    HW140687   6.320   0.834   6.216  1.9279  0.9885 -0.1570
11617SOL    HW240688   6.347   0.857   6.069 -1.3961  2.2498 -0.6786
11618SOL     OW40689   0.021   0.664   4.476 -0.1726  0.4552 -0.6823
11618SOL    HW140690  -0.047   0.666   4.544 -0.1898  0.4777 -0.7000
11618SOL    HW240691   0.086   0.602   4.509 -0.4836 -0.0045 -0.9357
11619SOL     OW40692   6.337   7.908   4.785 -0.4151  0.1786 -0.6847
11619SOL    HW140693   6.350   7.820   4.751 -0.8908 -0.1375 -0.0844
11619SOL    HW240694   6.314   7.960   4.709  0.2886 -0.1230 -1.1088
11620SOL     OW40695   8.115  10.287   7.135 -0.5250 -0.4009 -0.0989
11620SOL    HW140696   8.181  10.354   7.119  0.7843 -1.3541  1.0542
11620SOL    HW240697   8.047  10.304   7.070 -0.0207  1.7285 -0.1432
11621SOL     OW40698   5.487   2.746   4.084 -0.1457  0.7381 -0.0588
11621SOL    HW140699   5.526   2.827   4.052 -0.4311  0.9184  0.0483
11621SOL    HW240700   5.399   2.746   4.049 -0.3272  0.7407  0.3875
11622SOL     OW40701  10.707   0.432   4.718  0.0884  0.6263  0.3362
11622SOL    HW140702  10.676   0.416   4.807 -0.1807 -0.2663  0.0988
11622SOL    HW240703  10.802   0.425   4.724  0.1061  1.1609  0.6637
11623SOL     OW40704   0.722   9.307  10.541 -0.1478 -0.1261 -0.1286
11623SOL    HW140705   0.677   9.239  10.590 -1.1096  0.7334  0.2033
11623SOL    HW240706   0.791   9.338  10.600 -1.1735  0.7671  0.6306
11624SOL     OW40707   3.983   3.218   1.040 -0.2513  0.6073  0.2838
11624SOL    HW140708   3.996   3.210   1.134  1.0930 -1.2362  0.0037
11624SOL    HW240709   4.071   3.219   1.003 -0.7270 -1.2726 -1.0662
11625SOL     OW40710  10.227   2.540   7.903 -0.0421  0.1936  0.0081
11625SOL    HW140711  10.206   2.602   7.973 -0.9395  0.3481 -0.3957
11625SOL    HW240712  10.155   2.478   7.904 -1.1550  1.3585 -2.1240
11626SOL     OW40713   6.500   0.913   2.917 -0.4644 -0.3747  0.6039
11626SOL    HW140714   6.590   0.910   2.884 -0.0415  1.5880  1.4686
11626SOL    HW240715   6.468   1.000   2.893 -0.5742  0.6797  4.0690
11627SOL     OW40716   7.901   6.630   6.501  0.0667 -1.0044  0.0552
11627SOL    HW140717   7.901   6.611   6.595 -0.5242 -0.3350  0.2061
11627SOL    HW240718   7.812   6.608   6.473 -0.5571  1.1116  0.1795
11628SOL     OW40719   0.325   2.584   3.724 -0.1227 -0.3160  0.5597
11628SOL    HW140720   0.378   2.664   3.729  0.0529 -0.4229  0.4210
11628SOL    HW240721   0.389   2.514   3.705 -0.4476 -0.3025 -0.6065
11629SOL     OW40722  10.091   6.502   9.526  0.1071 -0.2015 -0.1392
11629SOL    HW140723  10.183   6.526   9.517 -0.5129  2.7584  0.2703
11629SOL    HW240724  10.062   6.485   9.437  0.5696  1.1440 -0.5795
11630SOL     OW40725   2.709   1.736  10.263 -0.1674 -0.0675 -0.3558
11630SOL    HW140726   2.794   1.734  10.219 -0.5323 -1.5392 -1.0569
11630SOL    HW240727   2.702   1.650  10.304 -1.8355 -0.4244 -1.3209
11631SOL     OW40728   2.634   0.202   1.568  0.1857 -0.1261  0.1724
11631SOL    HW140729   2.666   0.221   1.656  1.4895  0.3826 -0.3909
11631SOL    HW240730   2.659   0.111   1.553 -0.0759 -0.2271  0.3319
11632SOL     OW40731   6.413   2.960   6.510 -0.1166 -0.4562  0.8226
11632SOL    HW140732   6.449   3.049   6.511 -0.4898 -0.1972 -1.7438
11632SOL    HW240733   6.399   2.939   6.602  1.3690  1.5616  1.5925
11633SOL     OW40734   4.423   7.245   4.786  0.3115 -0.0087  0.1726
11633SOL    HW140735   4.461   7.159   4.800  2.0448  0.5627 -0.6954
11633SOL    HW240736   4.426   7.258   4.691 -0.5375  0.7422  0.2304
11634SOL     OW40737   4.806   3.673   5.120  0.2230 -0.0827  0.4650
11634SOL    HW140738   4.892   3.671   5.163  0.3158 -1.4825  0.2769
11634SOL    HW240739   4.803   3.591   5.070 -1.0158  0.2007  0.0475
11635SOL     OW40740   2.269   9.339   4.746  0.4042 -0.0142 -0.2249
11635SOL    HW140741   2.295   9.321   4.837  2.5638  0.8124 -0.5998
11635SOL    HW240742   2.291   9.260   4.698 -0.1391 -0.2185 -0.1428
11636SOL     OW40743   0.638  10.571   3.538  0.0756  0.1717  0.5121
11636SOL    HW140744   0.642  10.516   3.460 -0.1190  0.1143  0.5440
11636SOL    HW240745   0.548  10.564   3.569  0.5941 -1.2668  1.8067
11637SOL     OW40746   2.368   6.174   1.976  0.6362 -0.1559 -0.3583
11637SOL    HW140747   2.430   6.162   2.049  0.7888  0.6772 -0.3511
11637SOL    HW240748   2.288   6.131   2.006  1.1225 -1.0278 -0.2661
11638SOL     OW40749   0.673   1.894   6.975 -0.1892  0.6750 -0.8336
11638SOL    HW140750   0.612   1.911   7.047 -0.8128  0.0372 -1.1911
11638SOL    HW240751   0.653   1.962   6.910  0.3994  1.2732 -0.3987
11639SOL     OW40752   5.828   5.218   0.017 -0.3053 -0.7570  0.0031
11639SOL    HW140753   5.910   5.174   0.039 -0.8572 -1.3024  1.0789
11639SOL    HW240754   5.792   5.167  -0.056  1.0598  0.4608 -1.6148
11640SOL     OW40755   4.258   2.404   4.030 -0.2914  0.4008 -0.8100
11640SOL    HW140756   4.262   2.496   4.005 -1.8549  0.6646 -0.2114
11640SOL    HW240757   4.323   2.361   3.975 -0.5837  1.6266 -2.1646
11641SOL     OW40758   2.392  10.443   6.903  0.3025  0.0553 -0.1593
11641SOL    HW140759   2.354  10.357   6.886  0.5696  0.0365 -0.6817
11641SOL    HW240760   2.350  10.473   6.984 -1.1177  0.2058 -0.9217
11642SOL     OW40761   4.255   8.957   7.538  0.6058 -0.0184  0.1116
11642SOL    HW140762   4.196   8.922   7.605  0.2770 -1.4829 -0.8694
11642SOL    HW240763   4.294   8.879   7.498  0.6310  0.7907 -1.5290
11643SOL     OW40764   0.297   8.843  10.663 -0.2047 -0.0516 -0.2767
11643SOL    HW140765   0.227   8.860  10.601 -1.0329 -0.0180  0.6377
11643SOL    HW240766   0.375   8.880  10.622 -1.0667  1.6327 -0.4997
11644SOL     OW40767   3.391  10.318   5.177 -0.3812  0.3928 -0.3028
11644SOL    HW140768   3.342  10.268   5.112 -0.4049 -0.4448  0.3487
11644SOL    HW240769   3.336  10.395   5.195 -0.9269  0.0289 -0.4089
11645SOL     OW40770   5.172   2.911   6.175  0.3150  0.6808  0.8445
11645SOL    HW140771   5.110   2.982   6.154 -0.5241  0.0068  0.9724
11645SOL    HW240772   5.222   2.899   6.095 -0.7425  0.2355  0.2316
11646SOL     OW40773   5.449   6.132   8.980  0.1505  0.5177 -0.1218
11646SOL    HW140774   5.475   6.151   8.890  0.7912  0.6270  0.0814
11646SOL    HW240775   5.527   6.149   9.032  0.0418 -0.3743  0.3526
11647SOL     OW40776   3.938   2.872   4.834 -0.0186  0.0493 -1.0631
11647SOL    HW140777   4.015   2.911   4.874 -1.6014  1.1967  1.0583
11647SOL    HW240778   3.940   2.780   4.861 -0.3480  0.4991  0.5830
11648SOL     OW40779   7.513  10.535   1.877  0.3347 -0.3117  0.3328
11648SOL    HW140780   7.436  10.510   1.825  1.7179 -1.7129 -1.1976
11648SOL    HW240781   7.547  10.452   1.910  1.5193  0.2186  0.4821
11649SOL     OW40782   5.154   3.644   3.361  0.3209 -0.1817 -0.0299
11649SOL    HW140783   5.220   3.577   3.379 -0.0356  0.1302  2.9858
11649SOL    HW240784   5.201   3.727   3.371 -0.2798  0.0280  1.2953
11650SOL     OW40785   4.907   3.076   5.060 -0.4394 -0.0937  0.5189
11650SOL    HW140786   4.952   3.158   5.082  1.3533 -1.1007  0.7496
11650SOL    HW240787   4.901   3.029   5.143 -0.2136 -0.7956  0.1414
11651SOL     OW40788   3.797   6.055   7.488 -0.1039  0.2741 -0.4524
11651SOL    HW140789   3.892   6.064   7.502 -0.3675  0.4570  1.6011
11651SOL    HW240790   3.789   5.995   7.414  1.6415 -0.9649  0.2836
11652SOL     OW40791   0.284   9.315   7.226  0.4368  0.4742  0.2028
11652SOL    HW140792   0.369   9.287   7.192  0.2530 -0.5390  0.5630
11652SOL    HW240793   0.221   9.251   7.191  0.0421  0.2821  1.2219
11653SOL     OW40794   8.947   1.621   3.935 -0.7813 -0.0855 -0.2409
11653SOL    HW140795   8.942   1.552   3.869  1.3659  0.7678 -1.3897
11653SOL    HW240796   9.040   1.628   3.956 -0.6006  3.6582 -1.5618
11654SOL     OW40797   3.980   0.117   8.617  0.7361  0.0681 -0.2129
11654SOL    HW140798   3.975   0.026   8.647  1.3674 -0.2211 -0.9441
11654SOL    HW240799   3.947   0.114   8.527  2.4905  0.2083 -0.9008
11655SOL     OW40800   6.839   8.383   3.865 -0.1094 -0.1738  0.1028
11655SOL    HW140801   6.916   8.418   3.910  1.0357 -0.9170 -1.2045
11655SOL    HW240802   6.765   8.427   3.907  1.1135  1.9077  0.2486
11656SOL     OW40803   1.925   7.300   4.209  0.5742  0.3537 -0.0451
11656SOL    HW140804   1.942   7.368   4.274  1.2070 -1.5439  1.8922
11656SOL    HW240805   2.012   7.269   4.184  0.3061  0.4603 -1.1446
11657SOL     OW40806   2.222  10.621   1.349 -0.1874 -0.1421 -0.1558
11657SOL    HW140807   2.224  10.571   1.267  2.3500 -2.3548  1.1226
11657SOL    HW240808   2.138  10.600   1.388 -0.7273 -0.3830 -1.3950
11658SOL     OW40809   7.744   7.296   0.678  0.3463 -0.1220  0.3185
11658SOL    HW140810   7.816   7.236   0.661  0.2975  0.0160 -0.4001
11658SOL    HW240811   7.777   7.353   0.748  0.1805 -1.3264  1.4025
11659SOL     OW40812   6.996   2.861   7.141 -0.5546 -0.6142  0.2663
11659SOL    HW140813   6.974   2.833   7.052  1.3825 -2.4251  0.2904
11659SOL    HW240814   7.059   2.931   7.129  0.0816 -1.1920  0.1972
11660SOL     OW40815   5.546   1.597   0.233  0.3071  0.3178  0.2343
11660SOL    HW140816   5.588   1.681   0.214 -1.2119  0.9831 -0.3989
11660SOL    HW240817   5.510   1.606   0.321  0.8023  0.0360  0.4701
11661SOL     OW40818   5.044   3.659   9.362  0.6382  0.3417  0.7604
11661SOL    HW140819   5.039   3.587   9.424  0.1665 -0.8494 -0.6122
11661SOL    HW240820   4.954   3.671   9.332  1.1671 -0.8867 -1.5970
11662SOL     OW40821   4.584   9.052   7.569 -0.1375 -0.0222 -0.0618
11662SOL    HW140822   4.640   9.059   7.491 -0.5123 -2.0895 -0.5880
11662SOL    HW240823   4.627   8.985   7.622 -1.6263 -1.0103 -0.0676
11663SOL     OW40824   3.482   7.299   6.118 -0.0950 -0.0359  0.2845
11663SOL    HW140825   3.569   7.265   6.097  0.5443  1.1642  0.8351
11663SOL    HW240826   3.434   7.298   6.036  0.6749 -0.0953 -0.1674
11664SOL     OW40827   1.945   1.393   9.109  0.5303  0.3249 -0.0398
11664SOL    HW140828   1.967   1.472   9.061  0.4607  0.9625  0.9467
11664SOL    HW240829   1.850   1.387   9.105  0.5615  0.0670 -0.4502
11665SOL     OW40830   3.590   5.696   6.986  0.1278 -0.0850  0.3837
11665SOL    HW140831   3.616   5.635   6.916 -0.4555  2.4293 -2.2280
11665SOL    HW240832   3.636   5.778   6.964 -2.2227  1.5938  1.3352
11666SOL     OW40833   5.214   3.499   4.233 -0.0938  0.2018  0.3042
11666SOL    HW140834   5.223   3.532   4.144 -1.8814 -0.4055 -0.1531
11666SOL    HW240835   5.234   3.574   4.289 -0.3376  0.9923 -0.6419
11667SOL     OW40836   8.984   1.368   1.554  0.0377 -0.1336 -0.0421
11667SOL    HW140837   8.944   1.354   1.640 -1.4274 -1.4572 -0.8884
11667SOL    HW240838   9.010   1.460   1.555 -0.9946  0.1863  1.4078
11668SOL     OW40839   2.765   6.241   7.401  0.0138 -0.2254  0.0139
11668SOL    HW140840   2.769   6.300   7.476 -0.5355  2.0535 -1.6428
11668SOL    HW240841   2.672   6.237   7.378  0.2460 -0.3253 -0.9570
11669SOL     OW40842   5.180   3.352   1.713  0.2171  0.0209 -0.4037
11669SOL    HW140843   5.188   3.412   1.639  2.2083 -2.2631 -2.2094
11669SOL    HW240844   5.270   3.332   1.738 -0.3717 -1.7673  0.4809
11670SOL     OW40845   0.460   3.619   1.784 -0.2492 -0.1396  0.3258
11670SOL    HW140846   0.553   3.626   1.806  0.0717 -2.6727  0.1453
11670SOL    HW240847   0.451   3.530   1.749 -2.4145  0.6464 -1.3605
11671SOL     OW40848   7.019   7.809   2.412 -0.5057 -0.3600 -0.0015
11671SOL    HW140849   7.066   7.736   2.369  0.3655  0.6975 -0.9100
11671SOL    HW240850   6.953   7.835   2.348 -0.1616  0.2817 -0.0991
11672SOL     OW40851   7.824   0.409   6.216 -0.0737  0.5073 -0.3348
11672SOL    HW140852   7.790   0.486   6.171 -0.9835  0.3545  0.0817
11672SOL    HW240853   7.762   0.339   6.193  0.9787 -0.2145 -1.0731
11673SOL     OW40854   7.030   5.616   9.570  0.4869 -0.1601  0.1088
11673SOL    HW140855   7.076   5.699   9.556 -0.1307  0.1818  0.0775
11673SOL    HW240856   7.096   5.549   9.552  1.0943  0.3216  0.4871
11674SOL     OW40857   3.175   9.244   6.930 -0.0342 -1.0064  0.2890
11674SOL    HW140858   3.148   9.242   6.838  0.2918 -0.7932  0.1859
11674SOL    HW240859   3.224   9.326   6.939  1.2583 -1.7528  0.2656
11675SOL     OW40860   8.494   5.156   7.956 -0.2939  0.4117 -0.5185
11675SOL    HW140861   8.451   5.152   8.041 -2.0365  1.7863 -1.2982
11675SOL    HW240862   8.574   5.103   7.967 -2.0036 -2.0543  1.0425
11676SOL     OW40863   7.777   5.142   0.249 -0.2209  0.1673  0.0705
11676SOL    HW140864   7.770   5.236   0.230  0.2901  0.1810 -0.0653
11676SOL    HW240865   7.834   5.138   0.325 -1.0946  0.0232  0.7372
11677SOL     OW40866   3.088   7.279   1.908  0.0547  0.1174 -0.9922
11677SOL    HW140867   3.110   7.330   1.986 -0.5388 -1.0309 -0.0264
11677SOL    HW240868   3.039   7.204   1.942  1.9464 -1.7672 -2.1883
11678SOL     OW40869   8.917   6.201  10.414 -0.1848 -0.3302 -0.3999
11678SOL    HW140870   8.825   6.183  10.395 -0.3396 -0.6037  0.5381
11678SOL    HW240871   8.966   6.135  10.365 -0.5156 -0.5178 -0.4744
11679SOL     OW40872   6.102   7.495   0.394 -0.6861 -0.0409  0.2439
11679SOL    HW140873   6.088   7.544   0.313  0.9849  1.2754  0.7031
11679SOL    HW240874   6.110   7.403   0.366  1.6087  0.5684 -1.3358
11680SOL     OW40875   2.769   6.804   7.561 -0.3713  0.0513 -0.3318
11680SOL    HW140876   2.852   6.801   7.609 -1.3201 -1.7238  1.3197
11680SOL    HW240877   2.748   6.897   7.556  0.7942  0.4105  0.8784
11681SOL     OW40878   2.574   9.362  10.660 -0.0876  0.1496  0.5910
11681SOL    HW140879   2.577   9.267  10.652 -2.0390  0.1648 -1.1702
11681SOL    HW240880   2.662   9.391  10.635 -0.1963 -1.1044 -1.5164
11682SOL     OW40881   9.745   8.603   8.864 -0.6388  0.0927 -0.1451
11682SOL    HW140882   9.723   8.645   8.947  0.5505  2.0287 -0.7364
11682SOL    HW240883   9.811   8.661   8.825  2.1140 -2.9867 -0.4877
11683SOL     OW40884   3.424   3.354  10.138  0.2481  0.7569 -0.1167
11683SOL    HW140885   3.441   3.261  10.153  0.4304  0.7946 -0.0829
11683SOL    HW240886   3.348   3.373  10.192 -1.7269 -0.0826 -2.4155
11684SOL     OW40887   2.758   5.022   5.674  0.1158  0.0112 -0.5061
11684SOL    HW140888   2.766   4.933   5.639 -0.9934 -0.0549 -0.6371
11684SOL    HW240889   2.677   5.020   5.724 -1.1443  1.5336 -2.3555
11685SOL     OW40890  10.134   3.187   6.632  0.0921 -0.0991 -0.3219
11685SOL    HW140891  10.199   3.129   6.672 -0.6998 -0.1927  0.8437
11685SOL    HW240892  10.115   3.252   6.699  0.1095  0.8500 -1.2074
11686SOL     OW40893   5.407   5.163   3.375  0.4093 -0.1089  0.3853
11686SOL    HW140894   5.336   5.138   3.434 -0.4563  2.1984  0.4372
11686SOL    HW240895   5.379   5.132   3.289 -1.0068  1.2927  0.3015
11687SOL     OW40896   9.091   0.912  10.184  0.6257 -0.2853 -0.2559
11687SOL    HW140897   9.026   0.878  10.245 -0.6846 -0.0768 -1.4719
11687SOL    HW240898   9.153   0.840  10.172 -1.4950 -2.0017 -1.9578
11688SOL     OW40899   5.582   8.709   0.639 -0.3244 -0.3561 -0.0976
11688SOL    HW140900   5.612   8.628   0.597 -1.3423 -0.3669 -0.8371
11688SOL    HW240901   5.621   8.706   0.727  2.4035 -0.0273 -1.1840
11689SOL     OW40902   3.070   0.693   7.830  0.3051  0.2814  0.2111
11689SOL    HW140903   3.120   0.619   7.796 -1.4189 -0.4029 -1.0148
11689SOL    HW240904   2.981   0.679   7.797 -0.3813  2.2027  1.0698
11690SOL     OW40905   0.762  10.233   8.028 -0.0280  0.2644 -0.3727
11690SOL    HW140906   0.829  10.265   7.967 -0.0780 -0.0462 -0.5945
11690SOL    HW240907   0.690  10.295   8.018 -1.0581 -1.1381 -2.5160
11691SOL     OW40908   0.833   2.136   4.452 -0.2539  0.1229 -0.1902
11691SOL    HW140909   0.879   2.177   4.379 -1.0702  0.5990 -0.4554
11691SOL    HW240910   0.828   2.043   4.429  0.7298  0.0225 -0.0579
11692SOL     OW40911   7.516   3.779   8.320 -0.3728 -0.3688  0.4753
11692SOL    HW140912   7.447   3.824   8.272 -0.3621 -1.6102 -0.7580
11692SOL    HW240913   7.583   3.846   8.334 -0.5054  0.1076 -1.0003
11693SOL     OW40914   7.280   7.028   4.384 -0.1798 -0.2551 -0.2752
11693SOL    HW140915   7.302   7.036   4.291  1.2227  1.9898  0.1729
11693SOL    HW240916   7.191   6.991   4.385  0.6378 -2.4847 -2.4036
11694SOL     OW40917   8.157   5.163   8.271  0.0697 -0.1540  0.0723
11694SOL    HW140918   8.120   5.140   8.186 -0.3549  0.0809  0.1889
11694SOL    HW240919   8.251   5.168   8.256  0.2422 -2.2787  0.1062
11695SOL     OW40920   6.650   8.263   3.513 -0.1673 -0.0903  0.1328
11695SOL    HW140921   6.674   8.238   3.602  0.0862 -1.2573 -0.2366
11695SOL    HW240922   6.667   8.184   3.461  0.1130  0.7032 -1.0236
11696SOL     OW40923   2.428   8.365   8.450  0.2390 -0.2034 -0.2623
11696SOL    HW140924   2.473   8.282   8.436  0.6521 -0.1782  0.7745
11696SOL    HW240925   2.494   8.420   8.493  0.2034  0.9052 -1.5755
11697SOL     OW40926   5.030   6.345   0.456 -0.1611  0.0097  0.4633
11697SOL    HW140927   5.048   6.434   0.485 -3.5881  0.6255  1.1636
11697SOL    HW240928   5.009   6.297   0.536 -0.9816 -0.6786 -0.1367
11698SOL     OW40929   6.848   4.244   8.812  0.0250 -0.6689  0.2798
11698SOL    HW140930   6.883   4.328   8.841 -0.8620 -0.2764  0.2640
11698SOL    HW240931   6.908   4.179   8.849  1.4248  0.0071 -0.7255
11699SOL     OW40932   8.738   3.479   5.877  0.0498  0.1123 -0.0587
11699SOL    HW140933   8.662   3.464   5.933  0.5763 -0.6546  0.4620
11699SOL    HW240934   8.780   3.393   5.868  0.0563  0.2316 -1.5319
11700SOL     OW40935   8.366   7.561   7.064  0.3303  0.2612  0.1921
11700SOL    HW140936   8.314   7.527   7.137  0.1349  0.5357  0.1804
11700SOL    HW240937   8.324   7.644   7.041  0.8373  0.5364  0.2512
11701SOL     OW40938   6.590   1.267   7.847 -0.1955  0.4671  0.0853
11701SOL    HW140939   6.553   1.259   7.759  1.1665 -2.0138 -0.3486
11701SOL    HW240940   6.677   1.304   7.833 -0.0039  0.1305  0.3770
11702SOL     OW40941   6.482   4.988  10.194 -0.0463  0.2465  0.2970
11702SOL    HW140942   6.550   4.954  10.252 -0.5785  0.7797  1.2630
11702SOL    HW240943   6.447   5.064  10.240  1.0550  2.1084 -1.7815
11703SOL     OW40944   9.810   2.071  10.432 -0.7623 -0.0860  0.1248
11703SOL    HW140945   9.797   2.014  10.357 -0.7922  0.1785 -0.0727
11703SOL    HW240946   9.832   2.012  10.504  1.9310 -0.1806 -0.6665
11704SOL     OW40947   2.802   9.409   8.800 -0.0705  0.2861  0.2959
11704SOL    HW140948   2.718   9.449   8.824 -0.1107  0.2124  0.2799
11704SOL    HW240949   2.782   9.316   8.792  0.0372  0.2546  0.3991
11705SOL     OW40950   5.918   2.806   5.162 -0.1653 -0.3899 -0.2721
11705SOL    HW140951   5.986   2.749   5.198 -0.6942  0.3673  2.0993
11705SOL    HW240952   5.869   2.750   5.103  2.1871 -1.0869 -1.7052
11706SOL     OW40953   1.662   6.606   3.533  0.1298 -0.9005 -0.3117
11706SOL    HW140954   1.726   6.642   3.471 -0.2588  0.1675 -0.1039
11706SOL    HW240955   1.649   6.516   3.503 -1.1633 -0.0025 -2.7093
11707SOL     OW40956   0.962   9.876   8.349  0.1044  0.7514  0.1235
11707SOL    HW140957   0.905   9.916   8.284 -0.7538  0.9364  0.9738
11707SOL    HW240958   1.046   9.922   8.339  0.3565 -0.0007 -1.6127
11708SOL     OW40959  10.627   2.727   5.856  0.2421 -0.3740 -0.0968
11708SOL    HW140960  10.623   2.636   5.826 -0.0247 -0.3638 -0.0884
11708SOL    HW240961  10.538   2.761   5.846 -0.4758 -1.0774  2.9100
11709SOL     OW40962   1.731   2.184   6.778 -0.3154 -0.1765  0.2069
11709SOL    HW140963   1.815   2.143   6.759 -1.0997 -0.9627 -1.9438
11709SOL    HW240964   1.747   2.278   6.772  0.8854 -0.2114  2.2507
11710SOL     OW40965   7.728   9.153   7.648  0.1507  0.1887 -0.2230
11710SOL    HW140966   7.641   9.183   7.622  0.2970  1.3893  0.6056
11710SOL    HW240967   7.762   9.108   7.570 -1.2575 -0.4547 -0.5019
11711SOL     OW40968   5.801   8.549   4.745  0.2622  0.2252  0.0125
11711SOL    HW140969   5.726   8.490   4.749  0.4191  0.0417  0.2517
11711SOL    HW240970   5.785   8.603   4.667 -1.2321  1.7179  1.2849
11712SOL     OW40971   4.182   9.912   9.531  0.0617  0.0667 -0.6528
11712SOL    HW140972   4.260   9.966   9.524 -1.1515  1.7676 -2.1849
11712SOL    HW240973   4.179   9.862   9.450  1.1731 -2.4617  0.7500
11713SOL     OW40974  10.305   2.883   8.935 -1.0423 -0.0894 -0.4711
11713SOL    HW140975  10.219   2.844   8.952 -0.9963 -0.0149 -0.0740
11713SOL    HW240976  10.287   2.957   8.877 -1.3896  0.6463  0.5478
11714SOL     OW40977   1.753   2.154   3.707  0.4124 -0.5278 -0.5009
11714SOL    HW140978   1.845   2.146   3.683  1.0980 -2.2776  2.2035
11714SOL    HW240979   1.752   2.137   3.801 -2.4840  1.2698 -0.0933
11715SOL     OW40980   5.362   9.573   1.213  0.0065 -0.1340 -0.1710
11715SOL    HW140981   5.268   9.564   1.199 -0.2339  1.1581  0.5358
11715SOL    HW240982   5.373   9.578   1.308  0.7408  0.2205 -0.2653
11716SOL     OW40983   3.258   3.001   4.110 -0.2584 -0.3931  0.0534
11716SOL    HW140984   3.203   2.938   4.064 -1.2615 -0.2071  0.9576
11716SOL    HW240985   3.228   3.086   4.078  0.7668 -0.3361 -0.8083
11717SOL     OW40986   2.422   3.193  10.632  0.0536  0.0541 -0.2342
11717SOL    HW140987   2.447   3.148  10.551 -0.4010 -1.3571  0.3734
11717SOL    HW240988   2.334   3.226  10.615  0.9608  2.1633 -1.2267
11718SOL     OW40989   1.555  10.221   8.921  0.3909 -0.2764 -0.3879
11718SOL    HW140990   1.521  10.159   8.985  0.3587  2.4563  2.4701
11718SOL    HW240991   1.515  10.194   8.838 -1.1238 -2.8287  1.0376
11719SOL     OW40992   8.770   8.389   1.511 -0.3149 -0.2800 -0.3766
11719SOL    HW140993   8.716   8.424   1.582 -0.0572 -0.7754  0.0672
11719SOL    HW240994   8.773   8.295   1.528  0.1597 -0.3342 -0.7661
11720SOL     OW40995   8.998   8.270   3.246 -0.7572  0.4939  0.2836
11720SOL    HW140996   8.957   8.185   3.229 -2.5668  1.3118  0.4110
11720SOL    HW240997   8.976   8.289   3.337  0.7721  0.5200  0.6718
11721SOL     OW40998   1.070   9.016   6.707 -0.4811  0.0350  0.1829
11721SOL    HW140999   1.076   9.097   6.758 -1.3869  1.3949 -1.7638
11721SOL    HW241000   0.984   8.980   6.729 -0.0809 -0.4576  1.0424
11722SOL     OW41001   2.801   1.464   8.597 -0.4165 -0.4404  0.1061
11722SOL    HW141002   2.851   1.536   8.560  0.4809 -1.2049 -0.2207
11722SOL    HW241003   2.737   1.506   8.656  1.9632  0.5045  2.1983
11723SOL     OW41004   1.618   8.456   4.921 -0.1255  0.1810 -0.4886
11723SOL    HW141005   1.609   8.436   5.014  0.5532 -0.6256 -0.5790
11723SOL    HW241006   1.712   8.470   4.909 -0.2796  0.8692 -0.9417
11724SOL     OW41007   9.479   3.758   4.168 -0.5770  0.2388  0.0109
11724SOL    HW141008   9.462   3.759   4.262 -1.1682  0.6529 -0.0941
11724SOL    HW241009   9.569   3.791   4.160 -0.9182  1.3250  0.3650
11725SOL     OW41010   3.948   8.342   7.653 -0.6396 -0.0298 -0.4038
11725SOL    HW141011   4.002   8.271   7.618 -0.2082  0.0824  0.0193
11725SOL    HW241012   3.884   8.359   7.585 -0.3093 -0.3558 -0.8022
11726SOL     OW41013   5.988   4.001   9.608 -0.3823 -0.3574  0.0577
11726SOL    HW141014   5.945   4.086   9.603 -0.0088  0.1485  3.3243
11726SOL    HW241015   6.081   4.021   9.621 -0.1762 -1.2964  0.1066
11727SOL     OW41016   7.526   4.763   1.923 -0.8267  0.0713  0.1457
11727SOL    HW141017   7.531   4.767   2.019 -0.8535 -0.0952  0.1547
11727SOL    HW241018   7.585   4.692   1.900  1.0758  1.6568 -0.1289
11728SOL     OW41019   5.574  10.501   0.470  0.0250 -0.3695 -0.0810
11728SOL    HW141020   5.622  10.438   0.417 -0.7696 -0.0776 -1.1823
11728SOL    HW241021   5.501  10.451   0.507 -0.6352 -0.1074 -0.9966
11729SOL     OW41022   6.822   5.902   6.013  0.1608  0.3103 -0.3947
11729SOL    HW141023   6.879   5.897   5.936  0.0229 -0.5097 -0.4476
11729SOL    HW241024   6.740   5.939   5.979 -0.7986 -2.3342 -1.2055
11730SOL     OW41025   9.804   9.400   8.042  0.2370  0.0677 -0.0314
11730SOL    HW141026   9.844   9.456   8.109  0.3099  0.1182 -0.1163
11730SOL    HW241027   9.733   9.454   8.005  0.2998  0.1002 -0.1049
11731SOL     OW41028   6.654   6.886   9.941  0.4896 -0.3541 -0.5218
11731SOL    HW141029   6.720   6.868  10.007  0.4555 -1.2301 -0.7138
11731SOL    HW241030   6.572   6.855   9.979  0.3436 -0.1533 -0.6676
11732SOL     OW41031   4.427   9.783   3.598 -0.0797 -0.0275 -0.4958
11732SOL    HW141032   4.354   9.760   3.541 -1.1978  0.3141  0.7591
11732SOL    HW241033   4.425   9.879   3.603  1.3208  0.0838 -1.5316
11733SOL     OW41034   6.364   3.992   2.264  0.2602  0.3759 -0.4018
11733SOL    HW141035   6.325   4.013   2.179  0.8558 -1.9265 -1.3205
11733SOL    HW241036   6.291   3.961   2.317  0.2375 -0.3876 -0.8673
11734SOL     OW41037   6.254   4.875  10.086  0.2981 -0.6804 -0.1999
11734SOL    HW141038   6.262   4.930  10.009 -0.4495  1.1594  0.9603
11734SOL    HW241039   6.331   4.895  10.138 -0.6851  0.4622  0.9011
11735SOL     OW41040   0.426   3.957   6.607 -0.1449 -0.2374  0.4325
11735SOL    HW141041   0.496   3.900   6.639 -1.0018 -1.9148 -0.5873
11735SOL    HW241042   0.421   3.938   6.514 -0.9424  1.0173  0.2010
11736SOL     OW41043  10.520   2.614   0.700  0.3766  0.1686  0.1061
11736SOL    HW141044  10.559   2.595   0.785  1.8347 -0.8071 -0.7325
11736SOL    HW241045  10.539   2.536   0.647 -2.3596 -0.1741 -0.5252
11737SOL     OW41046   2.961   1.491   1.073  0.3085  0.3585  0.0724
11737SOL    HW141047   2.918   1.577   1.075 -0.0268  0.2121 -0.6120
11737SOL    HW241048   2.930   1.447   1.152 -1.5313 -0.0811 -0.8399
11738SOL     OW41049   3.650   2.496   9.157 -0.3434 -0.1771 -0.1012
11738SOL    HW141050   3.662   2.482   9.251 -1.2690  0.6614  0.1526
11738SOL    HW241051   3.736   2.525   9.126 -0.2418  0.3337  0.6445
11739SOL     OW41052   5.496   9.799   5.340  0.7910 -0.1086 -0.4183
11739SOL    HW141053   5.571   9.858   5.343  0.2300  0.6484 -1.1445
11739SOL    HW241054   5.448   9.817   5.421  0.7105  0.3041 -0.5580
11740SOL     OW41055   5.098   4.747   9.620 -0.3747  0.3064 -0.4120
11740SOL    HW141056   5.147   4.677   9.663  1.2105  0.9169 -1.1484
11740SOL    HW241057   5.081   4.714   9.532  0.6107  0.9437 -0.8459
11741SOL     OW41058   5.592   3.368   7.429  0.0524 -0.3436  0.1542
11741SOL    HW141059   5.559   3.286   7.466 -0.5889  0.0645  0.4925
11741SOL    HW241060   5.618   3.346   7.340 -2.2215 -0.4183 -0.5277
11742SOL     OW41061   7.564   9.693   4.574 -0.5787 -0.0387  0.0247
11742SOL    HW141062   7.655   9.696   4.604 -0.5332  1.4828 -0.1763
11742SOL    HW241063   7.518   9.643   4.642  0.0798  0.7466  1.0875
11743SOL     OW41064   1.461   3.197  10.467  0.7052 -0.0404 -0.0482
11743SOL    HW141065   1.388   3.136  10.462  0.3239  0.4835 -1.4679
11743SOL    HW241066   1.527   3.152  10.520 -0.7860 -0.3394  1.6249
11744SOL     OW41067   6.087   5.112   3.902  0.2349  0.1452 -0.4054
11744SOL    HW141068   6.153   5.122   3.971  2.3686 -0.2654 -2.2560
11744SOL    HW241069   6.103   5.185   3.843 -0.6810 -0.2270 -1.1310
11745SOL     OW41070   2.532   5.964   7.439  0.6160  0.5988 -0.0530
11745SOL    HW141071   2.624   5.981   7.423  0.9392 -1.0057 -0.0354
11745SOL    HW241072   2.521   5.871   7.421 -1.2277  0.9583 -1.0924
11746SOL     OW41073   8.096  10.680   0.945  0.1292 -0.2033 -0.6444
11746SOL    HW141074   8.179  10.726   0.945 -0.3231  0.6369 -0.9712
11746SOL    HW241075   8.030  10.749   0.951 -0.5375 -0.8815  0.2021
11747SOL     OW41076   2.952   0.095   2.161  0.1572  0.3967  0.1495
11747SOL    HW141077   3.021   0.159   2.181 -0.1831  0.9604 -0.4509
11747SOL    HW241078   2.929   0.112   2.070  1.6126 -2.0521 -0.7571
11748SOL     OW41079   0.406   4.360   1.225  0.1862  0.0966 -0.5034
11748SOL    HW141080   0.358   4.398   1.151 -0.5505 -0.2018 -0.1871
11748SOL    HW241081   0.469   4.428   1.250 -1.5201  1.4144  0.4515
11749SOL     OW41082   5.479   0.665   5.894 -0.3465  0.0861 -1.2209
11749SOL    HW141083   5.420   0.739   5.882  0.4049  0.5583 -2.1540
11749SOL    HW241084   5.422   0.588   5.895 -0.8492  0.3299 -4.1504
11750SOL     OW41085   1.880   3.311   4.063  0.1476  0.5623 -0.2232
11750SOL    HW141086   1.822   3.244   4.099 -0.1170 -0.1395 -1.8412
11750SOL    HW241087   1.888   3.287   3.970  4.4650 -0.4893  0.2128
11751SOL     OW41088   2.131   9.782  10.396  0.0234  0.6127 -0.1802
11751SOL    HW141089   2.119   9.876  10.380  0.3511  0.3837 -2.0554
11751SOL    HW241090   2.207   9.777  10.454  0.8324  1.4911 -1.1099
11752SOL     OW41091   1.029   1.670   8.315  0.3436  0.3243 -0.1909
11752SOL    HW141092   0.986   1.726   8.380  1.6970 -0.1882  1.1970
11752SOL    HW241093   0.973   1.676   8.238 -1.6153  0.5211  1.1849
11753SOL     OW41094   6.043   4.270   5.352 -0.0587  0.1568 -0.0392
11753SOL    HW141095   5.987   4.193   5.351 -1.3601  1.0648 -1.7115
11753SOL    HW241096   6.111   4.251   5.288 -1.0305  0.8220 -1.2959
11754SOL     OW41097   9.468   7.949   2.988  1.1950 -0.0481  0.1947
11754SOL    HW141098   9.492   7.858   3.004  0.5843 -0.2389  0.0649
11754SOL    HW241099   9.469   7.990   3.074  0.4500 -0.4386  0.4011
11755SOL     OW41100  10.213   2.530  10.061 -0.5890 -0.0440 -0.0250
11755SOL    HW141101  10.131   2.580  10.062  0.0742  1.3086 -3.0450
11755SOL    HW241102  10.264   2.566  10.133 -1.4923  1.1989  0.0163
11756SOL     OW41103   2.707   3.611   8.429  0.4132 -0.2036 -0.3327
11756SOL    HW141104   2.677   3.608   8.519 -0.9360 -0.4778 -0.7686
11756SOL    HW241105   2.769   3.684   8.426  0.8631 -0.5073  0.9096
11757SOL     OW41106   8.560   0.239   6.686  0.3571  0.4552  0.0818
11757SOL    HW141107   8.564   0.150   6.652  0.0549  0.2191  0.6503
11757SOL    HW241108   8.523   0.290   6.614 -0.0534  0.0071 -0.0330
11758SOL     OW41109   8.806   8.485   7.377  0.3427 -0.5585 -0.1660
11758SOL    HW141110   8.843   8.428   7.444  0.0707  0.9194  1.3175
11758SOL    HW241111   8.725   8.518   7.416  0.2414  0.4665 -1.1792
11759SOL     OW41112   7.500   4.434   0.758 -0.4023  0.2440  0.6265
11759SOL    HW141113   7.460   4.436   0.671 -0.1401  1.0166  0.5189
11759SOL    HW241114   7.439   4.382   0.811 -0.5080 -0.3248 -0.0354
11760SOL     OW41115   2.829   4.171   9.016 -0.0847 -0.2529  0.3329
11760SOL    HW141116   2.802   4.117   9.090 -0.2689  0.2424  0.6368
11760SOL    HW241117   2.902   4.224   9.051 -1.3070  1.2535  0.7094
11761SOL     OW41118   6.702   5.420   3.043  0.4664 -0.1025  0.3141
11761SOL    HW141119   6.627   5.461   3.001  1.1903  1.9969  0.9261
11761SOL    HW241120   6.743   5.368   2.974  0.7218  1.9750 -1.1932
11762SOL     OW41121   3.266   0.559   0.691 -0.6816  0.0964 -0.1128
11762SOL    HW141122   3.174   0.536   0.691 -0.6457 -0.1488 -1.5859
11762SOL    HW241123   3.299   0.530   0.776 -1.9767  0.3141  0.4776
11763SOL     OW41124   7.068   4.479   4.361  0.6443  0.0674 -0.0174
11763SOL    HW141125   7.034   4.568   4.368  1.9943  0.5596  0.5519
11763SOL    HW241126   6.990   4.425   4.348 -0.3196  1.1792  0.8992
11764SOL     OW41127   1.749   8.452   9.247  0.1851 -0.3530  0.2851
11764SOL    HW141128   1.662   8.467   9.211  0.3327 -1.8601 -0.7846
11764SOL    HW241129   1.770   8.533   9.293 -1.3800  0.3992 -0.2565
11765SOL     OW41130   6.026   5.891  10.055 -0.5965  0.1848 -0.3869
11765SOL    HW141131   5.950   5.896   9.996 -0.1783  1.1557 -0.8578
11765SOL    HW241132   5.992   5.849  10.134 -1.0536 -1.6686 -1.5022
11766SOL     OW41133   0.128   5.900   3.638 -0.0519  0.2562 -0.5821
11766SOL    HW141134   0.215   5.940   3.637  0.2497 -0.3854 -1.3303
11766SOL    HW241135   0.138   5.823   3.694  0.3648 -0.8455 -2.1103
11767SOL     OW41136   5.381   4.967   2.141  0.2845  0.1877  0.4692
11767SOL    HW141137   5.430   4.941   2.063  0.9700  0.2927  0.8599
11767SOL    HW241138   5.377   4.888   2.195  0.6726  0.3720  0.7723
11768SOL     OW41139   2.627   8.397   7.425  0.5143  0.7423  0.4928
11768SOL    HW141140   2.676   8.456   7.367  1.8253  0.2159  1.0179
11768SOL    HW241141   2.618   8.316   7.374 -0.5362  1.0981  0.0946
11769SOL     OW41142   0.011   8.616   3.048 -0.9367 -0.1027 -0.1284
11769SOL    HW141143  -0.049   8.656   2.986 -0.1402  1.8937  0.3050
11769SOL    HW241144  -0.005   8.662   3.131  0.9443  0.3012  0.0577
11770SOL     OW41145   8.436   6.301   0.787 -0.0986  0.3073  0.0248
11770SOL    HW141146   8.471   6.388   0.770  0.2544 -0.1414 -1.7702
11770SOL    HW241147   8.468   6.279   0.875  1.0846  1.3666 -0.1154
11771SOL     OW41148   8.781   1.577   9.992  0.1302  0.1490 -0.0094
11771SOL    HW141149   8.833   1.602   9.916  0.1205  0.7411  0.1729
11771SOL    HW241150   8.701   1.540   9.955  1.3208 -2.3298 -0.3340
11772SOL     OW41151   8.727   9.163   0.830 -0.1316 -0.0727 -0.6618
11772SOL    HW141152   8.796   9.113   0.786  0.5406  0.9521 -0.8104
11772SOL    HW241153   8.672   9.097   0.871  0.9075 -0.9256 -0.5931
11773SOL     OW41154   6.651   1.650   8.137  0.7954  0.2054  0.6725
11773SOL    HW141155   6.602   1.583   8.090  1.2979 -1.2227  2.1149
11773SOL    HW241156   6.600   1.730   8.126  1.1393  0.0943 -2.7025
11774SOL     OW41157   8.297   1.556   6.113  0.6697 -0.1629 -0.2519
11774SOL    HW141158   8.260   1.629   6.163 -1.9738 -1.2363 -0.4661
11774SOL    HW241159   8.268   1.572   6.023 -1.4507 -2.2455 -0.0369
11775SOL     OW41160   2.705   2.655  10.692 -0.1604 -0.3406 -0.0855
11775SOL    HW141161   2.672   2.599  10.622  0.8401  0.2032 -1.0171
11775SOL    HW241162   2.799   2.661  10.677 -0.1094  0.8608  0.5197
11776SOL     OW41163   5.407   7.830   2.564  0.0405 -0.1662  0.1139
11776SOL    HW141164   5.361   7.751   2.533  0.0037 -0.5952  1.2185
11776SOL    HW241165   5.341   7.880   2.610  0.0497  0.5713 -0.6416
11777SOL     OW41166  10.688   3.345   7.854 -0.5170  0.5516 -0.1411
11777SOL    HW141167  10.599   3.308   7.848 -0.5144  0.7514 -1.8444
11777SOL    HW241168  10.704   3.383   7.768  0.8142  1.5096  0.4994
11778SOL     OW41169   5.588   0.404   0.573  0.4887 -0.2719  0.0348
11778SOL    HW141170   5.638   0.412   0.492  0.0683 -1.1923 -0.3285
11778SOL    HW241171   5.564   0.311   0.578  1.0998 -0.3829  1.5701
11779SOL     OW41172   3.379   1.970  10.449  0.6836  0.0283  0.5918
11779SOL    HW141173   3.396   1.952  10.356  0.4081 -0.7669  0.6855
11779SOL    HW241174   3.451   2.027  10.476  1.8354 -1.2563  0.3539
11780SOL     OW41175   6.220   0.788   0.219  0.1064 -0.4131  0.0310
11780SOL    HW141176   6.234   0.744   0.135  0.4490 -0.8839  0.3285
11780SOL    HW241177   6.305   0.781   0.264  0.1833  0.5979  0.0680
11781SOL     OW41178   4.574   7.575   1.191  0.0896  0.4225 -0.1053
11781SOL    HW141179   4.535   7.517   1.256  1.6099  0.2227  0.6643
11781SOL    HW241180   4.502   7.597   1.132 -0.6647 -1.7345 -0.0521
11782SOL     OW41181  10.293   4.427   1.089 -0.4240 -0.2097  0.3545
11782SOL    HW141182  10.270   4.422   1.181  0.3150  0.8470  0.6178
11782SOL    HW241183  10.215   4.397   1.043 -1.6469  1.4275  1.2648
11783SOL     OW41184   4.555   7.869   1.182  0.0791 -0.1039 -0.4245
11783SOL    HW141185   4.565   7.776   1.203  0.6013  0.0468  0.0074
11783SOL    HW241186   4.555   7.872   1.086 -0.5637 -0.6130 -0.4432
11784SOL     OW41187   5.455   7.168   0.030 -0.0995  0.4962 -0.4809
11784SOL    HW141188   5.534   7.185  -0.021  0.6194 -0.5712  0.2252
11784SOL    HW241189   5.384   7.202  -0.024  0.8933  2.3122 -0.7454
11785SOL     OW41190   2.991   7.529   4.326  0.3254  1.2293 -0.1952
11785SOL    HW141191   2.942   7.495   4.251  0.4978  1.0628 -0.2320
11785SOL    HW241192   2.926   7.534   4.396  0.6860 -0.9524  0.3623
11786SOL     OW41193   5.751   1.718   6.898  0.5469 -0.2033 -0.2773
11786SOL    HW141194   5.832   1.766   6.881  0.5059 -0.6969 -2.0901
11786SOL    HW241195   5.774   1.655   6.966  1.3339  0.5165  0.1373
11787SOL     OW41196  10.171   7.636   3.829  0.2685  0.0757  0.4203
11787SOL    HW141197  10.115   7.626   3.906  0.4713  0.8142  0.6703
11787SOL    HW241198  10.258   7.655   3.865  0.2379  1.0506  0.0048
11788SOL     OW41199   5.995   0.928   5.149  0.2049  0.1112 -0.3023
11788SOL    HW141200   5.914   0.920   5.201  0.6516 -1.8242  0.1624
11788SOL    HW241201   6.058   0.873   5.195  2.3581  2.8363  0.2885
11789SOL     OW41202   2.366  10.218   2.166 -0.4296  0.0500  0.0620
11789SOL    HW141203   2.402  10.252   2.247 -0.0768 -0.2887  0.0469
11789SOL    HW241204   2.442  10.199   2.111 -0.6600  0.1589 -0.3005
11790SOL     OW41205   1.729   8.782   2.117  0.3482 -0.4246 -0.2784
11790SOL    HW141206   1.814   8.748   2.147  0.8264  2.2024  1.6872
11790SOL    HW241207   1.670   8.770   2.191  0.7006  3.2558  0.8021
11791SOL     OW41208  10.152  10.078   0.160  0.1876 -0.4879  0.0115
11791SOL    HW141209  10.068  10.040   0.185  0.9492 -2.0042  0.4568
11791SOL    HW241210  10.210  10.056   0.234  0.5148  2.3302  0.6818
11792SOL     OW41211   3.764   8.407   4.056 -0.1110 -0.4165 -0.1169
11792SOL    HW141212   3.699   8.380   4.121 -1.5848  1.1807 -0.8417
11792SOL    HW241213   3.720   8.394   3.971  0.9167 -0.3144 -0.6841
11793SOL     OW41214   5.635   5.782   9.300  0.0263 -0.2448 -0.1158
11793SOL    HW141215   5.706   5.723   9.274  1.1354  0.5902  0.8967
11793SOL    HW241216   5.650   5.798   9.393 -0.5936  1.1552 -0.2294
11794SOL     OW41217   6.010   0.783   0.872  0.3334 -0.2379  0.3746
11794SOL    HW141218   5.936   0.844   0.872  0.4856 -0.0532  0.1032
11794SOL    HW241219   5.972   0.700   0.843  0.5904  0.3021 -1.6360
11795SOL     OW41220   0.064   4.683   2.154 -0.0237  0.2602 -0.2666
11795SOL    HW141221   0.145   4.687   2.104 -0.3407  0.6834 -0.7559
11795SOL    HW241222   0.007   4.749   2.113 -0.8845 -0.5615 -0.4184
11796SOL     OW41223   2.177   7.456   9.900  1.1130  0.2965  0.2158
11796SOL    HW141224   2.189   7.366   9.931  1.4946  0.5318  0.7544
11796SOL    HW241225   2.264   7.484   9.871  1.0744  0.6249  0.4106
11797SOL     OW41226   1.925   0.130   9.231  0.4490 -0.4560 -0.0535
11797SOL    HW141227   1.994   0.163   9.288  0.5185 -1.0599  0.2173
11797SOL    HW241228   1.893   0.208   9.184 -0.3320  0.2332  1.5504
11798SOL     OW41229   6.766   8.068   7.287  0.1331 -0.3553  0.4042
11798SOL    HW141230   6.853   8.063   7.248  0.5845 -1.8677  1.5145
11798SOL    HW241231   6.723   7.987   7.261 -0.1425 -0.6262  1.6675
11799SOL     OW41232   0.347   2.980   5.738  0.0127 -0.5580  0.0449
11799SOL    HW141233   0.351   2.951   5.829 -1.5525  0.7341  0.5761
11799SOL    HW241234   0.258   2.959   5.709  0.2559 -0.2978 -0.9488
11800SOL     OW41235   8.637   6.167  10.338 -0.4480 -0.5787  0.1936
11800SOL    HW141236   8.600   6.088  10.376 -2.8736  0.4338  0.1479
11800SOL    HW241237   8.646   6.148  10.245  0.4691 -1.2872  0.4146
11801SOL     OW41238   3.274   4.257   1.675  0.3500  0.0234 -0.0022
11801SOL    HW141239   3.205   4.238   1.612 -1.5729  0.5595  1.8586
11801SOL    HW241240   3.277   4.352   1.680  1.7749  0.0372 -0.5834
11802SOL     OW41241   9.286   7.366   9.742  0.0496  0.6139 -0.0081
11802SOL    HW141242   9.312   7.330   9.657  2.3298  0.0289  0.8614
11802SOL    HW241243   9.237   7.296   9.784  0.0415  0.4235 -0.3313
11803SOL     OW41244   6.579   9.730  10.166 -0.3024  0.1562  0.2093
11803SOL    HW141245   6.643   9.659  10.175 -0.9560 -0.4121  0.4564
11803SOL    HW241246   6.632   9.809  10.152  0.4318 -0.3880 -0.1381
11804SOL     OW41247   3.500   0.027   4.562  0.0828  0.4207 -0.3426
11804SOL    HW141248   3.595   0.039   4.556  0.0302  0.2723 -1.6043
11804SOL    HW241249   3.488  -0.068   4.557 -0.2355  0.5322 -1.9977
11805SOL     OW41250   2.098   8.506  10.055 -0.2447  0.1172  0.0125
11805SOL    HW141251   2.163   8.473  10.117 -0.7681 -0.7664  0.1078
11805SOL    HW241252   2.061   8.428  10.015  0.9210  0.6784 -2.3055
11806SOL     OW41253   7.536   0.942   6.567  0.3037  0.4598 -0.8106
11806SOL    HW141254   7.493   0.925   6.650 -0.0717 -1.8008 -1.4038
11806SOL    HW241255   7.629   0.946   6.588  0.2245 -0.2548 -0.2964
11807SOL     OW41256  10.282   8.444   7.920 -0.1761  0.5927 -0.4259
11807SOL    HW141257  10.242   8.531   7.917 -1.4174  0.1301  1.4746
11807SOL    HW241258  10.209   8.384   7.939  0.9378 -0.6485  0.1179
11808SOL     OW41259   2.723   7.840   9.101  0.3209 -0.2342 -0.2145
11808SOL    HW141260   2.630   7.861   9.113  0.2604 -0.4795 -0.2432
11808SOL    HW241261   2.724   7.777   9.029  0.5714  0.2873 -0.6758
11809SOL     OW41262   7.280   8.142   1.533 -0.3045  0.5771 -0.0843
11809SOL    HW141263   7.235   8.148   1.449 -0.1262  0.3139 -0.1986
11809SOL    HW241264   7.248   8.217   1.583 -0.1367  0.9421 -0.5178
11810SOL     OW41265   2.779   5.666   0.704 -0.4053 -0.2338 -0.1873
11810SOL    HW141266   2.708   5.681   0.767  0.3050  2.5758  0.0711
11810SOL    HW241267   2.858   5.664   0.758 -0.0468 -0.8015 -0.7240
11811SOL     OW41268   5.840   8.514   2.047  0.4506  0.0648  0.2161
11811SOL    HW141269   5.930   8.480   2.047 -0.2210 -1.8669  0.9964
11811SOL    HW241270   5.789   8.446   2.092 -1.6740  0.3545 -1.5928
11812SOL     OW41271   0.101  10.547   3.584 -0.0878 -0.0454  0.3751
11812SOL    HW141272   0.009  10.570   3.572 -0.6097 -1.8988  0.4836
11812SOL    HW241273   0.149  10.609   3.530 -1.4288  0.6717 -0.0260
11813SOL     OW41274   1.060   4.018   0.236  0.0787 -0.1708  0.7016
11813SOL    HW141275   1.001   4.033   0.162  0.2149  0.2752  0.6747
11813SOL    HW241276   1.043   3.929   0.264 -2.1757  0.6149  2.0731
11814SOL     OW41277   8.871   8.165   9.784 -0.3202 -0.1418  0.1120
11814SOL    HW141278   8.834   8.101   9.845 -0.2143  1.0507  1.4848
11814SOL    HW241279   8.827   8.146   9.700 -3.1239  0.3470  1.3342
11815SOL     OW41280   1.249   0.720   8.365  0.1908  0.2097 -0.4759
11815SOL    HW141281   1.176   0.671   8.403  0.9260 -1.2637 -0.8889
11815SOL    HW241282   1.207   0.792   8.318 -0.9669 -0.3371 -0.3253
11816SOL     OW41283   6.525   1.161   4.843 -0.1943 -0.1795  0.6523
11816SOL    HW141284   6.621   1.154   4.834 -0.1666 -0.7205  1.2894
11816SOL    HW241285   6.493   1.156   4.753  0.3335 -0.8572  0.4859
11817SOL     OW41286   7.632   0.650   5.149 -0.1016 -0.1511  0.6356
11817SOL    HW141287   7.573   0.684   5.216 -2.0554 -3.3879  0.7378
11817SOL    HW241288   7.587   0.667   5.066  1.1747  1.6311  0.2355
11818SOL     OW41289   9.746   5.155   4.906  0.0845 -0.0946  0.4819
11818SOL    HW141290   9.760   5.151   4.811  0.4741  0.9244  0.4873
11818SOL    HW241291   9.791   5.234   4.934  0.2469 -0.5514  1.5781
11819SOL     OW41292   2.731   3.149   1.231  0.0983  0.8033  0.0458
11819SOL    HW141293   2.650   3.098   1.228  0.6137 -0.1146  1.0584
11819SOL    HW241294   2.782   3.108   1.301  1.9888  0.5857 -1.4150
11820SOL     OW41295   4.311   9.893   7.750  0.1413 -0.4664  0.3865
11820SOL    HW141296   4.233   9.839   7.737  0.8694 -1.1312 -1.5733
11820SOL    HW241297   4.383   9.830   7.755  0.6400  0.1698  1.4833
11821SOL     OW41298   0.403   4.952   4.578  0.1312  0.1704  0.2335
11821SOL    HW141299   0.341   5.013   4.536  1.8066  2.1783  0.5343
11821SOL    HW241300   0.383   4.957   4.671  0.0362 -0.0273  0.2246
11822SOL     OW41301   6.352   2.991   0.635  0.5128  0.6081 -0.3150
11822SOL    HW141302   6.387   3.080   0.632  0.1106  0.8021 -4.2678
11822SOL    HW241303   6.260   3.001   0.609 -0.1841 -0.8050  1.3783
11823SOL     OW41304   4.761   6.117   3.284  0.5632 -0.4018  0.1373
11823SOL    HW141305   4.802   6.171   3.351 -0.2186  0.0718  0.2476
11823SOL    HW241306   4.680   6.085   3.325  0.0870 -0.1230 -0.5585
11824SOL     OW41307   7.767   3.050   4.384  0.3855 -0.4321  0.0074
11824SOL    HW141308   7.853   3.086   4.405  0.3012  0.9176 -1.7489
11824SOL    HW241309   7.760   2.972   4.438  0.9753  1.6399  3.3959
11825SOL     OW41310   7.930   5.958   0.277  0.1738 -0.2583  0.2379
11825SOL    HW141311   7.883   5.886   0.319  4.0770 -3.0924  0.2498
11825SOL    HW241312   7.898   5.957   0.186 -2.5197  0.6559  1.0696
11826SOL     OW41313   3.325   2.293   1.085 -0.6325 -0.0813  0.0405
11826SOL    HW141314   3.410   2.312   1.126 -0.1746 -1.0382 -0.4300
11826SOL    HW241315   3.342   2.217   1.029 -1.9399 -0.6585  0.3939
11827SOL     OW41316   7.218   3.428   6.987  0.5063  0.2045 -0.9243
11827SOL    HW141317   7.248   3.470   7.067  0.2239  2.2328 -1.8135
11827SOL    HW241318   7.292   3.376   6.957  1.1265  0.6272 -0.1440
11828SOL     OW41319   7.889   4.479   7.067 -0.1081 -0.1394  0.2100
11828SOL    HW141320   7.795   4.493   7.080  0.1991  0.9120  1.4719
11828SOL    HW241321   7.907   4.394   7.108 -0.7078 -0.9377 -1.1288
11829SOL     OW41322   4.845   2.335   0.156  0.0942 -0.0241  0.0049
11829SOL    HW141323   4.824   2.383   0.237  1.0339 -1.9294  1.4501
11829SOL    HW241324   4.918   2.384   0.119 -0.5851  1.0928  0.0598
11830SOL     OW41325   7.380  10.466   2.418 -0.2132 -0.0864  0.1896
11830SOL    HW141326   7.405  10.431   2.503 -2.3828  0.0221  0.9320
11830SOL    HW241327   7.389  10.392   2.358 -1.2603 -0.9434  1.0457
11831SOL     OW41328   9.603   5.643  10.683  0.7883  0.1180  0.3490
11831SOL    HW141329   9.627   5.572  10.623 -1.9346 -1.0072  0.4789
11831SOL    HW241330   9.635   5.722  10.639 -0.4028 -0.7394 -2.2462
11832SOL     OW41331   7.459   5.362   0.190 -0.1887  0.4253  0.0939
11832SOL    HW141332   7.397   5.434   0.201 -0.3394  0.6011 -1.5817
11832SOL    HW241333   7.413   5.300   0.133 -0.4324 -1.5012  2.2422
11833SOL     OW41334   7.881   8.064   9.969 -0.2109 -0.1426  0.0879
11833SOL    HW141335   7.901   7.970   9.973  0.6257  0.0721  1.4122
11833SOL    HW241336   7.953   8.106  10.015 -1.4942  1.0091  1.1481
11834SOL     OW41337   9.088   6.658   5.535 -0.2064 -0.2490 -0.2491
11834SOL    HW141338   9.155   6.717   5.569 -0.0010  0.0018 -1.0667
11834SOL    HW241339   9.054   6.613   5.612 -1.5272  2.1037  0.6404
11835SOL     OW41340  10.647   0.397   4.982  0.1489  0.2744  0.5917
11835SOL    HW141341  10.644   0.305   5.007 -0.3653 -0.0108 -0.4649
11835SOL    HW241342  10.734   0.426   5.011  0.6485 -0.7655  0.2133
11836SOL     OW41343   3.288   9.321   2.579 -0.3478  0.2637  0.2821
11836SOL    HW141344   3.213   9.262   2.590 -1.1029  1.2757  0.7573
11836SOL    HW241345   3.276   9.387   2.647  1.1073  0.3296  0.5118
11837SOL     OW41346   8.545   8.350   2.593  0.3031  0.2348  0.3318
11837SOL    HW141347   8.488   8.427   2.600 -0.8442 -0.3189 -1.8550
11837SOL    HW241348   8.627   8.384   2.557  0.0962  0.5621  0.1597
11838SOL     OW41349   1.366   6.132  10.298  0.5526 -0.5267 -0.1165
11838SOL    HW141350   1.339   6.184  10.222 -0.2025  0.2106  0.6432
11838SOL    HW241351   1.461   6.141  10.301  0.4782  0.3524 -0.3189
11839SOL     OW41352   6.329   0.080  10.413 -0.3733 -0.1477  0.2883
11839SOL    HW141353   6.248   0.080  10.464 -1.1930 -1.9761 -0.9294
11839SOL    HW241354   6.308   0.131  10.335 -0.4277 -0.8249 -0.1403
11840SOL     OW41355   6.551   5.263   1.085 -0.3223  0.1974 -0.0078
11840SOL    HW141356   6.617   5.302   1.029  0.2920 -0.3936  0.2941
11840SOL    HW241357   6.597   5.241   1.166 -1.0196  0.3318  0.4401
11841SOL     OW41358   1.750   3.632   9.973  0.6904  0.7824 -0.2922
11841SOL    HW141359   1.698   3.700   9.930 -0.1261  0.3379 -0.0267
11841SOL    HW241360   1.836   3.671   9.984  0.3640  1.5989 -0.5749
11842SOL     OW41361   1.053  10.444   2.894  0.7446  0.2678 -0.1979
11842SOL    HW141362   1.141  10.412   2.915  0.5888 -0.1094 -0.1090
11842SOL    HW241363   1.062  10.540   2.893  0.8989  0.2775  0.9707
11843SOL     OW41364   0.533   7.572   2.005  0.3409  0.0901 -0.1082
11843SOL    HW141365   0.518   7.516   2.081 -1.7816  0.7031  0.0152
11843SOL    HW241366   0.615   7.541   1.967  0.6822 -1.1990  1.5739
11844SOL     OW41367   0.461   1.442   2.137 -0.8042  0.0044 -0.2977
11844SOL    HW141368   0.546   1.471   2.171 -0.3952 -0.9377 -0.4957
11844SOL    HW241369   0.428   1.382   2.204 -1.7205  1.0118  0.1832
11845SOL     OW41370   7.030   9.647   5.528  0.1005  0.0748  0.1782
11845SOL    HW141371   7.059   9.584   5.593  0.7102  0.3382  0.1649
11845SOL    HW241372   7.099   9.714   5.526  0.1076  0.0504 -0.7605
11846SOL     OW41373   7.597   7.440   1.186 -0.3393  0.1743  0.1011
11846SOL    HW141374   7.591   7.533   1.208 -2.2964  0.2487 -0.5205
11846SOL    HW241375   7.561   7.396   1.263 -1.8106  0.1223 -0.5701
11847SOL     OW41376   1.730   2.551   6.598 -0.0493  0.4813 -0.1425
11847SOL    HW141377   1.797   2.504   6.649  0.1380  0.3480 -0.5056
11847SOL    HW241378   1.689   2.484   6.544 -0.1767  0.6386 -0.2437
11848SOL     OW41379   6.945   3.241   5.144  0.7917 -0.1857  0.1101
11848SOL    HW141380   7.026   3.291   5.158  0.6528  0.0064  0.2469
11848SOL    HW241381   6.896   3.294   5.081  0.0661  0.5381  1.2395
11849SOL     OW41382   6.999   0.087   7.542  0.3901 -0.0996  0.0325
11849SOL    HW141383   6.929   0.037   7.500  0.2391 -1.7766  2.0859
11849SOL    HW241384   6.955   0.160   7.586 -0.1097 -1.0138  1.1180
11850SOL     OW41385   9.522   9.275   3.355  0.9747  0.4690 -0.2958
11850SOL    HW141386   9.593   9.212   3.369  0.8893  0.5774  0.6623
11850SOL    HW241387   9.444   9.233   3.391  0.1412 -0.4086 -2.9384
11851SOL     OW41388   9.517   8.643   7.720  0.0351 -0.2083 -0.2050
11851SOL    HW141389   9.466   8.694   7.783  0.6448  1.3878 -0.9519
11851SOL    HW241390   9.479   8.555   7.724 -0.7431  0.1656  1.4715
11852SOL     OW41391   2.068   2.972   4.043  0.0111  0.2113 -0.0427
11852SOL    HW141392   2.136   3.004   3.984 -1.0040  1.6391 -0.4632
11852SOL    HW241393   2.018   2.910   3.991 -0.8629  1.4445 -0.7008
11853SOL     OW41394   3.281   4.840   0.324 -0.0107  1.0318  0.4799
11853SOL    HW141395   3.331   4.761   0.308 -0.3136  1.0307 -0.5426
11853SOL    HW241396   3.346   4.907   0.345  0.4551  1.0610 -0.9532
11854SOL     OW41397   2.156   9.886   7.416  0.1850 -0.0022 -0.2111
11854SOL    HW141398   2.244   9.852   7.402  0.8274  1.3011  0.4459
11854SOL    HW241399   2.098   9.816   7.388  1.4171 -0.4692 -1.7409
11855SOL     OW41400   6.716   4.249   9.895 -0.1231  0.0897 -0.3839
11855SOL    HW141401   6.735   4.217   9.807 -2.0477  0.9267 -1.1625
11855SOL    HW241402   6.770   4.326   9.906  1.7624 -1.2257  0.0666
11856SOL     OW41403   7.678   7.530   9.851 -0.1990 -0.4362 -0.7905
11856SOL    HW141404   7.641   7.503   9.935  0.7840  1.4816  0.3539
11856SOL    HW241405   7.605   7.522   9.789 -1.0587 -1.5569  0.3072
11857SOL     OW41406   6.418  10.003   2.574  0.3211 -0.2727  0.5951
11857SOL    HW141407   6.459  10.086   2.599 -0.8039  0.6400 -0.4543
11857SOL    HW241408   6.383   9.968   2.656  1.9340 -0.3806  1.2679
11858SOL     OW41409   5.816   2.592   7.591 -0.4713  0.3067  0.3308
11858SOL    HW141410   5.809   2.525   7.523 -0.5145 -0.9519  1.5182
11858SOL    HW241411   5.729   2.632   7.594 -0.2996  0.8028 -0.7334
11859SOL     OW41412   9.635   2.225   1.685 -0.3356 -0.5011  0.3613
11859SOL    HW141413   9.719   2.186   1.710  0.6926  2.3918  1.8281
11859SOL    HW241414   9.658   2.299   1.629 -2.0140 -0.3704 -0.2104
11860SOL     OW41415   2.149   3.608   3.718 -0.4379  0.0679 -0.1297
11860SOL    HW141416   2.206   3.593   3.793  0.0001 -3.6147 -1.0068
11860SOL    HW241417   2.061   3.589   3.750 -0.5330  0.5802 -0.0712
11861SOL     OW41418   5.177   2.666   1.608 -0.0578  0.5240  0.2492
11861SOL    HW141419   5.252   2.607   1.617 -0.3218 -0.0205 -0.9965
11861SOL    HW241420   5.216   2.752   1.594  0.4792 -0.1211 -3.2016
11862SOL     OW41421   6.000   5.913   7.294  0.3398  0.0062  0.4210
11862SOL    HW141422   6.025   5.836   7.345 -0.6588  0.3446  1.4490
11862SOL    HW241423   6.078   5.933   7.242 -0.0376 -2.9233 -1.4879
11863SOL     OW41424   4.568   0.557  10.007 -0.9044  0.1042 -0.2476
11863SOL    HW141425   4.528   0.482  10.049 -1.1839  0.2111 -0.3208
11863SOL    HW241426   4.531   0.558   9.918 -0.0855 -0.3075 -0.6051
11864SOL     OW41427   4.472   2.692   2.800  0.0857  0.1905  0.6463
11864SOL    HW141428   4.561   2.692   2.836 -0.2615 -1.4361  1.6412
11864SOL    HW241429   4.416   2.672   2.875 -0.8509 -1.4675 -0.4236
11865SOL     OW41430   1.221   5.206   1.221 -0.4914 -0.1957 -0.5138
11865SOL    HW141431   1.282   5.215   1.294 -1.0169 -0.3689 -0.0517
11865SOL    HW241432   1.251   5.270   1.156  1.2025 -1.3929 -1.0070
11866SOL     OW41433   0.740   2.321  10.070  0.1080 -0.0653 -0.1578
11866SOL    HW141434   0.680   2.393  10.092 -1.2033 -1.1040 -0.2011
11866SOL    HW241435   0.757   2.277  10.153  2.9006  1.6819  0.3192
11867SOL     OW41436   1.479   4.171   0.109 -0.1666 -0.5687 -0.3995
11867SOL    HW141437   1.474   4.082   0.143  0.9015 -0.8996 -1.0353
11867SOL    HW241438   1.554   4.209   0.155 -1.9432  0.7845  1.5281
11868SOL     OW41439   5.711   8.504   6.586 -0.5783 -0.2690 -0.9340
11868SOL    HW141440   5.793   8.540   6.619 -0.7037 -1.5532  0.9562
11868SOL    HW241441   5.693   8.554   6.507  1.2715  1.0233 -0.6092
11869SOL     OW41442   8.618   6.114   9.367 -0.0686  0.3006 -0.3622
11869SOL    HW141443   8.571   6.082   9.290  0.6673  0.8938 -1.0754
11869SOL    HW241444   8.581   6.065   9.440 -2.8306  1.7451 -0.6583
11870SOL     OW41445   5.004   1.097   9.133  0.1058  0.5788 -0.5291
11870SOL    HW141446   4.919   1.140   9.140 -1.0699 -1.8127  1.2682
11870SOL    HW241447   4.984   1.010   9.097  1.9275  0.3293 -1.0370
11871SOL     OW41448   9.072   7.742   9.494 -0.0653 -0.0812  0.2147
11871SOL    HW141449   9.120   7.732   9.412  0.3316  0.5212  0.3661
11871SOL    HW241450   9.003   7.805   9.473 -0.8766 -1.0188 -0.0294
11872SOL     OW41451   2.568   0.307   7.047  0.3155  0.1628  0.0376
11872SOL    HW141452   2.562   0.368   6.974  1.7556  0.9721  0.5546
11872SOL    HW241453   2.528   0.353   7.121 -3.0912 -1.4472 -0.6054
11873SOL     OW41454   1.201   5.474   3.268 -0.0810 -0.0452  0.3492
11873SOL    HW141455   1.296   5.485   3.266 -0.2006  1.0693  0.0215
11873SOL    HW241456   1.180   5.439   3.182  0.0017  0.0746  0.2783
11874SOL     OW41457   0.209   9.664   5.067  0.5426  0.7244  0.0121
11874SOL    HW141458   0.191   9.572   5.048 -0.3405  0.8738  0.0673
11874SOL    HW241459   0.207   9.708   4.982  0.5467  0.7592  0.0298
11875SOL     OW41460   4.215   5.613   8.920 -0.2844  0.3381 -0.0953
11875SOL    HW141461   4.200   5.694   8.872 -1.0725  0.3696  0.2001
11875SOL    HW241462   4.267   5.640   8.996 -1.8485  0.8529  0.8474
11876SOL     OW41463   7.883   7.375   6.010 -0.3818  0.5400 -0.6345
11876SOL    HW141464   7.850   7.336   5.929 -1.9591  0.2087  0.1284
11876SOL    HW241465   7.863   7.311   6.078  0.3078  1.1036  0.1286
11877SOL     OW41466   0.155   9.829   6.021 -0.4871 -0.7317  0.0193
11877SOL    HW141467   0.192   9.744   6.044 -1.5079 -0.6345  2.3076
11877SOL    HW241468   0.135   9.870   6.105 -2.6186  0.6139 -1.0573
11878SOL     OW41469   2.506   7.944   6.901 -0.4308  1.0511  0.5743
11878SOL    HW141470   2.555   8.016   6.862 -0.2485  0.6612  0.0788
11878SOL    HW241471   2.454   7.908   6.829 -0.9264  1.0178  0.9365
11879SOL     OW41472  10.421   3.253  10.017 -0.5202  0.3670  0.4292
11879SOL    HW141473  10.475   3.197  10.073 -1.7203 -1.3984 -0.0935
11879SOL    HW241474  10.350   3.196   9.988 -0.9894  1.7674 -1.3384
11880SOL     OW41475   5.246   1.689   2.851 -0.2265 -0.0442 -0.4677
11880SOL    HW141476   5.294   1.767   2.826 -0.4935  0.3642  0.2777
11880SOL    HW241477   5.204   1.711   2.934 -0.7727 -0.7811 -0.5347
11881SOL     OW41478   3.097   3.494   2.527  0.4540 -0.4616  0.1677
11881SOL    HW141479   3.022   3.553   2.534  1.0949  0.3327  0.4705
11881SOL    HW241480   3.151   3.514   2.603  1.5969 -0.1370 -0.7038
11882SOL     OW41481   1.814   5.901   3.584  0.2617  0.3321  0.4652
11882SOL    HW141482   1.761   5.903   3.505  0.5771  1.4189  0.2596
11882SOL    HW241483   1.752   5.888   3.656 -0.2983  1.6254  0.2311
11883SOL     OW41484   6.781   0.863   0.707 -0.1907 -0.1769  0.7403
11883SOL    HW141485   6.761   0.838   0.616 -0.0896  0.1069  0.6393
11883SOL    HW241486   6.858   0.919   0.700  1.6271 -2.4620  1.2488
11884SOL     OW41487   6.813   2.173   6.647 -0.2338  0.7905  0.2813
11884SOL    HW141488   6.797   2.264   6.622 -1.4684  0.0514 -1.8754
11884SOL    HW241489   6.779   2.121   6.574  2.8370 -1.3629  0.1487
11885SOL     OW41490  10.394   1.713   1.418  0.2792 -0.1711  0.4726
11885SOL    HW141491  10.309   1.669   1.408  0.1498 -0.1964  1.6307
11885SOL    HW241492  10.415   1.705   1.510  0.4418  1.8402  0.6586
11886SOL     OW41493   0.403  10.570   3.682 -0.1968 -0.2914 -0.1410
11886SOL    HW141494   0.345  10.617   3.742 -0.1991  0.5789 -0.8185
11886SOL    HW241495   0.360  10.486   3.669  0.3924 -0.9934  2.0110
11887SOL     OW41496   4.316   9.299   7.238  0.7602  0.2581  0.0039
11887SOL    HW141497   4.272   9.216   7.250  0.2038  0.5835  0.2570
11887SOL    HW241498   4.402   9.287   7.278  0.2654  0.1619  1.0868
11888SOL     OW41499   9.013  10.457  10.098  0.1702  0.3437 -0.3461
11888SOL    HW141500   9.032  10.421  10.185  1.0498 -0.7473 -0.9812
11888SOL    HW241501   9.058  10.542  10.097  0.5893  0.1280  0.0729
11889SOL     OW41502   3.808   1.173   5.553 -0.2495  0.0925 -0.1491
11889SOL    HW141503   3.746   1.243   5.571  0.4529  0.1475  2.4177
11889SOL    HW241504   3.880   1.216   5.506 -0.9458  0.5580 -0.8038
11890SOL     OW41505   6.718   1.248   9.487 -0.7556  0.2041  0.3671
11890SOL    HW141506   6.645   1.208   9.535 -1.8804 -0.5846 -1.8591
11890SOL    HW241507   6.720   1.339   9.517 -3.2380  0.4861 -0.1027
11891SOL     OW41508   9.875   1.872   0.720 -0.0867  0.6047  0.3468
11891SOL    HW141509   9.843   1.864   0.810 -0.9845 -0.0534 -0.0076
11891SOL    HW241510   9.796   1.892   0.669  0.3523  0.6201 -0.3379
11892SOL     OW41511   7.179   5.204   9.268  0.1772 -0.0218  0.3131
11892SOL    HW141512   7.273   5.218   9.251 -0.0675  2.3921  0.6118
11892SOL    HW241513   7.135   5.263   9.208 -1.0259  1.2261  2.3118
11893SOL     OW41514   0.612   1.940   3.627 -0.4032  0.0111  0.2936
11893SOL    HW141515   0.620   2.023   3.675  0.2104  0.4943 -0.5999
11893SOL    HW241516   0.631   1.872   3.691  1.3655  0.6796  0.5419
11894SOL     OW41517   5.891   7.937   6.528  0.6511  0.3160  0.0498
11894SOL    HW141518   5.971   7.915   6.479 -0.6116  1.7818 -2.9109
11894SOL    HW241519   5.855   7.853   6.554  2.3243 -0.4443  0.0616
11895SOL     OW41520   8.983   3.301   2.256 -1.0807 -0.3912 -0.1882
11895SOL    HW141521   8.936   3.220   2.272 -1.0692 -0.4954 -0.6610
11895SOL    HW241522   9.070   3.287   2.294 -0.6123 -1.1242 -1.4634
11896SOL     OW41523   3.614   0.799   8.766 -0.0062  0.2434  0.0295
11896SOL    HW141524   3.702   0.771   8.740 -0.6769 -1.3296 -0.7206
11896SOL    HW241525   3.628   0.876   8.821  1.6596  1.9216 -2.5766
11897SOL     OW41526   4.140   8.425   9.027 -0.1586  0.0182 -0.5777
11897SOL    HW141527   4.220   8.470   9.052 -0.0854 -0.1853 -0.4491
11897SOL    HW241528   4.073   8.461   9.085 -0.2413  0.4794 -0.9514
11898SOL     OW41529   9.439   9.241   5.985  0.1945  0.1884  0.0822
11898SOL    HW141530   9.525   9.256   5.946  0.2772 -0.4657  0.0084
11898SOL    HW241531   9.406   9.329   6.005  0.4846  0.4855 -0.7254
11899SOL     OW41532   9.937   5.492   5.382  0.0913  0.0123 -0.7744
11899SOL    HW141533  10.022   5.531   5.402  0.5179  0.8929 -3.8769
11899SOL    HW241534   9.951   5.397   5.390  0.7790  0.2093  0.6056
11900SOL     OW41535   6.919   7.485   7.833  0.6054  0.6028  0.4197
11900SOL    HW141536   6.839   7.494   7.884  0.8552  0.2048  0.8947
11900SOL    HW241537   6.965   7.568   7.844  1.4671 -0.0624  2.2777
11901SOL     OW41538   9.398   2.029   3.065  0.2874 -0.0782  0.1787
11901SOL    HW141539   9.455   1.965   3.108  0.9712  1.3389  1.4648
11901SOL    HW241540   9.430   2.033   2.975 -0.4202 -2.2438 -0.2502
11902SOL     OW41541   6.416   2.147   1.380 -0.1106 -0.1132  0.7957
11902SOL    HW141542   6.345   2.206   1.406 -0.9340  0.1722 -1.8284
11902SOL    HW241543   6.379   2.096   1.308  2.3154 -0.0726 -0.5641
11903SOL     OW41544   9.469   6.910   6.051  0.0124 -0.0069 -0.5164
11903SOL    HW141545   9.509   6.985   6.007  1.4461 -1.2485 -1.4046
11903SOL    HW241546   9.534   6.840   6.043 -0.9253 -1.1120  1.0467
11904SOL     OW41547   0.471   0.392   5.495  0.1677 -0.1287 -0.0147
11904SOL    HW141548   0.539   0.439   5.543  0.6950 -1.0822  0.1906
11904SOL    HW241549   0.423   0.461   5.449  0.4581  0.6772  0.8573
11905SOL     OW41550   5.487   9.252   1.875 -0.2263 -0.0570  0.6471
11905SOL    HW141551   5.578   9.226   1.885 -0.5123 -1.0355  0.7657
11905SOL    HW241552   5.437   9.186   1.923 -1.0926 -0.2723 -0.5072
11906SOL     OW41553   8.215   3.725   5.909 -0.0600 -0.7271 -0.1181
11906SOL    HW141554   8.198   3.677   5.990 -0.3125 -0.0811  0.2189
11906SOL    HW241555   8.289   3.782   5.929 -1.2977  0.8155  0.2660
11907SOL     OW41556   9.506   8.837   0.780 -0.5417  0.3506  0.6703
11907SOL    HW141557   9.593   8.828   0.818 -0.3111 -1.3258 -0.1644
11907SOL    HW241558   9.456   8.764   0.817 -0.4561 -1.0420 -1.7561
11908SOL     OW41559   2.974   7.527   8.486  0.0301 -0.2725 -0.2009
11908SOL    HW141560   3.038   7.597   8.474 -1.5295  1.4658  1.1618
11908SOL    HW241561   2.947   7.503   8.397  1.9722 -0.5409 -0.7634
11909SOL     OW41562   0.203   2.598   3.220 -0.2527  0.4454 -0.0716
11909SOL    HW141563   0.151   2.677   3.237  0.0602  0.8701 -0.9922
11909SOL    HW241564   0.141   2.526   3.226 -0.5686  0.7659  0.6597
11910SOL     OW41565   3.437   3.522   3.319 -0.2446 -0.1513  0.1642
11910SOL    HW141566   3.361   3.464   3.310  0.7790 -1.5711  0.3318
11910SOL    HW241567   3.509   3.473   3.280  0.0467  2.4908 -3.0820
11911SOL     OW41568   1.287  10.472   9.913 -0.4474 -0.1871  0.2357
11911SOL    HW141569   1.206  10.501   9.955 -1.2388 -1.6377 -0.2060
11911SOL    HW241570   1.269  10.480   9.819 -0.2436 -0.9154  0.1295
11912SOL     OW41571   9.823  10.337   5.633 -0.2138 -0.0652 -0.3279
11912SOL    HW141572   9.906  10.325   5.586 -0.9633  0.3603 -1.8308
11912SOL    HW241573   9.836  10.418   5.682  0.6667 -0.6326  0.4208
11913SOL     OW41574   8.167   0.746   9.930  0.1999  0.3127 -0.2672
11913SOL    HW141575   8.239   0.808   9.941 -1.0666  1.9832 -1.0859
11913SOL    HW241576   8.174   0.717   9.840  0.1587  0.0463 -0.1860
11914SOL     OW41577   9.825   7.588   8.243 -0.0900 -0.2161 -0.6524
11914SOL    HW141578   9.901   7.645   8.231  0.1804 -0.5732 -0.6462
11914SOL    HW241579   9.750   7.648   8.241  0.1541  0.0832 -1.1712
11915SOL     OW41580   7.634   9.847   1.038 -0.1914  0.5955 -0.3485
11915SOL    HW141581   7.599   9.807   0.958  0.2258 -0.8630  0.1530
11915SOL    HW241582   7.684   9.776   1.080  2.7525  2.3283 -0.6556
11916SOL     OW41583   7.476   3.062   6.435 -0.5035  0.0186  0.0811
11916SOL    HW141584   7.498   3.155   6.424 -0.5426 -0.0601 -0.7240
11916SOL    HW241585   7.442   3.056   6.524 -0.9154  0.8641 -0.0070
11917SOL     OW41586   7.020   0.785   7.025  0.4984 -0.2114 -0.0237
11917SOL    HW141587   6.956   0.716   7.046 -1.8925  2.0348  0.7407
11917SOL    HW241588   7.006   0.803   6.932 -0.1778  0.3719  0.1729
11918SOL     OW41589   7.585   5.335   9.889  0.3958  0.1480  0.8000
11918SOL    HW141590   7.584   5.239   9.883  0.0244 -0.0558  3.1359
11918SOL    HW241591   7.622   5.364   9.805  0.6482 -2.0290  0.0936
11919SOL     OW41592   1.585   8.736   2.350 -0.3063  0.1820 -0.8700
11919SOL    HW141593   1.606   8.648   2.379 -0.8588 -0.6197 -2.7769
11919SOL    HW241594   1.490   8.736   2.339 -0.4270  1.3167 -0.0264
11920SOL     OW41595  10.062   4.327   0.989 -0.6710 -0.1586 -0.2453
11920SOL    HW141596  10.060   4.234   1.009 -0.7157 -0.1302 -0.1079
11920SOL    HW241597  10.042   4.333   0.896  2.3766 -0.4852 -1.0062
11921SOL     OW41598   2.603   6.581   5.063  0.3713  0.5904  0.1856
11921SOL    HW141599   2.513   6.591   5.094  0.4343  1.3821  0.1383
11921SOL    HW241600   2.650   6.544   5.137 -0.4309 -2.0320 -0.4902
11922SOL     OW41601   1.596   8.132   7.772 -0.0676  0.1223  0.2956
11922SOL    HW141602   1.640   8.207   7.811 -0.7284  0.9298 -0.4770
11922SOL    HW241603   1.508   8.133   7.809  0.3329 -1.1199  1.3605
11923SOL     OW41604   1.008   4.927   4.675 -0.6213 -0.0440 -0.1037
11923SOL    HW141605   0.993   4.833   4.668  0.2202 -0.1182 -1.0427
11923SOL    HW241606   0.983   4.948   4.765 -2.8863 -0.7519 -0.5036
11924SOL     OW41607   9.784   9.392   0.394  0.1410  0.2066 -0.2107
11924SOL    HW141608   9.693   9.361   0.396  0.1058  0.1133 -1.7277
11924SOL    HW241609   9.777   9.487   0.393  0.0213  0.1992 -0.7231
11925SOL     OW41610   9.114   7.322   8.727  0.3900  0.2525 -0.1733
11925SOL    HW141611   9.048   7.286   8.786 -0.2573  0.0010 -1.0409
11925SOL    HW241612   9.068   7.336   8.644  1.0191  1.5690 -0.3411
11926SOL     OW41613   3.977   0.373   5.742 -0.1673 -0.8335  0.2502
11926SOL    HW141614   3.923   0.403   5.669  0.7954  0.8148  0.1724
11926SOL    HW241615   4.003   0.284   5.718 -1.4905 -1.0522 -0.4505
11927SOL     OW41616   7.850   5.627   6.143  0.1757  0.4877 -0.4464
11927SOL    HW141617   7.843   5.532   6.145  0.2682  0.4254 -1.8544
11927SOL    HW241618   7.772   5.655   6.095  0.7172  1.0407 -1.0073
11928SOL     OW41619   8.601   1.180   7.750 -0.3187 -0.1723  0.0135
11928SOL    HW141620   8.631   1.139   7.831 -0.5670  0.4082  0.4106
11928SOL    HW241621   8.593   1.273   7.772 -1.4178 -0.1568 -0.3629
11929SOL     OW41622   2.337   9.130   8.017  0.4571 -0.2360  0.1895
11929SOL    HW141623   2.321   9.183   8.096 -1.1706  0.5647 -0.6336
11929SOL    HW241624   2.376   9.050   8.051  2.7288  1.3044  1.5176
11930SOL     OW41625   7.320   1.602   7.656  0.3668  0.5551  0.4247
11930SOL    HW141626   7.407   1.562   7.656 -0.4204 -1.3609 -2.1209
11930SOL    HW241627   7.337   1.696   7.649  2.2068  0.2982  0.8708
11931SOL     OW41628   1.454   1.471   4.478 -0.5775 -0.2561 -0.7161
11931SOL    HW141629   1.461   1.562   4.507 -1.3942  0.0536 -1.4445
11931SOL    HW241630   1.505   1.421   4.542 -0.0657  0.7167 -0.3493
11932SOL     OW41631   6.285   1.678   3.686 -0.1747 -0.0772 -0.3657
11932SOL    HW141632   6.317   1.768   3.682  1.7979 -0.6721  0.6191
11932SOL    HW241633   6.306   1.649   3.774  0.8609 -2.0343 -1.1762
11933SOL     OW41634   5.831   7.117   0.391  0.3922 -0.0829 -0.4340
11933SOL    HW141635   5.750   7.141   0.346  0.5477  1.0771 -0.1201
11933SOL    HW241636   5.837   7.178   0.464 -0.2251 -2.3966  1.6675
11934SOL     OW41637   8.964   2.930   5.437 -0.0351 -0.1596 -0.7343
11934SOL    HW141638   9.056   2.941   5.413  0.2131  1.6482  0.8055
11934SOL    HW241639   8.958   2.841   5.469  0.8195 -0.7828 -2.1951
11935SOL     OW41640   4.285   8.174   4.167  0.2675  0.1559  0.5555
11935SOL    HW141641   4.215   8.114   4.141 -0.2258  0.3187  1.4593
11935SOL    HW241642   4.353   8.117   4.203  0.9277 -0.0638 -0.9743
11936SOL     OW41643   0.384   9.729   8.027  0.2980 -0.3171 -0.3686
11936SOL    HW141644   0.358   9.763   8.112  1.1511 -0.5637  0.0082
11936SOL    HW241645   0.402   9.636   8.042  0.8772 -0.2690 -0.7040
11937SOL     OW41646   5.477   5.747   9.722 -0.0738  0.6043  0.5089
11937SOL    HW141647   5.563   5.767   9.684  1.8514 -2.5513  2.7253
11937SOL    HW241648   5.432   5.698   9.654  1.1282 -0.3185  0.3541
11938SOL     OW41649   3.079   2.895   5.379 -0.8223 -0.0960 -0.0065
11938SOL    HW141650   3.014   2.965   5.386 -0.9286  0.2100 -2.7555
11938SOL    HW241651   3.026   2.815   5.375 -0.7891 -0.2101  1.5264
11939SOL     OW41652   5.732   5.101   7.730 -0.0101 -0.0094  0.0257
11939SOL    HW141653   5.715   5.114   7.637 -0.9304  0.5673  0.2670
11939SOL    HW241654   5.671   5.160   7.774  0.1564 -0.5517  1.0045
11940SOL     OW41655   3.983  10.143   8.716  0.2011 -0.4519 -0.1058
11940SOL    HW141656   4.017  10.228   8.742 -2.1188  0.2710  0.7936
11940SOL    HW241657   4.039  10.116   8.643  0.6363  2.1025 -0.8006
11941SOL     OW41658  10.686   1.863   4.984  0.3114 -0.1770 -0.3786
11941SOL    HW141659  10.764   1.823   4.945 -0.3761  0.1104 -2.1007
11941SOL    HW241660  10.634   1.788   5.013  0.5920 -0.4122 -0.4675
11942SOL     OW41661   1.399   8.376   3.712 -0.1112  0.1018 -0.2914
11942SOL    HW141662   1.367   8.286   3.713 -1.2475  0.4929  0.0340
11942SOL    HW241663   1.371   8.411   3.628  2.2754 -0.4832 -1.4192
11943SOL     OW41664   8.788   2.767   8.042  0.1443  0.1203 -0.3267
11943SOL    HW141665   8.830   2.799   7.963  1.4997  0.0731  0.3408
11943SOL    HW241666   8.844   2.799   8.113 -0.8848 -0.0739  0.5967
11944SOL     OW41667   9.474   7.978   9.036  0.0691 -0.2509  0.0631
11944SOL    HW141668   9.509   7.999   8.950 -1.8194 -3.0286 -1.5480
11944SOL    HW241669   9.539   7.920   9.075  0.3202 -0.0259 -0.0161
11945SOL     OW41670   9.805   9.077   9.914  0.2649  0.4354  0.1928
11945SOL    HW141671   9.717   9.096   9.948  0.5215  1.4776  0.2992
11945SOL    HW241672   9.790   9.010   9.847 -0.8346  1.8439 -1.0340
11946SOL     OW41673   5.447   7.054   1.944 -0.0686 -0.3901 -0.0200
11946SOL    HW141674   5.392   7.001   1.886 -1.8647  0.8293  0.4697
11946SOL    HW241675   5.428   7.022   2.032  0.3509 -0.2446  0.1268
11947SOL     OW41676   0.934   0.360   2.032  0.2034  0.1035  0.2241
11947SOL    HW141677   0.906   0.389   2.119 -2.7192 -0.3306 -0.4952
11947SOL    HW241678   0.858   0.316   1.995  1.5513 -0.2402 -2.3711
11948SOL     OW41679   8.980   2.810   2.375  0.1841  0.5621  0.4431
11948SOL    HW141680   8.944   2.897   2.394  1.2354  0.9794  0.5807
11948SOL    HW241681   9.073   2.818   2.395  0.3720 -0.4762  0.0201
11949SOL     OW41682   1.817   2.469   8.728  0.1533  0.4631 -0.4896
11949SOL    HW141683   1.746   2.407   8.742 -0.0963  0.7543 -0.4495
11949SOL    HW241684   1.855   2.482   8.814  0.1955  0.3804 -0.4956
11950SOL     OW41685  10.517   7.395   3.117 -0.2370  0.0303  0.0546
11950SOL    HW141686  10.534   7.318   3.063  1.1293 -0.1164  0.6764
11950SOL    HW241687  10.592   7.401   3.176 -1.3600  0.6028  1.4713
11951SOL     OW41688   4.600   9.286   2.788  0.2468 -0.5472  0.1223
11951SOL    HW141689   4.622   9.350   2.856 -1.0593 -0.6846  0.7142
11951SOL    HW241690   4.645   9.318   2.710  2.3458 -0.7662  1.1826
11952SOL     OW41691   4.819   8.180   8.911 -0.3509 -0.2011  0.0293
11952SOL    HW141692   4.914   8.165   8.908 -0.2553  0.5086 -0.6380
11952SOL    HW241693   4.798   8.175   9.004  0.3426 -0.3733  0.1856
11953SOL     OW41694   6.547   5.583   1.064 -0.7618  0.5584  0.9420
11953SOL    HW141695   6.537   5.594   1.158  1.8306  0.2978  1.3316
11953SOL    HW241696   6.527   5.491   1.047 -2.0455  0.8009  1.0766
11954SOL     OW41697  10.276   2.619   0.955  0.1757 -0.1167  0.0701
11954SOL    HW141698  10.195   2.604   1.005 -0.5009 -0.5480 -1.1225
11954SOL    HW241699  10.346   2.600   1.018 -0.6437 -1.5002  0.6251
11955SOL     OW41700   2.747   4.128   6.455 -0.4238  0.0443 -0.7655
11955SOL    HW141701   2.709   4.194   6.397 -2.0448  0.9134  1.1860
11955SOL    HW241702   2.754   4.172   6.540 -0.1060 -1.8313  0.2190
11956SOL     OW41703   3.645   2.939   6.355 -0.0875 -0.0845  0.5313
11956SOL    HW141704   3.553   2.917   6.339 -0.3490  0.2483  1.5142
11956SOL    HW241705   3.664   2.902   6.442  0.4683  0.5607  0.6903
11957SOL     OW41706   0.559  10.397  10.150  0.5377 -0.0764 -0.1348
11957SOL    HW141707   0.492  10.330  10.139  0.0973  0.4747 -0.9106
11957SOL    HW241708   0.642  10.349  10.140  0.2358 -0.1676 -3.4835
11958SOL     OW41709   6.716   9.758   3.704 -0.1702  0.1413  0.7125
11958SOL    HW141710   6.637   9.773   3.652  0.6736 -1.1274 -1.0182
11958SOL    HW241711   6.708   9.819   3.778 -1.5514  1.8428 -0.7468
11959SOL     OW41712   4.509   2.855   4.968 -0.4186  0.1107  0.1774
11959SOL    HW141713   4.569   2.867   5.042  0.8242  1.3770 -0.9676
11959SOL    HW241714   4.563   2.812   4.901 -0.8927  0.9074 -0.7402
11960SOL     OW41715   8.058   2.767   8.446  0.3211 -0.1963 -0.1381
11960SOL    HW141716   8.126   2.828   8.475 -1.0801  1.0998  0.5563
11960SOL    HW241717   8.032   2.800   8.360  0.9344 -1.0389 -0.6703
11961SOL     OW41718   5.494   1.664   1.930 -0.2033  0.0699 -0.1644
11961SOL    HW141719   5.467   1.579   1.965  1.2418 -0.2817  0.1666
11961SOL    HW241720   5.589   1.656   1.918 -0.2954  1.0474 -1.8014
11962SOL     OW41721   0.999   6.064  10.311  0.1353  0.2511 -0.4070
11962SOL    HW141722   1.003   5.972  10.284 -2.4273  0.0701 -0.4286
11962SOL    HW241723   0.990   6.113  10.229 -0.5613  0.3195 -0.2964
11963SOL     OW41724   1.002   3.217   8.350 -0.5952  0.0044 -0.4976
11963SOL    HW141725   0.922   3.174   8.381 -0.3225  0.3278  0.6914
11963SOL    HW241726   1.070   3.187   8.410 -0.1660  1.1297 -0.3989
11964SOL     OW41727   0.516   9.529  10.705  0.2615 -0.2642  0.1986
11964SOL    HW141728   0.478   9.444  10.686 -0.1462 -0.4539  1.7558
11964SOL    HW241729   0.473   9.558  10.786  1.9851  0.4114  0.9301
11965SOL     OW41730   0.681   4.021   9.296 -0.5675  0.2772  0.1203
11965SOL    HW141731   0.604   3.980   9.259 -1.3270 -1.1566  3.0315
11965SOL    HW241732   0.647   4.090   9.354  0.2249 -0.6926  1.8213
11966SOL     OW41733   3.229   3.734   4.605 -0.6649  0.7251 -0.5648
11966SOL    HW141734   3.287   3.736   4.681 -1.1243 -0.8322 -0.1265
11966SOL    HW241735   3.195   3.823   4.598  1.1324  1.4653 -0.3498
11967SOL     OW41736   5.767  10.423   1.153  0.0769 -0.6263 -0.0219
11967SOL    HW141737   5.849  10.465   1.178 -0.0523 -0.1020 -0.4751
11967SOL    HW241738   5.720  10.413   1.236 -0.2406  0.8698  0.0147
11968SOL     OW41739   1.695   1.180   6.364  0.0015 -0.0041  0.2915
11968SOL    HW141740   1.646   1.099   6.345  1.8479 -0.7262 -1.8513
11968SOL    HW241741   1.640   1.249   6.327 -0.1244 -0.6491 -0.7903
11969SOL     OW41742   7.203   5.477  10.173  0.0101 -0.0817 -0.0838
11969SOL    HW141743   7.220   5.456  10.265 -3.3270  1.4116  1.0272
11969SOL    HW241744   7.262   5.550  10.153 -0.5009  0.7857  1.4777
11970SOL     OW41745   0.598   4.698   2.382 -0.7025 -0.4865  0.5366
11970SOL    HW141746   0.671   4.758   2.365  0.0629 -1.1356  1.4595
11970SOL    HW241747   0.570   4.669   2.295 -0.4923  0.5033  0.1263
11971SOL     OW41748   9.365   9.193   7.069  0.2471  0.2172 -0.2792
11971SOL    HW141749   9.449   9.150   7.050 -0.1726 -1.1151  0.7203
11971SOL    HW241750   9.305   9.121   7.086 -0.7364  1.1968  0.5134
11972SOL     OW41751   8.963   0.180   4.531  0.0959  0.2501 -0.0177
11972SOL    HW141752   9.047   0.133   4.530  0.3727  0.7123 -1.2847
11972SOL    HW241753   8.897   0.112   4.529  0.4575 -0.1155  0.3702
11973SOL     OW41754   2.183  10.267   0.580  0.4080  0.0980 -0.1377
11973SOL    HW141755   2.274  10.236   0.582  0.5482  0.5384  1.5726
11973SOL    HW241756   2.190  10.361   0.594 -0.2871  0.2428 -0.7050
11974SOL     OW41757   3.457   6.686   8.406 -0.2330  0.2441  0.2121
11974SOL    HW141758   3.436   6.686   8.312  1.4770 -0.6097 -0.2003
11974SOL    HW241759   3.503   6.769   8.420 -2.9059  1.7576  0.9677
11975SOL     OW41760   6.323   6.513   7.510  0.2881 -0.1719 -0.2021
11975SOL    HW141761   6.320   6.578   7.440 -1.7908  0.3842  0.3466
11975SOL    HW241762   6.232   6.487   7.523  0.9312 -2.2507  0.4946
11976SOL     OW41763   5.578   4.894   9.167 -0.8822 -0.5754  0.3791
11976SOL    HW141764   5.564   4.947   9.089 -0.5323  0.7161  1.1692
11976SOL    HW241765   5.498   4.904   9.218 -0.9438 -1.0718  0.3827
11977SOL     OW41766   1.725   5.529   1.492  0.2987  0.1365  0.5086
11977SOL    HW141767   1.649   5.547   1.436  0.6520 -2.1010 -0.8107
11977SOL    HW241768   1.791   5.593   1.464  0.3079 -0.6391 -1.3673
11978SOL     OW41769   2.035   4.249   9.103  0.4353 -0.1319 -0.3730
11978SOL    HW141770   1.941   4.237   9.121  0.0287  1.2794 -1.3709
11978SOL    HW241771   2.077   4.174   9.146 -0.8252  0.7776  2.7441
11979SOL     OW41772   3.667  10.136   0.022  0.2211  0.5400  0.2766
11979SOL    HW141773   3.677  10.181  -0.061 -2.2651 -1.8989 -1.5199
11979SOL    HW241774   3.620  10.198   0.078  1.9654  2.2242 -0.0461
11980SOL     OW41775   2.075   9.459   3.039  0.7841 -0.0098 -0.2342
11980SOL    HW141776   2.030   9.436   3.121  1.4689 -1.5467 -0.2402
11980SOL    HW241777   2.159   9.412   3.045  1.7407  1.5527 -0.8952
11981SOL     OW41778   1.239   3.991   3.591  0.0741  0.2794 -0.5735
11981SOL    HW141779   1.242   4.083   3.618 -1.0595 -0.0298  0.6860
11981SOL    HW241780   1.150   3.963   3.610  0.4387 -1.1288 -0.8003
11982SOL     OW41781   0.849  10.234   5.187 -0.2474 -0.3041  0.3924
11982SOL    HW141782   0.825  10.297   5.256 -0.5980 -0.1387  0.1230
11982SOL    HW241783   0.935  10.264   5.156 -0.1494 -0.2990  0.6636
11983SOL     OW41784   6.064   6.832   8.206 -0.3518 -0.2816  0.9818
11983SOL    HW141785   6.070   6.886   8.128 -0.3612 -1.2383  0.3070
11983SOL    HW241786   6.106   6.749   8.182 -2.5597 -1.5343  1.1110
11984SOL     OW41787   3.636   1.298   3.816 -0.5477 -0.0081 -0.5099
11984SOL    HW141788   3.551   1.281   3.856 -0.0992 -0.5143  0.2353
11984SOL    HW241789   3.641   1.394   3.813 -0.0239  0.0978  1.9122
11985SOL     OW41790   8.205   0.051   9.408 -0.3207 -0.2240 -0.1441
11985SOL    HW141791   8.208   0.022   9.499  1.0734 -0.9513 -0.3880
11985SOL    HW241792   8.292   0.086   9.391 -0.7920  0.5951 -0.9909
11986SOL     OW41793   5.278   4.229   3.920  0.3278 -1.0023  0.1446
11986SOL    HW141794   5.257   4.153   3.975 -0.4544 -1.2070 -0.4295
11986SOL    HW241795   5.370   4.247   3.939  0.0497 -0.9909  1.6176
11987SOL     OW41796   3.851   2.619   4.265  0.0242 -0.0457  0.0189
11987SOL    HW141797   3.892   2.533   4.257  0.0910  0.1242 -1.8679
11987SOL    HW241798   3.914   2.680   4.227 -1.1345  0.4588 -1.1970
11988SOL     OW41799  10.393   2.048   3.912 -0.1548  0.5947  0.3297
11988SOL    HW141800  10.313   2.099   3.925 -2.9173 -2.8014 -1.5757
11988SOL    HW241801  10.411   2.056   3.818  3.1324  2.8597  0.9660
11989SOL     OW41802   3.143   1.402   9.633  0.2232  0.1959 -0.5260
11989SOL    HW141803   3.097   1.437   9.557  0.4814  1.7065 -0.0126
11989SOL    HW241804   3.152   1.477   9.692  1.0842 -0.6752  0.4762
11990SOL     OW41805   0.626   1.299   4.220  1.1337  0.1222 -0.2215
11990SOL    HW141806   0.662   1.225   4.172  2.7047  0.8022 -0.1415
11990SOL    HW241807   0.554   1.330   4.164  2.3332  0.3286 -1.7224
11991SOL     OW41808   6.016   4.649   2.252 -0.4409  0.2343 -0.0111
11991SOL    HW141809   5.923   4.666   2.264 -0.9091 -0.3970 -2.3845
11991SOL    HW241810   6.048   4.725   2.202 -0.0842 -0.4285 -0.8013
11992SOL     OW41811   5.074   5.509   2.061  0.9265  0.0976 -0.2537
11992SOL    HW141812   5.035   5.457   1.990  3.3941 -1.5861 -0.5050
11992SOL    HW241813   5.001   5.560   2.096 -1.1149 -1.6020 -1.7452
11993SOL     OW41814   8.513   9.673   5.701  0.5940  0.1790 -0.3615
11993SOL    HW141815   8.496   9.704   5.790  0.4796 -0.2737 -0.2185
11993SOL    HW241816   8.433   9.625   5.677  1.3978 -1.4288  0.0696
11994SOL     OW41817   3.316   5.438   4.777  0.1485  0.4685  0.1108
11994SOL    HW141818   3.304   5.384   4.855 -1.0100  1.8838  0.9555
11994SOL    HW241819   3.362   5.516   4.809 -0.3170  1.0589 -0.6266
11995SOL     OW41820   9.565   0.762   9.657  0.0116  0.0755 -0.5450
11995SOL    HW141821   9.493   0.825   9.664 -1.1601 -1.1530 -1.0139
11995SOL    HW241822   9.525   0.677   9.678  1.4856 -0.5688 -0.1683
11996SOL     OW41823   9.167   8.483   4.110  0.5055 -0.4323 -0.0055
11996SOL    HW141824   9.135   8.459   4.197 -1.3955  1.9326  0.0512
11996SOL    HW241825   9.095   8.531   4.070  1.5516 -0.9001 -2.6970
11997SOL     OW41826   3.501   4.610   5.525  0.3542 -0.4542 -0.0709
11997SOL    HW141827   3.498   4.515   5.532  1.6644 -0.6281 -1.3343
11997SOL    HW241828   3.585   4.635   5.564  0.3297  0.0953 -0.3445
11998SOL     OW41829   6.005  10.223   0.918  0.5798 -0.0428  0.3444
11998SOL    HW141830   5.981  10.240   0.827  0.1518 -1.1614  0.2314
11998SOL    HW241831   6.088  10.175   0.912  1.0631  0.7320  0.5988
11999SOL     OW41832   5.796   0.866   4.052 -0.1871 -0.3949 -0.2212
11999SOL    HW141833   5.871   0.815   4.083  0.3048  0.4441  0.0016
11999SOL    HW241834   5.782   0.835   3.962 -0.1061 -1.1386  0.0098
12000SOL     OW41835   8.082   3.045   9.337  0.1382  0.0490 -0.3618
12000SOL    HW141836   8.163   3.015   9.376  1.1580  1.6183 -1.1601
12000SOL    HW241837   8.046   3.107   9.401 -0.7929 -1.1203  0.2804
12001SOL     OW41838   1.090   1.718   2.943  0.4446  0.1943  0.0112
12001SOL    HW141839   1.161   1.774   2.974 -0.1881  0.5194  0.9350
12001SOL    HW241840   1.011   1.755   2.983 -0.0677 -0.9713  0.1448
12002SOL     OW41841   9.968   0.292   2.551 -0.9523 -0.4006 -0.0873
12002SOL    HW141842   9.986   0.386   2.546 -0.2620 -0.5516 -0.6578
12002SOL    HW241843   9.873   0.286   2.555 -1.1095  0.2824 -1.8575
12003SOL     OW41844   9.025   8.178   5.397 -0.3733 -0.0377 -0.1982
12003SOL    HW141845   9.072   8.097   5.376  0.4323  0.1711  0.7268
12003SOL    HW241846   8.935   8.151   5.410 -0.1539 -0.7567 -0.1209
12004SOL     OW41847   0.387   9.942  10.585  0.2714  0.0008  0.7445
12004SOL    HW141848   0.362   9.990  10.663  1.4487  0.1538  1.0481
12004SOL    HW241849   0.481   9.925  10.596  0.3057 -0.5966 -0.2994
12005SOL     OW41850   7.573   5.986   1.235  0.0407  0.0855 -0.2231
12005SOL    HW141851   7.662   5.982   1.269 -0.2903  0.8327  0.7689
12005SOL    HW241852   7.570   5.917   1.169  1.5915  0.5911 -0.8677
12006SOL     OW41853   3.162  10.653   7.792  0.4393  0.1752  0.5991
12006SOL    HW141854   3.070  10.643   7.766  0.2377  0.2280  1.2557
12006SOL    HW241855   3.210  10.658   7.710 -0.2587  1.1526  0.2218
12007SOL     OW41856   5.557   3.109   5.802 -0.2592  0.5552 -0.1511
12007SOL    HW141857   5.623   3.089   5.734 -1.6641  0.3864 -1.5196
12007SOL    HW241858   5.496   3.169   5.759 -0.7403  1.1168  1.2603
12008SOL     OW41859   9.019   4.239   4.740  0.8310 -0.0826 -0.2246
12008SOL    HW141860   9.003   4.264   4.831  3.0241  1.0051 -0.0789
12008SOL    HW241861   9.084   4.168   4.745  0.8042 -0.1667 -0.9426
12009SOL     OW41862   7.600   2.389   0.648  0.1062 -0.2460  0.2539
12009SOL    HW141863   7.531   2.439   0.604 -0.5319 -1.4398 -0.1884
12009SOL    HW241864   7.681   2.416   0.606 -0.2942 -0.0301 -0.3957
12010SOL     OW41865   6.297   6.396   8.007  0.2854  0.2032 -0.1292
12010SOL    HW141866   6.332   6.323   8.058  0.2138  1.4161  1.7456
12010SOL    HW241867   6.368   6.419   7.946  0.4252 -1.1893 -0.5188
12011SOL     OW41868   8.869   6.086   2.093  0.1087 -0.1500  0.5444
12011SOL    HW141869   8.922   6.151   2.141  0.4476 -1.3008  1.7953
12011SOL    HW241870   8.779   6.112   2.111  0.2273  0.8101 -0.1706
12012SOL     OW41871   4.483   2.789   2.077  0.0864 -0.1929  0.0244
12012SOL    HW141872   4.409   2.812   2.020 -0.5864 -2.9860 -0.3686
12012SOL    HW241873   4.443   2.746   2.152  1.2718 -1.7763 -0.2021
12013SOL     OW41874   8.373   7.117   8.724  0.0533  0.1211  0.4538
12013SOL    HW141875   8.349   7.210   8.726 -0.3519  0.0059  1.4165
12013SOL    HW241876   8.381   7.097   8.631  0.3163  1.1597  0.2341
12014SOL     OW41877   9.540  10.243   3.251 -0.3543  0.0546 -0.2989
12014SOL    HW141878   9.629  10.279   3.258  0.3204 -1.8268  1.8034
12014SOL    HW241879   9.517  10.218   3.340 -3.4543  1.3931 -0.6059
12015SOL     OW41880   2.557   9.402   4.829  0.0525 -0.2022 -0.3261
12015SOL    HW141881   2.650   9.423   4.826  0.4072 -1.5458  0.5122
12015SOL    HW241882   2.526   9.418   4.740  1.0391  0.4359 -0.5742
12016SOL     OW41883   4.638   1.034   5.695 -0.1719  0.2592  0.2804
12016SOL    HW141884   4.614   0.944   5.672 -0.0765  0.1831  0.4749
12016SOL    HW241885   4.718   1.051   5.645  0.4299 -0.1513  1.0827
12017SOL     OW41886   3.197   2.853   8.908 -0.4738  0.1017 -0.0077
12017SOL    HW141887   3.162   2.764   8.897  1.7304 -0.8687  0.3211
12017SOL    HW241888   3.202   2.888   8.819 -1.9691  0.1710 -0.0837
12018SOL     OW41889   9.001   5.944   9.237 -0.3902 -0.2560 -0.4803
12018SOL    HW141890   9.067   5.990   9.289  0.2217 -0.8870 -0.6934
12018SOL    HW241891   8.994   5.996   9.156  0.7962 -0.8857 -1.0158
12019SOL     OW41892   2.351   1.019   4.703  0.2520 -0.0878  0.0326
12019SOL    HW141893   2.437   1.014   4.744 -0.0849  2.0364  1.1272
12019SOL    HW241894   2.296   1.065   4.767 -0.8623  1.4058 -1.8893
12020SOL     OW41895   7.957   0.706   8.918 -0.4446 -0.2242 -0.7502
12020SOL    HW141896   8.019   0.655   8.865  0.2618 -0.5280  0.3272
12020SOL    HW241897   7.873   0.662   8.906  0.1737 -1.8234  0.2980
12021SOL     OW41898   9.131   4.146   4.433 -0.4061 -0.0206 -0.5154
12021SOL    HW141899   9.156   4.126   4.343  0.3479 -0.2494 -0.2664
12021SOL    HW241900   9.210   4.186   4.471 -0.2947 -1.0778  0.3946
12022SOL     OW41901   7.434   2.728   4.499 -0.0994 -0.0382 -0.0639
12022SOL    HW141902   7.353   2.780   4.502 -0.2317 -0.2899  1.5179
12022SOL    HW241903   7.416   2.661   4.433 -0.6527  0.7506 -0.7364
12023SOL     OW41904   1.010   2.528   3.203  0.0163  0.1637 -0.2093
12023SOL    HW141905   0.918   2.553   3.210  0.0819  0.5720 -0.8158
12023SOL    HW241906   1.047   2.587   3.138  0.7141  0.0093  0.0351
12024SOL     OW41907   1.655   3.821   5.357 -0.8083  0.0044 -0.6612
12024SOL    HW141908   1.661   3.808   5.263 -0.7934  0.2002 -0.6885
12024SOL    HW241909   1.560   3.827   5.374 -0.7959  0.6911 -0.7710
12025SOL     OW41910   6.567   9.117   9.951 -0.3880 -0.0499  0.1053
12025SOL    HW141911   6.625   9.077  10.016 -0.6547  0.0297  0.3936
12025SOL    HW241912   6.619   9.118   9.870  0.9731  2.3705  0.9242
12026SOL     OW41913   1.652   7.978  10.345 -0.2180 -0.7133  0.1327
12026SOL    HW141914   1.676   7.921  10.417  2.0750  0.0746  0.0971
12026SOL    HW241915   1.635   8.063  10.386  0.0100 -0.5363 -0.1294
12027SOL     OW41916   7.679   3.064   0.115  0.3167  0.1171 -0.0589
12027SOL    HW141917   7.661   3.043   0.206 -0.6971  0.6429 -0.1233
12027SOL    HW241918   7.601   3.035   0.067  0.6579  0.2248 -0.6923
12028SOL     OW41919   8.969   4.189   4.079  0.6577  0.1625  0.0165
12028SOL    HW141920   8.964   4.117   4.015  0.3404 -0.6079  0.8858
12028SOL    HW241921   8.907   4.254   4.045  0.3916 -0.2928 -0.4010
12029SOL     OW41922   9.334   3.429  10.454  0.1091  0.1226  0.5834
12029SOL    HW141923   9.273   3.395  10.519  1.3043  0.4601  1.9384
12029SOL    HW241924   9.338   3.361  10.387 -0.5925 -0.5694  1.2199
12030SOL     OW41925   6.812   8.900   1.841  0.0240  0.3473 -0.2068
12030SOL    HW141926   6.907   8.893   1.851  0.0566 -0.2081 -0.8446
12030SOL    HW241927   6.799   8.937   1.754 -0.3670 -0.5642 -0.5428
12031SOL     OW41928   0.406   4.383   9.602  0.6616 -0.0907 -0.1393
12031SOL    HW141929   0.360   4.420   9.677 -0.9484 -1.5417 -0.3339
12031SOL    HW241930   0.420   4.457   9.543  2.3588  1.1666  1.7166
12032SOL     OW41931   6.622   7.764   9.529  0.0911  0.4462  0.3044
12032SOL    HW141932   6.564   7.795   9.599  1.7173  1.5995  1.1969
12032SOL    HW241933   6.633   7.839   9.471  2.0606  0.8401  1.1119
12033SOL     OW41934   3.750   6.203   3.661 -0.2894  0.5695  0.7982
12033SOL    HW141935   3.701   6.260   3.720 -2.5269 -0.6255  0.2214
12033SOL    HW241936   3.768   6.257   3.584 -1.8876  0.7003  0.4862
12034SOL     OW41937   8.311   5.893   0.347 -0.4900  0.6432  0.4096
12034SOL    HW141938   8.228   5.915   0.305 -1.0943  0.6471  1.5666
12034SOL    HW241939   8.369   5.966   0.324 -0.3580 -0.0266 -1.5462
12035SOL     OW41940   7.594   0.328   5.803 -0.1281  0.0568  0.1274
12035SOL    HW141941   7.606   0.421   5.825  2.0255 -0.3789  0.9395
12035SOL    HW241942   7.514   0.303   5.851  0.8360  0.7980  2.2503
12036SOL     OW41943   3.281  10.637   3.221  0.1976  0.3341  0.4000
12036SOL    HW141944   3.291  10.549   3.184  1.7607  0.4978  0.3831
12036SOL    HW241945   3.369  10.662   3.248 -0.2375  1.8749  0.4765
12037SOL     OW41946  10.295   0.587   4.377 -0.1600  0.1723  0.3643
12037SOL    HW141947  10.286   0.561   4.469 -0.9800 -0.3602  0.1456
12037SOL    HW241948  10.315   0.681   4.381 -0.1340  0.1447  1.0831
12038SOL     OW41949   0.550   4.288   5.263  0.0074 -0.5989  0.1010
12038SOL    HW141950   0.516   4.260   5.178  1.9179 -1.3834 -0.4642
12038SOL    HW241951   0.626   4.231   5.278  0.6789  0.6270  1.5730
12039SOL     OW41952   6.863   3.460   2.289 -0.9108  0.2947  0.1447
12039SOL    HW141953   6.906   3.429   2.369 -0.0535 -2.4746 -1.2790
12039SOL    HW241954   6.898   3.548   2.276  0.7374 -0.0842  1.5619
12040SOL     OW41955   1.320   1.205   8.321  0.2712  0.2210 -0.0367
12040SOL    HW141956   1.397   1.151   8.336 -0.4073 -0.7068  0.1794
12040SOL    HW241957   1.329   1.234   8.230 -0.9462 -2.9678 -1.3148
12041SOL     OW41958   6.798   8.597   3.513 -0.3733 -0.9355 -0.4820
12041SOL    HW141959   6.791   8.591   3.418 -2.7609 -1.9391 -0.2936
12041SOL    HW241960   6.823   8.509   3.541 -2.6647 -1.4970 -0.0222
12042SOL     OW41961   9.510   9.421   7.766  0.0295  0.1389 -0.0116
12042SOL    HW141962   9.473   9.335   7.787  2.8093 -0.8101  1.4417
12042SOL    HW241963   9.531   9.460   7.851 -0.4601  1.9624 -0.6821
12043SOL     OW41964   8.132   7.894   5.575  0.7114  0.4148 -0.2350
12043SOL    HW141965   8.094   7.969   5.529  0.4586  0.6669  0.3754
12043SOL    HW241966   8.219   7.924   5.601  0.4511  0.6591  0.3841
12044SOL     OW41967   8.268  10.459   9.692 -0.0481 -0.0461 -0.1713
12044SOL    HW141968   8.297  10.465   9.601 -1.6808  1.6951 -0.6416
12044SOL    HW241969   8.268  10.549   9.723 -0.5377 -0.5038  1.2399
12045SOL     OW41970   7.136   3.828   0.517  0.1600  0.4875 -0.7877
12045SOL    HW141971   7.155   3.897   0.581  0.6732 -0.0226 -0.3762
12045SOL    HW241972   7.041   3.831   0.506  0.1303  0.9721 -0.4515
12046SOL     OW41973   1.581   0.644   9.780 -0.3932 -0.2877 -0.4612
12046SOL    HW141974   1.659   0.688   9.746 -0.0287  1.7709  2.6092
12046SOL    HW241975   1.513   0.711   9.777 -1.4525 -1.3540 -0.9504
12047SOL     OW41976   8.208   3.195   1.374 -0.1697  0.3737  0.3304
12047SOL    HW141977   8.136   3.256   1.393  0.6643  1.0104  1.5903
12047SOL    HW241978   8.209   3.135   1.448 -1.3346 -1.6008 -1.1558
12048SOL     OW41979   5.381   4.089   8.941  0.2382 -0.0110  0.2193
12048SOL    HW141980   5.447   4.067   8.876  0.4277  2.0691 -0.3452
12048SOL    HW241981   5.420   4.063   9.025  1.5439  0.6692 -0.1594
12049SOL     OW41982   3.447   2.524   7.183 -0.6664  0.4100  0.4066
12049SOL    HW141983   3.400   2.441   7.184  2.0502 -1.2312  1.3029
12049SOL    HW241984   3.530   2.506   7.227  1.5992  2.6275 -2.5160
12050SOL     OW41985   2.221   7.850  10.009 -0.3637 -0.1186 -0.6829
12050SOL    HW141986   2.237   7.815   9.922 -1.1049 -0.5229 -0.6615
12050SOL    HW241987   2.171   7.782  10.054  0.2669 -0.0491  0.1666
12051SOL     OW41988   8.784  10.031   4.788 -0.2673  0.3973 -0.0608
12051SOL    HW141989   8.743   9.953   4.825 -2.2691  0.4838 -1.8820
12051SOL    HW241990   8.717  10.068   4.730  1.9920  1.2165 -2.3569
12052SOL     OW41991   9.390   8.176  10.281 -0.1828  0.1552  0.2877
12052SOL    HW141992   9.404   8.209  10.370 -0.8671 -0.2903  0.5655
12052SOL    HW241993   9.298   8.193  10.262 -0.2628 -0.5404  0.0026
12053SOL     OW41994   0.063   1.239   1.538 -0.2072 -0.8772  0.1948
12053SOL    HW141995   0.040   1.156   1.496  0.7055 -0.5738 -0.9330
12053SOL    HW241996   0.005   1.303   1.496  2.3026 -0.1543 -2.4649
12054SOL     OW41997   3.163   5.063   4.709 -0.0726 -0.1982  0.3606
12054SOL    HW141998   3.182   5.059   4.803 -0.5701  1.2381  0.5547
12054SOL    HW241999   3.230   5.008   4.669  0.5207 -0.3530  1.5098
12055SOL     OW42000   9.585   9.298   8.862  0.1480 -0.5147  0.7884
12055SOL    HW142001   9.657   9.242   8.892  0.5212  0.0301  0.9341
12055SOL    HW242002   9.545   9.249   8.791 -0.9363 -1.9808  2.3237
12056SOL     OW42003   0.825   3.450   7.547 -0.0067 -0.0761  0.0599
12056SOL    HW142004   0.824   3.536   7.504 -0.4980  0.2646  0.7338
12056SOL    HW242005   0.892   3.459   7.615 -0.3414 -0.0986  0.3911
12057SOL     OW42006   8.050   5.750   5.672  0.2736 -0.0799 -0.0752
12057SOL    HW142007   8.045   5.831   5.722  1.5479  0.7176 -1.1534
12057SOL    HW242008   8.065   5.682   5.737 -1.0994  0.4908  0.8757
12058SOL     OW42009   2.078   7.304   7.793  0.0002 -0.2894 -0.0991
12058SOL    HW142010   2.141   7.232   7.782 -0.8947 -0.9518 -1.1092
12058SOL    HW242011   2.132   7.378   7.822  1.1623 -0.9841 -0.3971
12059SOL     OW42012   0.328   9.757   2.001  0.4425  1.0021 -0.6414
12059SOL    HW142013   0.264   9.806   1.948  1.3209  2.3153 -0.5394
12059SOL    HW242014   0.406   9.813   2.002  1.4286 -0.3270 -0.3311
12060SOL     OW42015   8.100   7.140   0.953  0.0517  0.3539 -0.8102
12060SOL    HW142016   8.188   7.114   0.981 -1.0573 -1.2010  1.5738
12060SOL    HW242017   8.098   7.235   0.967  1.2678  0.3709 -0.6205
12061SOL     OW42018   5.332   4.379   3.493 -0.5929 -0.4289  0.2023
12061SOL    HW142019   5.286   4.441   3.548  0.6827  0.1525  0.6657
12061SOL    HW242020   5.354   4.429   3.414  1.3915  0.1003  1.0298
12062SOL     OW42021   6.931   1.975   0.581  0.0873 -0.0518 -0.4858
12062SOL    HW142022   6.841   2.008   0.570 -0.0667 -0.2903  0.0346
12062SOL    HW242023   6.984   2.055   0.590 -0.1012  0.0851 -0.5657
12063SOL     OW42024   8.006   8.975   7.970  0.7983 -0.4084  0.2118
12063SOL    HW142025   7.990   9.046   7.908 -1.3337 -0.0448  1.1012
12063SOL    HW242026   7.998   8.895   7.918 -1.5034 -0.1259  0.0472
12064SOL     OW42027   0.679  10.275   3.233  0.1479 -0.1939  0.3180
12064SOL    HW142028   0.689  10.368   3.212  0.3655 -0.1537  0.5866
12064SOL    HW242029   0.669  10.273   3.328  0.9121 -0.4983  0.3985
12065SOL     OW42030   6.751   6.230   5.238 -0.0211 -0.4483  0.6740
12065SOL    HW142031   6.757   6.208   5.331  1.5402 -2.0746  0.2334
12065SOL    HW242032   6.682   6.173   5.204 -1.1459  0.7000  0.9395
12066SOL     OW42033   6.325   2.149   1.784 -0.2817  0.2233  0.0130
12066SOL    HW142034   6.398   2.211   1.785  0.0584 -0.1707  0.0417
12066SOL    HW242035   6.356   2.075   1.837 -0.5912 -0.0686 -0.2104
12067SOL     OW42036   4.844   7.175  10.672 -0.0220  0.0615  0.1072
12067SOL    HW142037   4.813   7.238  10.607 -2.8664 -1.8749 -0.5935
12067SOL    HW242038   4.932   7.206  10.695  0.4139  1.8728 -3.3036
12068SOL     OW42039   4.578   7.381   5.727  0.3288  0.0420  0.7357
12068SOL    HW142040   4.488   7.393   5.697  0.1128  0.2332  1.4414
12068SOL    HW242041   4.628   7.363   5.647 -0.7214 -2.4102  0.5253
12069SOL     OW42042   8.960   5.218   2.790  0.3380  0.2412  0.3194
12069SOL    HW142043   9.053   5.217   2.766  0.4795  1.8312  0.6957
12069SOL    HW242044   8.935   5.125   2.792  1.1205 -0.1467 -2.7519
12070SOL     OW42045  10.329   8.222   0.407 -0.6253 -0.2045  0.1609
12070SOL    HW142046  10.318   8.150   0.345  0.1234 -0.8564  0.7656
12070SOL    HW242047  10.240   8.247   0.431 -0.9605  0.5262 -1.6711
12071SOL     OW42048   2.964   1.965   5.139  0.2705  0.0728  0.1266
12071SOL    HW142049   2.942   1.882   5.095 -0.4259  0.5717 -0.4912
12071SOL    HW242050   2.891   2.023   5.118 -0.0550  0.3609  1.8913
12072SOL     OW42051   6.905   9.257   8.424 -0.7227  0.2547 -0.2318
12072SOL    HW142052   6.977   9.320   8.411 -1.4814  1.5164  1.3051
12072SOL    HW242053   6.949   9.178   8.456  0.0799  0.6717 -0.2564
12073SOL     OW42054   3.300   6.989  10.695  0.0927  0.3198 -0.4410
12073SOL    HW142055   3.334   7.078  10.694 -1.2995  0.8764 -0.2273
12073SOL    HW242056   3.353   6.942  10.630  1.4697  1.0394  0.1162
12074SOL     OW42057   3.743   8.470   4.645  0.1849 -0.2158  0.3451
12074SOL    HW142058   3.744   8.536   4.714 -2.1817 -0.7166  0.9258
12074SOL    HW242059   3.785   8.394   4.683 -0.8304 -0.3859  1.1659
12075SOL     OW42060   7.376   2.338   4.505  0.3162  0.0572 -0.1850
12075SOL    HW142061   7.467   2.335   4.477  0.4565 -3.5833  0.2314
12075SOL    HW242062   7.380   2.356   4.599  0.5990 -0.0296 -0.1792
12076SOL     OW42063   6.005   3.766   6.115 -0.0756  0.5489  0.2149
12076SOL    HW142064   6.084   3.712   6.112  0.3188  1.0647  0.9725
12076SOL    HW242065   6.005   3.802   6.204 -1.6708 -0.1939  0.5399
12077SOL     OW42066   3.185   7.548   7.936  0.3590  0.6271 -0.0832
12077SOL    HW142067   3.120   7.511   7.995  0.3359  1.2829  0.3066
12077SOL    HW242068   3.184   7.490   7.859  1.1269 -0.8523  0.9741
12078SOL     OW42069   5.399   5.367   4.063  0.0451 -0.4781  0.0775
12078SOL    HW142070   5.320   5.342   4.015  0.5185 -0.8093 -0.5388
12078SOL    HW242071   5.465   5.303   4.036  1.0476  0.8966 -0.8742
12079SOL     OW42072   0.434   0.320   5.062  0.0416  0.3368  0.0935
12079SOL    HW142073   0.500   0.274   5.114  1.2570  0.7371 -1.0665
12079SOL    HW242074   0.361   0.332   5.123  1.4034  0.7711  1.7060
12080SOL     OW42075   0.362   4.407   4.578  0.7908 -0.4229  0.4822
12080SOL    HW142076   0.338   4.495   4.551  0.9555 -1.0278 -1.8708
12080SOL    HW242077   0.284   4.354   4.558  1.2959 -1.0896  0.2423
12081SOL     OW42078   4.472   2.212   2.343 -0.2942  0.1511 -0.0145
12081SOL    HW142079   4.490   2.122   2.371 -0.2569  0.0022 -0.5103
12081SOL    HW242080   4.529   2.225   2.267 -1.2660  0.1297 -0.7758
12082SOL     OW42081   3.888   8.529  10.491  0.2800  0.2048  0.7238
12082SOL    HW142082   3.952   8.600  10.494 -1.5804  1.9818  1.0963
12082SOL    HW242083   3.841   8.535  10.574 -0.8527 -0.5427  0.1728
12083SOL     OW42084   5.099   3.523   8.212  0.0600  0.4209  0.1600
12083SOL    HW142085   5.037   3.469   8.165  0.0069 -0.9307  1.6999
12083SOL    HW242086   5.151   3.461   8.263  2.1099  1.5765 -0.4133
12084SOL     OW42087   1.336   8.895   9.650  0.3242 -0.0042 -0.3080
12084SOL    HW142088   1.385   8.952   9.710  1.2079  0.4997 -1.4694
12084SOL    HW242089   1.403   8.836   9.615 -0.1359 -0.1207 -0.9921
12085SOL     OW42090   7.321   5.263   1.351  0.5901  0.2911 -0.1657
12085SOL    HW142091   7.294   5.301   1.435 -0.3582 -0.7695  0.0340
12085SOL    HW242092   7.391   5.202   1.374 -0.0579 -0.4286 -0.0425
12086SOL     OW42093   6.243   2.213   3.525 -0.0271  0.2852 -0.2415
12086SOL    HW142094   6.185   2.281   3.492  1.0330  0.5528 -1.6110
12086SOL    HW242095   6.224   2.137   3.470 -0.3052 -0.1772  0.4662
12087SOL     OW42096   9.856   0.025   0.217 -0.6429  0.8038  0.5015
12087SOL    HW142097   9.917   0.073   0.160  0.7599 -1.0575  0.3311
12087SOL    HW242098   9.895   0.030   0.304 -1.1732  1.0365  0.7326
12088SOL     OW42099   1.515   4.499  10.192  1.0095  0.1757 -0.1510
12088SOL    HW142100   1.566   4.539  10.263  0.1711  0.3797  0.3501
12088SOL    HW242101   1.532   4.405  10.200 -0.1043  0.0419  1.1872
12089SOL     OW42102   0.837   4.433   7.595  0.1585  0.4116 -0.1917
12089SOL    HW142103   0.808   4.370   7.529 -0.4250  0.9934 -0.4994
12089SOL    HW242104   0.762   4.491   7.608  0.7317  1.1364 -0.0243
12090SOL     OW42105   7.283   3.282   7.931  0.0311 -0.1791 -0.0656
12090SOL    HW142106   7.198   3.327   7.934  0.7829  1.5125 -1.8845
12090SOL    HW242107   7.270   3.211   7.868  0.2613  0.8984 -1.3842
12091SOL     OW42108   6.432   5.796   7.553 -0.1806  0.1684  0.6900
12091SOL    HW142109   6.480   5.737   7.611  0.9933 -0.1246 -0.5268
12091SOL    HW242110   6.444   5.759   7.466 -0.4104  1.5588  0.0357
12092SOL     OW42111  10.102   4.564   7.613 -0.2173 -0.2411  0.1821
12092SOL    HW142112  10.109   4.555   7.708 -1.3350 -0.6308  0.2504
12092SOL    HW242113  10.099   4.658   7.597  0.4981 -0.1642  0.4797
12093SOL     OW42114   0.197   7.670   0.885  0.1992  0.0187 -0.1641
12093SOL    HW142115   0.148   7.617   0.948  1.7114 -1.1252  0.1225
12093SOL    HW242116   0.283   7.681   0.927  0.3748  1.5096 -0.8684
12094SOL     OW42117   3.659   3.662   0.775 -0.0606  0.4883 -0.7508
12094SOL    HW142118   3.727   3.594   0.775  0.3137  0.8598 -1.3569
12094SOL    HW242119   3.578   3.614   0.758  0.1245  0.1218 -0.6264
12095SOL     OW42120   3.516   6.556   4.129  0.1243 -0.3577 -0.1231
12095SOL    HW142121   3.610   6.546   4.142 -0.0521 -1.0805  0.6401
12095SOL    HW242122   3.503   6.651   4.119  0.6896 -0.0400  1.7670
12096SOL     OW42123   9.183   6.099   0.433 -0.1102  0.2359  0.6966
12096SOL    HW142124   9.134   6.170   0.392  1.8906  0.1977 -2.0493
12096SOL    HW242125   9.218   6.137   0.514 -0.8665  1.6574  0.3920
12097SOL     OW42126   2.210   1.340   9.298  0.4863  0.4536 -0.3731
12097SOL    HW142127   2.248   1.255   9.275 -0.9529 -0.1326 -0.6650
12097SOL    HW242128   2.168   1.370   9.218 -1.4254  0.1170  0.4546
12098SOL     OW42129   0.058   7.595   3.715  0.0686 -0.7140  0.0098
12098SOL    HW142130  -0.036   7.587   3.732  0.2182 -0.5101  0.9952
12098SOL    HW242131   0.082   7.680   3.753  0.6487 -0.7640 -0.2389
12099SOL     OW42132   5.694   0.646   4.261  0.0275  0.4712 -0.4777
12099SOL    HW142133   5.692   0.711   4.331 -0.5004  0.6029 -0.6049
12099SOL    HW242134   5.623   0.674   4.202  0.0535  0.0005 -0.7305
12100SOL     OW42135  10.212   0.308   3.345 -0.2635 -0.3029 -0.2495
12100SOL    HW142136  10.164   0.264   3.415 -0.8858  0.6328 -0.0605
12100SOL    HW242137  10.145   0.358   3.299 -0.1994 -2.1679 -2.5863
12101SOL     OW42138   1.975   4.733   9.205 -0.2047 -0.1402 -0.4263
12101SOL    HW142139   1.885   4.699   9.208  0.1198 -0.9790  2.7321
12101SOL    HW242140   1.973   4.809   9.263  1.6783 -1.9148  2.1772
12102SOL     OW42141   7.813  10.636   0.016 -0.6950  0.4121 -0.0228
12102SOL    HW142142   7.760  10.716   0.010  0.0685  0.9186 -0.0830
12102SOL    HW242143   7.752  10.570   0.050 -1.5720  0.7821 -0.8219
12103SOL     OW42144   0.988   2.180   3.462 -0.0133 -0.1899 -0.5724
12103SOL    HW142145   1.072   2.223   3.445  0.7679 -1.2065  0.5326
12103SOL    HW242146   0.953   2.226   3.538  1.3030 -2.0510  1.2512
12104SOL     OW42147   8.935   3.291   5.453  0.0255 -0.4253  0.0412
12104SOL    HW142148   8.869   3.225   5.437  0.3090 -0.4876 -0.9638
12104SOL    HW242149   8.887   3.366   5.488 -1.3267  1.0568 -4.3844
12105SOL     OW42150   5.699   5.904   5.489  0.3810  0.5313  0.6122
12105SOL    HW142151   5.705   5.864   5.577 -2.6239 -0.9275  0.2985
12105SOL    HW242152   5.632   5.972   5.499 -0.9079 -0.4808 -0.7454
12106SOL     OW42153   7.755   1.008   6.015 -0.6704 -0.2832 -0.1555
12106SOL    HW142154   7.676   1.042   6.057 -0.2034  0.7097 -0.0599
12106SOL    HW242155   7.812   0.984   6.089 -0.3717  0.2338 -0.2105
12107SOL     OW42156   3.175   3.014   3.462  0.0648 -0.1365 -0.0611
12107SOL    HW142157   3.244   2.990   3.524 -0.6785  0.8081  1.1785
12107SOL    HW242158   3.099   2.964   3.491 -0.3420  0.4675 -0.0625
12108SOL     OW42159   5.245   3.517   1.479 -0.1203  0.2993  0.1979
12108SOL    HW142160   5.232   3.601   1.523  0.8147  0.4510  0.2034
12108SOL    HW242161   5.327   3.527   1.431  0.6593 -1.0116  1.1702
12109SOL     OW42162   0.644   0.050   3.729 -0.2126 -0.3319 -0.0852
12109SOL    HW142163   0.616  -0.017   3.791 -0.9511 -1.2065 -1.3236
12109SOL    HW242164   0.634   0.010   3.643  1.4219  0.6289 -0.7627
12110SOL     OW42165   2.901   8.790   8.081 -0.1051 -0.2345  0.1811
12110SOL    HW142166   2.858   8.800   8.166 -0.5408 -1.5220  0.1300
12110SOL    HW242167   2.975   8.850   8.085 -0.8240  0.6422  0.9863
12111SOL     OW42168   6.681   7.701   4.456 -0.1629  0.2806 -0.3503
12111SOL    HW142169   6.706   7.723   4.546 -0.1382  0.6766 -0.4505
12111SOL    HW242170   6.750   7.642   4.426 -0.2235  0.0666 -0.0775
12112SOL     OW42171   5.074   8.707   5.847 -0.9254 -0.7027  0.0821
12112SOL    HW142172   5.002   8.709   5.783 -1.1100  1.5803  0.2883
12112SOL    HW242173   5.134   8.775   5.817  0.8459 -2.1005  0.3160
12113SOL     OW42174   3.279   7.793   5.333  0.2024  0.1296 -0.6185
12113SOL    HW142175   3.261   7.849   5.257 -0.7707  1.8211  0.7695
12113SOL    HW242176   3.194   7.760   5.360  0.1413  1.5191  1.1223
12114SOL     OW42177   3.558  10.573   3.602 -0.0904 -0.1699 -0.0144
12114SOL    HW142178   3.602  10.570   3.687  0.7280 -0.3796 -0.4383
12114SOL    HW242179   3.468  10.598   3.623  0.7137  2.4536  0.6812
12115SOL     OW42180   7.741   1.875   9.049 -0.3432  0.8293 -0.4351
12115SOL    HW142181   7.749   1.786   9.017 -0.3084  0.6681  0.0117
12115SOL    HW242182   7.812   1.884   9.113 -1.5591  0.5259  0.9931
12116SOL     OW42183   8.437  10.397  10.395 -0.5478  0.3814  0.5498
12116SOL    HW142184   8.400  10.449  10.466 -0.2335 -1.1136  1.8678
12116SOL    HW242185   8.384  10.317  10.393  1.5715 -1.1623  1.5206
12117SOL     OW42186   9.719   1.710   7.248 -0.3207 -0.0069  0.0654
12117SOL    HW142187   9.713   1.713   7.152 -0.5153 -1.7841 -0.0199
12117SOL    HW242188   9.783   1.642   7.266  0.0431  0.6174  1.2127
12118SOL     OW42189   1.467  10.646   9.291  0.5355 -0.5882 -0.0763
12118SOL    HW142190   1.404  10.674   9.224 -0.3734 -1.0830  0.5525
12118SOL    HW242191   1.483  10.553   9.271  0.8754 -0.5290 -0.0836
12119SOL     OW42192   2.988   6.058   4.885 -0.4347  0.4393  0.1075
12119SOL    HW142193   2.957   6.082   4.973 -0.9229 -1.6938  0.5615
12119SOL    HW242194   2.937   6.114   4.826 -0.5094  1.5012  1.1235
12120SOL     OW42195   7.301   0.684   2.206 -0.2141  0.0837 -0.1271
12120SOL    HW142196   7.325   0.617   2.271 -1.5609  2.1846  2.7705
12120SOL    HW242197   7.381   0.698   2.156  1.1109 -1.2411  1.4711
12121SOL     OW42198   4.676   2.909   4.392  0.4019 -0.1602 -0.6993
12121SOL    HW142199   4.610   2.976   4.375 -3.5460 -3.2888  0.7502
12121SOL    HW242200   4.675   2.855   4.313 -2.2941 -2.6745  0.8429
12122SOL     OW42201   1.719   0.105   0.568 -0.0617  0.3736  0.0154
12122SOL    HW142202   1.728   0.093   0.474 -0.4421  0.1909  0.0029
12122SOL    HW242203   1.786   0.047   0.606  1.0608  1.5032 -0.1749
12123SOL     OW42204   8.301   1.789   9.084  0.3963  0.2838  0.3816
12123SOL    HW142205   8.240   1.716   9.094 -1.0621  1.3152 -0.7009
12123SOL    HW242206   8.387   1.751   9.104 -0.6478 -0.9729  2.9594
12124SOL     OW42207  10.117   9.045   2.282  0.2169  0.0491  0.4252
12124SOL    HW142208  10.090   9.095   2.205 -0.7688 -0.9282  0.1119
12124SOL    HW242209  10.209   9.025   2.266  0.5264  1.4305  0.3876
12125SOL     OW42210   6.447   9.694   7.458  0.2928  0.3418 -0.2546
12125SOL    HW142211   6.454   9.607   7.497  1.0147  0.1945 -0.6977
12125SOL    HW242212   6.353   9.710   7.450  0.1490 -0.9134 -1.3252
12126SOL     OW42213   0.395   1.119   4.016 -0.0022  0.0362 -0.5953
12126SOL    HW142214   0.385   1.185   3.947 -1.6804 -1.0199 -1.4376
12126SOL    HW242215   0.369   1.037   3.974 -1.5060 -0.5743  1.4091
12127SOL     OW42216   1.916   8.705   3.605  0.2619  0.4478 -0.4419
12127SOL    HW142217   1.837   8.671   3.563  0.2270 -0.8667  0.6195
12127SOL    HW242218   1.883   8.751   3.683  0.4632  1.0527 -0.7090
12128SOL     OW42219   9.909   9.179   5.352  0.2563 -0.2468 -0.4249
12128SOL    HW142220   9.850   9.172   5.276  0.8385  0.2050 -0.9267
12128SOL    HW242221   9.996   9.165   5.316  0.6797  1.3624 -0.0865
12129SOL     OW42222   8.178   0.248   0.025  0.2621 -0.7275 -0.0483
12129SOL    HW142223   8.265   0.224   0.057 -0.0728 -1.8815  0.0618
12129SOL    HW242224   8.135   0.164   0.009 -0.7316 -0.1709 -0.3788
12130SOL     OW42225   6.421   6.929   8.141 -0.7560  0.1649 -0.1617
12130SOL    HW142226   6.457   6.950   8.055 -1.2845  1.9605  0.0185
12130SOL    HW242227   6.350   6.867   8.123  0.1270 -0.6795 -0.8457
12131SOL     OW42228   2.135   4.412   6.135 -0.3052  0.1225  0.8014
12131SOL    HW142229   2.114   4.405   6.229  0.1762  1.1108  0.9946
12131SOL    HW242230   2.211   4.470   6.132 -1.3736  1.5417 -0.3256
12132SOL     OW42231   8.551   9.221   1.391 -0.4060  0.2263 -0.0192
12132SOL    HW142232   8.645   9.239   1.385 -0.5612  0.7460 -1.3934
12132SOL    HW242233   8.536   9.200   1.483  1.3245 -1.4815 -0.0633
12133SOL     OW42234   4.289   2.415   2.532  0.6330 -0.8057 -0.0626
12133SOL    HW142235   4.305   2.407   2.626 -0.3335 -1.6137  0.0561
12133SOL    HW242236   4.337   2.342   2.493  2.9310  0.8231 -0.4887
12134SOL     OW42237   6.362   4.243   8.885 -0.2704 -0.4712  0.1502
12134SOL    HW142238   6.383   4.297   8.809 -0.3829 -1.4714 -0.6018
12134SOL    HW242239   6.296   4.294   8.933  0.3763  0.5208  0.0108
12135SOL     OW42240   4.547   0.752   9.744  0.3529 -0.1278  0.3068
12135SOL    HW142241   4.576   0.790   9.662 -0.5637  0.4985  0.2662
12135SOL    HW242242   4.461   0.714   9.725  0.0702  0.1390  1.0023
12136SOL     OW42243   0.708   5.425  10.447 -0.4423  0.6400 -0.3175
12136SOL    HW142244   0.671   5.375  10.375  0.3779  0.1754 -0.4337
12136SOL    HW242245   0.694   5.370  10.524  0.7834  0.0401 -0.5012
12137SOL     OW42246   5.189   8.088   5.590  0.0224 -0.4287  0.5502
12137SOL    HW142247   5.176   8.027   5.663 -0.7114  0.1395  0.9058
12137SOL    HW242248   5.101   8.121   5.571  0.3629  0.2410  0.1106
12138SOL     OW42249   3.559   5.007   7.366 -0.1156  0.3633 -0.3759
12138SOL    HW142250   3.558   4.911   7.367  0.6755  0.3485 -0.2677
12138SOL    HW242251   3.635   5.029   7.311 -0.7397  0.9344 -1.0307
12139SOL     OW42252   2.409   6.947   4.538 -0.1304 -0.1261  0.4743
12139SOL    HW142253   2.350   6.939   4.613 -1.1770  0.5307 -0.2517
12139SOL    HW242254   2.444   6.859   4.526 -1.5118 -0.7124  0.5057
12140SOL     OW42255   3.038   0.802   9.702 -0.6483  0.3843  0.0996
12140SOL    HW142256   3.056   0.711   9.679 -0.3283  0.4630  0.0281
12140SOL    HW242257   2.963   0.826   9.648  0.5889  0.8101 -1.5093
12141SOL     OW42258   2.342   4.419   3.905  0.3111 -0.8653  0.0534
12141SOL    HW142259   2.286   4.470   3.846 -0.0338 -2.5464 -1.1590
12141SOL    HW242260   2.422   4.470   3.912 -0.9740  1.1704  1.1210
12142SOL     OW42261   8.462   0.418   0.921  0.2653 -0.4990  0.3258
12142SOL    HW142262   8.511   0.487   0.965 -0.7190  0.1429  0.4481
12142SOL    HW242263   8.479   0.339   0.973 -2.2296  0.5511  2.9927
12143SOL     OW42264  10.442   0.496   7.072  0.6492 -0.2764 -0.3052
12143SOL    HW142265  10.516   0.438   7.089  0.3717 -0.8880 -1.1417
12143SOL    HW242266  10.368   0.456   7.118  1.1148  1.1547  1.8677
12144SOL     OW42267   8.381   3.525   2.546  0.4761  0.5024  0.3428
12144SOL    HW142268   8.333   3.584   2.604  0.2091  1.2375 -0.5949
12144SOL    HW242269   8.370   3.438   2.585 -1.9171  0.5793 -0.0360
12145SOL     OW42270   4.790   5.106   0.470 -0.9027 -0.5213  0.5530
12145SOL    HW142271   4.741   5.099   0.552 -1.8617 -0.9979 -0.0427
12145SOL    HW242272   4.766   5.191   0.434 -0.0315 -0.0581  1.0322
12146SOL     OW42273   5.599   1.526   7.713 -0.1430 -0.5800  0.1364
12146SOL    HW142274   5.668   1.546   7.776  2.8730  0.3988 -3.1018
12146SOL    HW242275   5.543   1.462   7.757  2.8178 -1.4325  3.0351
12147SOL     OW42276  10.555   2.444   9.170  0.3279 -0.2287  0.3500
12147SOL    HW142277  10.494   2.397   9.227 -0.5881  2.0358  1.3230
12147SOL    HW242278  10.511   2.446   9.085 -0.5430  0.5864  0.8119
12148SOL     OW42279   5.802   4.045   6.582 -0.3067  0.0380  0.3230
12148SOL    HW142280   5.805   4.040   6.678  1.2582  0.4472  0.3226
12148SOL    HW242281   5.875   4.102   6.559 -0.0296 -0.8614 -1.1674
12149SOL     OW42282   9.497   8.979   1.617 -0.1176 -0.2240  0.6067
12149SOL    HW142283   9.474   8.999   1.708  0.3758  1.4241  0.4086
12149SOL    HW242284   9.573   8.922   1.623  0.6486  0.8367  1.2435
12150SOL     OW42285   6.676  10.070   4.808 -0.1202  0.0730 -0.8071
12150SOL    HW142286   6.751  10.124   4.832  1.2097 -2.1512  0.2756
12150SOL    HW242287   6.711   9.982   4.800 -2.7214 -1.1793  0.4572
12151SOL     OW42288   6.861   3.005   5.789 -0.1009 -0.0167  0.4908
12151SOL    HW142289   6.825   2.919   5.767 -0.2188  0.0092  0.5819
12151SOL    HW242290   6.855   3.010   5.884  0.2687 -0.0663  0.5158
12152SOL     OW42291   0.488   8.414   2.993 -0.0810  0.8650 -0.2731
12152SOL    HW142292   0.450   8.497   3.022 -1.8045  0.4414 -1.1772
12152SOL    HW242293   0.416   8.352   2.999  1.2422 -0.6558  0.6146
12153SOL     OW42294   9.196   5.453   2.073  0.0189  0.0829  0.4839
12153SOL    HW142295   9.254   5.380   2.095  0.1367  0.5925  1.9538
12153SOL    HW242296   9.113   5.412   2.050  0.0801 -0.5190  1.3069
12154SOL     OW42297   4.013   1.690   3.608 -0.1416 -0.4102 -0.4183
12154SOL    HW142298   4.019   1.607   3.656 -1.0077 -0.9329 -1.1858
12154SOL    HW242299   4.098   1.733   3.623  0.7000 -1.8709 -0.8067
12155SOL     OW42300   2.599   4.031   8.408  0.4424 -0.1136 -0.0710
12155SOL    HW142301   2.620   3.976   8.333 -0.0833  1.5229 -1.4823
12155SOL    HW242302   2.678   4.081   8.424  0.7849 -0.9359  0.9536
12156SOL     OW42303   4.559   8.440   3.305  0.0737  0.7422  0.0519
12156SOL    HW142304   4.485   8.419   3.249 -0.1217  1.5214  0.0098
12156SOL    HW242305   4.541   8.528   3.338  0.8578  0.8439  0.2390
12157SOL     OW42306   0.321   8.088   3.922  0.0958 -0.1031 -0.1325
12157SOL    HW142307   0.231   8.120   3.919  0.6362  1.5371 -0.2122
12157SOL    HW242308   0.344   8.090   4.015  0.1957 -0.0596 -0.1579
12158SOL     OW42309  10.624   9.678   9.502  0.0568  0.0522  0.0420
12158SOL    HW142310  10.634   9.752   9.563  0.0573  0.1250 -0.0462
12158SOL    HW242311  10.712   9.663   9.468 -0.2491  1.3132 -1.4595
12159SOL     OW42312   7.132   4.761   8.123  0.0095 -0.7647 -0.3668
12159SOL    HW142313   7.108   4.688   8.067 -0.5649 -2.4993  2.0070
12159SOL    HW242314   7.228   4.755   8.130  0.2249  0.1800 -2.0031
12160SOL     OW42315   5.042   8.057   3.016  0.1895  0.3860 -0.0005
12160SOL    HW142316   5.043   8.130   3.077  1.2312 -0.2614  0.7927
12160SOL    HW242317   5.091   8.088   2.940  1.4618  0.2187  0.7223
12161SOL     OW42318   3.806   2.224   7.735 -0.4740 -0.4925 -0.4375
12161SOL    HW142319   3.727   2.179   7.767 -1.1133  1.2730  0.6221
12161SOL    HW242320   3.862   2.153   7.702 -1.2629 -2.1195  1.4769
12162SOL     OW42321   3.226   7.664   0.043  0.0056  0.1189  0.1945
12162SOL    HW142322   3.293   7.605   0.077 -0.5185 -0.6818 -0.1245
12162SOL    HW242323   3.167   7.607  -0.006  0.0795  1.0632 -1.0459
12163SOL     OW42324   7.498   9.362   1.573 -0.4218  0.0218 -0.0316
12163SOL    HW142325   7.502   9.266   1.565  1.4492  0.0643  0.0441
12163SOL    HW242326   7.497   9.378   1.668 -0.0016  0.0866 -0.0360
12164SOL     OW42327   5.793   4.733   9.979  0.2733 -0.5697 -0.2889
12164SOL    HW142328   5.781   4.825   9.955 -0.7372 -0.6407 -0.0779
12164SOL    HW242329   5.875   4.732  10.029  0.8958  0.0233 -1.2708
12165SOL     OW42330   9.982   9.374   6.719  0.0605  0.2705  0.4977
12165SOL    HW142331   9.898   9.416   6.698  0.2522  0.0290 -0.8654
12165SOL    HW242332  10.048   9.439   6.696  0.2580  0.4727  1.6051
12166SOL     OW42333   8.736  10.708   1.102 -0.1558  0.3839 -0.6020
12166SOL    HW142334   8.721  10.617   1.075  3.1650 -0.3419 -0.3875
12166SOL    HW242335   8.754  10.703   1.196 -0.2662  1.3126 -0.5201
12167SOL     OW42336  10.580   4.628   4.306 -0.2024  0.5754  0.2225
12167SOL    HW142337  10.581   4.715   4.265  3.2953 -0.1960 -1.8124
12167SOL    HW242338  10.521   4.577   4.251 -0.9399  1.2282  0.3888
12168SOL     OW42339   0.650   4.015   8.453  0.2955 -0.6494  0.5090
12168SOL    HW142340   0.678   4.048   8.367 -2.8900  1.1678  0.0020
12168SOL    HW242341   0.594   3.940   8.433 -0.8442  0.0673  0.9067
12169SOL     OW42342   6.362   8.194   9.887 -0.6701 -0.3122  0.3299
12169SOL    HW142343   6.280   8.234   9.918 -0.9911 -0.9360  0.2877
12169SOL    HW242344   6.339   8.155   9.803 -0.8950 -2.3411  1.2668
12170SOL     OW42345   0.684   2.002   8.360 -0.3564  0.1067 -0.3071
12170SOL    HW142346   0.624   1.978   8.289  0.2059  2.2187 -1.5901
12170SOL    HW242347   0.771   1.995   8.322  0.0152  0.4155  0.4640
12171SOL     OW42348   8.064   2.786   9.033 -0.0241  0.1555 -0.1653
12171SOL    HW142349   8.076   2.878   9.012  0.5147 -0.1911 -1.4483
12171SOL    HW242350   8.151   2.756   9.059 -0.3794  0.2089  1.1823
12172SOL     OW42351   1.789  10.013   9.740  0.5003 -0.4801 -0.6451
12172SOL    HW142352   1.841  10.094   9.735 -0.8614  0.3581 -2.1859
12172SOL    HW242353   1.832   9.962   9.809  2.9704  0.4211 -1.3724
12173SOL     OW42354   0.453   2.106   7.443 -0.2921  0.2392  0.1662
12173SOL    HW142355   0.465   2.200   7.427 -1.7372  0.2129 -1.3034
12173SOL    HW242356   0.454   2.098   7.538 -2.3527  2.1271  0.4468
12174SOL     OW42357   4.624   4.393   4.328  0.0945  0.0010 -0.1354
12174SOL    HW142358   4.529   4.382   4.335  0.2435 -0.8668  0.8100
12174SOL    HW242359   4.657   4.373   4.416  1.0094  2.0596  0.0518
12175SOL     OW42360   2.865   7.460   1.104 -0.7428 -0.1772 -0.1797
12175SOL    HW142361   2.854   7.436   1.196  0.4978  0.0986  0.0565
12175SOL    HW242362   2.862   7.377   1.056  1.3694 -0.6561  0.4089
12176SOL     OW42363   5.711   2.643   3.788  0.2719 -0.0103 -0.7312
12176SOL    HW142364   5.741   2.620   3.876 -1.4064  0.9538  0.1400
12176SOL    HW242365   5.691   2.560   3.746  1.3023 -0.4929 -0.2939
12177SOL     OW42366   2.101  10.370   0.284 -0.2282 -0.1052  0.3449
12177SOL    HW142367   2.060  10.363   0.371  1.3963 -0.1973  1.1365
12177SOL    HW242368   2.188  10.332   0.296 -0.0172 -0.2234 -1.3757
12178SOL     OW42369   5.510   6.568  10.633  0.3234 -0.5799 -0.5785
12178SOL    HW142370   5.558   6.649  10.618  0.2776 -0.0935  1.5413
12178SOL    HW242371   5.553   6.503  10.577  0.0275  0.9694 -2.7413
12179SOL     OW42372   6.241   8.062   5.436 -0.1502  0.3249  0.1759
12179SOL    HW142373   6.157   8.106   5.445 -0.3163 -0.1948  1.5107
12179SOL    HW242374   6.305   8.133   5.429 -0.7096  0.7173 -1.0672
12180SOL     OW42375   3.876   4.995   8.189 -0.6068  0.5884  0.5451
12180SOL    HW142376   3.962   5.037   8.186  0.1216 -0.8942 -0.5123
12180SOL    HW242377   3.876   4.935   8.115 -2.4658  0.3503  0.6958
12181SOL     OW42378   4.778   5.032   7.434  0.3969 -0.3353  0.8888
12181SOL    HW142379   4.709   5.035   7.500  0.0300 -1.1250  0.5533
12181SOL    HW242380   4.753   5.098   7.369  0.4828  0.0697  1.2611
12182SOL     OW42381   7.139   4.603   6.140 -0.2762  0.0345  0.5366
12182SOL    HW142382   7.087   4.529   6.109  0.3058 -0.1576 -0.0112
12182SOL    HW242383   7.105   4.678   6.091 -0.5176  0.0355  0.7058
12183SOL     OW42384   5.965   9.774   1.282  0.3973 -0.1017 -0.1731
12183SOL    HW142385   5.903   9.728   1.225  1.3978  0.0198 -1.4112
12183SOL    HW242386   6.028   9.706   1.308  0.0712 -0.1066  0.6148
12184SOL     OW42387   1.565   5.166  10.277  0.1026 -0.9436 -0.0054
12184SOL    HW142388   1.597   5.248  10.314 -0.3182  0.5891 -2.7883
12184SOL    HW242389   1.574   5.102  10.348  1.2299  1.2961  1.9846
12185SOL     OW42390   7.727   5.959   8.136 -0.7474  0.3046  0.0064
12185SOL    HW142391   7.785   5.924   8.068  1.4482  0.2975  1.7702
12185SOL    HW242392   7.713   6.050   8.110 -0.5982  0.0935 -0.8637
12186SOL     OW42393   7.591   1.128  10.520 -0.1466  0.0427 -0.5122
12186SOL    HW142394   7.665   1.095  10.469 -0.5844 -1.2958 -0.3214
12186SOL    HW242395   7.587   1.069  10.596 -1.3099  0.2023 -0.4389
12187SOL     OW42396   9.431   9.361   3.126  0.3036 -0.3886  0.1032
12187SOL    HW142397   9.460   9.310   3.202 -1.7703 -0.4997  0.8875
12187SOL    HW242398   9.472   9.317   3.051  2.9142  0.1091  1.1348
12188SOL     OW42399  10.554   9.461   2.800 -0.0684  0.4210 -0.2183
12188SOL    HW142400  10.491   9.458   2.727 -1.7907 -0.1051  1.2254
12188SOL    HW242401  10.588   9.550   2.798  0.8918  0.0750 -2.4079
12189SOL     OW42402  10.565   8.471   3.725  0.1232 -0.6911  0.1362
12189SOL    HW142403  10.583   8.548   3.779 -0.2777 -2.2852  2.7561
12189SOL    HW242404  10.649   8.426   3.719 -0.1468 -1.3061  0.8140
12190SOL     OW42405   4.454   1.736   3.683 -0.4176  0.1205  0.1632
12190SOL    HW142406   4.368   1.754   3.645 -1.2618 -1.1661  1.3774
12190SOL    HW242407   4.491   1.667   3.628 -0.6799 -0.1651  0.3422
12191SOL     OW42408   3.669  10.593   9.792 -0.6299  0.0758  0.0770
12191SOL    HW142409   3.717  10.581   9.710 -0.0970  0.2207  0.3643
12191SOL    HW242410   3.732  10.636   9.851 -0.1664 -2.2425  1.3749
12192SOL     OW42411   9.394   5.926  10.676  0.0141 -0.7474  0.1901
12192SOL    HW142412   9.407   6.003  10.731  0.5676 -0.9992  0.4190
12192SOL    HW242413   9.474   5.921  10.623 -0.8147 -0.0906 -1.1723
12193SOL     OW42414   7.402   2.313   2.666 -0.5201 -0.0584 -0.3744
12193SOL    HW142415   7.446   2.329   2.582 -1.1386 -1.2594 -0.9572
12193SOL    HW242416   7.314   2.349   2.654 -0.4357  0.2640 -0.0383
12194SOL     OW42417   7.894   9.554  10.266  0.4143  0.4112  0.0493
12194SOL    HW142418   7.830   9.599  10.211  1.7186  0.0782 -1.8691
12194SOL    HW242419   7.969   9.613  10.270  1.2141 -0.5289 -0.4783
12195SOL     OW42420   5.165  10.226   1.645 -0.2988 -0.0194 -0.0239
12195SOL    HW142421   5.150  10.298   1.706  0.4727 -0.1954  0.3900
12195SOL    HW242422   5.077  10.198   1.617 -0.5994  1.2217 -0.3721
12196SOL     OW42423   6.574   6.799   1.210 -0.1884  0.4386 -0.6192
12196SOL    HW142424   6.525   6.846   1.278  1.1393  1.3500 -0.2345
12196SOL    HW242425   6.663   6.796   1.245 -0.0711 -1.6701 -1.0294
12197SOL     OW42426   3.369   6.358   2.690  0.0416  0.1542  0.0824
12197SOL    HW142427   3.331   6.415   2.623 -0.3180 -0.6280 -0.3956
12197SOL    HW242428   3.294   6.326   2.740  0.2501  0.1836  0.4170
12198SOL     OW42429  10.642   0.896   2.819  0.1974  0.8632 -0.1517
12198SOL    HW142430  10.692   0.851   2.751  1.0525  1.9854 -0.2788
12198SOL    HW242431  10.665   0.988   2.810 -0.5110  1.1739  0.9678
12199SOL     OW42432   8.576   1.785   9.162 -0.5578  0.0582  0.0809
12199SOL    HW142433   8.632   1.726   9.112 -1.0635 -0.2100 -0.1740
12199SOL    HW242434   8.630   1.863   9.175 -1.1909  1.1092 -2.8882
12200SOL     OW42435   8.363   9.737   2.303  0.1645  0.5180  0.2881
12200SOL    HW142436   8.441   9.792   2.299  1.7272 -1.4683  1.1143
12200SOL    HW242437   8.380   9.677   2.376 -1.9327 -0.3284  0.1734
12201SOL     OW42438   3.437   6.581   7.622 -0.4228  0.5902  0.1703
12201SOL    HW142439   3.514   6.525   7.619 -0.9226 -0.0926 -0.4522
12201SOL    HW242440   3.470   6.667   7.648  0.3784  0.0394  1.0509
12202SOL     OW42441   1.027   0.084   0.012  0.3650 -0.3797  0.3710
12202SOL    HW142442   1.031   0.014  -0.052  0.0285 -0.3990  0.3730
12202SOL    HW242443   0.952   0.063   0.067  0.7902 -0.4911  0.9205
12203SOL     OW42444   7.304   5.315   2.340  0.9577  0.0257  0.0274
12203SOL    HW142445   7.213   5.286   2.344  0.9820 -0.1826 -0.7812
12203SOL    HW242446   7.312   5.376   2.413 -0.3330  1.4060 -0.9166
12204SOL     OW42447   2.871   1.344   2.120 -0.0109  0.4140  0.0146
12204SOL    HW142448   2.815   1.422   2.122  0.4041  0.7059  0.4012
12204SOL    HW242449   2.811   1.271   2.136 -0.3308  0.6954  0.1102
12205SOL     OW42450   6.858   8.643   7.206 -0.0603 -0.2982  0.4555
12205SOL    HW142451   6.811   8.720   7.240  0.3845 -0.8836  2.5200
12205SOL    HW242452   6.851   8.578   7.275 -0.0388 -2.0066 -1.0697
12206SOL     OW42453   7.034   7.293   4.327  0.5165  0.4034 -0.3275
12206SOL    HW142454   7.100   7.307   4.395  2.9549 -3.7012 -1.4710
12206SOL    HW242455   6.971   7.232   4.367 -2.4983  3.6877  0.4912
12207SOL     OW42456   7.683   5.033   1.785  0.0884 -0.2962  0.0532
12207SOL    HW142457   7.774   5.031   1.815 -0.4872  1.7263  2.3027
12207SOL    HW242458   7.632   5.031   1.866 -1.9834 -2.3938 -1.1693
12208SOL     OW42459   3.758   9.289   8.888 -0.3559 -0.2594  0.1748
12208SOL    HW142460   3.789   9.211   8.935 -0.4870 -0.8910 -0.7464
12208SOL    HW242461   3.788   9.362   8.941  0.0037 -0.9316  0.9300
12209SOL     OW42462   4.028   4.925   5.128 -0.2845 -0.0339  0.2173
12209SOL    HW142463   4.018   4.859   5.197  0.0569 -0.1286  0.1772
12209SOL    HW242464   4.120   4.953   5.135  0.2946 -1.3816 -1.4093
12210SOL     OW42465   6.074   8.081   7.130  0.6703 -0.2729  0.0916
12210SOL    HW142466   6.020   8.024   7.184  0.1391 -0.1860 -0.3362
12210SOL    HW242467   6.020   8.158   7.115  1.1230  0.0515  0.1009
12211SOL     OW42468   8.044   1.247   5.013 -0.0280 -0.0988 -0.2785
12211SOL    HW142469   8.094   1.230   5.093  2.3659  0.2161 -1.6113
12211SOL    HW242470   7.996   1.328   5.031 -0.5743 -0.7054  1.2348
12212SOL     OW42471   3.259   3.742   9.928 -0.3690 -0.6321 -0.4180
12212SOL    HW142472   3.187   3.696   9.970 -0.3816 -0.8411 -0.6637
12212SOL    HW242473   3.231   3.753   9.837  1.0924 -3.3198 -1.2933
12213SOL     OW42474   2.681   8.802   9.529 -0.1967 -0.3604 -0.1692
12213SOL    HW142475   2.585   8.796   9.531 -0.3243  0.7480 -1.3261
12213SOL    HW242476   2.704   8.778   9.439  0.5782 -0.2410 -0.0067
12214SOL     OW42477   9.244   6.274   2.522  0.2297  0.3032 -0.3342
12214SOL    HW142478   9.232   6.212   2.594  1.3339  1.0014  0.4805
12214SOL    HW242479   9.318   6.328   2.549  0.7277  0.5319 -2.0369
12215SOL     OW42480   6.728   2.115   1.089  0.0603 -0.3224  0.1479
12215SOL    HW142481   6.698   2.071   1.169 -0.7258  0.1549  0.1335
12215SOL    HW242482   6.657   2.102   1.027 -0.4427  1.3858  0.3150
12216SOL     OW42483   7.602   1.267   1.298 -0.4333  0.2732 -0.5087
12216SOL    HW142484   7.656   1.194   1.330 -1.4078 -0.6166 -0.8401
12216SOL    HW242485   7.573   1.312   1.377  0.8306  0.8114 -0.3248
12217SOL     OW42486   7.789   4.705   4.690  0.0170 -0.1070  0.1941
12217SOL    HW142487   7.733   4.777   4.719  1.0704  0.3339  1.2213
12217SOL    HW242488   7.732   4.628   4.692 -0.7552  0.4592  0.4637
12218SOL     OW42489   1.986   0.813   2.114 -0.6317 -0.4744  0.3174
12218SOL    HW142490   2.025   0.829   2.199 -1.3713 -0.2292  0.6184
12218SOL    HW242491   1.914   0.753   2.131 -0.0449 -1.3935 -0.3127
12219SOL     OW42492   6.041   0.019   6.722  0.0817 -0.1845  0.3655
12219SOL    HW142493   6.134   0.024   6.741  0.1485 -3.1372  1.3845
12219SOL    HW242494   6.000   0.084   6.779  1.3509 -0.3836  1.5375
12220SOL     OW42495   6.061   7.967   7.551 -0.5498  0.2612 -0.1251
12220SOL    HW142496   6.124   8.025   7.508  0.0059 -0.3190 -0.1135
12220SOL    HW242497   6.026   7.914   7.480  0.2703 -0.6081  0.1015
12221SOL     OW42498   3.211  10.021   8.134  0.2020 -0.5879  0.4082
12221SOL    HW142499   3.215  10.055   8.223  0.8387  1.2806 -0.2765
12221SOL    HW242500   3.282   9.957   8.128  0.1693 -0.7023  1.2178
12222SOL     OW42501   8.470   0.968   3.915 -0.1294  0.4775 -0.4982
12222SOL    HW142502   8.537   1.035   3.899 -0.2699  0.6266 -0.4525
12222SOL    HW242503   8.520   0.886   3.920  0.1329  0.6789  0.2665
12223SOL     OW42504   6.608   6.897   9.088 -0.0792  0.0990  0.2549
12223SOL    HW142505   6.531   6.867   9.137 -0.2501  1.9514  1.1943
12223SOL    HW242506   6.622   6.829   9.022 -2.1409 -0.5952  0.4503
12224SOL     OW42507  10.216   1.105   7.559 -0.1601 -0.2423  0.0856
12224SOL    HW142508  10.192   1.024   7.514 -0.4617  0.5217 -1.1936
12224SOL    HW242509  10.181   1.174   7.503  0.4571  0.7854  0.9357
12225SOL     OW42510   1.958   1.646   0.343  0.0229 -0.1969  0.5327
12225SOL    HW142511   1.892   1.694   0.294  1.5539  1.8328  0.3698
12225SOL    HW242512   1.988   1.707   0.410  1.7553 -1.0580  0.5959
12226SOL     OW42513  10.129   1.067   5.920 -0.0965  0.1197  0.1725
12226SOL    HW142514  10.034   1.078   5.915  0.1621  3.2484 -0.1941
12226SOL    HW242515  10.154   1.115   5.998  1.1787 -1.1552  0.5850
12227SOL     OW42516  10.332   1.613   5.742 -0.0686  0.1373 -0.1202
12227SOL    HW142517  10.419   1.637   5.710 -0.1290 -0.1475 -0.5052
12227SOL    HW242518  10.341   1.522   5.770  0.1796  0.6140  1.4091
12228SOL     OW42519   8.867   1.599   0.801  0.4207  0.0706 -0.1288
12228SOL    HW142520   8.896   1.520   0.847  2.1513  0.2750 -0.8041
12228SOL    HW242521   8.817   1.567   0.726 -0.5922 -0.3033  0.6748
12229SOL     OW42522   8.590  10.570   4.366 -0.4301 -0.2261  0.1889
12229SOL    HW142523   8.537  10.637   4.324 -0.4407 -0.2924  0.0959
12229SOL    HW242524   8.547  10.556   4.451 -1.7928 -1.7273 -0.6868
12230SOL     OW42525  10.462   6.451   1.528  0.3031 -0.0153 -0.2556
12230SOL    HW142526  10.413   6.439   1.609  2.4033 -0.5749  1.0308
12230SOL    HW242527  10.398   6.484   1.465 -1.3180  0.8168  1.7226
12231SOL     OW42528   2.148   9.423   9.793  0.2606 -0.1860  0.0429
12231SOL    HW142529   2.128   9.514   9.775  1.1486 -0.2152 -1.1970
12231SOL    HW242530   2.189   9.390   9.712  0.5902 -1.4856  0.7014
12232SOL     OW42531   2.401   5.749   5.135  0.0045 -0.1142  0.1913
12232SOL    HW142532   2.442   5.682   5.191 -0.0551  0.5606  1.0525
12232SOL    HW242533   2.446   5.830   5.158 -0.4912  0.2940 -0.2621
12233SOL     OW42534   8.629  10.480   9.674  0.0484 -0.2674 -0.4063
12233SOL    HW142535   8.609  10.431   9.594  0.7645 -0.1262 -0.6822
12233SOL    HW242536   8.587  10.564   9.663  1.6386  0.4430 -1.4723
12234SOL     OW42537   7.697   1.396   4.883 -0.0710 -0.5914 -0.0744
12234SOL    HW142538   7.743   1.314   4.867  1.2080  0.0115  0.4000
12234SOL    HW242539   7.766   1.461   4.896 -1.0337  0.2244  1.2833
12235SOL     OW42540   8.965   6.017   1.690 -0.0197  0.1546 -0.6568
12235SOL    HW142541   9.055   5.988   1.706  0.2978  0.7360 -1.3728
12235SOL    HW242542   8.957   6.021   1.595 -0.1554  2.0612 -0.5955
12236SOL     OW42543   3.443   4.409   8.441  0.1226  0.6559  0.1806
12236SOL    HW142544   3.357   4.447   8.458 -0.0641  0.3026  0.0363
12236SOL    HW242545   3.481   4.396   8.528  0.1667  1.1212  0.2299
12237SOL     OW42546   9.077   8.787   1.337 -0.2820  0.2613 -0.0566
12237SOL    HW142547   9.136   8.817   1.407  0.1895 -0.5320 -0.1072
12237SOL    HW242548   8.992   8.780   1.380 -0.0140 -0.1459  0.4221
12238SOL     OW42549  10.278   3.317   1.336 -0.1853 -0.1917  0.6109
12238SOL    HW142550  10.296   3.411   1.327 -0.0042 -0.2430  0.4221
12238SOL    HW242551  10.363   3.278   1.355  0.0022 -0.4897 -0.6917
12239SOL     OW42552   6.247   8.790   5.961  0.1469 -0.2795  0.1520
12239SOL    HW142553   6.217   8.856   6.024 -1.9820 -2.3141  1.4587
12239SOL    HW242554   6.169   8.768   5.911  1.0333 -1.1494 -0.8782
12240SOL     OW42555   8.641   3.924   2.154 -0.1748  0.2833 -0.5187
12240SOL    HW142556   8.597   3.947   2.236  0.6036 -0.0646  0.0092
12240SOL    HW242557   8.570   3.912   2.091 -0.7639  0.9324  0.0005
12241SOL     OW42558   3.639   7.993   7.074 -0.6821  0.2623 -0.5983
12241SOL    HW142559   3.667   7.936   7.003 -2.1854 -1.4795  0.1221
12241SOL    HW242560   3.569   7.944   7.118  0.8128  0.8018  2.7003
12242SOL     OW42561   9.211   5.129   3.101 -0.1143  0.1941 -0.4043
12242SOL    HW142562   9.235   5.089   3.184 -1.5460  0.7931  0.3274
12242SOL    HW242563   9.263   5.081   3.036  0.7358 -0.5450  0.7777
12243SOL     OW42564  10.250   1.514   5.439 -0.0430 -0.3292  0.5405
12243SOL    HW142565  10.325   1.564   5.407  0.6381 -1.3008  0.6062
12243SOL    HW242566  10.271   1.423   5.420 -0.8680 -0.6825  1.2466
12244SOL     OW42567   5.096   1.937  10.362 -0.3848  0.3247 -0.0745
12244SOL    HW142568   5.032   1.877  10.401 -0.1003  0.1278  0.0921
12244SOL    HW242569   5.088   1.922  10.268 -0.4730  0.1862 -0.0451
12245SOL     OW42570   6.695   8.602   5.357  0.6350 -0.1229  0.0867
12245SOL    HW142571   6.654   8.518   5.379 -1.8030  0.6677 -1.0456
12245SOL    HW242572   6.749   8.583   5.280  0.6090 -0.7735  0.2250
12246SOL     OW42573   6.453   3.322   4.873  0.4076 -0.2551 -0.0219
12246SOL    HW142574   6.537   3.314   4.919  0.4114 -1.3377 -0.1720
12246SOL    HW242575   6.441   3.416   4.859  0.8161  0.0289  1.4202
12247SOL     OW42576   2.688   6.603   7.738  0.5298  0.1509  0.0480
12247SOL    HW142577   2.690   6.684   7.688 -2.2925  0.2625 -0.0359
12247SOL    HW242578   2.707   6.630   7.828 -0.8057  1.0435  0.1010
12248SOL     OW42579   9.915   6.448   0.167 -0.4007  0.5338  0.0034
12248SOL    HW142580   9.913   6.419   0.076  1.2031  1.0324 -0.2309
12248SOL    HW242581   9.895   6.369   0.218 -0.0534 -0.0537 -0.7504
12249SOL     OW42582   2.980   1.088   9.472  0.2148 -0.3057  0.1047
12249SOL    HW142583   2.967   1.177   9.442 -0.5783 -0.0198  1.2206
12249SOL    HW242584   2.952   1.033   9.399 -2.7419  0.3436  0.6269
12250SOL     OW42585   0.276   4.466   3.800 -0.3105  0.6093 -0.1109
12250SOL    HW142586   0.289   4.497   3.889  1.2190 -2.3402  0.8281
12250SOL    HW242587   0.365   4.458   3.765 -0.6723 -1.4475 -0.6696
12251SOL     OW42588   4.675   6.276   2.640  0.0181 -0.4222 -0.5339
12251SOL    HW142589   4.759   6.232   2.653 -0.2655 -0.5302  1.2008
12251SOL    HW242590   4.693   6.344   2.576  1.1667 -1.1238 -0.9901
12252SOL     OW42591   8.694   3.728   5.556 -0.0727 -0.6953  0.2921
12252SOL    HW142592   8.757   3.784   5.602 -0.0653 -0.3061 -0.1777
12252SOL    HW242593   8.627   3.708   5.622 -0.7038  0.8589  0.1840
12253SOL     OW42594  10.479   8.613   3.485  0.1169  0.4251  0.0145
12253SOL    HW142595  10.499   8.572   3.569 -0.5634 -1.0921 -0.5330
12253SOL    HW242596  10.458   8.540   3.427  2.3094  1.2541 -1.9805
12254SOL     OW42597   2.147   7.105   8.370  0.0430 -0.0089  0.0539
12254SOL    HW142598   2.239   7.108   8.396 -0.3507 -0.0938  1.5299
12254SOL    HW242599   2.116   7.195   8.381 -0.4234 -0.2792  1.0223
12255SOL     OW42600  10.564   1.596   2.064  0.2173  0.0212  0.0869
12255SOL    HW142601  10.621   1.673   2.063  0.9440 -0.5006  0.3429
12255SOL    HW242602  10.615   1.528   2.019  0.4067 -0.8724  1.5930
12256SOL     OW42603  10.588   2.552   9.440  0.1088 -0.2128  0.0208
12256SOL    HW142604  10.597   2.504   9.358 -0.4757 -0.3639  0.0438
12256SOL    HW242605  10.514   2.610   9.427  0.4757  0.3030  0.1859
12257SOL     OW42606   7.780   9.490   4.028 -0.4599  0.0011 -0.6690
12257SOL    HW142607   7.699   9.522   4.069 -0.3754  0.6756 -1.0061
12257SOL    HW242608   7.835   9.568   4.021  0.0152 -0.3541 -0.9202
12258SOL     OW42609   1.487   6.350   6.085 -0.0373 -0.4955 -0.4164
12258SOL    HW142610   1.467   6.416   6.019 -0.3459  0.2185  0.3643
12258SOL    HW242611   1.413   6.288   6.080 -0.6121  0.1444 -0.0192
12259SOL     OW42612   4.630   1.289   0.975  0.3732  0.2790 -0.0332
12259SOL    HW142613   4.555   1.242   1.010  0.1684 -1.1690 -2.1711
12259SOL    HW242614   4.621   1.379   1.006 -1.3348 -0.2417  1.0609
12260SOL     OW42615   9.215   5.999   6.803 -0.0100 -0.0342  0.2062
12260SOL    HW142616   9.184   6.084   6.772 -0.2260  0.2753  1.2491
12260SOL    HW242617   9.180   5.936   6.739 -0.0353  0.6263 -0.4416
12261SOL     OW42618   8.424   7.063   0.381 -0.1308  0.5562 -0.0984
12261SOL    HW142619   8.370   6.986   0.368  0.4939 -0.3209  2.0851
12261SOL    HW242620   8.362   7.132   0.406 -0.4645  0.0946  0.3728
12262SOL     OW42621   6.851   5.566   6.384 -0.3107 -0.1096  0.4129
12262SOL    HW142622   6.830   5.599   6.296 -0.8986 -2.2107 -0.2886
12262SOL    HW242623   6.796   5.618   6.442 -0.5794  0.7099 -0.5397
12263SOL     OW42624   3.616   7.322   8.309 -0.1529 -0.7522 -0.4427
12263SOL    HW142625   3.621   7.326   8.214 -0.5164 -0.6066 -0.4572
12263SOL    HW242626   3.562   7.245   8.328  0.5749 -1.2494 -0.3319
12264SOL     OW42627   7.404   6.582   5.766  0.2459  0.4374  0.5456
12264SOL    HW142628   7.368   6.563   5.679 -0.0586  0.4512  0.6679
12264SOL    HW242629   7.487   6.535   5.768  0.8621  1.4634 -0.2285
12265SOL     OW42630   1.503   4.978   3.740  0.4066 -0.0397 -0.1474
12265SOL    HW142631   1.530   4.928   3.816 -0.8237  1.5215  1.3900
12265SOL    HW242632   1.427   4.931   3.705 -0.2483  0.2754  0.8112
12266SOL     OW42633   7.049   7.071   8.981 -0.4086  0.2154 -0.4710
12266SOL    HW142634   7.068   6.982   9.010 -1.1635 -0.0742 -0.8146
12266SOL    HW242635   7.040   7.063   8.886  1.0734  0.9625 -0.7033
12267SOL     OW42636   4.858   7.584   2.560 -0.2704  0.1163  0.0336
12267SOL    HW142637   4.931   7.630   2.602  0.5771  1.5494 -2.7331
12267SOL    HW242638   4.899   7.512   2.512 -0.3946  1.6265 -2.4989
12268SOL     OW42639   8.113   9.757   4.939  0.2056  0.5701 -0.3905
12268SOL    HW142640   8.130   9.851   4.952 -1.7203  1.0043 -0.6872
12268SOL    HW242641   8.185   9.713   4.984  1.2387  2.1901 -0.3865
12269SOL     OW42642   1.263   2.171   7.710  0.4605 -0.5297  0.7477
12269SOL    HW142643   1.195   2.199   7.772 -0.1206  0.9283 -0.4991
12269SOL    HW242644   1.216   2.153   7.629  1.4924  0.1792 -0.0392
12270SOL     OW42645  10.487   2.786   6.444  0.0348  0.1319  0.1868
12270SOL    HW142646  10.463   2.717   6.381 -1.9510  0.9226 -0.0114
12270SOL    HW242647  10.580   2.801   6.428  0.0586 -1.1182 -1.1382
12271SOL     OW42648   4.805   6.130   7.564  0.2357  0.3817 -0.0023
12271SOL    HW142649   4.868   6.177   7.619  0.4635 -1.9120  1.8490
12271SOL    HW242650   4.759   6.073   7.625 -1.1986 -0.5404 -1.8863
12272SOL     OW42651   7.725   6.464   1.252 -0.4173  0.4624  0.5709
12272SOL    HW142652   7.658   6.526   1.225 -1.4292 -0.0596  1.7605
12272SOL    HW242653   7.691   6.425   1.332  1.6363  0.6745  1.6245
12273SOL     OW42654   6.393   6.313   5.914  0.6704 -0.3497  0.3177
12273SOL    HW142655   6.455   6.372   5.872  2.4657 -1.0997  1.7685
12273SOL    HW242656   6.427   6.225   5.897 -0.0534 -0.7975  1.0802
12274SOL     OW42657   9.242   1.827  10.352 -0.0639  0.9194 -0.5562
12274SOL    HW142658   9.249   1.915  10.315 -3.0306  0.7899 -1.7406
12274SOL    HW242659   9.181   1.837  10.425  0.1680 -0.0322 -0.2225
12275SOL     OW42660   7.919   7.793   2.444 -0.0650 -0.2507  0.0058
12275SOL    HW142661   7.832   7.814   2.409  0.4550  0.5128 -0.8750
12275SOL    HW242662   7.917   7.827   2.534 -0.5763  0.0380 -0.1059
12276SOL     OW42663   8.180   7.447   3.515 -0.6313  0.2053 -0.3051
12276SOL    HW142664   8.210   7.424   3.603 -1.6607 -1.5797 -0.3758
12276SOL    HW242665   8.241   7.515   3.486  1.9517 -1.6108  0.4580
12277SOL     OW42666   2.477   3.059   8.426 -0.1563  0.4879  0.2375
12277SOL    HW142667   2.466   3.138   8.373 -0.6554  1.2237  1.4133
12277SOL    HW242668   2.461   3.087   8.516  0.8108 -0.7112  0.8191
12278SOL     OW42669   6.856  10.548   4.174 -0.1959 -0.0700 -0.6339
12278SOL    HW142670   6.812  10.561   4.090 -1.7219 -0.6472  0.0309
12278SOL    HW242671   6.906  10.628   4.188 -1.3112  0.7719 -1.2902
12279SOL     OW42672   3.994   5.813  10.361  0.2204  0.3311 -0.3359
12279SOL    HW142673   4.078   5.767  10.371  0.2004  0.1856 -0.8220
12279SOL    HW242674   4.018   5.904  10.344  0.2811  0.2771 -0.5390
12280SOL     OW42675  10.052   2.395   4.824 -0.2610  0.1097  0.2928
12280SOL    HW142676   9.968   2.424   4.788  0.4360  3.7037  1.1052
12280SOL    HW242677  10.038   2.396   4.919  1.0485  2.3782  0.5229
12281SOL     OW42678   9.442   5.353   3.264 -0.3421 -0.0087 -0.1248
12281SOL    HW142679   9.389   5.351   3.184  0.4770  0.8430 -0.7087
12281SOL    HW242680   9.531   5.369   3.233 -0.3571  2.9543  1.0722
12282SOL     OW42681   0.526   2.856   6.008  0.1569 -0.5135  0.4231
12282SOL    HW142682   0.559   2.819   5.926  0.2645 -1.2025  0.7729
12282SOL    HW242683   0.431   2.857   5.997  0.2274  2.5556 -1.0579
12283SOL     OW42684   7.308   9.832   0.286  0.2353 -0.4584 -0.0107
12283SOL    HW142685   7.265   9.801   0.207  0.0994 -0.8566  0.2155
12283SOL    HW242686   7.351   9.754   0.322 -1.8358 -0.9247  1.7025
12284SOL     OW42687   8.373   4.009   8.901 -0.3927  0.1578 -0.7137
12284SOL    HW142688   8.286   3.987   8.934 -0.2965 -1.1443 -1.2847
12284SOL    HW242689   8.399   4.087   8.951 -0.0115 -1.9798  2.6761
12285SOL     OW42690   2.209   9.836   1.070 -0.5912 -0.2576  0.0958
12285SOL    HW142691   2.270   9.868   1.137  2.2789 -3.7899 -0.5267
12285SOL    HW242692   2.254   9.853   0.987 -1.0717 -1.7067 -0.4862
12286SOL     OW42693   7.607   5.425   7.164  0.5323 -0.2620 -0.5561
12286SOL    HW142694   7.662   5.392   7.093  2.6150 -0.4022  1.0324
12286SOL    HW242695   7.629   5.518   7.171 -1.2668  0.2732 -1.4417
12287SOL     OW42696   2.588   4.308   6.860 -0.5242  0.2385  0.0996
12287SOL    HW142697   2.578   4.360   6.940  1.7719  0.9242  0.0151
12287SOL    HW242698   2.498   4.289   6.832 -1.6189  4.8571 -0.2909
12288SOL     OW42699  10.595   0.747   4.174  0.2812 -0.4168  0.3425
12288SOL    HW142700  10.554   0.723   4.091  0.1424 -0.2710  0.3682
12288SOL    HW242701  10.528   0.728   4.240  0.1853 -0.0050  0.3672
12289SOL     OW42702   9.041   0.890   8.956  0.2008 -0.3696 -0.0994
12289SOL    HW142703   8.972   0.897   9.021  0.7317 -1.8908  0.6629
12289SOL    HW242704   9.067   0.980   8.938 -2.2167  0.2636 -0.6976
12290SOL     OW42705   3.016  10.439   3.728 -0.3097  0.4565  0.0738
12290SOL    HW142706   3.037  10.513   3.784  0.3901 -0.6411  1.3247
12290SOL    HW242707   2.954  10.386   3.779 -0.1318 -0.2634 -0.4335
12291SOL     OW42708   4.662   2.490   0.624 -0.5556 -0.4422 -0.1472
12291SOL    HW142709   4.594   2.430   0.655 -2.9942  2.4483  0.5650
12291SOL    HW242710   4.645   2.571   0.672  0.2289  1.9748 -3.6183
12292SOL     OW42711   6.320   0.417   6.892 -0.4004 -0.2259  0.6247
12292SOL    HW142712   6.358   0.335   6.923 -0.5377 -0.1814  0.9104
12292SOL    HW242713   6.372   0.440   6.815 -1.3478 -1.4003 -0.4193
12293SOL     OW42714   0.391   2.142   8.060  0.2699 -0.1113 -0.1476
12293SOL    HW142715   0.404   2.236   8.047 -0.8264  0.2181  0.9852
12293SOL    HW242716   0.422   2.102   7.979 -1.7065  1.4441 -1.7794
12294SOL     OW42717   6.475   0.638   0.306  0.2910  0.8821 -0.1488
12294SOL    HW142718   6.526   0.557   0.305 -3.1168 -1.4146 -1.4433
12294SOL    HW242719   6.491   0.678   0.221 -0.9168 -0.4547 -1.0333
12295SOL     OW42720   0.223   7.631   4.211 -0.3683  0.4038  0.4264
12295SOL    HW142721   0.312   7.634   4.248  0.1589  1.0082 -0.8326
12295SOL    HW242722   0.221   7.703   4.149 -0.7644 -1.3446 -1.6862
12296SOL     OW42723   8.766   3.854   6.244 -0.3597  0.1524  0.0049
12296SOL    HW142724   8.837   3.810   6.290 -0.5272 -0.5251 -0.3777
12296SOL    HW242725   8.778   3.831   6.152 -0.3900  0.9919 -0.2245
12297SOL     OW42726   3.433   8.524   2.577  0.7399 -0.0037  0.2891
12297SOL    HW142727   3.374   8.587   2.618  0.4820 -0.5904  0.8300
12297SOL    HW242728   3.383   8.488   2.504 -0.8200 -2.7441  2.5098
12298SOL     OW42729   5.553   6.609   8.107 -0.5118 -0.5187  0.1686
12298SOL    HW142730   5.647   6.618   8.125  0.2036  0.2585 -3.2868
12298SOL    HW242731   5.548   6.536   8.045 -2.0266  0.2102 -0.6226
12299SOL     OW42732   0.063   0.486   5.328  0.1502  0.4208 -0.3488
12299SOL    HW142733   0.089   0.562   5.381  0.0699  1.8424 -2.2112
12299SOL    HW242734  -0.028   0.470   5.351  0.6720 -0.2800  1.3454
12300SOL     OW42735   3.143   8.747   9.932 -0.2907 -0.6521 -0.2023
12300SOL    HW142736   3.232   8.724   9.903  0.3021  0.5429  0.6039
12300SOL    HW242737   3.145   8.733  10.027 -0.3608  1.1905  0.1024
12301SOL     OW42738   5.739   2.063   8.519  0.1942  0.3390 -0.0732
12301SOL    HW142739   5.716   1.988   8.463  2.1878 -0.7713  0.4752
12301SOL    HW242740   5.690   2.049   8.599 -0.8101  0.6053 -0.6300
12302SOL     OW42741  10.285  10.696   9.186  0.3083  0.2433  0.2224
12302SOL    HW142742  10.355  10.716   9.249 -0.2647  1.5134  0.4850
12302SOL    HW242743  10.220  10.649   9.238 -0.3979  1.7348  0.7460
12303SOL     OW42744   4.491   9.917   5.616 -0.0580 -0.4031  0.4836
12303SOL    HW142745   4.563   9.915   5.678  0.8536  0.0391 -0.5377
12303SOL    HW242746   4.529   9.888   5.533 -1.4743 -1.9746  0.3089
12304SOL     OW42747   2.076   5.587   3.804 -0.2531  0.6598 -0.5526
12304SOL    HW142748   2.071   5.668   3.753 -1.2608  1.9867  1.5299
12304SOL    HW242749   2.143   5.604   3.870  1.0000 -1.0141 -1.2940
12305SOL     OW42750   6.381   3.737   5.338 -0.1621 -0.3371  0.1546
12305SOL    HW142751   6.361   3.818   5.291 -0.8357 -0.6872 -0.1746
12305SOL    HW242752   6.301   3.717   5.386 -0.7151 -1.8387 -1.2894
12306SOL     OW42753   5.450   1.372   4.178 -0.0352  1.0245 -0.1566
12306SOL    HW142754   5.522   1.385   4.116 -0.9475  1.5711 -1.1193
12306SOL    HW242755   5.377   1.342   4.124 -0.5489  0.4960  0.8074
12307SOL     OW42756   4.439   0.274   3.219 -0.1340 -0.1364  0.4508
12307SOL    HW142757   4.354   0.293   3.180  0.9337  2.7039 -0.7938
12307SOL    HW242758   4.468   0.193   3.177 -2.4454 -1.5611  1.4225
12308SOL     OW42759   8.480   1.301   3.604  0.1803 -0.0421  0.6355
12308SOL    HW142760   8.550   1.366   3.605  0.0312  0.1177  1.0573
12308SOL    HW242761   8.479   1.267   3.514 -1.5365  2.4874 -0.4162
12309SOL     OW42762   7.581   2.626   9.625  0.1714  0.2927  0.2732
12309SOL    HW142763   7.591   2.721   9.626 -0.5130  0.3660  1.0195
12309SOL    HW242764   7.580   2.601   9.718 -2.9152 -0.0606  0.2619
12310SOL     OW42765   8.565  10.314   3.495  0.4576  0.3204 -0.2090
12310SOL    HW142766   8.564  10.361   3.411 -0.3350 -0.3950 -0.6192
12310SOL    HW242767   8.654  10.279   3.501  0.6975  0.8796 -0.4667
12311SOL     OW42768   6.183  10.363   0.161  0.1638 -0.1391  0.7608
12311SOL    HW142769   6.275  10.350   0.137 -0.0224  0.9639 -0.7198
12311SOL    HW242770   6.134  10.331   0.085 -0.7039 -0.9893  1.6568
12312SOL     OW42771   2.957   7.903   5.750 -0.3423  0.0475  0.3592
12312SOL    HW142772   3.044   7.867   5.731 -0.1594 -0.6323  2.1946
12312SOL    HW242773   2.955   7.988   5.707  1.7032  0.5922  1.2340
12313SOL     OW42774   8.954   4.781   4.655 -0.5953 -0.4027  0.3466
12313SOL    HW142775   9.024   4.839   4.624 -1.3334  0.7365  0.7114
12313SOL    HW242776   8.988   4.742   4.735 -1.0011  1.5868  1.5725
12314SOL     OW42777   8.157   4.734   6.688  0.1559  0.0366 -0.6798
12314SOL    HW142778   8.238   4.683   6.688  0.9845  1.3049 -0.1047
12314SOL    HW242779   8.097   4.682   6.742  1.1449 -0.1063  0.3397
12315SOL     OW42780  10.372   7.057  10.339 -0.1834 -0.1679  0.0566
12315SOL    HW142781  10.341   6.998  10.270  2.3813 -1.2117 -0.3108
12315SOL    HW242782  10.387   7.140  10.295  1.8869 -0.9554 -0.8364
12316SOL     OW42783   4.880   6.594   0.383 -0.3625 -0.3395  0.2798
12316SOL    HW142784   4.901   6.506   0.353 -0.0837  0.0521 -0.7019
12316SOL    HW242785   4.964   6.639   0.388 -0.4203 -0.3178  1.4635
12317SOL     OW42786   7.048   9.903   6.873  0.0584 -0.2805 -0.0762
12317SOL    HW142787   7.099   9.977   6.840 -0.8022  0.3625 -0.0057
12317SOL    HW242788   7.004   9.868   6.795 -0.6449  0.1791  0.1042
12318SOL     OW42789   2.346   8.492   8.952 -0.4959  0.5178  0.2815
12318SOL    HW142790   2.394   8.557   9.003  0.1025  0.2885  0.0147
12318SOL    HW242791   2.381   8.408   8.982 -0.9104  0.3344  0.2642
12319SOL     OW42792   5.892   4.975   5.404  0.6517  0.0831 -0.1378
12319SOL    HW142793   5.853   4.984   5.491 -0.1984  1.0362 -0.5871
12319SOL    HW242794   5.967   4.918   5.417 -0.6668 -1.5252  0.8385
12320SOL     OW42795   7.133   4.551   3.189  0.1590 -0.7813 -0.1810
12320SOL    HW142796   7.227   4.571   3.184 -0.3506  1.9915 -0.2933
12320SOL    HW242797   7.109   4.526   3.100  0.6124 -0.5495 -0.3686
12321SOL     OW42798   5.466   0.913   2.207 -0.0956  0.2661 -0.1439
12321SOL    HW142799   5.372   0.908   2.222  0.0531  1.1264  1.2938
12321SOL    HW242800   5.494   0.992   2.254  1.3408  0.0402 -0.5553
12322SOL     OW42801   6.128   9.831   9.883 -0.4603  0.8360 -0.2026
12322SOL    HW142802   6.195   9.795   9.940  1.2810  1.2090 -1.9321
12322SOL    HW242803   6.092   9.756   9.836 -0.7323  0.7301  0.1701
12323SOL     OW42804   2.164   1.093   0.414  0.0535  0.2759 -0.2994
12323SOL    HW142805   2.205   1.156   0.475 -0.8417 -0.5166  1.1796
12323SOL    HW242806   2.238   1.053   0.368  0.6942  1.6630 -0.5407
12324SOL     OW42807   6.266   1.679   8.294 -0.6363  0.3690  0.3286
12324SOL    HW142808   6.323   1.700   8.369  0.1060 -1.8337  0.4538
12324SOL    HW242809   6.266   1.583   8.290 -0.4365  0.4080 -2.6594
12325SOL     OW42810   0.868   1.128   9.322 -0.4945  0.2713  0.1894
12325SOL    HW142811   0.830   1.174   9.397  0.5404  0.1561  0.7990
12325SOL    HW242812   0.961   1.148   9.327 -0.5830  1.6154 -1.9976
12326SOL     OW42813   6.697  10.543   4.987  0.6933 -0.2518 -0.2711
12326SOL    HW142814   6.767  10.534   4.923 -0.4705 -0.9626 -1.4980
12326SOL    HW242815   6.715  10.475   5.051  0.8878 -0.7228 -0.8161
12327SOL     OW42816   8.171   8.662   8.611  0.3348 -0.3985 -0.3562
12327SOL    HW142817   8.266   8.657   8.610  0.6319  2.5725  1.1839
12327SOL    HW242818   8.148   8.700   8.526  0.7718  1.0398  0.1483
12328SOL     OW42819   4.653   8.539   2.724 -0.1034  0.6721 -0.0579
12328SOL    HW142820   4.636   8.491   2.806  1.2673 -0.4998 -0.4337
12328SOL    HW242821   4.590   8.503   2.662  0.9115 -0.6915 -0.3367
12329SOL     OW42822   8.335   1.031   9.402  0.2945  0.1620 -0.1801
12329SOL    HW142823   8.336   0.959   9.465  0.1557 -0.6356 -1.0664
12329SOL    HW242824   8.366   1.107   9.451 -0.0348 -0.3910  0.9018
12330SOL     OW42825   2.902   7.017   2.422  0.5909 -0.2623 -0.7262
12330SOL    HW142826   2.921   7.087   2.359  1.7611 -0.8741 -1.0692
12330SOL    HW242827   2.846   6.956   2.373  0.4339 -0.0899 -0.7625
12331SOL     OW42828   3.149   1.210   7.678  0.1372  0.3126 -0.3534
12331SOL    HW142829   3.207   1.256   7.739 -2.2059  2.8196  0.1962
12331SOL    HW242830   3.208   1.178   7.610  2.1040  4.6331 -1.0529
12332SOL     OW42831   7.588   7.008   1.891  0.1443  0.5407  0.3084
12332SOL    HW142832   7.645   7.055   1.830  0.9594 -1.4912 -0.5681
12332SOL    HW242833   7.572   6.924   1.849 -2.9080  0.7180  0.8879
12333SOL     OW42834   6.728   0.963   1.096 -0.3342  0.7002  0.5685
12333SOL    HW142835   6.688   0.886   1.056 -2.3198  1.6845  0.5686
12333SOL    HW242836   6.655   1.012   1.133  0.9866  2.1058  1.4469
12334SOL     OW42837   7.922   1.271   2.317  0.1955  0.5978 -0.4288
12334SOL    HW142838   7.929   1.215   2.241  0.3932  0.6608 -0.4577
12334SOL    HW242839   7.984   1.235   2.380  0.7461  1.1235 -0.6622
12335SOL     OW42840   2.657   3.625   3.408  0.3437  0.1026 -0.3554
12335SOL    HW142841   2.727   3.638   3.472  1.1824  2.1680 -1.6086
12335SOL    HW242842   2.588   3.685   3.436  0.0928 -0.0993 -0.5377
12336SOL     OW42843   3.299   0.395   8.828  0.2555  0.0032  0.3942
12336SOL    HW142844   3.354   0.318   8.817  0.1034 -0.2578  1.3602
12336SOL    HW242845   3.355   0.468   8.802 -0.3103 -0.5668 -2.7279
12337SOL     OW42846   5.125   4.074   4.124  0.2953  0.3846 -0.4773
12337SOL    HW142847   5.109   4.168   4.122 -2.0994  0.0329 -0.2682
12337SOL    HW242848   5.157   4.057   4.212 -2.0463  0.6647  0.5010
12338SOL     OW42849   9.133   8.328   1.482  1.1406 -0.2292  0.1910
12338SOL    HW142850   9.120   8.409   1.532 -2.7707 -1.3016  1.2638
12338SOL    HW242851   9.108   8.351   1.392  0.3814 -0.1267  0.4192
12339SOL     OW42852   4.138   0.330   8.555 -0.3039  0.3850  0.8483
12339SOL    HW142853   4.219   0.284   8.579 -0.7555 -1.8823 -1.5587
12339SOL    HW242854   4.070   0.263   8.561 -1.7327  1.8147  1.0984
12340SOL     OW42855   7.213   5.026   8.063 -0.9073 -0.0681 -0.2002
12340SOL    HW142856   7.170   4.948   8.097 -2.1888  0.8256  0.3193
12340SOL    HW242857   7.144   5.072   8.015  0.1946  0.0366 -1.7256
12341SOL     OW42858  10.457   3.323  10.374  0.3022 -0.4283 -0.8282
12341SOL    HW142859  10.413   3.258  10.320 -1.2770 -0.8251  0.8532
12341SOL    HW242860  10.387   3.373  10.415  1.4619  2.3495 -1.9808
12342SOL     OW42861   3.206   7.644   9.348  0.0336 -0.5191 -1.1994
12342SOL    HW142862   3.146   7.639   9.274  0.5437  1.8759 -1.8595
12342SOL    HW242863   3.281   7.589   9.322 -0.7563 -1.5146 -1.4328
12343SOL     OW42864   8.387   2.904   3.526  0.3016 -0.6362 -0.6647
12343SOL    HW142865   8.295   2.878   3.518  0.1698 -0.8264  1.0239
12343SOL    HW242866   8.427   2.833   3.577  1.3035 -0.3638 -1.0534
12344SOL     OW42867   6.585   3.462   2.240 -0.2531 -0.0133  0.0881
12344SOL    HW142868   6.563   3.555   2.241 -1.4095 -0.2751  0.8065
12344SOL    HW242869   6.678   3.460   2.262 -0.1871  0.9772 -0.0350
12345SOL     OW42870   2.838   6.937   3.335  0.5083 -0.3832 -0.2337
12345SOL    HW142871   2.842   6.945   3.240  1.2684 -0.8249 -0.2526
12345SOL    HW242872   2.858   7.025   3.367  1.6733 -0.5262 -0.4878
12346SOL     OW42873   8.851   9.294   0.245 -0.0785 -0.4594 -0.6895
12346SOL    HW142874   8.776   9.242   0.274 -0.7356  0.1397 -1.2693
12346SOL    HW242875   8.815   9.354   0.180  0.9099 -0.1508 -0.9712
12347SOL     OW42876   9.970   8.467   8.510  0.4316  0.8807 -0.3128
12347SOL    HW142877   9.882   8.494   8.535  0.7826  1.3249  0.5047
12347SOL    HW242878   9.957   8.388   8.458 -0.4207  0.5079  0.4263
12348SOL     OW42879   5.686   7.932  10.313  0.0643  0.0818 -0.3673
12348SOL    HW142880   5.641   7.931  10.228 -0.2222 -0.2937 -0.2167
12348SOL    HW242881   5.647   7.859  10.361  1.3915 -0.7789 -0.5312
12349SOL     OW42882   2.553   5.165   1.065 -0.0331 -0.0079 -0.2593
12349SOL    HW142883   2.476   5.186   1.012  0.1510 -0.0823 -0.5611
12349SOL    HW242884   2.586   5.083   1.028 -0.1791 -0.3179  0.2804
12350SOL     OW42885   5.184   3.369  10.507 -0.6333  0.3512 -0.6373
12350SOL    HW142886   5.091   3.383  10.524 -0.4702  2.8000 -1.3429
12350SOL    HW242887   5.223   3.353  10.593 -1.1242  3.7216  0.3793
12351SOL     OW42888   6.398   9.248   1.358  0.0324  0.0329 -0.1532
12351SOL    HW142889   6.347   9.200   1.423 -0.7693  0.3397 -0.5397
12351SOL    HW242890   6.427   9.326   1.404  1.5786 -0.9191  0.5633
12352SOL     OW42891   7.748   1.530   3.928  0.3776  0.2321 -0.0946
12352SOL    HW142892   7.824   1.484   3.964  0.4231  0.2489 -0.1698
12352SOL    HW242893   7.697   1.461   3.885  0.9601  0.4138 -1.0933
12353SOL     OW42894   8.022   8.597   9.865 -0.5672  0.1785 -0.3809
12353SOL    HW142895   8.114   8.622   9.853 -0.7188  1.2153  0.4986
12353SOL    HW242896   8.027   8.513   9.911 -0.0531  0.2904 -0.2147
12354SOL     OW42897   2.023   1.150   3.164  0.4964 -0.5697 -0.4279
12354SOL    HW142898   1.946   1.099   3.189  0.4219 -0.0260  0.5380
12354SOL    HW242899   2.093   1.086   3.154  0.8775 -0.7787  2.6338
12355SOL     OW42900   9.003   0.823   0.225 -0.3163 -0.6570 -0.3474
12355SOL    HW142901   9.049   0.843   0.306 -0.8373  1.6197 -0.5491
12355SOL    HW242902   9.073   0.807   0.161  0.0960 -1.8549  0.3798
12356SOL     OW42903   3.331   8.304   2.938 -0.3585 -0.1317 -0.5640
12356SOL    HW142904   3.380   8.326   2.859 -1.2504 -0.1772 -1.1529
12356SOL    HW242905   3.336   8.209   2.944  0.2190 -0.0808 -0.2205
12357SOL     OW42906   8.312   9.321   9.378 -0.0975 -0.1865 -0.8570
12357SOL    HW142907   8.297   9.321   9.283 -1.7072  0.2508 -0.6372
12357SOL    HW242908   8.226   9.302   9.415  0.5308 -0.4298  0.5248
12358SOL     OW42909   4.600   5.915   9.457 -0.0705  0.2448  0.2909
12358SOL    HW142910   4.608   5.820   9.468  2.2370  0.3868  0.3649
12358SOL    HW242911   4.559   5.925   9.371 -0.6593 -0.8163  0.4294
12359SOL     OW42912   2.056   6.048   3.973 -0.2379 -0.6444  0.3206
12359SOL    HW142913   2.146   6.016   3.978  0.2047  0.6429  0.8942
12359SOL    HW242914   2.061   6.126   3.918 -0.6702  0.4697  1.7922
12360SOL     OW42915   6.487   1.395   3.296 -0.6496  0.2577  0.0609
12360SOL    HW142916   6.444   1.404   3.381 -0.4110  1.8654  0.0344
12360SOL    HW242917   6.441   1.456   3.238 -0.0961 -0.0076 -0.6765
12361SOL     OW42918   3.087   8.837   4.084  0.4264 -0.0740 -0.2010
12361SOL    HW142919   3.077   8.865   3.993  2.0141  3.1346  0.4347
12361SOL    HW242920   3.173   8.794   4.086 -0.0768 -1.0959 -0.3959
12362SOL     OW42921   8.955   5.702   2.910  0.4370 -0.1437 -0.7411
12362SOL    HW142922   8.932   5.695   3.002  1.4648 -0.3095 -0.4811
12362SOL    HW242923   8.959   5.612   2.878 -1.7229 -0.0423 -1.4474
12363SOL     OW42924   9.617   8.047   0.890  0.1546 -0.2683  0.7842
12363SOL    HW142925   9.650   8.134   0.868 -2.2469  1.0638  2.0146
12363SOL    HW242926   9.660   8.025   0.972  0.3526  0.0364  0.7649
12364SOL     OW42927  10.064   7.356  10.634 -0.2923  0.5753 -0.0737
12364SOL    HW142928  10.032   7.379  10.547 -0.3620  2.1507  0.3359
12364SOL    HW242929  10.151   7.319  10.619 -1.1847 -1.3138 -0.9704
12365SOL     OW42930   6.883   3.171   0.075 -0.1077  0.2457 -0.1117
12365SOL    HW142931   6.965   3.124   0.067 -1.6504 -2.8153  0.6640
12365SOL    HW242932   6.891   3.220   0.157  0.8800 -0.1406  0.0339
12366SOL     OW42933   0.169   9.221   9.635 -0.2452  0.0248 -0.3461
12366SOL    HW142934   0.147   9.155   9.701 -0.1427  0.7902  0.4846
12366SOL    HW242935   0.264   9.229   9.640 -0.4462  2.2763  1.6665
12367SOL     OW42936   8.258   7.891   2.423  0.0222 -0.2784  0.3102
12367SOL    HW142937   8.320   7.849   2.363 -0.5960  1.4584 -1.6349
12367SOL    HW242938   8.292   7.979   2.436 -0.9450  0.0325  0.8598
12368SOL     OW42939   2.884   5.781   9.006 -0.1831  0.4348  0.2117
12368SOL    HW142940   2.947   5.849   9.027  0.5282 -0.0818 -0.2186
12368SOL    HW242941   2.833   5.770   9.087  0.9186  0.1739  0.8866
12369SOL     OW42942   7.409   5.433   6.514 -0.4872 -0.0942  0.6631
12369SOL    HW142943   7.437   5.514   6.556  0.6247 -0.5408  0.8151
12369SOL    HW242944   7.486   5.405   6.463 -1.4950 -0.0276 -0.9647
12370SOL     OW42945   2.888   6.673   5.302 -0.4070  0.4743 -0.3120
12370SOL    HW142946   2.836   6.601   5.338 -2.2431  1.4868 -0.8188
12370SOL    HW242947   2.952   6.693   5.370 -1.8507  0.3466  1.1468
12371SOL     OW42948   8.879   2.500   6.833 -0.1034 -0.0658  0.0110
12371SOL    HW142949   8.950   2.500   6.769 -0.6449  1.4866 -0.6463
12371SOL    HW242950   8.811   2.554   6.793 -2.0190 -2.1240  0.2624
12372SOL     OW42951   4.732   9.471   2.932 -0.1892 -0.2530  0.0980
12372SOL    HW142952   4.756   9.550   2.982 -0.2599 -1.1785  1.6588
12372SOL    HW242953   4.795   9.469   2.860  0.9511  0.3097  1.0353
12373SOL     OW42954   2.511   0.639   2.282 -0.3331  0.1962 -0.0224
12373SOL    HW142955   2.421   0.656   2.254 -0.4432 -1.1029 -0.5160
12373SOL    HW242956   2.526   0.702   2.353 -1.0412  1.5744 -1.0373
12374SOL     OW42957   2.612   2.761   3.977 -1.1311  0.2130  0.4625
12374SOL    HW142958   2.555   2.809   4.037 -0.4777 -0.8982  2.0419
12374SOL    HW242959   2.671   2.711   4.034  1.3589  1.1839 -1.1069
12375SOL     OW42960   2.871   7.386   7.670  0.4622 -0.2639  0.0117
12375SOL    HW142961   2.780   7.385   7.641  0.6245 -1.9367 -0.5209
12375SOL    HW242962   2.871   7.447   7.744 -1.1679 -0.5259  0.2765
12376SOL     OW42963  10.199   1.493   3.584 -0.4436  0.3442 -0.2115
12376SOL    HW142964  10.218   1.439   3.507 -0.7061  1.5799 -1.1789
12376SOL    HW242965  10.284   1.530   3.609 -0.2173 -0.7001  0.6190
12377SOL     OW42966   6.520   9.918   9.925  0.0393 -0.6042 -0.1775
12377SOL    HW142967   6.512   9.922   9.829 -1.7885 -3.2283 -0.2695
12377SOL    HW242968   6.590   9.855   9.940  0.1707 -0.3664  0.2078
12378SOL     OW42969   7.530   1.848   6.762  0.4327  0.4120  0.2183
12378SOL    HW142970   7.436   1.844   6.744  0.3051 -0.0735  0.9291
12378SOL    HW242971   7.538   1.815   6.851  1.5495 -2.2529 -0.7663
12379SOL     OW42972   0.605   7.984   1.000 -0.0621  0.0483 -0.1269
12379SOL    HW142973   0.640   8.074   1.004  0.9796 -0.3299 -0.3751
12379SOL    HW242974   0.681   7.931   0.977 -1.0192 -0.6995 -1.6452
12380SOL     OW42975   9.608   1.846   6.694 -0.6520  0.6572  0.5041
12380SOL    HW142976   9.674   1.795   6.648 -0.1506  2.0765 -0.4329
12380SOL    HW242977   9.525   1.800   6.676 -0.0916 -0.4296  0.6353
12381SOL     OW42978   9.770   2.842   1.681 -0.4705  0.6867 -0.1740
12381SOL    HW142979   9.778   2.923   1.632 -1.2768  1.4183  0.8661
12381SOL    HW242980   9.767   2.869   1.773  1.4504 -0.6596  0.3639
12382SOL     OW42981   7.327   8.754   3.451  0.4174 -0.9963  0.1675
12382SOL    HW142982   7.374   8.837   3.459  1.6288 -1.4801 -1.4653
12382SOL    HW242983   7.368   8.710   3.376 -0.4142 -2.9316  0.7900
12383SOL     OW42984   4.352   6.755   3.384 -0.1901 -0.2343 -0.2469
12383SOL    HW142985   4.407   6.757   3.462  1.2319  0.5701 -1.2171
12383SOL    HW242986   4.307   6.840   3.384 -0.9449 -0.6228  0.1888
12384SOL     OW42987   8.599   7.497   9.184 -0.0315 -0.9026 -0.3735
12384SOL    HW142988   8.656   7.467   9.254 -0.4471  0.4152  0.5724
12384SOL    HW242989   8.592   7.422   9.124  0.5319 -1.9637  0.8493
12385SOL     OW42990   5.018   6.255   4.270  0.6875 -0.6716  0.3029
12385SOL    HW142991   5.044   6.179   4.219  0.1759 -0.3261 -0.4964
12385SOL    HW242992   4.958   6.220   4.337  0.6385 -0.9994  0.0878
12386SOL     OW42993   0.237   0.839   8.099 -0.3746  0.1168 -0.6423
12386SOL    HW142994   0.146   0.855   8.077 -0.4390  1.3832  0.3814
12386SOL    HW242995   0.271   0.925   8.125  0.1071 -0.8723  2.4882
12387SOL     OW42996   2.668   3.872   8.195  0.0926 -0.1714 -0.8430
12387SOL    HW142997   2.641   3.839   8.109  0.2763 -1.9656 -0.2656
12387SOL    HW242998   2.751   3.917   8.179 -0.8151  1.2220 -1.8735
12388SOL     OW42999   3.365   2.723   9.353 -0.0531 -0.3609  0.2758
12388SOL    HW143000   3.283   2.687   9.318  0.4571  0.7481 -2.2275
12388SOL    HW243001   3.425   2.648   9.355 -0.2411 -0.5500 -0.8124
12389SOL     OW43002   5.645   6.283   4.775  0.0573 -0.0874  0.2687
12389SOL    HW143003   5.607   6.215   4.830 -0.2779 -0.3592 -0.2940
12389SOL    HW243004   5.571   6.322   4.728  0.4835 -0.9469 -1.2029
12390SOL     OW43005   8.871   2.923   7.762 -0.2555 -0.1775  0.3177
12390SOL    HW143006   8.967   2.924   7.753 -0.4260  1.5428 -2.1478
12390SOL    HW243007   8.852   2.993   7.823  0.0123  0.3625 -0.2061
12391SOL     OW43008   5.377   1.379   7.820 -1.3590 -0.1739 -0.4396
12391SOL    HW143009   5.338   1.464   7.839 -0.5032  0.1177  0.0742
12391SOL    HW243010   5.350   1.322   7.892 -1.3281 -0.1320 -0.3948
12392SOL     OW43011   4.583   0.999   9.607 -0.3674  0.0170  0.0383
12392SOL    HW143012   4.535   1.037   9.533 -0.0437 -0.3292 -0.3547
12392SOL    HW243013   4.587   1.070   9.671  0.9804  0.9675 -1.0340
12393SOL     OW43014   3.602   5.590   8.565 -0.7266  0.5947  0.3823
12393SOL    HW143015   3.517   5.565   8.530 -0.3731 -1.0869  0.6298
12393SOL    HW243016   3.606   5.549   8.651  0.4955  0.2453  0.1838
12394SOL     OW43017   2.617  10.237  10.229 -0.3636  0.2924  0.2267
12394SOL    HW143018   2.667  10.228  10.310 -1.6887 -0.8075  0.9627
12394SOL    HW243019   2.677  10.206  10.160 -0.5725 -2.8508  1.2879
12395SOL     OW43020   9.547   4.626   8.567  0.1711 -0.1242 -0.3358
12395SOL    HW143021   9.530   4.720   8.580 -2.6659 -0.2913 -2.0231
12395SOL    HW243022   9.482   4.582   8.622 -0.3614 -1.0231 -1.6412
12396SOL     OW43023   5.346   6.571   1.164  0.5300  0.5432 -0.0468
12396SOL    HW143024   5.313   6.510   1.097 -0.4555 -1.0417  1.7975
12396SOL    HW243025   5.357   6.654   1.117  0.6876 -0.7047 -2.3607
12397SOL     OW43026   5.430   8.417   3.163  0.3864  0.2693  0.4296
12397SOL    HW143027   5.336   8.424   3.147  0.2154 -1.2706  0.6291
12397SOL    HW243028   5.437   8.401   3.257  0.7703 -0.7979  0.2264
12398SOL     OW43029   8.895   3.188   7.603 -0.3403  0.0427  0.3277
12398SOL    HW143030   8.989   3.167   7.604  0.5056  3.2935  0.8370
12398SOL    HW243031   8.854   3.112   7.562  2.9255 -0.1669 -3.1833
12399SOL     OW43032   7.960   9.216   8.844  0.2108  0.5567 -0.3331
12399SOL    HW143033   8.024   9.217   8.773 -0.0017  0.9437 -0.5260
12399SOL    HW243034   7.921   9.303   8.842 -2.0307 -0.4017 -1.7776
12400SOL     OW43035   4.068   6.963   3.794 -0.5829  0.0387  0.7333
12400SOL    HW143036   4.050   6.869   3.784  0.1236 -0.3902  2.9381
12400SOL    HW243037   4.157   6.974   3.759 -0.6752 -0.0970  0.4499
12401SOL     OW43038   4.666   3.088   7.712  0.3364  0.6312  0.2863
12401SOL    HW143039   4.638   3.168   7.667  0.2421 -0.1701 -1.1244
12401SOL    HW243040   4.663   3.111   7.805 -2.3070  1.4306  0.0807
12402SOL     OW43041   3.203   7.202   3.501 -0.4661 -0.0561 -0.0107
12402SOL    HW143042   3.266   7.189   3.573 -0.7888 -1.7748  0.0057
12402SOL    HW243043   3.199   7.116   3.458 -2.6269  0.0652 -0.1358
12403SOL     OW43044   7.616   4.095  10.320  0.1473 -0.2882  0.4686
12403SOL    HW143045   7.680   4.148  10.272 -0.1367 -0.0797  0.3157
12403SOL    HW243046   7.539   4.151  10.328 -0.3639 -0.8697 -0.1961
12404SOL     OW43047   3.274   5.488   9.347 -1.2194 -0.6965 -0.2116
12404SOL    HW143048   3.351   5.441   9.313 -0.4974  0.9359 -0.9456
12404SOL    HW243049   3.211   5.485   9.275 -1.6935 -1.6264  0.2192
12405SOL     OW43050   3.483   5.292   6.798 -0.4356 -0.2749  0.1462
12405SOL    HW143051   3.525   5.347   6.864 -0.2617 -0.6820  0.3826
12405SOL    HW243052   3.390   5.312   6.804 -0.3147  0.4051 -0.1605
12406SOL     OW43053   2.955   8.950   9.558 -0.0342 -1.0881 -0.0726
12406SOL    HW143054   2.933   8.955   9.650 -0.6794 -0.3490 -0.2593
12406SOL    HW243055   2.926   8.862   9.531  0.4167 -1.4119  0.4787
12407SOL     OW43056   8.263   9.036  10.353  0.2297  0.2682 -0.2952
12407SOL    HW143057   8.303   9.123  10.347  0.8530 -0.0533 -0.9025
12407SOL    HW243058   8.173   9.053  10.381  0.2556  1.1287 -0.7051
12408SOL     OW43059   1.875   9.884   5.834 -0.3178 -0.1640 -0.4573
12408SOL    HW143060   1.830   9.809   5.795  0.5010 -0.7866 -0.2124
12408SOL    HW243061   1.967   9.870   5.814 -0.2382  1.2966 -1.2700
12409SOL     OW43062  10.670   6.221   3.354  0.0891  0.3197 -0.5820
12409SOL    HW143063  10.735   6.186   3.293  0.5222  3.4079 -2.0713
12409SOL    HW243064  10.715   6.223   3.439  1.3421  0.8088 -1.2377
12410SOL     OW43065   1.908   3.554   1.018  0.7155 -0.1592  0.4447
12410SOL    HW143066   1.882   3.541   0.927 -0.6842  0.1752  0.7693
12410SOL    HW243067   1.981   3.616   1.013 -0.6285  1.4540 -0.3758
12411SOL     OW43068   7.451   5.644   2.552 -0.0106 -0.5591  0.0434
12411SOL    HW143069   7.417   5.560   2.583  0.7184 -0.9995 -0.3271
12411SOL    HW243070   7.423   5.707   2.618  1.6387 -1.4921  1.7233
12412SOL     OW43071   2.193   7.726   8.458 -0.4711  0.2099 -0.3329
12412SOL    HW143072   2.132   7.685   8.519 -1.2699  0.5280 -0.9032
12412SOL    HW243073   2.137   7.776   8.398  0.3645  0.6984 -0.7206
12413SOL     OW43074   8.372   2.899   4.927  0.2890 -0.5389  0.3552
12413SOL    HW143075   8.407   2.942   4.849  1.4384 -1.6291  0.2506
12413SOL    HW243076   8.277   2.901   4.914  0.4778 -1.1926 -1.3523
12414SOL     OW43077   7.055   2.538   4.641 -0.4276  0.4052  0.3427
12414SOL    HW143078   7.042   2.454   4.685 -1.7039  0.5792  0.3219
12414SOL    HW243079   7.068   2.514   4.549  1.4132  0.1014  0.6417
12415SOL     OW43080   1.400   4.597   0.487  0.1072 -0.0198  0.6594
12415SOL    HW143081   1.304   4.601   0.487  0.0870  0.0233  2.2041
12415SOL    HW243082   1.425   4.606   0.579  1.4255 -3.6190  0.8392
12416SOL     OW43083   3.417  10.410   7.687  0.2421  0.0180  0.2856
12416SOL    HW143084   3.460  10.466   7.623  0.7019 -1.0797 -0.3855
12416SOL    HW243085   3.328  10.400   7.653 -0.6244  2.2399  1.6441
12417SOL     OW43086   7.327  10.320   9.479 -0.1950 -0.1006 -0.1161
12417SOL    HW143087   7.416  10.312   9.513 -0.6683 -1.0344  0.9967
12417SOL    HW243088   7.308  10.414   9.483  0.6430  0.0769 -0.1184
12418SOL     OW43089   0.014   1.665   2.364 -0.1232 -0.2771 -0.3992
12418SOL    HW143090   0.051   1.668   2.452  1.8234 -1.4325 -1.1040
12418SOL    HW243091  -0.052   1.596   2.367 -0.1645 -0.2173  0.1664
12419SOL     OW43092   4.355   8.332   3.148  0.3103  1.0784  0.2667
12419SOL    HW143093   4.266   8.334   3.183 -0.0757  0.5446 -0.6395
12419SOL    HW243094   4.343   8.319   3.053  1.3642 -2.0104  0.4385
12420SOL     OW43095   0.851   0.649   3.799  0.0154 -0.1512 -0.1939
12420SOL    HW143096   0.861   0.620   3.708  2.1252 -0.4440  0.0719
12420SOL    HW243097   0.891   0.579   3.851 -0.5981  0.3026  0.9359
12421SOL     OW43098   7.637   8.175   1.099  0.1746 -0.5999 -0.3111
12421SOL    HW143099   7.545   8.198   1.086  0.5641  0.7471 -0.8859
12421SOL    HW243100   7.643   8.151   1.192 -0.7086 -0.4238 -0.1991
12422SOL     OW43101   8.579   1.338  10.339 -0.2119  0.1439 -0.3675
12422SOL    HW143102   8.567   1.254  10.295  0.6221 -0.2242  0.0875
12422SOL    HW243103   8.518   1.336  10.413  0.3558 -0.3946  0.0968
12423SOL     OW43104   5.588   4.818   1.662 -0.0516  0.4165 -0.3020
12423SOL    HW143105   5.668   4.778   1.697 -2.0213 -0.3746  3.8013
12423SOL    HW243106   5.537   4.744   1.629 -0.3575  0.5367 -0.0998
12424SOL     OW43107   2.469   6.179   8.358  0.2311  0.3858 -0.3670
12424SOL    HW143108   2.524   6.101   8.350 -0.7894 -0.5981  1.4115
12424SOL    HW243109   2.530   6.250   8.375  1.1517 -0.1137 -1.4726
12425SOL     OW43110   9.885   4.893   3.311  0.0484  0.3253 -0.3960
12425SOL    HW143111   9.814   4.854   3.362 -0.0325  0.5313 -0.3512
12425SOL    HW243112   9.925   4.956   3.371 -0.6666  1.2886 -0.9107
12426SOL     OW43113   2.987   6.442   2.586 -0.1194 -0.1263 -0.0415
12426SOL    HW143114   2.938   6.361   2.596  0.0722 -0.2764 -0.3061
12426SOL    HW243115   3.071   6.415   2.549 -0.6259  0.3485 -1.6260
12427SOL     OW43116  10.507   2.347   6.681 -0.2824  0.0927  0.0921
12427SOL    HW143117  10.504   2.425   6.738 -3.4828  0.3244 -0.2168
12427SOL    HW243118  10.452   2.283   6.726  0.5525 -1.2362 -0.7304
12428SOL     OW43119   8.543   7.802   7.552  0.4124  0.3760 -0.1517
12428SOL    HW143120   8.544   7.716   7.510  0.4760  0.8298 -1.0867
12428SOL    HW243121   8.560   7.783   7.645 -1.6652 -0.8281  0.0567
12429SOL     OW43122   5.616   8.718   9.905 -0.1660 -0.4467 -0.5159
12429SOL    HW143123   5.612   8.657   9.979 -1.7549  1.5552  1.1792
12429SOL    HW243124   5.708   8.742   9.898 -0.0728 -0.1249  1.3396
12430SOL     OW43125   7.488   6.953   2.758 -0.1048 -0.4369  0.8505
12430SOL    HW143126   7.576   6.956   2.719  0.4853 -1.5968  2.0124
12430SOL    HW243127   7.430   6.985   2.688  1.0813 -0.9614 -0.4325
12431SOL     OW43128   8.100   9.762   9.562  0.5096  0.1862  0.5394
12431SOL    HW143129   8.025   9.723   9.518 -1.1418  2.1955  1.4078
12431SOL    HW243130   8.139   9.691   9.612 -0.1125 -1.1600 -0.8237
12432SOL     OW43131   5.836   2.625   4.399 -0.0378 -0.9672 -0.1399
12432SOL    HW143132   5.743   2.642   4.388 -0.2905  0.1797  2.7908
12432SOL    HW243133   5.840   2.545   4.452  0.7176 -1.7264 -1.3017
12433SOL     OW43134   4.225   4.547   2.125 -0.0018 -0.2867 -0.9045
12433SOL    HW143135   4.186   4.465   2.094  1.4130 -0.1601 -3.3026
12433SOL    HW243136   4.167   4.616   2.090  1.1846 -0.1723 -2.7925
12434SOL     OW43137   7.568   9.887   1.488 -0.2802  0.1724  0.3682
12434SOL    HW143138   7.507   9.848   1.425  1.4481  0.0583 -1.2977
12434SOL    HW243139   7.613   9.955   1.440  2.2888 -1.0122  0.9316
12435SOL     OW43140   0.389   2.520   3.034  0.3870  0.7281  0.2228
12435SOL    HW143141   0.434   2.583   2.978  0.0721  0.7926  0.0418
12435SOL    HW243142   0.304   2.559   3.050  0.3571  0.5584  0.4826
12436SOL     OW43143   1.108   5.414   9.089  0.2931 -0.3170 -0.2137
12436SOL    HW143144   1.031   5.365   9.060  0.7186 -0.9358 -0.3198
12436SOL    HW243145   1.161   5.350   9.137  0.9100  0.0037 -0.4490
12437SOL     OW43146   7.948   9.197   7.799  0.0590  0.9351  0.0199
12437SOL    HW143147   7.985   9.260   7.737  0.9946 -0.1766 -0.5815
12437SOL    HW243148   7.864   9.171   7.759  1.0724 -0.4759 -1.3155
12438SOL     OW43149   5.274   0.937   9.344 -0.2034  0.3053  0.3128
12438SOL    HW143150   5.210   0.899   9.403 -0.5486  1.1458  0.4990
12438SOL    HW243151   5.251   1.030   9.340  1.2463  0.7080  0.7100
12439SOL     OW43152   4.718   3.860   1.105 -0.7318  0.2758  0.1786
12439SOL    HW143153   4.643   3.829   1.053 -0.0745  0.7934 -1.1374
12439SOL    HW243154   4.716   3.955   1.094  0.4845  0.2478 -0.4388
12440SOL     OW43155   5.689   8.957   0.625  0.0174  0.3721 -0.1748
12440SOL    HW143156   5.619   9.023   0.627 -0.7118 -0.3934 -0.1223
12440SOL    HW243157   5.643   8.874   0.614  0.8315 -0.2950  1.3083
12441SOL     OW43158   6.846   3.172   4.771 -0.2023  0.3164 -0.4790
12441SOL    HW143159   6.921   3.156   4.714  0.8792  1.6750  0.4933
12441SOL    HW243160   6.839   3.093   4.824  0.0719 -0.1045 -1.0519
12442SOL     OW43161   4.680   6.645   1.194 -0.2772  0.8444  0.0716
12442SOL    HW143162   4.745   6.618   1.259 -1.0902 -1.2734  0.0844
12442SOL    HW243163   4.664   6.737   1.214 -0.5429  0.2790  2.9422
12443SOL     OW43164   7.734   1.741  10.374  0.1992 -0.4994  0.4893
12443SOL    HW143165   7.768   1.655  10.401 -0.8260 -1.0299  0.1810
12443SOL    HW243166   7.649   1.747  10.419  0.4745  0.5693  0.8804
12444SOL     OW43167   2.453  10.055   7.632 -0.3311  0.6427 -0.0592
12444SOL    HW143168   2.384  10.089   7.689 -0.0639 -0.6831  1.1171
12444SOL    HW243169   2.428   9.963   7.616 -0.8004  1.1313 -2.7428
12445SOL     OW43170   4.104   8.707   1.984 -0.1345 -0.3540  0.6966
12445SOL    HW143171   4.182   8.737   1.937 -0.6750 -0.2946 -0.1866
12445SOL    HW243172   4.095   8.768   2.057  0.4155 -0.1210  0.5791
12446SOL     OW43173   6.035   9.605   3.122 -0.1671  0.0084 -0.1157
12446SOL    HW143174   5.949   9.568   3.099 -0.0347 -0.8360  0.6779
12446SOL    HW243175   6.014   9.691   3.158 -0.7662 -0.4476  0.6838
12447SOL     OW43176   7.352   0.969   4.787  0.0605 -0.0166 -0.3069
12447SOL    HW143177   7.373   1.062   4.775 -1.5281  0.6607  1.5062
12447SOL    HW243178   7.391   0.947   4.872 -1.7123 -0.2323  0.5036
12448SOL     OW43179   2.754   8.241   3.595 -0.1122  0.3658 -0.1782
12448SOL    HW143180   2.722   8.323   3.556 -1.8099  0.2338  0.8369
12448SOL    HW243181   2.708   8.235   3.679  0.7323 -1.1446  0.2118
12449SOL     OW43182   2.679   1.379   7.035 -0.5826 -0.4202 -0.6659
12449SOL    HW143183   2.626   1.303   7.058 -0.4973 -0.5003 -0.7315
12449SOL    HW243184   2.640   1.451   7.083  1.4122 -1.0885  2.2375
12450SOL     OW43185  10.716   4.435   3.046  0.2273 -0.4877 -0.2093
12450SOL    HW143186  10.722   4.367   3.113  0.6179 -2.1429 -1.8203
12450SOL    HW243187  10.807   4.451   3.019  0.5318  3.0546  2.2559
12451SOL     OW43188   3.482   4.157   7.621 -0.7066 -0.2199 -0.0931
12451SOL    HW143189   3.481   4.244   7.580  1.9689 -0.7713 -1.5252
12451SOL    HW243190   3.516   4.099   7.554 -0.6680 -2.0571  1.4378
12452SOL     OW43191   5.454   7.382   4.673 -0.1634  0.3548  0.5596
12452SOL    HW143192   5.498   7.319   4.731 -2.2379  0.1745  2.0202
12452SOL    HW243193   5.493   7.466   4.695  0.4420  0.0163  0.8118
12453SOL     OW43194   9.059   1.678   2.317 -0.4969 -0.2673  0.0159
12453SOL    HW143195   9.135   1.619   2.325 -0.8352 -0.5235  1.7777
12453SOL    HW243196   9.082   1.754   2.370 -1.2097 -0.0633  0.0454
12454SOL     OW43197   5.871   3.620   1.518  0.0038  0.0574  0.1827
12454SOL    HW143198   5.919   3.659   1.591 -0.3831  2.1664 -0.6205
12454SOL    HW243199   5.916   3.537   1.501  0.7276 -0.0013  2.1342
12455SOL     OW43200   0.113   9.149   7.048 -0.2928 -0.0879  0.0439
12455SOL    HW143201   0.021   9.139   7.072 -0.2691  0.2599  0.2790
12455SOL    HW243202   0.113   9.218   6.982 -0.6117 -2.3238 -2.5204
12456SOL     OW43203   6.651   2.631   3.381  0.4866 -0.0553 -0.1309
12456SOL    HW143204   6.560   2.603   3.393  0.4670 -0.5362 -1.3076
12456SOL    HW243205   6.675   2.669   3.466 -0.9123  0.3835  0.1006
12457SOL     OW43206   6.305   5.455   7.855 -0.1476 -0.7354  0.0201
12457SOL    HW143207   6.257   5.391   7.802  0.8201 -2.1789  0.8337
12457SOL    HW243208   6.292   5.426   7.945 -0.0253  0.4757  0.4444
12458SOL     OW43209   4.873   6.265   0.121  0.0924 -0.2252 -0.1725
12458SOL    HW143210   4.882   6.175   0.152 -1.6542 -0.8772 -1.3541
12458SOL    HW243211   4.958   6.305   0.136  1.0439 -2.2102  0.0020
12459SOL     OW43212   3.440   1.549   0.165 -0.0674  0.2835 -0.0617
12459SOL    HW143213   3.349   1.549   0.196  0.3372  0.1133  1.1746
12459SOL    HW243214   3.484   1.483   0.219  0.5846 -0.3673 -1.3340
12460SOL     OW43215   3.561   6.198  10.686 -0.2082  0.3812 -0.5688
12460SOL    HW143216   3.556   6.246  10.604  1.7318 -1.0251 -1.6115
12460SOL    HW243217   3.650   6.214  10.718 -0.6282  0.1694  0.7978
12461SOL     OW43218   8.206   1.067   3.506 -0.1972 -0.2818 -0.4381
12461SOL    HW143219   8.215   1.050   3.412  2.0099 -0.9134 -0.1799
12461SOL    HW243220   8.273   1.012   3.546 -0.8408  0.2679  1.4935
12462SOL     OW43221   2.415  10.380   9.943  0.0358  0.6157 -0.1583
12462SOL    HW143222   2.415  10.465   9.985  1.0986  1.4752 -1.8016
12462SOL    HW243223   2.331  10.375   9.897 -0.1619  0.6265  0.1990
12463SOL     OW43224   8.932   7.101  10.600  0.0606 -0.5323 -0.2838
12463SOL    HW143225   9.014   7.135  10.637  0.0749 -1.2914  0.4127
12463SOL    HW243226   8.936   7.126  10.507  1.1470 -0.6805 -0.2947
12464SOL     OW43227   8.313   6.627   8.233 -0.8379  0.1247 -0.7176
12464SOL    HW143228   8.225   6.657   8.212 -0.0696  1.9408 -1.5276
12464SOL    HW243229   8.361   6.707   8.255  0.4174 -0.9147  0.4888
12465SOL     OW43230   3.589  10.345   2.325  0.0100  0.4926  0.5905
12465SOL    HW143231   3.662  10.337   2.386  0.2871  1.5877  0.4213
12465SOL    HW243232   3.564  10.437   2.330 -0.9641  0.2630  0.1824
12466SOL     OW43233   2.380   6.071   3.080 -0.6314  0.2613 -0.2112
12466SOL    HW143234   2.388   6.165   3.064  2.9747  0.4627  1.6774
12466SOL    HW243235   2.386   6.030   2.994  1.1056  1.7066 -0.8229
12467SOL     OW43236   0.335   2.021   3.275  0.2369  0.3389  0.4482
12467SOL    HW143237   0.344   2.105   3.231 -1.0729  0.7530  0.9126
12467SOL    HW243238   0.307   1.960   3.207 -4.0863  1.4554  0.9012
12468SOL     OW43239   9.444   1.057   6.200 -0.2970  0.0713  0.6448
12468SOL    HW143240   9.422   0.964   6.201 -1.3462  0.3015  0.6182
12468SOL    HW243241   9.502   1.067   6.124 -1.9907 -0.2074 -0.7588
12469SOL     OW43242   0.473  10.346  10.514 -0.0662  0.4844  0.2211
12469SOL    HW143243   0.381  10.333  10.535  0.2118 -2.9309 -0.0783
12469SOL    HW243244   0.494  10.433  10.548 -2.3702 -0.2260  4.0115
12470SOL     OW43245   2.080   8.865   1.295  0.1292  0.6201  0.9548
12470SOL    HW143246   1.993   8.857   1.334 -0.2456 -0.5602 -0.0555
12470SOL    HW243247   2.141   8.855   1.368 -0.5702 -0.2080  1.4397
12471SOL     OW43248   1.439   4.351   4.357 -0.0119  0.3803  0.2193
12471SOL    HW143249   1.508   4.289   4.334 -1.1981 -0.2373 -1.9111
12471SOL    HW243250   1.358   4.305   4.338 -0.9818  1.8641  0.6047
12472SOL     OW43251   7.611   5.203   5.086  0.0388 -0.1576 -0.3331
12472SOL    HW143252   7.690   5.195   5.032 -0.3099  1.8345 -1.2226
12472SOL    HW243253   7.638   5.169   5.172  1.0875 -1.8655 -1.2696
12473SOL     OW43254   6.987   9.272   7.130  0.2821 -0.0478 -0.1189
12473SOL    HW143255   6.932   9.232   7.062  0.8315 -0.9953 -0.0290
12473SOL    HW243256   7.011   9.357   7.094 -1.3102  0.4376 -0.1217
12474SOL     OW43257   9.948   0.859   6.149  0.0302 -0.1678  0.0285
12474SOL    HW143258  10.041   0.882   6.139 -0.2234  1.1186  0.5063
12474SOL    HW243259   9.947   0.793   6.219  0.4967  0.5016  0.6743
12475SOL     OW43260   0.448   9.563   6.557  0.6452  0.1642 -0.4642
12475SOL    HW143261   0.451   9.609   6.473  0.4762  0.4431 -0.3201
12475SOL    HW243262   0.407   9.626   6.617  0.5264 -0.1312 -0.2352
12476SOL     OW43263   3.269   9.469  10.589  0.2224 -0.0161  0.3209
12476SOL    HW143264   3.335   9.414  10.633  0.3219 -1.0925 -1.0929
12476SOL    HW243265   3.257   9.544  10.648  3.4345  0.7353  0.1870
12477SOL     OW43266   3.802   6.285  10.401 -0.4566 -0.1386  0.0860
12477SOL    HW143267   3.812   6.272  10.306  0.2905 -2.2733  0.4035
12477SOL    HW243268   3.886   6.322  10.429 -1.2983  2.2307 -0.2823
12478SOL     OW43269   1.655   8.710   8.256  0.4880 -0.0478 -0.4056
12478SOL    HW143270   1.587   8.760   8.302  0.7163 -1.0507  1.1004
12478SOL    HW243271   1.738   8.749   8.286  0.6925 -1.5766  1.2087
12479SOL     OW43272   0.056   2.106   4.910  0.0730 -0.3293  0.2869
12479SOL    HW143273  -0.015   2.151   4.864  0.9346  0.5695 -0.2104
12479SOL    HW243274   0.018   2.022   4.936 -0.0695 -1.6203 -3.4329
12480SOL     OW43275   5.061   8.983  10.190 -0.1047 -0.0611  0.1533
12480SOL    HW143276   5.068   9.070  10.228 -2.9535 -0.2149  1.2349
12480SOL    HW243277   5.001   8.993  10.116 -2.5460 -1.4248  1.8073
12481SOL     OW43278  10.537   9.368   7.542  0.2430 -0.2241  0.4289
12481SOL    HW143279  10.556   9.330   7.628 -0.2541 -1.2437  0.1103
12481SOL    HW243280  10.601   9.328   7.484  0.3134  0.1496  0.2462
12482SOL     OW43281   8.341   1.369   1.678  0.0619  0.7527  0.2167
12482SOL    HW143282   8.325   1.348   1.586  1.0813  1.2340 -0.0846
12482SOL    HW243283   8.386   1.293   1.713 -0.5577  0.4599  0.4002
12483SOL     OW43284   5.131   9.419   0.840  0.0506 -0.5272  0.0577
12483SOL    HW143285   5.191   9.494   0.849 -1.0764  0.5132 -0.6851
12483SOL    HW243286   5.168   9.367   0.769  0.8661 -0.7153  0.6009
12484SOL     OW43287   1.793   9.773   6.171 -0.1603  0.3722 -0.1464
12484SOL    HW143288   1.775   9.737   6.258  0.0362 -0.6699 -0.5218
12484SOL    HW243289   1.883   9.748   6.153 -0.2737  0.3810 -0.7458
12485SOL     OW43290   6.650   7.527   7.493 -0.0059 -0.2407  0.0737
12485SOL    HW143291   6.605   7.562   7.570  0.1363  1.0561 -0.4092
12485SOL    HW243292   6.732   7.491   7.528 -0.7026 -1.2413  0.7481
12486SOL     OW43293   8.663   4.466   8.109  0.1129 -0.0850  0.4446
12486SOL    HW143294   8.747   4.497   8.144  0.8933 -1.0395 -0.5028
12486SOL    HW243295   8.674   4.372   8.099  0.1546  0.1244 -2.7183
12487SOL     OW43296   3.869   6.294   6.653 -0.0666  0.7388  0.0396
12487SOL    HW143297   3.844   6.249   6.734 -1.7638  0.6476 -0.4870
12487SOL    HW243298   3.868   6.225   6.587 -0.5693  1.1540 -0.3914
12488SOL     OW43299   9.069   4.373   2.710 -0.1669 -0.7468  0.0526
12488SOL    HW143300   9.036   4.328   2.788  0.4719 -1.2719  0.0270
12488SOL    HW243301   9.016   4.452   2.704  0.7491  0.0338  1.8550
12489SOL     OW43302   1.374   8.243   5.711  0.2436 -0.6734  0.5053
12489SOL    HW143303   1.325   8.325   5.715  1.5373  0.2611 -1.5472
12489SOL    HW243304   1.327   8.185   5.771 -1.4896  1.1371  1.0142
12490SOL     OW43305   6.506   0.198   6.858 -0.0863 -0.2888 -0.1898
12490SOL    HW143306   6.554   0.214   6.939  0.1877  1.4678 -0.6696
12490SOL    HW243307   6.573   0.166   6.797 -0.1026 -0.6405 -0.0287
12491SOL     OW43308   5.433   5.363   5.060  0.2951  0.0067  0.0341
12491SOL    HW143309   5.431   5.452   5.025 -1.9829 -0.5709 -1.4972
12491SOL    HW243310   5.505   5.320   5.013 -1.0489 -0.0056 -2.1204
12492SOL     OW43311  10.450   4.298  10.278  0.1008  0.2198 -0.0854
12492SOL    HW143312  10.389   4.286  10.351 -0.3528  1.7729 -0.1734
12492SOL    HW243313  10.507   4.369  10.306 -1.0250  1.9035 -1.7896
12493SOL     OW43314  10.260   6.811   5.205  0.0245 -0.1789  0.0235
12493SOL    HW143315  10.223   6.842   5.122  2.5248 -0.4696 -1.3157
12493SOL    HW243316  10.296   6.725   5.185 -0.0646 -0.6338  1.6596
12494SOL     OW43317   0.362   9.644   5.699 -0.2602 -0.9224 -0.7091
12494SOL    HW143318   0.453   9.635   5.671 -0.0159  1.6895 -1.0785
12494SOL    HW243319   0.361   9.728   5.746 -2.2845 -1.3783  0.1471
12495SOL     OW43320   4.220   3.225   6.446 -0.2933 -0.9344 -0.1574
12495SOL    HW143321   4.184   3.301   6.401  2.8036  0.0250 -1.2583
12495SOL    HW243322   4.144   3.168   6.460 -1.9127 -0.1291 -4.2207
12496SOL     OW43323   8.438   9.797   1.788 -0.1314 -0.3730  0.7321
12496SOL    HW143324   8.401   9.732   1.729 -0.6520  0.3907  0.1874
12496SOL    HW243325   8.517   9.757   1.823  0.3213 -0.7553 -0.6775
12497SOL     OW43326   1.305   9.810   1.233  0.6655  0.0694  0.3469
12497SOL    HW143327   1.379   9.868   1.253 -1.0646  2.6238 -0.1827
12497SOL    HW243328   1.320   9.733   1.287  1.1671  2.5627  4.1494
12498SOL     OW43329   0.622   9.046   0.684 -0.1887  0.5743 -0.3322
12498SOL    HW143330   0.693   9.110   0.689 -0.6153  1.0829 -0.6507
12498SOL    HW243331   0.653   8.971   0.734  0.6297  0.7396 -0.5786
12499SOL     OW43332   5.275   5.903   8.093 -0.2355 -0.3659  0.3531
12499SOL    HW143333   5.358   5.930   8.133  1.2118 -1.4892 -1.6741
12499SOL    HW243334   5.270   5.809   8.111 -1.7164 -0.1268  1.4303
12500SOL     OW43335   2.486   2.842   3.033 -0.2194  0.4206  0.0048
12500SOL    HW143336   2.497   2.863   3.126  0.9817  1.8408 -0.3966
12500SOL    HW243337   2.521   2.754   3.024  0.6308  0.6605  0.7498
12501SOL     OW43338   9.828   6.751   9.214 -0.3465  0.7123 -0.0163
12501SOL    HW143339   9.790   6.831   9.250 -0.8180  1.0998 -1.3264
12501SOL    HW243340   9.810   6.684   9.281 -1.4431  1.3358  0.3418
12502SOL     OW43341   0.704   4.554   7.223  0.3910 -0.4134 -0.4179
12502SOL    HW143342   0.734   4.463   7.216 -2.2260 -1.3215 -0.8981
12502SOL    HW243343   0.617   4.553   7.184  0.5232  2.4642 -0.9609
12503SOL     OW43344  10.291   4.255   9.787 -0.1473 -0.6424 -0.1518
12503SOL    HW143345  10.234   4.317   9.742  0.3116  0.0534  0.2018
12503SOL    HW243346  10.284   4.279   9.879  1.8574  0.4391 -0.2442
12504SOL     OW43347   5.442   8.035   2.848  0.6400 -0.3157  0.8570
12504SOL    HW143348   5.453   8.019   2.754 -0.0207  0.1013  0.7017
12504SOL    HW243349   5.452   8.130   2.857 -1.1811 -0.0897  0.9167
12505SOL     OW43350  10.592   8.321   3.153 -0.4086  0.4266 -0.1387
12505SOL    HW143351  10.615   8.240   3.198 -0.3479 -0.0383 -0.9851
12505SOL    HW243352  10.586   8.296   3.061 -0.0829  1.4524 -0.4467
12506SOL     OW43353   1.774   8.579   6.239 -0.1775  0.5808  0.7423
12506SOL    HW143354   1.740   8.570   6.150  0.2290  3.4203  0.2285
12506SOL    HW243355   1.831   8.502   6.250  0.5252  0.6309 -1.8209
12507SOL     OW43356   5.554   3.228   4.382  0.0043  0.3304 -0.6871
12507SOL    HW143357   5.526   3.232   4.291 -1.3319  0.5729 -0.2941
12507SOL    HW243358   5.474   3.247   4.432  1.0839  1.9132  0.5036
12508SOL     OW43359   5.712   8.370   7.917  0.1794  0.3580 -0.3037
12508SOL    HW143360   5.771   8.446   7.914  1.9568 -0.9784 -2.1032
12508SOL    HW243361   5.698   8.355   8.010  0.6655  2.2219  0.1194
12509SOL     OW43362   2.243   6.197   8.198  0.3792  0.1589 -0.1711
12509SOL    HW143363   2.282   6.234   8.119 -0.8635  0.8669 -0.4905
12509SOL    HW243364   2.317   6.176   8.255  1.3775 -1.4772 -1.9665
12510SOL     OW43365  10.193   9.989   6.812 -0.1023 -0.4320 -0.0214
12510SOL    HW143366  10.286   9.985   6.835 -0.0857  1.4342  0.3990
12510SOL    HW243367  10.191   9.976   6.718  0.9897  2.6450 -0.6159
12511SOL     OW43368   0.663   7.383  10.518 -0.4183 -0.5668  0.4054
12511SOL    HW143369   0.739   7.406  10.465 -0.3953  2.5898  1.6033
12511SOL    HW243370   0.589   7.389  10.458  0.0018 -1.3718 -0.2211
12512SOL     OW43371   5.374   2.687   0.361  0.0017  0.3726 -0.8841
12512SOL    HW143372   5.447   2.648   0.312  0.1579  0.0804 -0.4303
12512SOL    HW243373   5.308   2.618   0.364  0.2641  0.1415 -0.1100
12513SOL     OW43374   4.825   4.313  10.597 -1.0388  0.0471  0.3858
12513SOL    HW143375   4.770   4.299  10.521  0.4404  2.5107 -1.2806
12513SOL    HW243376   4.897   4.367  10.565 -0.4241  1.3283  3.5516
12514SOL     OW43377   5.176   0.550   4.125  0.1153  0.0036  0.1686
12514SOL    HW143378   5.098   0.558   4.181 -0.0291  0.4780 -0.0969
12514SOL    HW243379   5.177   0.457   4.100 -0.6834  0.1031 -0.2790
12515SOL     OW43380   2.848   5.896   3.103  0.2345  0.6282  0.0294
12515SOL    HW143381   2.807   5.940   3.029  0.0957 -0.1739 -0.3921
12515SOL    HW243382   2.843   5.958   3.175 -0.7365  0.9632 -0.3116
12516SOL     OW43383   7.430   6.510   5.026  0.2503  0.5862 -0.2503
12516SOL    HW143384   7.389   6.485   4.943  2.0881  1.6988 -1.5718
12516SOL    HW243385   7.512   6.461   5.029  0.0341  0.2584  1.1433
12517SOL     OW43386   2.628   0.088   8.727  0.8468 -0.5200  0.1004
12517SOL    HW143387   2.538   0.082   8.758  1.1839  0.6739  1.3824
12517SOL    HW243388   2.653  -0.003   8.709 -0.0007 -1.0631  1.5319
12518SOL     OW43389   4.634  10.466  10.410 -0.2764  0.0630  0.2378
12518SOL    HW143390   4.543  10.498  10.414 -0.3052  0.1347 -0.7035
12518SOL    HW243391   4.683  10.540  10.373  0.0915 -0.1229  0.3583
12519SOL     OW43392   9.645   9.890   3.068 -0.3229 -0.9005  0.3209
12519SOL    HW143393   9.574   9.928   3.119  0.4239  1.5226 -0.3131
12519SOL    HW243394   9.612   9.887   2.978  0.2451 -0.0135  0.0686
12520SOL     OW43395   0.173  10.680   9.003  0.5632 -0.5009 -0.1021
12520SOL    HW143396   0.129  10.761   9.027 -0.9436 -1.1509 -0.5161
12520SOL    HW243397   0.156  10.620   9.076 -0.0049 -1.0263 -0.6479
12521SOL     OW43398   3.489   3.150   7.851  0.0036  0.2930 -0.6035
12521SOL    HW143399   3.420   3.217   7.849 -0.0026  0.3112  0.2128
12521SOL    HW243400   3.462   3.090   7.920  1.5692  1.1244  0.8018
12522SOL     OW43401   1.992   2.134   2.681 -0.3334 -0.0651  0.0607
12522SOL    HW143402   1.910   2.100   2.718  0.4503  0.9954  3.0783
12522SOL    HW243403   2.052   2.138   2.756  3.0684 -2.2254 -2.2312
12523SOL     OW43404   7.454   3.515   5.967  0.2088 -0.0636  0.1619
12523SOL    HW143405   7.363   3.517   5.994 -0.2734  0.9418 -1.4212
12523SOL    HW243406   7.471   3.423   5.944 -1.4337  0.2383 -2.6910
12524SOL     OW43407   0.475   0.604   2.931  0.2733 -0.5851  0.2856
12524SOL    HW143408   0.533   0.547   2.881  0.0603  0.7470 -1.5678
12524SOL    HW243409   0.527   0.628   3.009  2.4819  0.8922 -1.4950
12525SOL     OW43410   8.439   7.513  10.443  0.7280  0.0428 -0.0969
12525SOL    HW143411   8.362   7.549  10.397 -0.1376  0.3533  1.5184
12525SOL    HW243412   8.409   7.429  10.478  1.3447 -0.1567 -0.0370
12526SOL     OW43413   4.754   3.068   5.881  0.0432 -0.7570 -0.4312
12526SOL    HW143414   4.715   3.122   5.813  1.3092  0.0050 -0.5993
12526SOL    HW243415   4.707   3.091   5.961 -0.0219 -0.0439 -0.6684
12527SOL     OW43416   5.390   3.048   7.869  0.1840  1.0984  0.1957
12527SOL    HW143417   5.337   3.049   7.789  0.2957 -0.9009  0.0467
12527SOL    HW243418   5.335   3.006   7.934  1.1697 -0.0220  0.3309
12528SOL     OW43419   8.417   2.090   2.655 -0.3160 -0.2245  0.6009
12528SOL    HW143420   8.336   2.140   2.655 -0.7258 -0.8784 -0.2650
12528SOL    HW243421   8.482   2.151   2.619  0.1310  1.0963  3.3871
12529SOL     OW43422   7.462   9.618   7.019 -0.4981 -0.3139  0.4502
12529SOL    HW143423   7.435   9.559   6.949 -0.5890  0.0888  0.1419
12529SOL    HW243424   7.425   9.579   7.098 -0.4019 -0.7664  0.2761
12530SOL     OW43425   2.262  10.207   7.170  0.5069  0.3152 -0.1623
12530SOL    HW143426   2.340  10.179   7.219  0.7530 -1.8053 -1.6563
12530SOL    HW243427   2.274  10.172   7.082 -0.2308  3.4835 -1.6599
12531SOL     OW43428   7.060   7.179   3.184  0.3248 -0.2685 -0.3764
12531SOL    HW143429   6.981   7.198   3.236  0.2510 -2.3701  0.3401
12531SOL    HW243430   7.067   7.255   3.125 -1.0611  0.9478  0.9145
12532SOL     OW43431   1.653  10.547   6.408  0.0078  0.1934 -0.2193
12532SOL    HW143432   1.652  10.642   6.423  1.0290  0.2981 -0.7179
12532SOL    HW243433   1.583  10.532   6.344 -0.1025  0.6231 -0.1998
12533SOL     OW43434   1.984   5.163   8.983 -0.3523  0.2949 -0.3236
12533SOL    HW143435   1.904   5.129   8.944  0.2445  1.2226 -2.4985
12533SOL    HW243436   2.020   5.089   9.033 -1.5023 -0.7511 -1.0095
12534SOL     OW43437   3.685   6.668   2.981 -0.1678  0.4058  0.6691
12534SOL    HW143438   3.683   6.581   2.942 -0.9488  0.2658  0.9964
12534SOL    HW243439   3.637   6.658   3.063  1.1976  0.7558  1.5447
12535SOL     OW43440  10.289  10.100   5.929 -0.0059 -0.3798 -0.1787
12535SOL    HW143441  10.320  10.023   5.977 -0.7994  0.7821  2.3325
12535SOL    HW243442  10.250  10.156   5.995 -1.9106  1.0103 -2.3140
12536SOL     OW43443   3.444   4.826   5.350  0.5173  0.1844  0.1221
12536SOL    HW143444   3.482   4.746   5.387 -2.2172 -1.3408 -0.1079
12536SOL    HW243445   3.447   4.889   5.421 -1.1736 -1.5111  1.7954
12537SOL     OW43446   6.673   2.024   1.846 -0.1961  0.1855  0.2752
12537SOL    HW143447   6.726   1.946   1.858  0.0577 -0.1757 -2.4691
12537SOL    HW243448   6.718   2.073   1.777 -2.1339  1.0459 -0.4716
12538SOL     OW43449   9.556   8.761  10.260 -0.6782 -0.5405  0.5366
12538SOL    HW143450   9.562   8.723  10.172 -1.9813 -1.9318  0.9999
12538SOL    HW243451   9.622   8.713  10.310 -1.4413 -1.3379  0.8122
12539SOL     OW43452   1.189   4.934   2.884 -0.0024  0.3697  0.1578
12539SOL    HW143453   1.136   4.917   2.962 -1.2906  0.0527 -0.7541
12539SOL    HW243454   1.129   4.978   2.824  1.0905  0.9982 -0.5047
12540SOL     OW43455   3.229   1.071   5.243 -0.2977  0.2040 -0.8327
12540SOL    HW143456   3.292   1.071   5.171  2.5597 -1.1233  1.4796
12540SOL    HW243457   3.208   0.978   5.256 -2.6523  0.5917 -1.3778
12541SOL     OW43458   7.529   2.142   7.883 -0.6272  0.1024  0.2831
12541SOL    HW143459   7.496   2.104   7.964 -1.3941  0.3260  0.0873
12541SOL    HW243460   7.600   2.084   7.856 -0.2940  0.0937  1.1717
12542SOL     OW43461   7.843   2.489   5.528  0.5261  0.2903  0.1806
12542SOL    HW143462   7.787   2.511   5.454  0.2265  1.6215  0.7708
12542SOL    HW243463   7.782   2.476   5.601  0.8785 -0.0208  0.4224
12543SOL     OW43464  10.064   0.001   7.728  0.3700 -0.2857  0.1370
12543SOL    HW143465  10.089   0.067   7.664  1.3868  0.6318  1.4051
12543SOL    HW243466  10.124  -0.073   7.712  0.2680 -0.2717 -0.3035
12544SOL     OW43467   2.760   4.960   6.514  0.3940 -0.1921  0.1235
12544SOL    HW143468   2.677   4.994   6.480 -1.0639 -1.1813  2.4519
12544SOL    HW243469   2.772   4.876   6.468  0.0254 -0.1320 -0.0892
12545SOL     OW43470   0.262   8.494   2.020  0.3682 -0.0577  0.3878
12545SOL    HW143471   0.349   8.495   2.061  0.3663 -0.5909  0.4177
12545SOL    HW243472   0.278   8.521   1.929  0.6936 -0.9055  0.1782
12546SOL     OW43473   7.506   6.451   9.939  0.4206  0.4580  0.6817
12546SOL    HW143474   7.529   6.362   9.912  0.4395  1.3463 -2.7012
12546SOL    HW243475   7.585   6.485   9.980 -0.0536 -1.4669  3.4797
12547SOL     OW43476   1.108   3.203   6.081  0.1148 -0.3174 -0.2621
12547SOL    HW143477   1.109   3.131   6.144  0.8114 -0.8566 -0.8708
12547SOL    HW243478   1.118   3.282   6.134  0.6988 -0.7652  0.3054
12548SOL     OW43479   9.507   6.666   8.383 -0.1868  0.0043  0.5788
12548SOL    HW143480   9.513   6.754   8.345 -0.9821 -0.0308  0.3669
12548SOL    HW243481   9.494   6.608   8.307 -0.9007 -0.1598  0.8212
12549SOL     OW43482   8.589   5.926   9.595  0.5327  0.9509  0.1033
12549SOL    HW143483   8.579   5.850   9.538 -0.6857  1.3093 -0.1748
12549SOL    HW243484   8.535   5.907   9.672 -0.6488  1.9637 -0.4383
12550SOL     OW43485   8.017  10.270   5.114 -0.1101 -0.5074  0.1106
12550SOL    HW143486   8.005  10.348   5.060  2.3907 -1.5342 -2.1756
12550SOL    HW243487   8.021  10.303   5.204  0.8421  2.0156 -0.7757
12551SOL     OW43488   6.915   5.087   6.312  0.1225  0.3919 -0.3604
12551SOL    HW143489   6.868   5.168   6.330  0.0927  0.5508 -1.1377
12551SOL    HW243490   6.883   5.026   6.379  0.1886  1.0266  0.2636
12552SOL     OW43491   8.484   8.480   6.619  0.0700  0.8548 -0.5319
12552SOL    HW143492   8.443   8.504   6.536 -0.7772 -0.5834 -0.5755
12552SOL    HW243493   8.411   8.462   6.678  0.6557  0.5536  0.1210
12553SOL     OW43494   6.569   7.496   9.061  0.3579 -0.3046 -0.1523
12553SOL    HW143495   6.514   7.560   9.106  0.5565 -0.0390 -0.2847
12553SOL    HW243496   6.658   7.531   9.068  0.5864 -1.0030  0.5313
12554SOL     OW43497   1.977   1.010   3.951 -0.1550 -0.4487 -0.0576
12554SOL    HW143498   2.053   1.029   3.896  0.6254 -2.0806  0.3881
12554SOL    HW243499   2.013   0.964   4.027 -1.6682 -2.0812 -0.2663
12555SOL     OW43500   7.282   0.036   6.615 -0.2086 -0.0454  0.2711
12555SOL    HW143501   7.196   0.010   6.583 -0.3424  1.0398 -0.2989
12555SOL    HW243502   7.264   0.077   6.700 -0.6616  2.7411 -1.0615
12556SOL     OW43503   8.372   8.102   6.578  0.0579 -0.0673 -0.4538
12556SOL    HW143504   8.379   8.140   6.490 -3.2021  1.4501 -0.2211
12556SOL    HW243505   8.338   8.014   6.563  0.5980 -0.2298 -0.7470
12557SOL     OW43506   0.287  10.110   2.123  0.4335  0.0641  0.5776
12557SOL    HW143507   0.197  10.090   2.098  1.2491 -0.6566 -2.1474
12557SOL    HW243508   0.283  10.128   2.217 -2.6520  0.8066  0.4028
12558SOL     OW43509   3.005   9.203   2.538  0.7403 -0.3309 -0.1926
12558SOL    HW143510   2.915   9.235   2.547  1.7787  3.1722 -0.7676
12558SOL    HW243511   3.039   9.246   2.460  3.7523  0.8741  1.5742
12559SOL     OW43512   6.372   7.217   2.868  0.3977 -0.0322 -0.0975
12559SOL    HW143513   6.388   7.293   2.811  0.0304  0.3363  0.2926
12559SOL    HW243514   6.296   7.173   2.829 -1.3792  1.5479  1.4343
12560SOL     OW43515   7.617   1.365   7.358  0.2699 -0.1306 -0.3471
12560SOL    HW143516   7.696   1.336   7.404 -0.1090 -0.9770 -0.2124
12560SOL    HW243517   7.593   1.291   7.302 -1.4910 -0.6576  1.0026
12561SOL     OW43518  10.690   5.019   4.980  0.1511 -0.1010  0.2888
12561SOL    HW143519  10.689   5.091   4.917 -1.2422 -0.4257 -0.1124
12561SOL    HW243520  10.718   5.058   5.062  1.7905  0.3827 -0.4619
12562SOL     OW43521   3.138   8.621   6.757  0.6027  0.1969 -0.7501
12562SOL    HW143522   3.156   8.675   6.680 -3.4555  1.1164 -1.2735
12562SOL    HW243523   3.120   8.684   6.826 -0.5819 -0.5039 -0.3941
12563SOL     OW43524   5.674   4.762   1.095 -0.0697  0.4219  0.0702
12563SOL    HW143525   5.639   4.840   1.140  2.0534  0.9115  0.9779
12563SOL    HW243526   5.732   4.796   1.028 -2.4176 -0.3466 -2.5514
12564SOL     OW43527   0.751   2.096   2.392  0.2919  0.1250  0.2266
12564SOL    HW143528   0.799   2.042   2.454  0.7591 -0.7120 -0.8379
12564SOL    HW243529   0.720   2.035   2.325  0.6374  1.1173 -0.8803
12565SOL     OW43530   3.956   3.582   3.719  0.4866 -0.0292 -0.0442
12565SOL    HW143531   4.002   3.548   3.643  0.3883  0.6459 -0.4137
12565SOL    HW243532   3.887   3.518   3.736 -0.7195  0.7394 -1.7143
12566SOL     OW43533   7.867   8.980   0.780  1.0963  0.3460  0.1862
12566SOL    HW143534   7.844   9.025   0.861 -2.4706 -0.7490 -0.0743
12566SOL    HW243535   7.912   9.046   0.728  0.4442  2.0921  1.7264
12567SOL     OW43536   6.377   5.051   5.145 -0.0946  0.0592  0.1558
12567SOL    HW143537   6.446   5.064   5.079  1.0120  1.3316  1.5078
12567SOL    HW243538   6.320   5.128   5.135  1.2095  1.3203  1.9676
12568SOL     OW43539   6.802   0.703   9.308  0.3962 -0.3593  0.4120
12568SOL    HW143540   6.752   0.672   9.232  1.0641  2.0899 -1.1171
12568SOL    HW243541   6.850   0.625   9.337 -0.4807 -1.5640 -1.1679
12569SOL     OW43542   0.994   4.760   7.707 -0.3369  0.0575  0.0817
12569SOL    HW143543   0.995   4.674   7.748 -2.5462  0.3776  0.9536
12569SOL    HW243544   1.043   4.748   7.626 -0.6833 -2.0696  0.1163
12570SOL     OW43545   9.979   8.994   1.084  0.4180  0.1773  0.4435
12570SOL    HW143546   9.901   9.018   1.035  1.8788  2.6405 -0.8401
12570SOL    HW243547  10.042   8.964   1.018  1.2017  0.0699  1.2136
12571SOL     OW43548  10.529   5.252   9.905  0.7058  0.0784 -0.0193
12571SOL    HW143549  10.590   5.313   9.864  1.8534  0.1196  1.6690
12571SOL    HW243550  10.445   5.298   9.904  1.3384  1.2825  0.3241
12572SOL     OW43551   1.871   6.898   7.123  0.0395  0.3534 -0.2101
12572SOL    HW143552   1.782   6.906   7.156 -0.0302 -0.1253 -0.2658
12572SOL    HW243553   1.874   6.957   7.048  0.5140  2.2452  1.2331
12573SOL     OW43554   8.222   8.096   8.157  0.0277  0.1168 -0.0480
12573SOL    HW143555   8.268   8.038   8.218  0.5147  1.3005  0.7456
12573SOL    HW243556   8.261   8.077   8.071 -0.3239 -1.2152  0.0700
12574SOL     OW43557   9.321   5.770  10.143 -0.0713 -0.0298 -0.2386
12574SOL    HW143558   9.346   5.824  10.068 -2.5126  0.6534 -0.6323
12574SOL    HW243559   9.378   5.800  10.214  0.4258  1.2181 -1.1342
12575SOL     OW43560   7.573   6.198   6.774  0.2139 -0.3088  0.3113
12575SOL    HW143561   7.492   6.155   6.750  0.7440 -0.1311 -2.0161
12575SOL    HW243562   7.595   6.163   6.861 -1.6271 -1.3386  0.3929
12576SOL     OW43563   6.071   6.175  10.617  0.4119 -0.2197  0.2913
12576SOL    HW143564   6.115   6.101  10.660  0.6249  0.0099  0.4700
12576SOL    HW243565   6.034   6.225  10.690  0.4868 -0.0097  0.1825
12577SOL     OW43566   1.602   5.890   3.762 -0.2592 -0.4689 -0.0751
12577SOL    HW143567   1.519   5.913   3.722  0.3337  0.1936 -0.9670
12577SOL    HW243568   1.598   5.927   3.849 -1.0179 -0.7189  0.0058
12578SOL     OW43569   6.024   9.796   0.924 -0.1552  0.2651  0.0164
12578SOL    HW143570   5.942   9.836   0.953  0.4306  1.9508 -0.5552
12578SOL    HW243571   6.027   9.812   0.830  0.8724  0.3265  0.0493
12579SOL     OW43572   2.833   6.574   4.830  0.3180 -0.1600  0.2021
12579SOL    HW143573   2.780   6.544   4.756  0.8407 -0.4611 -0.0524
12579SOL    HW243574   2.770   6.618   4.888 -0.3202 -1.0281  0.1908
12580SOL     OW43575   6.551   7.261   6.628 -0.2635 -0.2766  0.0120
12580SOL    HW143576   6.629   7.298   6.586 -1.1398 -0.6838 -2.1190
12580SOL    HW243577   6.572   7.168   6.640 -0.5084 -0.4484 -0.8392
12581SOL     OW43578   4.808   1.421   0.701 -0.7574  0.4066 -0.2394
12581SOL    HW143579   4.805   1.326   0.690  0.6170  0.3777 -0.4889
12581SOL    HW243580   4.853   1.434   0.784 -1.3631  0.8431  0.0252
12582SOL     OW43581   7.537   9.458   5.559 -0.2050 -0.0074  0.4998
12582SOL    HW143582   7.577   9.375   5.582  0.2038 -0.0535 -0.3579
12582SOL    HW243583   7.465   9.435   5.499  0.7306  0.3297 -0.8043
12583SOL     OW43584   5.491   0.689   4.044 -0.0920  0.1488  0.0252
12583SOL    HW143585   5.432   0.621   4.012  1.1519 -0.3187 -1.4089
12583SOL    HW243586   5.533   0.723   3.965  2.4039 -0.3414  1.0389
12584SOL     OW43587   7.107   5.270   3.153 -0.6121  0.1648  0.3313
12584SOL    HW143588   7.017   5.297   3.173  0.4196  0.9426  4.9002
12584SOL    HW243589   7.104   5.174   3.152 -1.6370  0.1727 -0.9587
12585SOL     OW43590   3.957   7.623   3.388 -0.2184 -0.0752  0.0952
12585SOL    HW143591   3.886   7.677   3.352 -0.2808 -1.9108 -2.8833
12585SOL    HW243592   4.016   7.609   3.315  1.3011 -1.6389  1.5300
12586SOL     OW43593  10.560   2.090   6.459 -0.3758  0.0604  0.8415
12586SOL    HW143594  10.470   2.061   6.473 -0.9936 -0.2879 -2.9153
12586SOL    HW243595  10.603   2.076   6.544 -2.5848 -4.4130  1.5065
12587SOL     OW43596   3.607   0.794   5.860 -0.1877 -0.2059 -0.1292
12587SOL    HW143597   3.590   0.791   5.954 -1.2200  0.2474 -0.2854
12587SOL    HW243598   3.641   0.883   5.845  0.7366 -0.5396 -0.0777
12588SOL     OW43599   3.500   7.449   5.729 -0.3968  0.1456  0.5987
12588SOL    HW143600   3.534   7.473   5.815  0.2941  0.3703  0.2743
12588SOL    HW243601   3.578   7.430   5.677 -0.8239 -0.3544  0.1274
12589SOL     OW43602  10.641   4.259   8.884 -0.2664 -0.6803  0.7686
12589SOL    HW143603  10.721   4.225   8.844 -0.3066  1.3215 -1.2019
12589SOL    HW243604  10.670   4.300   8.965  1.6037  3.5926 -1.7360
12590SOL     OW43605   6.481   3.113  10.275 -0.6176  0.2192  0.2688
12590SOL    HW143606   6.484   3.046  10.343 -0.2961 -0.0839 -0.0423
12590SOL    HW243607   6.431   3.073  10.204 -0.6117  0.3893  0.1676
12591SOL     OW43608   0.767   1.869   1.973 -0.5578 -0.0802  0.1254
12591SOL    HW143609   0.833   1.834   1.914  0.0317 -0.5218  1.0258
12591SOL    HW243610   0.769   1.964   1.958  0.0233 -0.1255 -0.1158
12592SOL     OW43611   4.683   9.094   6.877  0.2282  0.6142  0.2627
12592SOL    HW143612   4.634   9.137   6.946 -3.2450  0.1846 -1.6722
12592SOL    HW243613   4.653   9.003   6.879  0.3139  0.4986 -1.4775
12593SOL     OW43614   6.553   2.314   4.250 -0.2383  0.2875  0.1071
12593SOL    HW143615   6.598   2.361   4.179 -2.9147  0.1202 -1.8618
12593SOL    HW243616   6.494   2.379   4.288 -0.7270 -0.3186  0.3991
12594SOL     OW43617   8.314   9.678   2.027 -0.3619 -0.1669  0.7467
12594SOL    HW143618   8.299   9.709   2.116 -1.3579  1.3243  0.1028
12594SOL    HW243619   8.331   9.758   1.976  0.8617 -1.0441 -0.2838
12595SOL     OW43620   1.855   9.396   4.025  0.5879  0.1341 -0.0380
12595SOL    HW143621   1.938   9.393   3.979  0.1571 -0.7634 -0.7879
12595SOL    HW243622   1.854   9.482   4.068  0.3177  1.7052 -2.9711
12596SOL     OW43623   8.312   7.380   8.751  0.9349 -0.1285 -0.9048
12596SOL    HW143624   8.300   7.388   8.846 -1.2893 -0.6600 -1.0820
12596SOL    HW243625   8.348   7.464   8.724  0.3834  0.5102  0.2544
12597SOL     OW43626   6.855   8.778   4.189 -0.0379  0.1884 -0.4546
12597SOL    HW143627   6.863   8.716   4.116  0.0003 -0.7578  0.3347
12597SOL    HW243628   6.762   8.803   4.188  0.3018  1.5138 -1.8686
12598SOL     OW43629   4.296   7.544   7.338  0.3692  0.4447  0.0214
12598SOL    HW143630   4.273   7.494   7.260 -1.5982  0.8176  0.3261
12598SOL    HW243631   4.330   7.627   7.305  0.3558  0.2688 -0.4319
12599SOL     OW43632   8.583   5.782   3.294  0.1711  0.0182 -0.6110
12599SOL    HW143633   8.633   5.790   3.212  0.4260  1.1044 -0.3633
12599SOL    HW243634   8.504   5.735   3.268  1.1418 -1.4711 -1.0736
12600SOL     OW43635   9.402   6.700   0.521  0.0802  0.0725  0.0846
12600SOL    HW143636   9.376   6.782   0.563 -3.3376 -1.1500  0.7173
12600SOL    HW243637   9.327   6.678   0.465  0.8919 -2.5897 -0.0844
12601SOL     OW43638   6.229   0.652   4.910 -0.5946  0.3726  0.5441
12601SOL    HW143639   6.136   0.676   4.906 -0.7959 -0.4431  0.0968
12601SOL    HW243640   6.274   0.734   4.928 -1.3331  0.9142 -0.0094
12602SOL     OW43641   9.861   5.451   3.313 -0.3674  0.1871  0.2635
12602SOL    HW143642   9.797   5.428   3.245 -0.2111  0.4103  0.0401
12602SOL    HW243643   9.844   5.389   3.383 -1.5270  0.9135  0.6469
12603SOL     OW43644   4.401   7.036   5.779 -0.3558 -0.0246 -0.5789
12603SOL    HW143645   4.402   6.942   5.796  1.5854  0.1850  0.8658
12603SOL    HW243646   4.443   7.045   5.693  1.4035 -0.4002  0.1946
12604SOL     OW43647   7.676   0.290   3.021 -0.1964  0.5757  0.3036
12604SOL    HW143648   7.662   0.344   2.943  1.0183  2.4603  1.3066
12604SOL    HW243649   7.759   0.244   3.004 -0.9911 -0.6669 -0.3513
12605SOL     OW43650   8.789  10.635   5.239  0.3429 -0.3552 -0.0620
12605SOL    HW143651   8.701  10.653   5.271  0.0627 -0.7215 -0.6213
12605SOL    HW243652   8.799  10.540   5.248 -0.2591 -0.6986 -2.2829
12606SOL     OW43653   3.592  10.249   6.504  0.3847 -0.3935 -0.1637
12606SOL    HW143654   3.665  10.190   6.486  0.4639  0.2206 -2.0960
12606SOL    HW243655   3.605  10.322   6.444 -1.3564  0.1466  0.0688
12607SOL     OW43656   5.741   6.638   0.630  0.2631 -0.3287 -0.1787
12607SOL    HW143657   5.826   6.681   0.618  0.2345 -0.4106 -0.6946
12607SOL    HW243658   5.691   6.699   0.685 -0.1932  0.8887 -1.8750
12608SOL     OW43659   5.192   9.250   1.300  0.5339 -0.1369 -0.1011
12608SOL    HW143660   5.190   9.327   1.243  0.8959 -0.1666 -0.1558
12608SOL    HW243661   5.101   9.239   1.329  0.5580  0.5857  0.2776
12609SOL     OW43662   9.597   1.924   2.019 -0.1148  0.1993  0.9348
12609SOL    HW143663   9.607   1.990   2.087  0.7034  0.8138  0.2358
12609SOL    HW243664   9.611   1.841   2.064  1.6827  0.6649  1.3010
12610SOL     OW43665   0.337   6.504  10.193 -0.2278  0.2388 -0.4386
12610SOL    HW143666   0.412   6.445  10.187  0.8112  1.3448  1.1563
12610SOL    HW243667   0.328   6.522  10.286 -1.0334  1.9641 -0.8183
12611SOL     OW43668   4.581   8.994   9.353  0.1687  0.0619 -0.6518
12611SOL    HW143669   4.582   8.899   9.355  0.9814  0.0639 -0.6127
12611SOL    HW243670   4.522   9.016   9.281 -1.5317 -0.4334  0.5310
12612SOL     OW43671   8.564   6.723   1.001 -0.2980  0.3030 -0.2369
12612SOL    HW143672   8.647   6.677   1.000 -0.5516 -0.1722 -1.2844
12612SOL    HW243673   8.588   6.816   0.998  0.1969  0.2202  0.8003
12613SOL     OW43674   1.828  10.204   0.780  0.1892 -0.4101  0.0419
12613SOL    HW143675   1.865  10.276   0.832  1.1065 -1.2251  0.5301
12613SOL    HW243676   1.887  10.195   0.706  1.3106 -2.0442  1.0842
12614SOL     OW43677   8.018   1.321   1.127 -0.4143  0.1053  0.0560
12614SOL    HW143678   8.047   1.410   1.147 -1.2963  0.3404  0.3226
12614SOL    HW243679   8.002   1.281   1.212  0.5224 -0.5035 -0.0424
12615SOL     OW43680   2.553   4.387   8.610 -0.4349 -0.4900 -0.4157
12615SOL    HW143681   2.512   4.300   8.610 -0.3298 -0.5468 -1.2507
12615SOL    HW243682   2.609   4.387   8.688 -2.7678 -0.0374  1.3701
12616SOL     OW43683   4.804   3.681   1.814  0.2287  0.2222 -0.1293
12616SOL    HW143684   4.897   3.662   1.802  0.7849  2.7839 -0.4127
12616SOL    HW243685   4.799   3.724   1.899 -0.2896  2.1368 -1.0626
12617SOL     OW43686   1.020   9.772   6.740  0.2874  0.9705 -0.0291
12617SOL    HW143687   1.089   9.752   6.804 -0.8710 -0.3752  0.8788
12617SOL    HW243688   0.987   9.686   6.713 -1.1160  1.5678 -0.3340
12618SOL     OW43689   9.014   2.689   2.629 -0.6128 -0.1099  0.2482
12618SOL    HW143690   8.989   2.597   2.632  1.3793 -0.7110  2.7333
12618SOL    HW243691   8.986   2.719   2.543 -2.2063 -2.7509 -0.2764
12619SOL     OW43692   7.102   1.938   5.285  0.7434  0.6038 -0.0909
12619SOL    HW143693   7.156   1.860   5.285  0.7802  0.5303  2.3928
12619SOL    HW243694   7.022   1.913   5.238  0.4165 -1.2330  1.3162
12620SOL     OW43695  10.648   2.773  10.012  0.2155 -0.1399 -0.4038
12620SOL    HW143696  10.713   2.757  10.080 -0.0337  1.0359  0.1360
12620SOL    HW243697  10.646   2.692   9.961  0.4272 -1.0424  0.9687
12621SOL     OW43698   3.112   8.817   5.260 -0.3017 -0.7840 -0.0424
12621SOL    HW143699   3.190   8.767   5.236 -0.1424 -0.5110 -0.0924
12621SOL    HW243700   3.078   8.851   5.177 -1.2346 -1.9941 -0.1942
12622SOL     OW43701   7.167   7.261   1.123 -0.5983 -0.3265 -0.6729
12622SOL    HW143702   7.139   7.285   1.211 -0.6810 -0.6743 -0.6053
12622SOL    HW243703   7.260   7.239   1.132 -0.0446  1.6401 -1.0437
12623SOL     OW43704  10.359   3.797   5.756  0.5222  0.3386 -0.2634
12623SOL    HW143705  10.372   3.883   5.796  0.7860  0.1008  0.1720
12623SOL    HW243706  10.442   3.752   5.768  0.5611  0.2070 -0.9631
12624SOL     OW43707   4.829   7.396   6.088 -0.2189  0.5123 -0.1116
12624SOL    HW143708   4.850   7.311   6.050 -2.0967 -0.6871  1.3799
12624SOL    HW243709   4.903   7.452   6.062 -0.2311 -0.7622 -3.4522
12625SOL     OW43710   2.801   2.797   7.636 -0.4401 -0.0856 -0.3274
12625SOL    HW143711   2.831   2.765   7.551  0.5238 -0.6582  0.2134
12625SOL    HW243712   2.853   2.749   7.700  0.3647  1.8410  0.5602
12626SOL     OW43713   7.728   0.381   8.155 -1.0759  0.1338 -0.2593
12626SOL    HW143714   7.817   0.365   8.187 -1.0524 -1.1105 -0.8861
12626SOL    HW243715   7.740   0.402   8.062 -1.5584 -2.2202 -0.9098
12627SOL     OW43716   1.969   0.558   4.055  0.1299  0.0503  0.3491
12627SOL    HW143717   1.887   0.604   4.036 -0.2089 -0.0073  1.5993
12627SOL    HW243718   2.034   0.627   4.066  0.1449  0.1162 -0.1269
12628SOL     OW43719  10.279   4.905   6.050 -0.0746 -0.0832  0.3640
12628SOL    HW143720  10.314   4.895   6.139  0.2594 -1.0622  0.1354
12628SOL    HW243721  10.184   4.906   6.061 -0.0311 -0.0640  0.7457
12629SOL     OW43722   5.459   4.095   4.092 -0.4775  0.2959 -0.5504
12629SOL    HW143723   5.421   4.028   4.034  0.0902 -1.8074  1.3325
12629SOL    HW243724   5.465   4.051   4.177  1.4504  2.2466  0.4090
12630SOL     OW43725  10.559  10.072  10.419 -0.7682  0.5917  0.3978
12630SOL    HW143726  10.646  10.092  10.386 -0.7690  1.7676  1.0733
12630SOL    HW243727  10.572  10.043  10.509 -1.2228  2.9173  1.2690
12631SOL     OW43728   9.756   1.907   7.846  0.3889  0.0175  0.3483
12631SOL    HW143729   9.791   1.859   7.771 -2.0791 -1.2416 -0.1141
12631SOL    HW243730   9.706   1.978   7.808  0.8421  0.6464  0.9087
12632SOL     OW43731   5.127   6.120   0.678  0.5245 -0.5974 -0.5403
12632SOL    HW143732   5.205   6.175   0.692  0.8709 -0.2816 -3.1592
12632SOL    HW243733   5.066   6.148   0.746  1.8927  0.7170  0.2199
12633SOL     OW43734   3.247   4.280   4.848 -0.2021 -0.3265  0.3767
12633SOL    HW143735   3.185   4.324   4.790  1.0526  0.4058 -0.4791
12633SOL    HW243736   3.196   4.256   4.925 -2.0242 -1.6734 -1.1590
12634SOL     OW43737   2.802  10.238   7.352  0.1826  0.4454 -0.2799
12634SOL    HW143738   2.887  10.255   7.312  0.1629 -1.3689 -1.1798
12634SOL    HW243739   2.761  10.323   7.358  1.5116  1.1754 -1.1001
12635SOL     OW43740   8.638   3.435   7.971 -0.0224  0.2589  0.6860
12635SOL    HW143741   8.668   3.472   8.054  0.4349  0.3743  0.4696
12635SOL    HW243742   8.718   3.407   7.926 -0.1948  0.8541 -0.0285
12636SOL     OW43743   2.608   4.391   5.157  0.0771 -0.2574  0.5356
12636SOL    HW143744   2.577   4.467   5.206 -0.5523 -0.8215  1.0264
12636SOL    HW243745   2.539   4.372   5.094  1.1248  0.8153 -1.0298
12637SOL     OW43746   1.927   4.155   0.065 -0.2924 -0.1407  0.3331
12637SOL    HW143747   1.932   4.151   0.161 -0.5919 -0.7406  0.3331
12637SOL    HW243748   2.011   4.191   0.038  0.2422 -1.0234  0.7681
12638SOL     OW43749   5.067   6.550   0.095 -0.1653 -0.1804  0.1167
12638SOL    HW143750   4.991   6.589   0.050  1.0857  1.5755 -0.6168
12638SOL    HW243751   5.074   6.462   0.058 -1.4567 -0.1539 -0.2591
12639SOL     OW43752   0.824   9.294   8.011 -0.1197 -0.0938  0.0488
12639SOL    HW143753   0.876   9.244   8.074 -0.6860  1.0337  1.4800
12639SOL    HW243754   0.813   9.235   7.936 -0.4027 -1.9400  1.4797
12640SOL     OW43755   5.396   8.875   5.871 -0.6717 -0.1289 -0.4187
12640SOL    HW143756   5.445   8.797   5.896  0.9454  0.6861 -0.9326
12640SOL    HW243757   5.462   8.935   5.837 -1.6619  1.9830  1.1824
12641SOL     OW43758   8.478  10.092   0.755  0.2014  0.3922  0.0308
12641SOL    HW143759   8.434  10.092   0.840 -1.0553 -1.8245 -0.5239
12641SOL    HW243760   8.530  10.172   0.754 -0.8868  1.1995  2.2817
12642SOL     OW43761   4.305   7.582   0.399 -0.4600 -0.2593 -0.3235
12642SOL    HW143762   4.231   7.534   0.362 -1.5199  0.0090  1.3602
12642SOL    HW243763   4.340   7.525   0.467  0.4985 -0.1215 -0.6884
12643SOL     OW43764   9.756   0.937   4.397  0.1477 -0.3829  0.3005
12643SOL    HW143765   9.816   1.008   4.419  1.1447 -1.0082 -0.3031
12643SOL    HW243766   9.729   0.902   4.481 -0.1331  0.5209  0.6024
12644SOL     OW43767  10.367   8.775   9.036  0.0572 -0.7080  0.3455
12644SOL    HW143768  10.346   8.828   9.113 -2.2686 -0.0428 -0.6605
12644SOL    HW243769  10.364   8.836   8.963 -0.6492 -1.8123 -0.5856
12645SOL     OW43770   8.889   6.858   5.425  0.2497  0.6642  0.3467
12645SOL    HW143771   8.954   6.789   5.440 -1.4155 -0.9843  0.4114
12645SOL    HW243772   8.889   6.910   5.506  0.4843 -0.1928  0.9083
12646SOL     OW43773   9.200   0.049   1.878  0.2973  0.1066  0.4405
12646SOL    HW143774   9.214   0.134   1.837  0.2686 -0.5846 -1.0570
12646SOL    HW243775   9.212  -0.015   1.807 -0.7537 -1.0781  1.2750
12647SOL     OW43776   3.864   8.935   8.512 -0.1757  0.4415  0.1816
12647SOL    HW143777   3.823   8.909   8.430  1.0516  1.9405 -0.9730
12647SOL    HW243778   3.914   8.858   8.540 -1.4159 -0.4169  0.0899
12648SOL     OW43779   6.890   6.144   6.945 -0.2273 -0.4429 -0.7310
12648SOL    HW143780   6.809   6.195   6.951  0.7567  0.9597  1.8733
12648SOL    HW243781   6.947   6.196   6.889 -1.0335 -1.4435 -2.5895
12649SOL     OW43782   7.208   8.456   3.026  0.4526  0.2510 -0.0989
12649SOL    HW143783   7.141   8.477   2.960  0.9508 -0.1234 -0.7433
12649SOL    HW243784   7.285   8.431   2.974  0.5132 -1.1689  0.6312
12650SOL     OW43785   8.839   3.508   0.048 -0.1308  0.1523  0.2578
12650SOL    HW143786   8.886   3.439   0.000 -0.0991 -0.0906  0.6315
12650SOL    HW243787   8.748   3.479   0.049  0.0791 -0.5482  1.5297
12651SOL     OW43788   8.744   1.243   2.373 -0.1852 -0.6617 -0.3192
12651SOL    HW143789   8.803   1.211   2.305  0.4463 -0.2839  0.0414
12651SOL    HW243790   8.781   1.211   2.455 -0.9964 -1.1957 -0.1488
12652SOL     OW43791   3.374   2.307  10.040 -0.1256  0.2383  0.2076
12652SOL    HW143792   3.431   2.252   9.986  0.3337 -0.6560  1.5673
12652SOL    HW243793   3.401   2.397  10.019 -0.1334 -0.0580 -1.2120
12653SOL     OW43794  10.328   4.035   1.817  0.8092 -0.1648 -0.1384
12653SOL    HW143795  10.338   3.975   1.743  0.4299 -0.5961  0.1538
12653SOL    HW243796  10.305   3.978   1.891  1.6052  0.2021  0.4162
12654SOL     OW43797  10.350   6.728   3.268 -0.0359  0.4842 -0.1765
12654SOL    HW143798  10.426   6.678   3.295  0.0474  0.3365 -0.6736
12654SOL    HW243799  10.275   6.682   3.307  0.1231  0.6483  0.3355
12655SOL     OW43800   0.958   6.507   2.816  0.6793  0.3332  0.5093
12655SOL    HW143801   1.013   6.485   2.740  1.4847 -0.8113  1.3844
12655SOL    HW243802   0.886   6.445   2.811 -0.1726  1.3597 -0.2337
12656SOL     OW43803   7.327   3.856   3.867  0.1487  0.0154  0.3754
12656SOL    HW143804   7.384   3.851   3.790  1.2004  2.2507  0.9453
12656SOL    HW243805   7.365   3.795   3.930 -1.2974 -2.6228 -1.1271
12657SOL     OW43806   5.246   6.186   7.478  0.4582  0.3770  0.2803
12657SOL    HW143807   5.324   6.130   7.477  0.7914  0.8406  0.2881
12657SOL    HW243808   5.229   6.203   7.385 -0.2581 -0.5778  0.2171
12658SOL     OW43809   8.382   2.317   4.562 -0.1773  0.3857 -0.2929
12658SOL    HW143810   8.355   2.303   4.471 -1.2817 -2.4298  0.3605
12658SOL    HW243811   8.312   2.370   4.600 -1.2579 -0.9042 -0.3973
12659SOL     OW43812   3.444   9.332   8.901 -0.1448  0.6642  0.2946
12659SOL    HW143813   3.530   9.290   8.895 -1.1376 -1.7343  1.3778
12659SOL    HW243814   3.460   9.424   8.879  2.6278  0.2447  0.2253
12660SOL     OW43815   3.924   1.357   1.389 -0.0168  0.3274  0.2471
12660SOL    HW143816   3.887   1.329   1.306 -0.8722 -2.4961  1.4344
12660SOL    HW243817   3.849   1.360   1.449  0.7530  1.0603  1.2069
12661SOL     OW43818   6.615   5.750   8.187  0.2682 -0.6797 -0.3045
12661SOL    HW143819   6.587   5.802   8.263  0.9221  0.7883 -1.0367
12661SOL    HW243820   6.703   5.721   8.209  0.6776  0.2254 -0.7286
12662SOL     OW43821   5.139   3.210   2.046  0.7363  0.1074  0.6309
12662SOL    HW143822   5.193   3.167   2.112  0.0719  0.6486  1.5571
12662SOL    HW243823   5.180   3.296   2.032  1.3825 -0.3353 -0.3412
12663SOL     OW43824   3.571   7.185   3.892  0.5543 -0.6581  0.0993
12663SOL    HW143825   3.661   7.158   3.876  0.4578 -0.7233 -0.3558
12663SOL    HW243826   3.573   7.229   3.977  0.9526 -0.9474  0.2393
12664SOL     OW43827   6.024   0.877   3.542  0.8046  0.2325  0.3919
12664SOL    HW143828   6.037   0.839   3.455  0.0352 -1.0535  0.7963
12664SOL    HW243829   5.936   0.916   3.538  0.5411 -0.3104  0.7400
12665SOL     OW43830   3.501   9.122   4.469  0.4573 -0.0508 -0.1425
12665SOL    HW143831   3.523   9.073   4.390 -0.4137 -1.0715  0.2247
12665SOL    HW243832   3.585   9.152   4.503  0.8918 -0.1822 -1.0775
12666SOL     OW43833   1.152   5.258   4.284  1.0875 -0.0461  0.0378
12666SOL    HW143834   1.086   5.191   4.269  0.1337  1.1508 -1.3912
12666SOL    HW243835   1.102   5.336   4.310  2.0208  0.5451  0.1133
12667SOL     OW43836   5.953   2.274   0.282  0.5480 -0.2102  1.2160
12667SOL    HW143837   5.950   2.185   0.315 -0.7441  0.2506  2.4111
12667SOL    HW243838   6.042   2.304   0.302  1.1153 -1.3175  0.4671
12668SOL     OW43839   5.179   4.027   2.753 -0.1932  0.0254 -0.2521
12668SOL    HW143840   5.102   4.030   2.810  0.0343  0.4342  0.0414
12668SOL    HW243841   5.192   4.118   2.725  1.1763  0.2939  1.0634
12669SOL     OW43842   4.767   6.454  10.298  0.0633 -0.1584 -0.2338
12669SOL    HW143843   4.857   6.456  10.264  0.2680 -0.8228  0.2440
12669SOL    HW243844   4.776   6.416  10.385 -0.2057  3.3005  1.4258
12670SOL     OW43845   1.800   4.585   3.602 -0.0211  0.0426 -0.3757
12670SOL    HW143846   1.857   4.571   3.677  0.1167 -0.1840 -0.5204
12670SOL    HW243847   1.798   4.500   3.557  0.7927  0.4474 -1.2359
12671SOL     OW43848  10.159   5.343   0.115  0.4627 -0.0442  0.1760
12671SOL    HW143849  10.171   5.290   0.036 -0.7021 -0.6906  0.4088
12671SOL    HW243850  10.172   5.433   0.086 -1.9948 -0.0559 -1.2628
12672SOL     OW43851   4.597   1.319   4.471 -0.7186  0.4046  0.3073
12672SOL    HW143852   4.620   1.229   4.494 -2.8667 -0.1448  0.5520
12672SOL    HW243853   4.503   1.325   4.489 -1.0820  2.0630 -1.7463
12673SOL     OW43854   0.103   4.259   5.008  0.7710  0.4344  0.1399
12673SOL    HW143855   0.074   4.343   4.974 -0.6267 -0.0730 -0.0112
12673SOL    HW243856   0.040   4.196   4.972  0.4445 -0.3820  2.0000
12674SOL     OW43857   6.042   3.087   6.242  0.0729  0.2133 -0.5004
12674SOL    HW143858   5.985   3.069   6.317 -0.4223 -1.1462 -1.1632
12674SOL    HW243859   5.983   3.089   6.167  0.7923 -0.5294 -1.1140
12675SOL     OW43860   7.937   0.661   7.909 -0.6305 -0.8488 -0.1458
12675SOL    HW143861   7.920   0.748   7.946 -0.8542 -0.9356 -0.0424
12675SOL    HW243862   8.021   0.634   7.948  0.3399  0.0595 -1.5221
12676SOL     OW43863   5.411   4.579   5.845  0.1496  0.3634 -0.6087
12676SOL    HW143864   5.350   4.645   5.879 -1.4430 -1.1398 -0.4042
12676SOL    HW243865   5.492   4.627   5.828 -1.2403  2.5504 -1.3692
12677SOL     OW43866   8.450   2.970   9.135  0.5443 -0.3964 -0.3802
12677SOL    HW143867   8.416   3.047   9.091 -1.8352  0.9567  3.2940
12677SOL    HW243868   8.536   2.996   9.167 -0.0468  0.6829  0.4236
12678SOL     OW43869   3.326   3.109   4.804  0.1045  0.2266 -0.6466
12678SOL    HW143870   3.329   3.035   4.743 -0.9080 -0.7225  0.3933
12678SOL    HW243871   3.401   3.095   4.863 -0.6333 -0.5327  0.1372
12679SOL     OW43872   7.360   3.971   7.342  0.1796  1.0047 -0.6534
12679SOL    HW143873   7.391   3.983   7.432 -0.0376 -0.2193 -0.3976
12679SOL    HW243874   7.437   3.940   7.294 -0.1524 -0.2434 -0.4282
12680SOL     OW43875   8.115   0.530   5.536 -0.0992  0.0707 -0.4932
12680SOL    HW143876   8.143   0.453   5.585  1.5578  1.3089  0.6059
12680SOL    HW243877   8.174   0.532   5.460  1.4193  1.4298  0.6487
12681SOL     OW43878   3.427   2.824   7.448 -0.0515  0.4081 -0.1532
12681SOL    HW143879   3.440   2.742   7.496 -2.1271  0.3330  0.3809
12681SOL    HW243880   3.513   2.866   7.448  1.1533 -1.8711 -0.6801
12682SOL     OW43881   6.205   1.479   3.486  0.1575  0.0580 -0.1198
12682SOL    HW143882   6.270   1.527   3.538  0.5837 -0.7552  0.1074
12682SOL    HW243883   6.219   1.387   3.508 -1.1940 -0.1171  0.0561
12683SOL     OW43884   5.310   1.690   0.110  0.2615  0.4040  0.2141
12683SOL    HW143885   5.250   1.673   0.182  2.0665 -1.0825  1.4513
12683SOL    HW243886   5.397   1.687   0.149  1.2434  0.9608 -1.7834
12684SOL     OW43887   6.457   9.002   0.543  0.4299 -0.3618  0.5482
12684SOL    HW143888   6.438   9.081   0.493  1.8344 -0.1331  0.3327
12684SOL    HW243889   6.484   9.034   0.629  0.9333 -0.6037  0.4840
12685SOL     OW43890  10.213   6.248   3.888 -0.0539  0.1045  0.3103
12685SOL    HW143891  10.299   6.265   3.848 -0.1477  0.1610  0.1316
12685SOL    HW243892  10.219   6.158   3.919  0.2413  0.2681  0.7350
12686SOL     OW43893   8.195   6.091   4.242 -0.4617 -0.6000  0.4644
12686SOL    HW143894   8.162   6.004   4.220  1.4217 -1.2281 -0.0531
12686SOL    HW243895   8.272   6.102   4.186  1.3546 -0.0225  2.9523
12687SOL     OW43896   8.777   9.555   0.576 -0.6968  0.1607  0.0656
12687SOL    HW143897   8.792   9.629   0.517 -1.2676  0.4723  0.2921
12687SOL    HW243898   8.709   9.587   0.636 -1.8662 -0.9611 -0.5981
12688SOL     OW43899   6.238   2.513   8.290 -0.6522  0.2718 -0.2090
12688SOL    HW143900   6.281   2.483   8.210  0.5862  2.0417 -0.2667
12688SOL    HW243901   6.209   2.602   8.270 -1.3158  0.3432  0.9596
12689SOL     OW43902   0.275   2.947   8.353  0.0387  0.0428 -0.0852
12689SOL    HW143903   0.264   2.928   8.260  0.0026 -2.3513  0.3546
12689SOL    HW243904   0.347   2.890   8.381 -1.1970 -0.7298  1.7312
12690SOL     OW43905   7.019   8.554   1.040  0.0902 -0.2338 -0.1186
12690SOL    HW143906   6.949   8.619   1.045  0.9185  0.6159  0.8656
12690SOL    HW243907   7.077   8.576   1.113  0.1282 -2.3986  0.5634
12691SOL     OW43908   3.423   6.322   3.967 -0.1948 -0.4795 -0.0895
12691SOL    HW143909   3.427   6.241   4.017 -1.4320 -0.2261  0.4484
12691SOL    HW243910   3.457   6.389   4.027  0.7622 -0.5632 -0.5096
12692SOL     OW43911   5.186   2.630   8.931  0.0807 -0.7545 -0.1129
12692SOL    HW143912   5.179   2.534   8.932 -1.9624 -0.6844  1.6506
12692SOL    HW243913   5.241   2.651   9.006  1.0883 -0.5434 -0.8972
12693SOL     OW43914   5.439   6.263   1.862 -0.1728 -0.1276  0.1705
12693SOL    HW143915   5.374   6.220   1.807 -0.6117  0.4527  0.2232
12693SOL    HW243916   5.508   6.290   1.801 -0.4798  0.1766 -0.0479
12694SOL     OW43917   9.319   0.382   7.695  0.5309  0.0425 -0.1907
12694SOL    HW143918   9.361   0.453   7.647 -1.1763  1.6190  0.5268
12694SOL    HW243919   9.254   0.348   7.633 -0.5851  1.0271  0.3999
12695SOL     OW43920   8.605   8.561   6.132 -0.0078  0.2925 -0.1669
12695SOL    HW143921   8.686   8.572   6.083 -1.4525  1.4250 -2.4956
12695SOL    HW243922   8.614   8.476   6.174  2.5384  0.5720  0.0200
12696SOL     OW43923   7.447   9.738   2.035 -0.2208  0.5231  0.1880
12696SOL    HW143924   7.444   9.642   2.041  0.8679  0.5440  2.2475
12696SOL    HW243925   7.474   9.755   1.945 -2.4006 -0.9853 -0.8657
12697SOL     OW43926   2.817   2.711   9.574  0.4749 -0.1263  0.1817
12697SOL    HW143927   2.755   2.782   9.561  1.5817  0.8820  0.3097
12697SOL    HW243928   2.897   2.739   9.531  0.4475 -2.0525 -1.2880
12698SOL     OW43929   3.015   6.587   7.318 -0.0131  0.2867  0.4549
12698SOL    HW143930   3.094   6.625   7.356  1.2311 -0.8565 -0.8961
12698SOL    HW243931   2.963   6.560   7.394  0.9958  0.8378  1.3728
12699SOL     OW43932   3.304  10.394   0.219 -0.0618  0.1109 -0.2665
12699SOL    HW143933   3.351  10.355   0.292 -0.5207 -1.5293 -0.8001
12699SOL    HW243934   3.268  10.475   0.254  0.3888 -0.2420  1.0824
12700SOL     OW43935   3.123   1.749   2.900 -0.0400 -0.0769 -0.0768
12700SOL    HW143936   3.167   1.689   2.961 -2.6493 -0.9919  1.0137
12700SOL    HW243937   3.192   1.812   2.876  1.2205  0.1973  3.6131
12701SOL     OW43938   6.243   2.805   3.698  0.1705 -1.2024  0.0874
12701SOL    HW143939   6.266   2.732   3.755 -0.8726 -0.9171  0.8876
12701SOL    HW243940   6.159   2.836   3.730 -0.6054 -1.2127 -1.7815
12702SOL     OW43941   4.598   3.723   1.576  0.6194  0.3243  0.2436
12702SOL    HW143942   4.641   3.641   1.601 -2.6766 -1.3947  0.8455
12702SOL    HW243943   4.590   3.772   1.659 -0.8912 -0.5970  0.6817
12703SOL     OW43944   2.604   4.741   6.388  0.2248 -0.0837  0.0508
12703SOL    HW143945   2.536   4.807   6.377 -1.1625 -1.3347  0.6262
12703SOL    HW243946   2.611   4.699   6.302  0.7171  0.4485 -0.1709
12704SOL     OW43947   9.475   2.383   4.708  0.1276  0.1049  0.4845
12704SOL    HW143948   9.490   2.350   4.797  0.0225 -0.9841  0.1201
12704SOL    HW243949   9.452   2.304   4.658  2.1551  0.3827 -0.9608
12705SOL     OW43950   1.729   0.719   0.582  0.1307 -0.5997  0.6697
12705SOL    HW143951   1.724   0.765   0.666  0.8583 -0.1135  0.4613
12705SOL    HW243952   1.727   0.789   0.516 -0.7349 -0.9935  0.2608
12706SOL     OW43953   2.344  10.207   0.213 -0.1786 -0.0540  1.1071
12706SOL    HW143954   2.326  10.118   0.244 -1.3793 -0.0771  0.3956
12706SOL    HW243955   2.381  10.195   0.126  1.2369  0.0981  1.6607
12707SOL     OW43956   9.427   5.562   0.190  0.2396 -0.3398  0.1133
12707SOL    HW143957   9.395   5.574   0.101 -0.3762 -0.4247  0.3137
12707SOL    HW243958   9.413   5.647   0.233 -1.6918 -0.9292  0.7878
12708SOL     OW43959   4.205   3.540   7.239 -0.0896 -0.3674  0.1413
12708SOL    HW143960   4.286   3.569   7.282  0.1367 -3.6020  2.2279
12708SOL    HW243961   4.235   3.492   7.162 -0.2903  1.3266 -1.0610
12709SOL     OW43962   1.291   0.669   2.411 -0.0688 -0.0333  0.4572
12709SOL    HW143963   1.296   0.581   2.448  2.4106 -1.1461 -2.1271
12709SOL    HW243964   1.244   0.658   2.328  1.2175  0.7750 -0.4273
12710SOL     OW43965   6.214   8.568   8.983 -0.2846  0.1213  0.5600
12710SOL    HW143966   6.291   8.522   9.016  0.3266  0.2049 -0.6653
12710SOL    HW243967   6.237   8.661   8.989  1.1336  0.1344 -2.7946
12711SOL     OW43968   1.575   7.731   4.044  0.2992 -0.2410 -0.1997
12711SOL    HW143969   1.650   7.714   4.101 -0.8086  0.9330  1.6966
12711SOL    HW243970   1.587   7.820   4.013  0.4881 -0.6021 -1.1995
12712SOL     OW43971  10.127  10.515   4.522  0.5865  0.2985 -0.2164
12712SOL    HW143972  10.139  10.493   4.430 -0.0033 -1.2695  0.0483
12712SOL    HW243973  10.037  10.488   4.542  0.8043  0.3127  0.8902
12713SOL     OW43974   8.730   5.454   2.615 -0.0016 -0.2234  0.3483
12713SOL    HW143975   8.684   5.397   2.676 -1.4275 -0.4159 -0.8619
12713SOL    HW243976   8.673   5.459   2.538  2.0241 -0.5361 -1.2642
12714SOL     OW43977  10.004   1.048   3.718  0.2142  0.1428  0.8706
12714SOL    HW143978   9.952   1.128   3.726  2.5685  2.0332 -1.1471
12714SOL    HW243979   9.982   0.997   3.796 -1.2805  2.8183  2.3378
12715SOL     OW43980   1.490   2.320   0.943  0.6099  0.4451  0.1149
12715SOL    HW143981   1.505   2.415   0.937  0.7546  0.3695 -0.9756
12715SOL    HW243982   1.507   2.288   0.854 -0.6445 -0.4311  0.1669
12716SOL     OW43983   0.358   0.493   2.135  0.1801 -0.5551 -0.5323
12716SOL    HW143984   0.354   0.480   2.230  1.5339  2.5901  0.0740
12716SOL    HW243985   0.282   0.445   2.102 -0.3221 -1.7908  2.0857
12717SOL     OW43986   0.496   6.542   0.535 -0.3189  0.2683  0.1235
12717SOL    HW143987   0.555   6.569   0.605  0.0433  0.2942 -0.1900
12717SOL    HW243988   0.533   6.581   0.456 -1.3958  1.2691  0.0770
12718SOL     OW43989   5.144   4.279   5.941 -0.1882  0.1666 -0.1386
12718SOL    HW143990   5.130   4.278   6.035  0.2034 -2.6484 -0.0238
12718SOL    HW243991   5.198   4.202   5.924 -0.7898  0.2213 -2.7338
12719SOL     OW43992   5.256   4.132   5.091  0.3555  0.3564 -0.1249
12719SOL    HW143993   5.323   4.189   5.129 -0.1540  0.7571  0.1876
12719SOL    HW243994   5.187   4.128   5.158 -0.3040  0.6189 -0.7812
12720SOL     OW43995   9.045   0.348   2.561 -0.0045 -0.4444 -0.0891
12720SOL    HW143996   9.085   0.399   2.632 -0.8177 -0.2301  0.2184
12720SOL    HW243997   9.118   0.330   2.502  0.8431 -1.2714  1.1690
12721SOL     OW43998   9.254   3.934   7.786  0.0881 -0.2209 -0.4044
12721SOL    HW143999   9.180   3.900   7.835  0.9027  0.3298  1.2568
12721SOL    HW244000   9.293   3.858   7.744 -1.1897 -0.5587 -1.0314
12722SOL     OW44001   7.714   9.322   6.952  0.5157  0.3579 -0.3746
12722SOL    HW144002   7.718   9.416   6.970 -3.1031  0.8684 -1.6071
12722SOL    HW244003   7.736   9.314   6.859 -1.7445  0.3992 -0.9678
12723SOL     OW44004   3.547   9.462   7.889 -0.2593  0.7906  0.6990
12723SOL    HW144005   3.531   9.554   7.868 -0.3619  1.1172  2.1451
12723SOL    HW244006   3.461   9.422   7.886 -0.1721  0.6516 -0.2755
12724SOL     OW44007   3.498   5.005   7.661  0.2333  0.2742 -0.2227
12724SOL    HW144008   3.467   5.075   7.719  1.3359  0.3359  0.3374
12724SOL    HW244009   3.517   5.049   7.578 -0.3502  0.3873 -0.2986
12725SOL     OW44010   6.829   3.758   3.760 -0.1377 -0.1694 -0.3587
12725SOL    HW144011   6.821   3.748   3.665  0.7340  0.0353 -0.4625
12725SOL    HW244012   6.918   3.728   3.779  0.9933  3.0371 -0.0815
12726SOL     OW44013   5.043   3.563   5.251 -0.2844 -0.4165 -0.0095
12726SOL    HW144014   5.099   3.621   5.301  0.2197 -1.0758  0.2031
12726SOL    HW244015   4.993   3.514   5.317 -0.3995 -0.5261 -0.1756
12727SOL     OW44016   6.395   0.100   1.851  0.4637 -0.3090 -0.0375
12727SOL    HW144017   6.460   0.169   1.859 -0.5425  0.6380  0.3298
12727SOL    HW244018   6.370   0.080   1.942  0.0331 -0.4382 -0.1785
12728SOL     OW44019   4.183   8.715   3.723  0.3254 -0.3486  0.8374
12728SOL    HW144020   4.160   8.721   3.630  1.5950  0.3590  0.5561
12728SOL    HW244021   4.278   8.719   3.725  0.2868  0.6537  2.2321
12729SOL     OW44022   4.210  10.434   2.890  0.7382 -0.1543  0.1538
12729SOL    HW144023   4.262  10.513   2.875  0.4278  0.7158  3.0491
12729SOL    HW244024   4.261  10.384   2.954  0.1229 -1.4845 -0.3642
12730SOL     OW44025   7.802   6.549   2.304  0.6371 -0.1202  0.3607
12730SOL    HW144026   7.885   6.508   2.328  0.0646 -0.7253  1.3866
12730SOL    HW244027   7.739   6.477   2.307 -0.0861  0.5087  0.5082
12731SOL     OW44028   2.001   2.887   1.397 -0.3770 -0.1343 -0.7791
12731SOL    HW144029   1.928   2.915   1.452  0.5964  0.8713  0.0315
12731SOL    HW244030   1.961   2.827   1.333 -1.7416 -0.3164  0.2041
12732SOL     OW44031   2.124   5.211   1.048 -0.2887 -0.5250  0.5467
12732SOL    HW144032   2.155   5.122   1.029  1.0857 -0.0182  0.3068
12732SOL    HW244033   2.131   5.218   1.143  0.8543 -0.2601  0.4611
12733SOL     OW44034   1.721   9.359   8.180 -0.1546  0.6672  0.2588
12733SOL    HW144035   1.760   9.292   8.236  0.9851  1.2740  0.2271
12733SOL    HW244036   1.689   9.426   8.241  0.1128  0.8189  0.2350
12734SOL     OW44037   8.178   9.931   3.623 -0.8398  0.3350  0.1642
12734SOL    HW144038   8.215   9.844   3.639 -0.7924  0.3247 -0.0036
12734SOL    HW244039   8.254   9.987   3.610 -0.8723  0.3922  0.2194
12735SOL     OW44040   0.081   3.565   6.592  0.1978  0.0037  0.2842
12735SOL    HW144041   0.099   3.495   6.655 -0.1326  0.7449  1.2119
12735SOL    HW244042  -0.009   3.547   6.563 -0.7235  1.2718  2.1838
12736SOL     OW44043   0.087   9.239  10.586  0.0562 -0.5260 -0.0902
12736SOL    HW144044   0.081   9.335  10.584  0.9999 -0.4382  0.7983
12736SOL    HW244045   0.010   9.210  10.537  0.4921  0.7017 -1.6252
12737SOL     OW44046   4.988   8.267   5.874  0.1154 -0.0635  0.0397
12737SOL    HW144047   4.991   8.209   5.950 -0.2981 -0.9708 -0.6229
12737SOL    HW244048   4.899   8.305   5.876  0.1534  0.0243  0.0848
12738SOL     OW44049   5.502   0.322   5.462  0.2701  0.3282 -0.2680
12738SOL    HW144050   5.490   0.256   5.393  1.1509 -0.6719  0.5106
12738SOL    HW244051   5.414   0.350   5.484 -0.0856 -0.2058 -0.9721
12739SOL     OW44052   5.473   7.628   0.506  0.1858 -0.5544  0.6866
12739SOL    HW144053   5.395   7.680   0.528  0.3684 -0.6478  1.5973
12739SOL    HW244054   5.469   7.553   0.565  0.8189 -0.7052  0.5388
12740SOL     OW44055   9.966   3.472   1.981  0.5349  0.6298 -0.4061
12740SOL    HW144056   9.928   3.401   1.929  0.8670  0.2362 -0.1204
12740SOL    HW244057  10.025   3.517   1.921  1.6785 -0.4355 -0.1153
12741SOL     OW44058   4.977   5.501   0.997 -0.0744  0.5991  0.1831
12741SOL    HW144059   4.905   5.563   1.012  0.3043  0.8806  0.8988
12741SOL    HW244060   4.950   5.452   0.919 -1.6564 -0.2161  1.1832
12742SOL     OW44061   6.760   8.285   2.275  0.0110 -0.3622 -0.5571
12742SOL    HW144062   6.667   8.294   2.293  0.3288  0.1262  0.9595
12742SOL    HW244063   6.764   8.237   2.192 -1.5728 -0.4891 -0.5839
12743SOL     OW44064   5.220   9.256   5.285 -0.1254 -0.1953 -0.1134
12743SOL    HW144065   5.274   9.177   5.283 -0.5164 -0.5315  1.5017
12743SOL    HW244066   5.283   9.328   5.279  0.3357 -0.6006 -0.2489
12744SOL     OW44067   2.014   8.993   8.579 -0.2236 -0.1010  0.1929
12744SOL    HW144068   1.947   8.933   8.611 -1.3805  1.2599  0.4205
12744SOL    HW244069   2.082   8.991   8.647 -0.8313 -0.2116  0.8156
12745SOL     OW44070   4.225   2.257   5.196  0.6251 -0.0357 -0.1114
12745SOL    HW144071   4.247   2.183   5.252  1.0197 -0.3310 -0.6456
12745SOL    HW244072   4.184   2.320   5.255  2.1387  0.1751  0.7510
12746SOL     OW44073   8.235   0.040   1.769 -0.4133  0.3038  0.1568
12746SOL    HW144074   8.208   0.081   1.686 -0.3833  0.3040  0.1469
12746SOL    HW244075   8.301   0.100   1.804  1.2860 -0.8372 -0.9491
12747SOL     OW44076   2.975   8.599   5.418  0.2852 -0.0401  0.1172
12747SOL    HW144077   3.010   8.669   5.364  1.3160 -1.9384 -1.8155
12747SOL    HW244078   2.888   8.582   5.382  0.5710 -0.6355 -0.3004
12748SOL     OW44079   7.417   4.192   0.366 -0.0340 -0.0831  0.1420
12748SOL    HW144080   7.334   4.175   0.320  0.6867 -0.6087 -1.0107
12748SOL    HW244081   7.411   4.284   0.392  0.3262  0.9195 -2.8615
12749SOL     OW44082   2.169   4.927   0.244  0.1555 -0.8924 -0.2418
12749SOL    HW144083   2.231   4.970   0.186  1.6912 -1.6080  0.8077
12749SOL    HW244084   2.115   4.872   0.187 -0.6576  0.9782 -1.3672
12750SOL     OW44085   9.899   1.200   7.304  0.0224 -0.3307 -0.3891
12750SOL    HW144086   9.980   1.223   7.348 -0.1807 -1.8250  0.8590
12750SOL    HW244087   9.925   1.174   7.215  0.5561  1.6843 -0.8822
12751SOL     OW44088   8.130   7.826   7.258  0.0398 -0.0423  0.4580
12751SOL    HW144089   8.216   7.793   7.230  0.0330  0.9337 -0.7540
12751SOL    HW244090   8.149   7.875   7.339  0.7945  0.9769 -0.3133
12752SOL     OW44091   7.285   6.984   0.899 -0.3807 -0.1414 -0.1117
12752SOL    HW144092   7.235   7.065   0.896 -0.6928 -0.2712  1.0832
12752SOL    HW244093   7.352   6.994   0.831  0.2166  1.5228  0.6821
12753SOL     OW44094   2.025   7.941   7.252 -0.3511  0.4304 -0.8471
12753SOL    HW144095   2.068   8.023   7.277 -1.2703  0.4885  0.6621
12753SOL    HW244096   2.026   7.888   7.332  0.0695 -0.9768 -1.7475
12754SOL     OW44097   9.793   4.359   4.047  0.1194  0.1977 -0.4091
12754SOL    HW144098   9.719   4.389   3.994  0.4694 -1.0920 -1.7023
12754SOL    HW244099   9.863   4.421   4.028 -0.3531  0.9186  0.1498
12755SOL     OW44100   4.380  10.346   7.823  0.0604 -0.4017 -0.3965
12755SOL    HW144101   4.424  10.261   7.816 -1.2061 -0.9851 -1.5469
12755SOL    HW244102   4.375  10.362   7.918  1.3930 -0.9998 -0.1912
12756SOL     OW44103   8.589   5.475   1.880  0.2371 -0.5912  0.0824
12756SOL    HW144104   8.667   5.520   1.910 -0.9768  1.7761 -0.0803
12756SOL    HW244105   8.535   5.464   1.958 -0.2816 -0.0099 -0.1816
12757SOL     OW44106   1.015   5.128   3.680 -0.0631 -0.3144 -0.1817
12757SOL    HW144107   1.010   5.054   3.620 -2.2505  1.0711 -1.8630
12757SOL    HW244108   1.096   5.173   3.656  2.1929 -2.8974  1.9595
12758SOL     OW44109   8.143   8.765   6.773  0.2734  0.4360 -0.1767
12758SOL    HW144110   8.189   8.822   6.834 -0.5027  0.3279  0.5287
12758SOL    HW244111   8.151   8.677   6.811  0.9711  0.1366 -0.9609
12759SOL     OW44112   3.765   6.807   9.421 -0.1904 -0.2399 -0.3485
12759SOL    HW144113   3.842   6.857   9.447  0.1870 -0.4748 -0.9903
12759SOL    HW244114   3.798   6.742   9.359 -0.7357 -1.0266  0.1625
12760SOL     OW44115   4.448   6.884   2.792  0.4937 -0.0305 -0.2808
12760SOL    HW144116   4.523   6.892   2.734  1.1519 -2.5240  0.1027
12760SOL    HW244117   4.373   6.873   2.734  0.5289  1.5357 -0.6562
12761SOL     OW44118   5.111   2.283   6.365 -0.0286  0.7193  0.5711
12761SOL    HW144119   5.067   2.276   6.280  1.7822  1.7399 -0.5342
12761SOL    HW244120   5.180   2.349   6.350 -0.2445  1.6177  3.1085
12762SOL     OW44121  10.471   1.522   6.796  0.2755  0.3073  0.0511
12762SOL    HW144122  10.436   1.544   6.710  1.2525 -0.4280 -0.5542
12762SOL    HW244123  10.411   1.564   6.858 -1.0234 -0.0041 -0.9560
12763SOL     OW44124   1.393   8.247   6.965  0.3549 -0.1597 -0.3628
12763SOL    HW144125   1.464   8.203   7.012 -0.1729 -2.1790 -1.2998
12763SOL    HW244126   1.436   8.314   6.912  1.3703 -0.3338  0.2157
12764SOL     OW44127   7.053   0.473   5.192  0.0954  0.1650 -0.0955
12764SOL    HW144128   6.959   0.480   5.208  0.0874 -0.3984  0.1269
12764SOL    HW244129   7.083   0.406   5.254  0.7792  0.8952  0.3835
12765SOL     OW44130   9.668   9.726   0.592 -0.6288 -0.3499 -0.2625
12765SOL    HW144131   9.760   9.698   0.593 -0.7015 -0.5865  1.2020
12765SOL    HW244132   9.633   9.695   0.675 -2.5470 -1.9435 -1.5682
12766SOL     OW44133   4.756   6.227   9.373  0.2462 -0.3873  0.4033
12766SOL    HW144134   4.752   6.140   9.333  2.9060 -0.9124  1.1072
12766SOL    HW244135   4.736   6.211   9.466 -1.3728  0.1337  0.1781
12767SOL     OW44136   5.263   3.860   9.819 -0.4637  0.1891  0.0893
12767SOL    HW144137   5.240   3.781   9.770  0.4672 -0.2091  0.2696
12767SOL    HW244138   5.246   3.932   9.758  0.2496 -0.2711 -0.6735
12768SOL     OW44139   8.791   9.323   7.055 -0.2505  0.3928  0.1206
12768SOL    HW144140   8.763   9.254   6.994  1.2753 -0.4197  0.2931
12768SOL    HW244141   8.762   9.292   7.141 -0.1607  0.2902  0.1147
12769SOL     OW44142   0.614   0.399   2.013 -0.2980 -0.0627  0.1609
12769SOL    HW144143   0.609   0.343   2.090 -0.6125  0.7809  0.7694
12769SOL    HW244144   0.531   0.447   2.013 -0.6301 -0.5728 -1.1296
12770SOL     OW44145   2.607   5.011   9.667  0.3866  0.6493  0.2521
12770SOL    HW144146   2.587   5.079   9.731 -1.6522  0.0719  0.2991
12770SOL    HW244147   2.690   4.973   9.697  0.6016  1.8610  1.2584
12771SOL     OW44148   6.163   7.305   7.107 -0.2415  0.1123 -0.2030
12771SOL    HW144149   6.165   7.224   7.158  1.5655 -1.1075 -2.0666
12771SOL    HW244150   6.221   7.365   7.155 -1.8515  0.5020  1.3707
12772SOL     OW44151   7.852   1.513  10.068 -0.5474 -0.6526  0.0184
12772SOL    HW144152   7.768   1.517  10.114 -0.2195 -2.7639  0.9656
12772SOL    HW244153   7.918   1.524  10.137 -0.0477 -0.8444 -0.4142
12773SOL     OW44154   2.348   0.132   8.757  0.2261  0.2170  0.2747
12773SOL    HW144155   2.301   0.049   8.761  0.6529  0.0148  1.2011
12773SOL    HW244156   2.285   0.196   8.790  0.6367 -0.0810  1.6857
12774SOL     OW44157   6.830   0.396   4.634 -0.5015 -0.2080 -0.1234
12774SOL    HW144158   6.761   0.360   4.690 -1.6882  1.4149 -0.4536
12774SOL    HW244159   6.908   0.397   4.690 -1.4079  0.3810  1.1920
12775SOL     OW44160   5.823   5.159   1.556  0.1235 -0.2890  0.5168
12775SOL    HW144161   5.912   5.179   1.585  0.0961  1.4728 -0.4968
12775SOL    HW244162   5.767   5.198   1.623  0.1041 -0.1693  0.4308
12776SOL     OW44163   6.580   2.584   7.074 -0.2756 -0.5309  0.2496
12776SOL    HW144164   6.603   2.573   7.167 -1.1080  0.3439  0.5685
12776SOL    HW244165   6.600   2.675   7.055 -1.4196 -0.3275 -0.0495
12777SOL     OW44166   1.066   3.953   1.930  0.5187  0.1008  0.6472
12777SOL    HW144167   1.102   3.882   1.876 -1.5049 -1.5233  1.3062
12777SOL    HW244168   1.127   3.959   2.004  1.9194  0.6187 -0.4894
12778SOL     OW44169   3.393   4.133   5.227  0.8007 -0.3655  0.6285
12778SOL    HW144170   3.325   4.169   5.169  1.5922  1.1780  0.6055
12778SOL    HW244171   3.460   4.100   5.167  0.3295 -1.3774  0.6550
12779SOL     OW44172   4.416   9.838   0.559 -0.2644 -0.0441 -0.2946
12779SOL    HW144173   4.437   9.912   0.617  0.1008  2.0975 -2.9467
12779SOL    HW244174   4.322   9.824   0.572 -0.0701 -0.0563  1.2466
12780SOL     OW44175   3.669   5.885   2.338  0.0301 -0.0360  0.0365
12780SOL    HW144176   3.697   5.840   2.259 -0.2401 -0.7374  0.3328
12780SOL    HW244177   3.584   5.847   2.360 -1.0455  1.8427 -0.6663
12781SOL     OW44178   3.491   0.880   2.455  0.0541 -0.2127  0.1347
12781SOL    HW144179   3.422   0.923   2.405  1.3758  0.6477 -1.0217
12781SOL    HW244180   3.485   0.788   2.429 -0.5936 -0.1378 -0.0064
12782SOL     OW44181   5.891   9.606  10.209 -0.2797 -0.1410  0.2418
12782SOL    HW144182   5.887   9.618  10.114 -1.6292  1.3302  0.4423
12782SOL    HW244183   5.845   9.524  10.225 -3.5633  1.4712 -0.1406
12783SOL     OW44184   9.824   0.362   3.989 -0.3753  0.3647 -0.1717
12783SOL    HW144185   9.780   0.358   4.074 -0.0695 -0.2329 -0.0294
12783SOL    HW244186   9.754   0.372   3.925 -0.5887  1.0737  0.1724
12784SOL     OW44187   7.366   3.384   2.667  0.3402  0.1961 -0.0886
12784SOL    HW144188   7.413   3.446   2.723 -0.0249  3.1570 -2.7710
12784SOL    HW244189   7.279   3.424   2.655  0.4389 -0.2308 -2.7431
12785SOL     OW44190   7.464   4.505   4.247 -0.3345 -0.3637  0.7701
12785SOL    HW144191   7.468   4.495   4.152  1.6274  1.0771  0.6287
12785SOL    HW244192   7.553   4.485   4.277 -0.9089 -0.7482  2.3137
12786SOL     OW44193   2.718  10.310   1.825  0.1436  0.3746  0.9723
12786SOL    HW144194   2.780  10.237   1.827 -0.7505 -0.3912  1.5692
12786SOL    HW244195   2.746  10.363   1.751 -0.5654 -1.7960 -0.9449
12787SOL     OW44196   0.449   1.761   2.239 -0.5386 -0.0611  0.3614
12787SOL    HW144197   0.359   1.748   2.212 -0.7050 -0.4091  1.0569
12787SOL    HW244198   0.493   1.679   2.220 -0.5885 -0.2070  0.8525
12788SOL     OW44199   3.364   5.330  10.494  0.1125  0.0074 -0.4252
12788SOL    HW144200   3.285   5.308  10.444 -0.2440 -1.4337  0.7047
12788SOL    HW244201   3.332   5.385  10.565 -0.0081 -1.1245  0.4206
12789SOL     OW44202   8.610   8.417   1.828 -0.3084  0.3801  0.5166
12789SOL    HW144203   8.542   8.352   1.845  0.3947 -0.2516  0.9980
12789SOL    HW244204   8.565   8.488   1.783 -1.1296 -0.3535  0.1618
12790SOL     OW44205   0.696   1.962   5.443  0.0926  0.0824 -0.4347
12790SOL    HW144206   0.707   1.878   5.398 -0.0321  1.0916 -2.4588
12790SOL    HW244207   0.624   1.946   5.505 -0.7388 -0.9995 -1.6138
12791SOL     OW44208   4.490   4.617   1.796 -0.6604 -0.4271 -0.2398
12791SOL    HW144209   4.484   4.698   1.847  0.1915 -0.6158  0.1834
12791SOL    HW244210   4.578   4.620   1.757 -0.0747 -1.7681  0.8805
12792SOL     OW44211   9.845   7.073   1.224 -0.0110 -0.4522  0.1253
12792SOL    HW144212   9.833   7.031   1.309  1.4912 -1.1339  0.0394
12792SOL    HW244213   9.794   7.019   1.163  0.5253 -1.1644  0.2921
12793SOL     OW44214   3.817   1.284   2.970  0.1638 -0.4738  0.1790
12793SOL    HW144215   3.911   1.300   2.976  0.0217  0.5843 -0.2507
12793SOL    HW244216   3.799   1.220   3.040  1.1340 -0.4421  0.4735
12794SOL     OW44217   7.213   3.443   8.396  0.8285 -0.3574 -0.1989
12794SOL    HW144218   7.286   3.409   8.448 -1.4040 -0.9719  2.7454
12794SOL    HW244219   7.230   3.537   8.390  1.2909 -0.3049  1.4730
12795SOL     OW44220   2.453   2.647   7.809 -0.7728  0.1853  0.8283
12795SOL    HW144221   2.378   2.591   7.829 -0.3731 -0.3790  0.7890
12795SOL    HW244222   2.523   2.614   7.866 -0.5227  0.6362  0.7899
12796SOL     OW44223  10.054   4.414   9.000 -0.1191  0.1212  0.6999
12796SOL    HW144224  10.031   4.507   9.009 -0.2539  0.4659 -2.2234
12796SOL    HW244225  10.117   4.412   8.928 -2.9198 -2.3340 -1.9701
12797SOL     OW44226   9.560   4.964   9.239  0.2949  0.4243 -0.2118
12797SOL    HW144227   9.545   4.966   9.333  0.1484  1.9254 -0.2473
12797SOL    HW244228   9.503   5.033   9.204  1.0891  0.5619 -1.2817
12798SOL     OW44229   8.614   5.373   3.896  0.4413 -0.2658 -0.3327
12798SOL    HW144230   8.690   5.418   3.933 -1.7576  2.7804  0.9141
12798SOL    HW244231   8.607   5.406   3.807  0.5304 -0.4865 -0.4222
12799SOL     OW44232   1.132   2.127   7.498 -0.6640 -0.1552  0.0668
12799SOL    HW144233   1.167   2.108   7.411 -0.8223  0.6958 -0.1965
12799SOL    HW244234   1.095   2.215   7.490  0.1107  0.3070  1.2305
12800SOL     OW44235   3.718   2.072   4.868  0.0054  0.2911 -0.1679
12800SOL    HW144236   3.803   2.045   4.834 -0.6652 -1.1402 -0.8214
12800SOL    HW244237   3.719   2.167   4.864  1.6414  0.3205  0.0385
12801SOL     OW44238   7.782   8.111   9.711  0.1055  0.1959 -0.2442
12801SOL    HW144239   7.786   8.206   9.695 -0.6765  0.5313  1.3321
12801SOL    HW244240   7.816   8.100   9.800  1.3031 -1.1744 -0.8241
12802SOL     OW44241   5.355   7.078   7.157 -0.2449  0.1195  0.3229
12802SOL    HW144242   5.417   7.041   7.219 -0.1932 -0.7566 -0.2326
12802SOL    HW244243   5.269   7.059   7.194 -0.2555 -1.4735 -0.4148
12803SOL     OW44244   3.829   6.325   5.197  0.7639  0.4714 -0.2174
12803SOL    HW144245   3.823   6.231   5.213  0.2248  0.6614  0.7574
12803SOL    HW244246   3.739   6.353   5.179  1.0158  0.6908 -1.2589
12804SOL     OW44247   9.585   9.705   7.018  0.2923 -0.0769  0.1697
12804SOL    HW144248   9.602   9.673   7.106 -0.2790 -2.0153 -0.3930
12804SOL    HW244249   9.662   9.677   6.967  0.8305  1.4146  0.1024
12805SOL     OW44250   0.013   1.604   6.334 -0.3779  0.3645 -0.6920
12805SOL    HW144251  -0.003   1.662   6.260 -3.3515 -0.5256 -0.8684
12805SOL    HW244252   0.002   1.660   6.411  2.2934  1.1873 -0.7819
12806SOL     OW44253   5.423  10.380   4.270 -0.0956 -0.0200 -0.2455
12806SOL    HW144254   5.361  10.313   4.243 -0.9046 -0.5096  2.4496
12806SOL    HW244255   5.509  10.338   4.264 -0.3982 -0.5986 -0.5246
12807SOL     OW44256   6.880   1.045   7.286  0.6298  0.1397  0.0924
12807SOL    HW144257   6.964   1.090   7.297  0.3157  1.8406 -3.2504
12807SOL    HW244258   6.899   0.972   7.228 -0.1840  0.5306 -0.6818
12808SOL     OW44259   0.275   7.639   4.926 -0.6655 -0.1155 -0.7229
12808SOL    HW144260   0.284   7.734   4.915 -0.2004 -0.2280 -1.3699
12808SOL    HW244261   0.191   7.628   4.972 -1.3403  0.5460 -1.7503
12809SOL     OW44262   4.331  10.270   7.070  0.5349 -0.1080  0.1457
12809SOL    HW144263   4.338  10.263   7.165 -1.3213 -0.9256  0.2798
12809SOL    HW244264   4.339  10.180   7.039  0.6808  0.1016 -0.4326
12810SOL     OW44265   0.703   4.261   2.647 -0.2816  0.3296 -0.3253
12810SOL    HW144266   0.630   4.322   2.651 -1.0237 -0.5621  0.2072
12810SOL    HW244267   0.663   4.178   2.618  0.2405 -0.5471  1.3415
12811SOL     OW44268   5.368   2.167   4.723  0.0514 -0.0019  0.1275
12811SOL    HW144269   5.286   2.208   4.695  0.6944  0.9217 -0.4633
12811SOL    HW244270   5.351   2.139   4.813 -1.3150 -0.9724 -0.3957
12812SOL     OW44271  10.100   7.173   0.191  0.2671 -0.2532 -0.5031
12812SOL    HW144272  10.180   7.225   0.184 -0.0321  0.1506 -1.0519
12812SOL    HW244273  10.099   7.121   0.110  0.1640 -0.5277 -0.3253
12813SOL     OW44274   1.380   9.858   6.357  0.0669  0.2824 -0.2131
12813SOL    HW144275   1.419   9.910   6.427 -0.4665  2.2464 -1.3032
12813SOL    HW244276   1.290   9.889   6.351 -0.6518 -1.6375 -0.1413
12814SOL     OW44277  10.398   3.673   4.968  0.1100 -0.1431 -0.1223
12814SOL    HW144278  10.456   3.621   5.023  1.9241  0.2929 -1.5027
12814SOL    HW244279  10.447   3.754   4.952 -1.7650  1.1203  0.2919
12815SOL     OW44280   4.092   4.586   3.221 -0.1415 -0.7392  0.0344
12815SOL    HW144281   4.136   4.613   3.301  0.3061  1.7703 -0.9621
12815SOL    HW244282   4.003   4.621   3.230 -0.6783 -2.0844  0.2019
12816SOL     OW44283   0.290   9.881   5.290  0.1354 -0.4327 -0.6420
12816SOL    HW144284   0.257   9.813   5.231  0.5621 -1.6884  0.5232
12816SOL    HW244285   0.385   9.870   5.290  0.1205 -0.7277  0.5736
12817SOL     OW44286   1.943   3.921   7.606 -0.7130  0.4139  0.3459
12817SOL    HW144287   1.921   3.977   7.680 -0.7002  0.7650  0.0881
12817SOL    HW244288   1.859   3.902   7.564 -0.8781 -0.8642  1.1989
12818SOL     OW44289   6.380   3.812   0.041  0.0220  0.1277 -1.1275
12818SOL    HW144290   6.414   3.759   0.113 -0.3631 -0.3135 -1.2684
12818SOL    HW244291   6.311   3.865   0.080 -0.6870 -0.6395 -1.3137
12819SOL     OW44292   6.304   6.696   3.655  0.2052  0.5334  0.0923
12819SOL    HW144293   6.333   6.684   3.565 -1.4312 -2.5616 -0.1524
12819SOL    HW244294   6.353   6.632   3.706  0.4713  1.6413  1.3121
12820SOL     OW44295   6.587   2.777   5.932  0.3248  0.0562 -1.0236
12820SOL    HW144296   6.551   2.788   6.020  2.4545  2.5760 -0.3523
12820SOL    HW244297   6.677   2.746   5.947  0.1171 -1.3854 -2.4447
12821SOL     OW44298   0.703   4.007   4.293 -0.1687 -0.0354  0.0023
12821SOL    HW144299   0.629   4.064   4.314 -1.0378 -1.7266  1.9369
12821SOL    HW244300   0.682   3.969   4.208 -0.5982  0.9234 -0.3245
12822SOL     OW44301   4.165   9.820   3.777 -0.0101  0.7247 -0.3755
12822SOL    HW144302   4.202   9.890   3.724 -0.6892  1.4522  0.0993
12822SOL    HW244303   4.231   9.751   3.774 -0.4319  0.3311 -2.9459
12823SOL     OW44304   7.130  10.436   2.667 -0.6639 -0.8579  0.0566
12823SOL    HW144305   7.136  10.357   2.720 -0.0124 -0.1139  1.1107
12823SOL    HW244306   7.220  10.468   2.660 -1.0256  0.2877  0.4280
12824SOL     OW44307   2.350   6.146   8.844 -0.0559 -0.1458 -0.1238
12824SOL    HW144308   2.442   6.144   8.870 -0.7296  0.0334  2.6398
12824SOL    HW244309   2.351   6.152   8.749  2.7868  0.7213 -0.1091
12825SOL     OW44310   6.516  10.424   5.591 -0.3168  0.8064 -0.4080
12825SOL    HW144311   6.467  10.398   5.669 -1.7894  0.2589 -1.5015
12825SOL    HW244312   6.542  10.515   5.609 -0.6394  0.6891  0.7103
12826SOL     OW44313   5.124   3.963   8.169 -0.1352 -0.7587 -0.0140
12826SOL    HW144314   5.127   4.016   8.089 -1.0084  0.8008  0.9353
12826SOL    HW244315   5.214   3.960   8.200 -0.2076  1.2109  0.5232
12827SOL     OW44316   6.254   4.388   4.035  0.2525 -0.3952 -0.7084
12827SOL    HW144317   6.296   4.435   3.963  0.3929  1.7597  0.6705
12827SOL    HW244318   6.166   4.368   4.004  0.4079  0.2390 -1.5778
12828SOL     OW44319  10.483  10.639   7.899  0.2885  0.1841  0.2555
12828SOL    HW144320  10.565  10.621   7.945  0.2627 -0.9508 -0.1167
12828SOL    HW244321  10.511  10.673   7.814  0.4625 -1.8636 -0.5741
12829SOL     OW44322   0.764   9.714   7.303  0.2113 -0.1767 -0.2588
12829SOL    HW144323   0.757   9.688   7.211  1.6292  0.6954 -0.6444
12829SOL    HW244324   0.704   9.788   7.311  0.3375 -0.0326 -0.5876
12830SOL     OW44325  10.609   1.250   9.221 -0.4875  0.3915  0.5714
12830SOL    HW144326  10.572   1.310   9.286 -1.8670  0.7487 -0.4815
12830SOL    HW244327  10.555   1.263   9.143  0.2155 -1.0561 -0.2042
12831SOL     OW44328   2.044   6.325   1.235  0.5075 -0.1734 -0.8596
12831SOL    HW144329   2.120   6.273   1.208  0.8578  0.3916 -0.9856
12831SOL    HW244330   1.969   6.272   1.211  0.8340 -2.0974  1.8906
12832SOL     OW44331   5.015  10.281   4.660 -0.3636  0.2632  0.1489
12832SOL    HW144332   5.043  10.338   4.732  1.2470 -1.2009  0.7455
12832SOL    HW244333   4.949  10.224   4.698 -0.2163  0.1363  0.2166
12833SOL     OW44334  10.619   6.116   1.495 -1.2457 -0.3637  0.4371
12833SOL    HW144335  10.538   6.112   1.443 -2.0431  0.9886  1.4912
12833SOL    HW244336  10.674   6.179   1.448 -0.4709 -1.8269 -0.6767
12834SOL     OW44337   3.925   3.318   2.154  0.1656 -0.0720  0.5311
12834SOL    HW144338   4.015   3.348   2.142 -0.0403 -0.3511 -2.5595
12834SOL    HW244339   3.932   3.222   2.158 -0.1010 -0.2477 -2.0066
12835SOL     OW44340   1.439   7.832   1.768  0.1237 -0.2747 -0.1379
12835SOL    HW144341   1.447   7.927   1.767  0.9315 -0.3312  0.0211
12835SOL    HW244342   1.486   7.804   1.846  0.5411 -0.8462 -0.5765
12836SOL     OW44343   2.673   0.192   4.685  0.0629  0.1026 -0.8378
12836SOL    HW144344   2.742   0.220   4.624  1.2465 -0.4962  0.1796
12836SOL    HW244345   2.696   0.235   4.768 -0.8456 -0.0432 -0.5018
12837SOL     OW44346  10.067   4.413   1.995 -0.0034  0.0034 -0.4266
12837SOL    HW144347  10.096   4.348   1.930 -0.2642  0.1460 -0.6917
12837SOL    HW244348  10.144   4.430   2.048  0.3876  0.3315 -1.0803
12838SOL     OW44349   3.808   0.086  10.441  0.3252  0.2024 -0.1273
12838SOL    HW144350   3.742   0.043  10.385 -0.0950  0.9034 -0.1807
12838SOL    HW244351   3.891   0.051  10.410 -0.0113 -0.6159 -0.1327
12839SOL     OW44352   2.588   4.648   0.381  0.1915 -0.2837 -0.2466
12839SOL    HW144353   2.609   4.569   0.430  0.6656 -0.9812 -1.5263
12839SOL    HW244354   2.536   4.617   0.306  0.6236  0.5746 -0.9202
12840SOL     OW44355   0.682   0.299   7.342  0.2237 -0.0408 -0.3993
12840SOL    HW144356   0.699   0.331   7.253  0.6936  1.0944  0.0887
12840SOL    HW244357   0.657   0.377   7.391  1.9602 -0.3040  0.9750
12841SOL     OW44358   8.837   8.744  10.479  0.2098 -0.0469  0.1470
12841SOL    HW144359   8.825   8.649  10.475 -0.1461  0.0290 -0.6469
12841SOL    HW244360   8.932   8.756  10.479  0.2527 -0.3700 -0.7137
12842SOL     OW44361   4.637   5.823   1.668  0.1135  0.0763 -0.2631
12842SOL    HW144362   4.635   5.917   1.648 -1.1033 -0.0626 -0.9179
12842SOL    HW244363   4.559   5.788   1.625  2.6025 -1.9672 -3.7001
12843SOL     OW44364   4.341   3.406   3.021  0.1916  0.4889  0.1829
12843SOL    HW144365   4.305   3.352   2.951  1.1695 -0.6547  0.5349
12843SOL    HW244366   4.322   3.496   2.994 -1.8142  0.0007 -0.2403
12844SOL     OW44367   4.770   5.654   3.874 -0.0866  0.1920 -0.0891
12844SOL    HW144368   4.826   5.703   3.934  3.4737 -2.1016 -1.1993
12844SOL    HW244369   4.739   5.719   3.811  3.2314  1.4080 -0.6729
12845SOL     OW44370   4.057   8.732   6.275 -0.2463 -0.0869  0.0836
12845SOL    HW144371   4.060   8.641   6.306  0.7590 -0.2024 -0.2947
12845SOL    HW244372   4.083   8.784   6.351  2.0221 -0.3563 -0.4294
12846SOL     OW44373   9.112   6.545   4.636  0.5751  0.0128  0.1597
12846SOL    HW144374   9.069   6.568   4.554  0.4370  2.2349  0.7941
12846SOL    HW244375   9.205   6.563   4.621  0.7660 -0.9723  0.0607
12847SOL     OW44376   0.610   8.433  10.213 -0.4154  0.1440 -0.4638
12847SOL    HW144377   0.685   8.492  10.221 -2.1373  2.1868  2.0606
12847SOL    HW244378   0.628   8.364  10.278 -0.2079  0.0049 -0.6670
12848SOL     OW44379   1.297   1.588   8.278  0.5891 -0.0611 -0.1292
12848SOL    HW144380   1.281   1.535   8.200  0.8932 -0.9665  0.4192
12848SOL    HW244381   1.211   1.624   8.301  0.2828 -0.7510 -0.1930
12849SOL     OW44382   0.726   0.657   3.070 -0.0236 -0.5470  0.0668
12849SOL    HW144383   0.804   0.614   3.034  0.4809  0.5161 -0.1391
12849SOL    HW244384   0.700   0.600   3.143  1.0134 -0.8655  0.2111
12850SOL     OW44385   7.656   5.260   0.614  0.0633 -0.8416  0.4111
12850SOL    HW144386   7.581   5.251   0.555  0.9788 -1.5715 -0.6913
12850SOL    HW244387   7.683   5.170   0.632  1.9884 -0.5838 -0.9752
12851SOL     OW44388   5.364   7.220   6.754 -0.9545 -0.2172 -1.0216
12851SOL    HW144389   5.399   7.272   6.827 -0.7884  0.7982 -1.8019
12851SOL    HW244390   5.391   7.130   6.774  0.8114  0.3156 -0.8126
12852SOL     OW44391   7.102   5.249   4.015  0.2775 -0.7501 -0.0718
12852SOL    HW144392   7.114   5.182   3.949 -0.5137  0.6217 -1.6899
12852SOL    HW244393   7.177   5.308   4.004 -0.8078  0.5103 -1.0968
12853SOL     OW44394   8.366   4.471  10.698  0.6469 -0.3608  0.3977
12853SOL    HW144395   8.360   4.506  10.787 -1.0689  0.9381 -0.1578
12853SOL    HW244396   8.396   4.546  10.646  1.2869 -1.0135 -0.1924
12854SOL     OW44397   4.202   4.660   8.966 -0.3223 -0.0676 -0.5052
12854SOL    HW144398   4.229   4.569   8.977  1.2910  0.4910  0.3940
12854SOL    HW244399   4.259   4.694   8.897 -0.1850  0.5343 -0.1047
12855SOL     OW44400   6.582   6.524   5.844  1.0116  0.6150 -0.1435
12855SOL    HW144401   6.677   6.535   5.850  1.3001 -0.2821 -2.3126
12855SOL    HW244402   6.551   6.603   5.799  0.6257  1.1694  1.0559
12856SOL     OW44403   3.035   6.435   4.534 -0.4369 -0.0816  0.2432
12856SOL    HW144404   3.036   6.508   4.596 -0.2461 -1.7501  2.3192
12856SOL    HW244405   3.120   6.393   4.546 -1.2604 -1.7366  0.5250
12857SOL     OW44406   6.372   5.585   6.961 -0.6349  0.0387  0.2405
12857SOL    HW144407   6.451   5.624   6.998  0.2361 -1.9200  0.5693
12857SOL    HW244408   6.404   5.527   6.891 -1.8308 -0.2779 -0.0653
12858SOL     OW44409   1.668   8.864   0.070 -0.0940 -0.4925 -0.2418
12858SOL    HW144410   1.602   8.796   0.083 -0.4439 -0.2534 -0.7289
12858SOL    HW244411   1.623   8.932   0.020 -0.1472  0.6960  1.3357
12859SOL     OW44412   8.081   6.257   9.744  0.6209 -0.6355 -0.4661
12859SOL    HW144413   8.134   6.220   9.674  1.0122 -1.1479  0.0864
12859SOL    HW244414   8.135   6.246   9.823 -0.8470 -2.4564  0.3635
12860SOL     OW44415   4.300   1.440   3.006 -0.1894 -0.5834  0.8478
12860SOL    HW144416   4.379   1.386   3.009 -0.3490 -0.9136 -0.3072
12860SOL    HW244417   4.331   1.528   2.987 -0.1720 -1.0635 -1.7816
12861SOL     OW44418   8.302   5.226   1.791  0.1730 -0.3392  0.2805
12861SOL    HW144419   8.349   5.307   1.769  0.0218 -0.1294  0.7161
12861SOL    HW244420   8.210   5.247   1.776 -0.1440  0.3946  2.6950
12862SOL     OW44421   4.013   3.486   9.244  0.1994  0.2172 -0.1160
12862SOL    HW144422   3.991   3.422   9.311 -1.7780  0.5610 -0.3466
12862SOL    HW244423   4.058   3.436   9.176 -0.5590 -0.7625  0.0797
12863SOL     OW44424   7.230   2.978   4.035 -0.0447  0.7563 -0.2428
12863SOL    HW144425   7.204   2.982   3.943 -0.1967  0.1715 -0.2288
12863SOL    HW244426   7.319   2.944   4.033 -0.5695 -0.6698 -0.1022
12864SOL     OW44427   7.949   6.984   9.014  0.0634 -0.6382 -0.1154
12864SOL    HW144428   7.862   6.967   9.050 -0.4332 -0.8086 -1.3363
12864SOL    HW244429   7.938   7.061   8.959  0.8170 -0.3222  0.1687
12865SOL     OW44430   3.664   9.045   6.999  0.4300  0.1235  0.2057
12865SOL    HW144431   3.626   9.129   6.972  2.3264  1.5641  1.7036
12865SOL    HW244432   3.630   9.032   7.088  1.2234  0.0134  0.4968
12866SOL     OW44433   7.526   1.023   9.234  0.2969 -0.0881  0.1872
12866SOL    HW144434   7.478   1.088   9.183 -0.2001 -0.0966  0.6399
12866SOL    HW244435   7.617   1.034   9.206  0.0782  0.1193 -0.4692
12867SOL     OW44436   4.393   8.757  10.415  0.1228  0.5157  0.2821
12867SOL    HW144437   4.464   8.771  10.352 -1.0576  0.4761 -1.1307
12867SOL    HW244438   4.359   8.845  10.432 -0.7279  0.3716 -0.5883
12868SOL     OW44439   6.107   4.842  10.654 -0.2084  0.0376  0.6000
12868SOL    HW144440   6.031   4.804  10.611  0.9170 -2.0070  0.2775
12868SOL    HW244441   6.159   4.767  10.682  1.9092  1.3468  0.4318
12869SOL     OW44442   5.829   7.291   5.353  0.5978  0.4546 -0.3118
12869SOL    HW144443   5.745   7.325   5.323 -0.6391 -1.1014  1.1499
12869SOL    HW244444   5.887   7.367   5.353 -1.2152  1.9216  0.0902
12870SOL     OW44445   3.068   8.024   2.871  0.2630 -0.3567  0.1502
12870SOL    HW144446   3.004   8.072   2.819  1.2099  0.3325 -0.4166
12870SOL    HW244447   3.022   8.000   2.951 -0.5377  0.5922 -0.0166
12871SOL     OW44448  10.138   5.860   6.519  0.3704  0.8862  0.1957
12871SOL    HW144449  10.166   5.782   6.566 -1.3741  1.2578  2.0047
12871SOL    HW244450  10.176   5.851   6.431  2.7257 -0.4593  1.2658
12872SOL     OW44451   7.870   0.469   3.304  0.1836 -0.5883  0.1623
12872SOL    HW144452   7.952   0.424   3.285  0.1787 -0.3882 -0.3525
12872SOL    HW244453   7.856   0.527   3.228 -1.5496 -2.2060 -0.8622
12873SOL     OW44454   2.949   1.923   0.948  0.2865 -0.4388  0.2502
12873SOL    HW144455   2.990   1.900   1.031 -1.9276  0.8838  1.8034
12873SOL    HW244456   2.985   1.860   0.885  1.7566 -1.7063  2.2638
12874SOL     OW44457   1.793   6.307  10.056  0.1937 -0.1063  0.3273
12874SOL    HW144458   1.873   6.256  10.068 -0.9865 -2.2703 -0.3372
12874SOL    HW244459   1.745   6.297  10.138  0.3204  0.6867  0.5074
12875SOL     OW44460   8.958   4.981   7.031 -0.4058  0.2189  0.6639
12875SOL    HW144461   8.958   4.885   7.028 -0.9117  0.2268  0.2040
12875SOL    HW244462   9.025   5.007   6.969  0.0370  0.1592  1.1130
12876SOL     OW44463   5.609   7.700   2.229 -0.2050  0.0831 -0.0219
12876SOL    HW144464   5.699   7.702   2.196 -0.1487 -0.0153  0.1226
12876SOL    HW244465   5.612   7.638   2.302 -0.4730 -0.2050 -0.2556
12877SOL     OW44466   1.658   3.014   9.136 -0.1166  0.1211 -1.2483
12877SOL    HW144467   1.624   2.993   9.049  0.1815  0.7118 -1.5098
12877SOL    HW244468   1.749   3.038   9.121 -0.5533  2.0430 -1.0184
12878SOL     OW44469   2.025   4.131   0.441  0.3249  0.3594  0.5661
12878SOL    HW144470   2.032   4.056   0.382 -0.3795  1.0099 -0.3814
12878SOL    HW244471   2.020   4.093   0.529 -0.0200 -0.6872  0.1027
12879SOL     OW44472  10.433   0.661   1.028 -0.0875 -0.0095  0.2110
12879SOL    HW144473  10.461   0.590   0.970  0.6752  1.2175 -0.9837
12879SOL    HW244474  10.340   0.675   1.007 -0.0015 -0.0573 -0.2030
12880SOL     OW44475   7.157   3.403   2.089  0.6501  0.3996  0.1377
12880SOL    HW144476   7.149   3.381   1.996 -0.1226  0.4769  0.1766
12880SOL    HW244477   7.106   3.483   2.099  1.8371  1.1544  0.3752
12881SOL     OW44478   9.861   8.279   7.254  0.3865 -0.2291  0.0430
12881SOL    HW144479   9.796   8.325   7.201  1.9103  2.4564  0.3061
12881SOL    HW244480   9.897   8.213   7.196 -1.4483 -0.7554 -0.5827
12882SOL     OW44481   1.136   8.549   0.494 -0.2654 -0.0438 -0.4175
12882SOL    HW144482   1.191   8.599   0.435  1.0177  0.2322  0.9456
12882SOL    HW244483   1.080   8.497   0.437  0.8443  0.2871 -1.8528
12883SOL     OW44484  10.705   4.880   5.507  0.3165  0.4722 -0.2721
12883SOL    HW144485  10.682   4.918   5.422 -1.7647  1.5265  0.7168
12883SOL    HW244486  10.753   4.949   5.552  1.4801 -0.1119 -0.5561
12884SOL     OW44487   3.632   5.554   3.926  0.1845 -0.0896 -0.1620
12884SOL    HW144488   3.661   5.645   3.911  0.8590  0.0735  1.8618
12884SOL    HW244489   3.582   5.532   3.848 -2.1539  2.9102  0.3171
12885SOL     OW44490   9.377   5.848   1.968  0.2126  0.4663  0.0229
12885SOL    HW144491   9.472   5.859   1.972  0.1440  1.2450 -0.4066
12885SOL    HW244492   9.365   5.753   1.962  0.9821  0.3900 -0.4233
12886SOL     OW44493   6.414   3.612   0.538 -0.0948 -0.1192  0.9247
12886SOL    HW144494   6.451   3.659   0.464  0.5137 -0.8779  0.7262
12886SOL    HW244495   6.431   3.519   0.519 -2.3522 -0.5444  0.7062
12887SOL     OW44496   8.714   8.151   5.417  0.2254  0.2427  0.0652
12887SOL    HW144497   8.709   8.103   5.499 -0.6767  0.5567  0.2009
12887SOL    HW244498   8.625   8.149   5.382  0.4996  0.5190 -0.6691
12888SOL     OW44499   2.924   7.452   6.350 -0.0411 -0.3120  0.4122
12888SOL    HW144500   2.945   7.360   6.370 -0.1849 -1.2413 -3.1119
12888SOL    HW244501   3.006   7.499   6.363  0.6890 -1.4096 -0.1004
12889SOL     OW44502  10.363   0.040  10.131 -0.1619 -0.0766 -0.7075
12889SOL    HW144503  10.411   0.064  10.051  1.3183  0.7867  0.3769
12889SOL    HW244504  10.425  -0.013  10.181 -0.4071  0.8084  0.5945
12890SOL     OW44505   3.376   3.642   2.929  0.3292  0.4549 -0.2085
12890SOL    HW144506   3.412   3.717   2.977  1.9097 -1.1135  1.2004
12890SOL    HW244507   3.281   3.652   2.936  0.4600  2.6210 -0.6294
12891SOL     OW44508   1.574   4.505   8.376  0.0677 -0.1607 -0.1620
12891SOL    HW144509   1.520   4.548   8.442  1.1958  0.6692  0.2517
12891SOL    HW244510   1.525   4.425   8.354 -0.0489 -0.8347  2.1788
12892SOL     OW44511   3.795   2.658   5.004 -0.3102 -0.1524 -0.4906
12892SOL    HW144512   3.856   2.706   5.060  0.1470  1.0998 -1.9855
12892SOL    HW244513   3.714   2.654   5.055  0.1538  0.7691  0.3565
12893SOL     OW44514   2.408   2.318   7.291 -0.0483 -0.3422  0.0549
12893SOL    HW144515   2.350   2.242   7.293 -0.2875 -0.1661 -0.2342
12893SOL    HW244516   2.423   2.339   7.383  0.6851 -1.2452  0.1593
12894SOL     OW44517   9.153   1.763   8.607  0.2860 -0.0279  0.0836
12894SOL    HW144518   9.246   1.765   8.581 -0.0133  2.2260 -1.0672
12894SOL    HW244519   9.155   1.781   8.701  1.0891 -2.6051  0.6446
12895SOL     OW44520   8.214   2.472   0.342 -0.0480  1.1986 -0.3769
12895SOL    HW144521   8.147   2.515   0.394  0.3501 -0.1779  1.3618
12895SOL    HW244522   8.281   2.540   0.327 -1.1415  2.1855 -0.9420
12896SOL     OW44523   8.553   3.504   0.081 -0.1363  0.6459  0.1637
12896SOL    HW144524   8.530   3.536  -0.006 -0.9942 -0.6846 -0.1215
12896SOL    HW244525   8.508   3.420   0.089  1.5268 -0.2042  1.1287
12897SOL     OW44526   6.809   7.184   4.888 -0.7957 -0.4269  0.3497
12897SOL    HW144527   6.861   7.118   4.934  1.6121 -0.2314 -1.8576
12897SOL    HW244528   6.872   7.232   4.835 -3.1585  0.0823 -2.2673
12898SOL     OW44529   4.021   0.304   6.010  0.2661  0.0784 -0.3095
12898SOL    HW144530   4.037   0.359   5.933  1.9202  1.8689  1.2450
12898SOL    HW244531   3.929   0.317   6.030 -0.1200 -0.1916 -1.7771
12899SOL     OW44532   9.749   4.291   2.866  0.3305  0.9305  0.0367
12899SOL    HW144533   9.773   4.351   2.936 -0.2209  0.8140  0.3325
12899SOL    HW244534   9.741   4.206   2.910 -2.1242  1.2100  0.2944
12900SOL     OW44535   6.110   4.655   3.774 -0.2990  0.5752 -0.0733
12900SOL    HW144536   6.197   4.638   3.736  0.4873 -0.7382  2.1301
12900SOL    HW244537   6.059   4.691   3.701  1.7818  0.4268 -1.7094
12901SOL     OW44538   2.621   7.906   8.104  0.0980 -0.0272  0.1976
12901SOL    HW144539   2.695   7.925   8.046  0.8152  0.0123  1.1049
12901SOL    HW244540   2.661   7.894   8.190 -0.7751 -1.6240  0.4183
12902SOL     OW44541   5.637   3.490   2.031  0.0936 -0.1137 -0.2105
12902SOL    HW144542   5.662   3.544   2.106  0.2825 -1.3993  0.6779
12902SOL    HW244543   5.559   3.533   1.996 -0.5022  0.0509  1.2490
12903SOL     OW44544   6.412   5.672   7.323  0.8474  0.0650  0.3195
12903SOL    HW144545   6.484   5.682   7.261  0.7497 -0.9514  0.0305
12903SOL    HW244546   6.333   5.672   7.269  0.7790 -1.1682  0.3844
12904SOL     OW44547   2.988   0.295   5.593 -0.0364 -0.4831 -0.0683
12904SOL    HW144548   2.970   0.219   5.649 -0.4101 -0.6916 -0.4641
12904SOL    HW244549   3.001   0.367   5.654  2.4666 -1.2702  0.4344
12905SOL     OW44550   1.777   7.600  10.286  0.1555 -0.0111  0.5868
12905SOL    HW144551   1.693   7.554  10.278  0.6486 -1.0385  1.1491
12905SOL    HW244552   1.785   7.650  10.205 -1.3220  0.6544  0.8213
12906SOL     OW44553   0.545   1.476   1.877  0.6112  0.6080 -0.2945
12906SOL    HW144554   0.514   1.500   1.964 -0.7288  0.0031 -0.5853
12906SOL    HW244555   0.474   1.500   1.818  0.7652 -0.6117 -1.0154
12907SOL     OW44556   5.314   4.408   2.366 -0.0473 -0.6775  0.1336
12907SOL    HW144557   5.359   4.340   2.317  0.4407 -0.1944 -0.1003
12907SOL    HW244558   5.383   4.472   2.387 -0.3648 -0.5845  0.9217
12908SOL     OW44559  10.402   2.742   6.697 -0.0423 -0.6897 -0.1403
12908SOL    HW144560  10.455   2.756   6.619 -0.3032  0.0414 -0.2047
12908SOL    HW244561  10.462   2.706   6.762  0.3641 -0.5427 -0.4305
12909SOL     OW44562   5.967   4.167   4.274  0.1114  0.1577  0.3317
12909SOL    HW144563   6.027   4.146   4.345 -1.2068 -0.3804  1.3309
12909SOL    HW244564   5.946   4.259   4.286 -0.0464  0.0880  0.6004
12910SOL     OW44565   5.393   2.442   4.339  0.3276 -0.0241 -0.5099
12910SOL    HW144566   5.379   2.364   4.285  1.3626 -0.3924 -0.2681
12910SOL    HW244567   5.344   2.424   4.420 -0.8028  0.3108 -1.0961
12911SOL     OW44568   2.827   2.654   1.282 -0.2294  0.5242  0.6320
12911SOL    HW144569   2.749   2.708   1.264 -1.1082 -0.5745  1.0256
12911SOL    HW244570   2.834   2.596   1.207 -0.3302  0.0171  1.0063
12912SOL     OW44571   4.673   4.080   2.797  0.3868 -0.1435  0.5128
12912SOL    HW144572   4.654   3.987   2.811  2.7058 -0.6767  0.4165
12912SOL    HW244573   4.588   4.118   2.772 -0.4630 -2.3778 -0.2386
12913SOL     OW44574   8.789   4.223   3.714  0.0890 -0.2026  0.8322
12913SOL    HW144575   8.772   4.279   3.789 -0.2450 -0.5458  1.0194
12913SOL    HW244576   8.820   4.141   3.751  0.1528 -0.2923  0.5862
12914SOL     OW44577   1.302  10.293   3.390 -0.5836  0.0478 -0.1898
12914SOL    HW144578   1.311  10.376   3.344 -1.5154  0.0960 -0.3095
12914SOL    HW244579   1.226  10.251   3.350  0.0660 -1.0216 -0.3523
12915SOL     OW44580   9.735   4.732  10.046 -0.6679  0.4656  0.2429
12915SOL    HW144581   9.738   4.636  10.042 -0.7551  0.4667  0.1440
12915SOL    HW244582   9.652   4.755  10.004 -0.7996  0.5702  0.5630
12916SOL     OW44583  10.151   0.731   5.640 -0.0908 -0.3803  0.0391
12916SOL    HW144584  10.171   0.782   5.562  1.2593 -1.3499 -0.2789
12916SOL    HW244585  10.063   0.696   5.625 -0.5803  0.9042 -0.2266
12917SOL     OW44586   4.462   6.178   5.681 -0.3888 -0.2646 -0.1459
12917SOL    HW144587   4.403   6.103   5.673  1.0382 -1.5479  0.8412
12917SOL    HW244588   4.523   6.169   5.608  0.9549 -1.2037  1.0401
12918SOL     OW44589   7.509  10.347   1.288  0.1198  0.7606  0.3136
12918SOL    HW144590   7.581  10.358   1.226 -0.5581 -0.7220 -0.7954
12918SOL    HW244591   7.485  10.255   1.281 -0.6017  0.7586  2.1297
12919SOL     OW44592   4.026  10.135   4.368  0.9046 -0.0349  0.3718
12919SOL    HW144593   3.958  10.107   4.430  0.4368 -0.2169 -0.2089
12919SOL    HW244594   4.106  10.138   4.420  0.5308 -0.2382  0.9733
12920SOL     OW44595   8.568   2.814   2.188 -0.2712 -0.3048 -0.2796
12920SOL    HW144596   8.640   2.752   2.178  1.8167  1.9441 -0.2957
12920SOL    HW244597   8.553   2.849   2.101 -1.7435 -1.0752 -0.3569
12921SOL     OW44598   5.908  10.102   2.619 -0.2403 -0.3989  0.2778
12921SOL    HW144599   5.891  10.120   2.711  0.3220 -0.7469  0.4543
12921SOL    HW244600   5.995  10.139   2.603  0.1003 -1.2366  0.1536
12922SOL     OW44601   0.763   1.504   4.339  0.1090  0.2144 -0.1272
12922SOL    HW144602   0.730   1.459   4.262 -2.1887  0.8279  0.4276
12922SOL    HW244603   0.856   1.482   4.341 -0.1417 -1.3281 -1.9986
12923SOL     OW44604   5.713   7.218   2.914  0.5082  0.1330  0.2021
12923SOL    HW144605   5.698   7.312   2.922  0.2973  0.1026  0.1754
12923SOL    HW244606   5.802   7.205   2.948  0.8676  0.4629 -0.5730
12924SOL     OW44607   0.819   9.894   9.218  0.0539  0.0143  0.1005
12924SOL    HW144608   0.866   9.930   9.293  1.1691 -2.1050  0.4768
12924SOL    HW244609   0.880   9.901   9.145  0.4592 -1.4240  0.2726
12925SOL     OW44610   1.258   3.015   6.708  0.1341  0.1426  0.2601
12925SOL    HW144611   1.202   3.069   6.651 -0.0710 -0.7160 -0.3632
12925SOL    HW244612   1.326   2.982   6.650  0.3700 -0.1188  0.6837
12926SOL     OW44613   6.745   8.683   2.403  0.3822  0.3237 -0.3290
12926SOL    HW144614   6.815   8.623   2.380 -0.2436 -0.5235 -0.0558
12926SOL    HW244615   6.752   8.754   2.339  0.2439 -0.7372 -1.5681
12927SOL     OW44616  10.049   1.688   5.395 -0.0919  0.1040 -0.4267
12927SOL    HW144617  10.130   1.638   5.384  0.5592  0.9497  0.3766
12927SOL    HW244618  10.071   1.756   5.459 -0.7382  1.8656 -1.9697
12928SOL     OW44619   2.154   9.290   8.600 -0.3089 -0.2571 -1.0227
12928SOL    HW144620   2.064   9.284   8.568 -0.7412  0.3258  0.0428
12928SOL    HW244621   2.171   9.206   8.641 -1.5059  0.6833  1.5863
12929SOL     OW44622   4.236   5.645   7.883  0.2841  0.1425 -0.2238
12929SOL    HW144623   4.141   5.637   7.879  0.0674  2.1005 -0.0873
12929SOL    HW244624   4.266   5.622   7.795 -0.0862 -2.2751  0.2077
12930SOL     OW44625   3.337   0.201   0.441  0.1457  0.7099  0.3183
12930SOL    HW144626   3.295   0.194   0.527  2.1386  0.0460  1.2967
12930SOL    HW244627   3.428   0.174   0.456 -0.5497 -5.2554 -3.0036
12931SOL     OW44628   0.968   5.064   4.189  0.1916  0.5007  0.0222
12931SOL    HW144629   0.895   5.124   4.199 -1.0565 -0.9634  0.0991
12931SOL    HW244630   0.933   4.979   4.217  0.7016 -1.0728 -3.5461
12932SOL     OW44631   2.097   0.805   8.560 -0.0783  0.0767 -0.2884
12932SOL    HW144632   2.130   0.749   8.631  0.3495  1.1442  0.3813
12932SOL    HW244633   2.165   0.871   8.549 -0.5588  0.4438 -1.0936
12933SOL     OW44634   7.510   0.374  10.053  0.0547 -0.3821 -0.8630
12933SOL    HW144635   7.581   0.404  10.109 -0.3202  0.2383 -0.7063
12933SOL    HW244636   7.482   0.291  10.092  0.4069 -0.4150 -0.6769
12934SOL     OW44637  10.313   4.352   8.102  0.3270  0.0892 -0.2304
12934SOL    HW144638  10.382   4.307   8.150  0.4600  0.0493 -0.4585
12934SOL    HW244639  10.238   4.351   8.162  0.0146 -1.3264 -0.6076
12935SOL     OW44640   5.258   1.470   5.706  0.2515 -0.5274  0.0495
12935SOL    HW144641   5.211   1.402   5.657 -2.0175  0.6507  0.4629
12935SOL    HW244642   5.252   1.443   5.797 -2.0118  0.8795  0.3960
12936SOL     OW44643   3.117   9.907   5.791  0.1194 -0.4845 -0.2176
12936SOL    HW144644   3.059   9.981   5.770 -0.6615 -1.7081 -2.6594
12936SOL    HW244645   3.146   9.925   5.881 -1.3228  1.9341 -0.1413
12937SOL     OW44646   8.629   3.577   7.502  0.0513  0.1587 -0.5717
12937SOL    HW144647   8.569   3.504   7.516  1.9616 -1.6854 -1.5056
12937SOL    HW244648   8.576   3.643   7.456 -1.6208 -0.7687 -0.0679
12938SOL     OW44649   2.078   6.416   4.330  1.0167 -0.3074 -0.1830
12938SOL    HW144650   2.003   6.462   4.368  2.1797  0.2715  1.5084
12938SOL    HW244651   2.041   6.337   4.292 -0.9861  1.6570 -2.6889
12939SOL     OW44652   4.565   3.976   4.482 -0.5130  0.3855 -0.5383
12939SOL    HW144653   4.571   3.976   4.387  1.5964 -2.4686 -0.5328
12939SOL    HW244654   4.483   3.931   4.500 -0.9285  0.9477 -0.9795
12940SOL     OW44655  10.692  10.514   7.595  0.3550 -0.4639  0.2348
12940SOL    HW144656  10.768  10.557   7.555 -1.3421  0.5947 -2.0377
12940SOL    HW244657  10.624  10.581   7.596 -0.5942 -1.3731  2.2651
12941SOL     OW44658   8.927   7.474  10.294 -0.0887 -0.1036  0.8564
12941SOL    HW144659   8.851   7.435  10.336 -0.7437 -1.3942 -1.3272
12941SOL    HW244660   8.942   7.418  10.217  2.0730  1.0753  0.3618
12942SOL     OW44661   3.879   0.140   8.353  0.2617  0.0518 -0.4112
12942SOL    HW144662   3.878   0.232   8.328 -0.9426 -0.1310 -1.1070
12942SOL    HW244663   3.823   0.097   8.288 -0.1851 -0.9695  0.6180
12943SOL     OW44664   3.740   2.266   2.644 -0.0490  0.4086  0.1989
12943SOL    HW144665   3.671   2.235   2.586 -0.1514 -0.5937  0.8307
12943SOL    HW244666   3.813   2.289   2.585 -0.1641 -0.5386 -0.3371
12944SOL     OW44667   8.191   0.317   6.676 -0.3376 -0.4508  0.2679
12944SOL    HW144668   8.210   0.390   6.617  1.7455 -1.0312  0.1302
12944SOL    HW244669   8.125   0.352   6.736  0.3811  1.4675  0.0380
12945SOL     OW44670   6.618   5.431   8.926 -0.0276 -0.5857  0.4288
12945SOL    HW144671   6.668   5.478   8.860 -0.5936 -1.0290 -0.3310
12945SOL    HW244672   6.569   5.499   8.972  0.6256 -0.2384  0.6335
12946SOL     OW44673   4.106   3.690   9.406 -0.3979 -0.4177  0.1996
12946SOL    HW144674   4.048   3.638   9.351 -1.9480 -0.7528  2.0449
12946SOL    HW244675   4.058   3.771   9.422 -0.8215 -1.0637  2.4891
12947SOL     OW44676   0.715   0.878   6.154 -0.6475 -0.2696 -0.2467
12947SOL    HW144677   0.794   0.900   6.203 -0.4849  0.3051 -0.7558
12947SOL    HW244678   0.746   0.852   6.067 -1.0362  0.4429 -0.6142
12948SOL     OW44679   4.435  10.524   7.062  0.3357  0.3199  0.2381
12948SOL    HW144680   4.415  10.430   7.066 -0.8712  0.4673 -1.4493
12948SOL    HW244681   4.492  10.533   6.986 -0.4283  1.0607 -0.2668
12949SOL     OW44682   0.468   8.624   2.364  0.4681 -0.2406  0.3818
12949SOL    HW144683   0.466   8.632   2.268 -2.6110 -2.1414  0.1507
12949SOL    HW244684   0.394   8.677   2.393 -0.3910 -1.9120  1.3937
12950SOL     OW44685   5.246   1.910   2.436 -0.0778  0.6071 -0.2573
12950SOL    HW144686   5.331   1.954   2.432  0.6466 -0.8713 -1.8763
12950SOL    HW244687   5.201   1.938   2.357 -0.4008 -0.0030 -0.2902
12951SOL     OW44688   1.697   3.328   2.031 -0.0271  0.5087  0.1692
12951SOL    HW144689   1.720   3.260   1.967  0.9287  0.3003  0.7183
12951SOL    HW244690   1.619   3.371   1.993  0.1121 -0.0545 -0.7962
12952SOL     OW44691  10.346  10.707   5.819 -0.1402  0.4830 -0.0862
12952SOL    HW144692  10.263  10.718   5.865 -0.3060 -0.5992 -0.1018
12952SOL    HW244693  10.367  10.794   5.786 -0.8697  0.9239  0.5905
12953SOL     OW44694   7.216   2.448   5.901  0.1725 -0.1746  0.2961
12953SOL    HW144695   7.215   2.445   5.996 -0.0206  0.5375  0.3214
12953SOL    HW244696   7.263   2.369   5.875  1.0026  0.0717  1.0007
12954SOL     OW44697   7.108   6.227  10.224 -0.3517  0.3905  0.1722
12954SOL    HW144698   7.086   6.140  10.191 -1.7191  1.2479 -1.2767
12954SOL    HW244699   7.198   6.242  10.195  0.2169 -0.8537  1.1899
12955SOL     OW44700   9.812   7.725  10.697  0.5967 -0.5947  0.0558
12955SOL    HW144701   9.763   7.782  10.638  0.1258 -0.5374  0.4964
12955SOL    HW244702   9.806   7.638  10.657 -1.3277 -0.9232  0.9685
12956SOL     OW44703   5.142   4.353   8.509  0.0429 -0.1608 -0.3848
12956SOL    HW144704   5.185   4.388   8.587  0.0695  1.0690 -0.9303
12956SOL    HW244705   5.160   4.417   8.441 -0.3859 -0.9810 -1.2932
12957SOL     OW44706   7.635   5.079   9.775 -0.0466 -0.2745 -0.4452
12957SOL    HW144707   7.608   4.988   9.758  0.3178 -1.1518  2.8967
12957SOL    HW244708   7.702   5.097   9.709  0.7698 -2.9144 -0.4733
12958SOL     OW44709   4.484   5.792   1.106 -0.1214  0.0597  0.5568
12958SOL    HW144710   4.443   5.779   1.021  0.4700  0.5740  0.1810
12958SOL    HW244711   4.456   5.880   1.133 -0.1110 -0.0052  0.7801
12959SOL     OW44712   1.403   4.784   8.056  0.0755  0.2560 -0.0730
12959SOL    HW144713   1.481   4.732   8.037  0.0708 -0.2053  1.0922
12959SOL    HW244714   1.332   4.719   8.064 -0.0976  0.5108  0.5342
12960SOL     OW44715   0.323   0.484   3.200  0.2999 -0.3494  0.1584
12960SOL    HW144716   0.340   0.436   3.120 -0.5637  1.4369 -1.1664
12960SOL    HW244717   0.256   0.549   3.176  0.6262  0.8045  2.0892
12961SOL     OW44718   8.174  10.239  10.346  0.0395 -0.1888  0.1902
12961SOL    HW144719   8.173  10.187  10.426  0.4751  1.3938  1.2840
12961SOL    HW244720   8.082  10.256  10.326 -0.3033 -3.4366 -1.6890
12962SOL     OW44721   0.756   5.380   2.430 -0.7344 -0.0469  0.0366
12962SOL    HW144722   0.668   5.412   2.448 -1.2382 -0.6413 -1.2597
12962SOL    HW244723   0.748   5.331   2.348  0.9167  0.3587 -0.4015
12963SOL     OW44724   1.806   5.030   8.624  0.0897  0.0890  0.3585
12963SOL    HW144725   1.890   5.009   8.666 -0.0805 -0.2755  0.5186
12963SOL    HW244726   1.785   5.118   8.656  0.0763 -0.0928  0.8595
12964SOL     OW44727   6.981   6.095   7.589  0.0270 -0.8041 -0.5007
12964SOL    HW144728   6.909   6.047   7.631  1.0671 -0.8206  1.3884
12964SOL    HW244729   7.042   6.113   7.661  0.9852  0.9272 -1.6873
12965SOL     OW44730   4.272   5.507   3.153 -0.0177  0.2275  0.4796
12965SOL    HW144731   4.202   5.458   3.111  0.2085 -1.3596  1.8044
12965SOL    HW244732   4.351   5.480   3.107 -0.0079  0.1346  0.5502
12966SOL     OW44733   4.322   0.119   0.949 -0.7025  0.5103 -0.0336
12966SOL    HW144734   4.396   0.118   1.009 -2.0802 -1.7212  1.7816
12966SOL    HW244735   4.252   0.161   0.999 -1.2329  0.8133 -1.0124
12967SOL     OW44736   4.924   9.472   2.739 -0.1592  0.4756 -0.3938
12967SOL    HW144737   4.966   9.387   2.733 -1.1258  0.0058 -0.6558
12967SOL    HW244738   4.995   9.535   2.724  1.4040 -0.0864  3.4839
12968SOL     OW44739   5.077   0.743   2.317 -0.0109  0.0319  0.2092
12968SOL    HW144740   5.035   0.664   2.281 -1.1494  1.0435 -0.7399
12968SOL    HW244741   5.071   0.732   2.412  1.4545 -1.8528  0.1527
12969SOL     OW44742   3.437   4.244   1.906  0.2894 -0.0082 -0.0773
12969SOL    HW144743   3.409   4.182   1.973 -0.0970  0.8376  0.5601
12969SOL    HW244744   3.370   4.238   1.838  0.4527 -0.5550 -0.1911
12970SOL     OW44745   0.943   0.377   6.618 -0.5308 -0.2779 -0.0524
12970SOL    HW144746   0.940   0.441   6.546  0.3247 -0.3978 -0.1944
12970SOL    HW244747   0.854   0.340   6.620 -0.4216 -0.6582 -1.3920
12971SOL     OW44748   2.388   3.857   0.150  0.0219 -0.4595 -0.3232
12971SOL    HW144749   2.295   3.833   0.161 -0.5443 -0.0640 -3.4016
12971SOL    HW244750   2.425   3.786   0.097  1.3336 -0.2859  0.3249
12972SOL     OW44751   6.409   2.510   0.652 -0.1703 -0.0855  0.0698
12972SOL    HW144752   6.451   2.429   0.681  1.1212  0.2889 -0.6781
12972SOL    HW244753   6.319   2.485   0.631 -0.0127 -1.1521  0.5942
12973SOL     OW44754   6.468   1.216   0.418  0.2379 -0.5366  0.5143
12973SOL    HW144755   6.437   1.232   0.328 -1.4896 -0.2113  1.1320
12973SOL    HW244756   6.484   1.122   0.421  3.3408 -0.1980 -0.9921
12974SOL     OW44757   1.045   0.331   3.349  0.1607  0.4603 -0.2032
12974SOL    HW144758   1.047   0.242   3.316 -1.3888  0.1942  0.3468
12974SOL    HW244759   1.070   0.385   3.275 -0.4628 -0.3284 -1.0076
12975SOL     OW44760   0.690   5.272   9.283  0.0530  0.3451 -0.1281
12975SOL    HW144761   0.696   5.188   9.239 -0.0463  0.3018 -0.0593
12975SOL    HW244762   0.658   5.332   9.216 -0.0963  0.2794 -0.1153
12976SOL     OW44763   5.901   5.822   9.033 -0.2282  0.3331  0.1731
12976SOL    HW144764   5.990   5.839   9.066  0.7660 -2.8637 -0.5250
12976SOL    HW244765   5.866   5.757   9.093 -1.4399  0.2702 -0.5778
12977SOL     OW44766   6.995   7.680   3.447  0.0793 -0.0389  0.0127
12977SOL    HW144767   6.925   7.643   3.393  0.6267 -1.2144  0.0796
12977SOL    HW244768   6.957   7.684   3.535 -0.3686  0.6475 -0.2042
12978SOL     OW44769  10.631   9.244   1.234  0.4592  0.2414  0.1321
12978SOL    HW144770  10.586   9.161   1.251  2.0712 -0.7621 -0.2865
12978SOL    HW244771  10.656   9.277   1.320  1.9661 -0.9871  0.2013
12979SOL     OW44772   7.713   9.953   5.456 -0.0444 -0.4587 -0.3495
12979SOL    HW144773   7.631   9.942   5.503  0.3289 -0.5760  0.2927
12979SOL    HW244774   7.745   9.864   5.443  0.3295 -0.3851  0.0424
12980SOL     OW44775   3.795   3.680  10.585  0.4244 -0.1236 -0.1963
12980SOL    HW144776   3.887   3.662  10.600  0.9418 -0.6114 -3.2018
12980SOL    HW244777   3.750   3.600  10.612  1.2828 -1.0918 -1.4642
12981SOL     OW44778  10.146   1.515   2.613 -0.4890 -0.3722 -0.2095
12981SOL    HW144779  10.074   1.520   2.550 -1.0896  2.2261  0.5632
12981SOL    HW244780  10.104   1.523   2.698  0.6384  0.5389  0.2883
12982SOL     OW44781   6.210   4.608   6.806  0.3233 -0.1304 -0.1607
12982SOL    HW144782   6.282   4.630   6.746 -1.1282 -2.7052 -3.0955
12982SOL    HW244783   6.132   4.645   6.765 -0.5517 -0.5904  1.0211
12983SOL     OW44784   5.163   0.261   0.248  0.4828 -0.6038  0.4762
12983SOL    HW144785   5.139   0.212   0.168  1.3874  0.4932 -0.5068
12983SOL    HW244786   5.255   0.282   0.236  0.1632  1.2053  0.9358
12984SOL     OW44787   1.810   5.895   4.688  0.2341  0.2544  0.0088
12984SOL    HW144788   1.760   5.965   4.730 -0.8334  0.9714 -2.2529
12984SOL    HW244789   1.902   5.921   4.699 -0.1251  1.9487 -0.5803
12985SOL     OW44790   2.321   2.395   6.490  0.4076  0.4783 -0.1814
12985SOL    HW144791   2.324   2.440   6.405  0.1866 -0.8528 -0.9198
12985SOL    HW244792   2.349   2.306   6.471  1.3899  0.4247  1.3592
12986SOL     OW44793   1.944   8.531   6.514  0.3404 -0.0315 -0.1594
12986SOL    HW144794   1.882   8.480   6.567  0.6189 -1.4662 -1.1321
12986SOL    HW244795   1.893   8.555   6.436  1.2759 -2.4274 -1.6378
12987SOL     OW44796   9.194   1.887   8.852 -0.2583  0.0035  0.3289
12987SOL    HW144797   9.165   1.836   8.928 -0.9587 -0.4068 -0.1965
12987SOL    HW244798   9.287   1.865   8.843 -0.0298  0.5019  1.4008
12988SOL     OW44799   2.091   6.135   4.531  0.4570 -0.2462 -0.1193
12988SOL    HW144800   2.173   6.183   4.514  1.4206 -2.1448 -1.2210
12988SOL    HW244801   2.066   6.100   4.445 -0.8811 -0.6799  0.4187
12989SOL     OW44802   8.195   2.617   1.743  0.3957 -0.3300 -0.7564
12989SOL    HW144803   8.170   2.697   1.789 -1.9953 -1.3959 -0.0493
12989SOL    HW244804   8.261   2.646   1.680  0.9966  1.8350  0.7377
12990SOL     OW44805   8.707   3.011   0.672 -0.1993  0.2030  0.3642
12990SOL    HW144806   8.759   2.992   0.749  0.4029 -2.7016 -0.6205
12990SOL    HW244807   8.769   3.006   0.599 -1.1391  0.6463 -0.4902
12991SOL     OW44808   3.334   4.898   9.490 -0.0705  0.7962 -0.4602
12991SOL    HW144809   3.348   4.991   9.505 -0.2539  0.6837  0.4690
12991SOL    HW244810   3.246   4.892   9.453 -0.5662  0.8952  0.6802
12992SOL     OW44811   5.626   4.245   1.765  0.1501 -0.2811 -1.0240
12992SOL    HW144812   5.684   4.319   1.750 -0.8234  0.6816 -0.2286
12992SOL    HW244813   5.665   4.199   1.840  1.5027 -1.4188 -2.3454
12993SOL     OW44814   3.011   5.899   3.514 -0.5250  0.1769 -0.1284
12993SOL    HW144815   2.945   5.870   3.577 -0.3275  0.7136  0.3366
12993SOL    HW244816   3.024   5.824   3.456 -0.2886 -0.5343  0.8246
12994SOL     OW44817   5.837  10.622   3.447 -0.0177 -0.1796 -0.0779
12994SOL    HW144818   5.838  10.703   3.396 -0.2833 -0.6106 -0.7846
12994SOL    HW244819   5.782  10.563   3.396 -0.7769 -0.4438  1.0140
12995SOL     OW44820   2.115   3.003   8.883  0.2128 -0.2835 -0.1946
12995SOL    HW144821   2.164   2.946   8.942  0.3195  0.4676  0.4494
12995SOL    HW244822   2.145   2.977   8.795  2.2801  0.5944  0.2012
12996SOL     OW44823   5.902   0.136   5.570  0.4023 -0.5549  0.1404
12996SOL    HW144824   5.952   0.071   5.521 -1.9230 -4.3441  2.2797
12996SOL    HW244825   5.947   0.141   5.655  0.2390  0.2101  0.1851
12997SOL     OW44826   3.072   5.351   7.900  0.3933 -0.1533  0.8606
12997SOL    HW144827   3.118   5.411   7.841 -1.1489  0.0502 -0.2206
12997SOL    HW244828   2.997   5.402   7.932 -1.4720 -1.6614 -0.7807
12998SOL     OW44829   7.326   4.452   1.859 -0.4628  0.4819  0.2429
12998SOL    HW144830   7.306   4.432   1.950 -1.3546  0.8351  0.1329
12998SOL    HW244831   7.307   4.546   1.850  2.4564  1.1908  0.4405
12999SOL     OW44832   0.777   2.491   9.334 -0.1532 -0.1037  0.1218
12999SOL    HW144833   0.770   2.404   9.295 -1.0073 -0.4107  0.9167
12999SOL    HW244834   0.780   2.474   9.429 -0.9158  0.7553  0.3139
13000SOL     OW44835   5.860   9.875   6.351  0.1374 -0.0339  0.3309
13000SOL    HW144836   5.895   9.862   6.439 -0.5298 -1.3170  0.4369
13000SOL    HW244837   5.768   9.900   6.365 -0.4578 -1.8740  0.0199
13001SOL     OW44838   2.570   3.900   0.624 -0.2471  0.3200  0.6355
13001SOL    HW144839   2.548   3.836   0.692  0.7585 -0.4089  0.2963
13001SOL    HW244840   2.661   3.925   0.643  2.2336 -4.0148 -3.4401
13002SOL     OW44841   0.264   3.101   9.505 -0.3183 -0.6619 -0.1039
13002SOL    HW144842   0.351   3.141   9.515 -0.1706 -0.7744 -0.8260
13002SOL    HW244843   0.280   3.007   9.510 -0.2921 -0.7082 -0.8830
13003SOL     OW44844   0.017   6.837   2.378 -0.3955 -0.5345  0.2818
13003SOL    HW144845  -0.028   6.779   2.439 -0.5872 -1.9863 -1.1484
13003SOL    HW244846  -0.053   6.880   2.329 -0.2431  0.4259  0.8845
13004SOL     OW44847   7.589   5.857   8.368 -0.1430 -0.2548 -0.4277
13004SOL    HW144848   7.645   5.879   8.293  0.9739 -0.3050  0.3703
13004SOL    HW244849   7.628   5.903   8.442 -1.0247 -0.4902  0.2052
13005SOL     OW44850   2.654   6.409   3.619  0.1417 -0.1156 -0.8460
13005SOL    HW144851   2.663   6.501   3.643  0.0994 -0.5249  0.8793
13005SOL    HW244852   2.648   6.363   3.703  1.9846 -1.8757 -1.5978
13006SOL     OW44853  10.293  10.409   5.861 -0.4518 -0.3609  0.1956
13006SOL    HW144854  10.256  10.392   5.947  1.5999  0.6975  1.3638
13006SOL    HW244855  10.345  10.489   5.872 -0.3695 -0.0071 -2.1106
13007SOL     OW44856   0.836   2.793   6.109 -0.8596  0.1400 -0.0046
13007SOL    HW144857   0.920   2.746   6.103 -0.7126  0.3343  0.5323
13007SOL    HW244858   0.848   2.870   6.053 -0.8940 -0.1425 -0.4101
13008SOL     OW44859   9.636   9.729   4.172 -0.0188  0.4647  0.2130
13008SOL    HW144860   9.601   9.661   4.229  1.2704 -1.0271 -0.7222
13008SOL    HW244861   9.576   9.731   4.097 -0.9174  1.4588  0.9235
13009SOL     OW44862   4.208   6.320   2.950 -0.1634  0.0946 -0.2656
13009SOL    HW144863   4.181   6.262   3.021 -1.1529  1.5011  0.5647
13009SOL    HW244864   4.255   6.391   2.993  0.6821  0.1214 -1.2072
13010SOL     OW44865   1.909   5.136   2.288  0.4965 -0.1817 -0.2467
13010SOL    HW144866   1.848   5.063   2.297  0.7224 -0.3566 -0.1297
13010SOL    HW244867   1.876   5.186   2.213 -0.1788  0.1076  0.2376
13011SOL     OW44868   4.498   5.869   6.170 -0.1012  0.1359  0.3965
13011SOL    HW144869   4.560   5.916   6.225 -1.9491  3.7572 -0.2956
13011SOL    HW244870   4.537   5.870   6.082  0.5254 -1.0121  0.6507
13012SOL     OW44871   7.822   2.201   9.158 -0.7236  0.0432 -0.3723
13012SOL    HW144872   7.881   2.132   9.186 -0.8787 -0.5570 -1.4567
13012SOL    HW244873   7.796   2.246   9.238 -0.3296 -0.9247  0.3040
13013SOL     OW44874   0.890   5.023   4.923  0.2433  0.1942 -0.2697
13013SOL    HW144875   0.817   5.074   4.958 -2.5237 -1.8179 -2.5150
13013SOL    HW244876   0.953   5.019   4.994 -1.4546  2.7559  1.5677
13014SOL     OW44877   1.039   2.309   7.061  0.5121 -0.2484 -0.0645
13014SOL    HW144878   1.075   2.314   7.149  1.2530 -0.7392 -0.3266
13014SOL    HW244879   1.099   2.361   7.007 -1.4793  2.4850  0.1399
13015SOL     OW44880   3.864   0.635   6.164  0.1914 -0.5730  0.3301
13015SOL    HW144881   3.913   0.709   6.199 -1.0180  0.7729 -0.6989
13015SOL    HW244882   3.906   0.615   6.081 -1.4505  1.1952 -1.0127
13016SOL     OW44883   7.057   5.050   9.448 -0.1259 -0.2078  0.1279
13016SOL    HW144884   7.106   5.117   9.401 -1.4987  0.0824 -0.9640
13016SOL    HW244885   6.965   5.069   9.428 -0.5381 -3.5856 -1.9057
13017SOL     OW44886   4.054   6.880   9.448  0.1703  0.5751 -0.2811
13017SOL    HW144887   4.108   6.959   9.452  0.4889  0.4772 -1.9931
13017SOL    HW244888   4.076   6.840   9.364 -0.7081 -0.8285  0.1248
13018SOL     OW44889   7.667   6.377   3.194  0.3165  0.5169 -0.5489
13018SOL    HW144890   7.709   6.312   3.138  1.0520 -1.1431  1.8140
13018SOL    HW244891   7.739   6.425   3.234 -0.1865  1.5041 -0.8062
13019SOL     OW44892   3.593   3.494   4.067  0.3061 -0.2846 -0.3535
13019SOL    HW144893   3.509   3.540   4.065 -0.2720 -0.9924  2.6993
13019SOL    HW244894   3.658   3.563   4.054 -0.6902  0.3527 -2.2531
13020SOL     OW44895   6.852   3.744   2.358 -0.1384  0.3730 -0.0130
13020SOL    HW144896   6.809   3.796   2.426  0.5225  0.6978  0.1649
13020SOL    HW244897   6.915   3.804   2.318  0.0009 -0.0346 -0.4149
13021SOL     OW44898   5.084   7.438   8.685  0.1661  0.1028 -0.0347
13021SOL    HW144899   5.040   7.409   8.605  1.1141  0.2194 -0.6179
13021SOL    HW244900   5.023   7.501   8.724 -0.7560 -0.7223 -0.1180
13022SOL     OW44901   8.583   2.238   0.680  0.1866  0.2708  0.6348
13022SOL    HW144902   8.616   2.314   0.727 -1.7312  0.5352  1.6611
13022SOL    HW244903   8.531   2.191   0.745 -1.2930 -0.1847 -0.8184
13023SOL     OW44904   1.871   8.270   7.476  0.0679 -0.1866  0.6620
13023SOL    HW144905   1.877   8.226   7.561  2.3827  0.8965  1.1352
13023SOL    HW244906   1.854   8.362   7.497 -1.0271 -0.1668 -0.1673
13024SOL     OW44907   2.779   6.210   1.317 -0.6961 -0.1118 -0.3024
13024SOL    HW144908   2.823   6.131   1.349 -2.6457 -1.0023  0.3495
13024SOL    HW244909   2.845   6.279   1.325  0.7734 -1.4826 -0.0183
13025SOL     OW44910   4.425   4.031   8.252 -0.4988  0.1381  0.2135
13025SOL    HW144911   4.470   3.948   8.266 -2.1661 -1.2448 -1.9547
13025SOL    HW244912   4.391   4.055   8.338 -0.0497 -1.4713  0.8709
13026SOL     OW44913   9.549   1.231   4.540 -0.2069  0.3254 -0.0749
13026SOL    HW144914   9.519   1.183   4.618  0.3104 -0.9424 -0.6200
13026SOL    HW244915   9.478   1.219   4.476  0.7755 -1.5401 -0.9095
13027SOL     OW44916   0.295   8.525   6.416  0.2444 -0.1300 -0.4324
13027SOL    HW144917   0.315   8.504   6.325  1.1080 -0.1000 -0.2582
13027SOL    HW244918   0.343   8.459   6.467  1.5565  1.1415  0.0590
13028SOL     OW44919   7.377   0.448   2.338 -0.0847 -0.5799  0.1466
13028SOL    HW144920   7.329   0.396   2.273 -0.0155 -0.4731  0.0101
13028SOL    HW244921   7.468   0.420   2.328  0.0169 -0.1255 -0.2207
13029SOL     OW44922   4.124   6.216   7.360 -0.2179 -0.0946 -0.0009
13029SOL    HW144923   4.144   6.186   7.271 -3.1946  0.7171 -1.0690
13029SOL    HW244924   4.101   6.308   7.349 -0.2791  0.1234  1.6891
13030SOL     OW44925   2.886   5.584   4.224  0.0934 -0.0432 -0.2626
13030SOL    HW144926   2.904   5.574   4.130  0.4588  0.9307 -0.3103
13030SOL    HW244927   2.941   5.517   4.265 -0.8705 -1.1885 -0.7944
13031SOL     OW44928   6.148   5.306   9.255 -0.1814  0.0403  0.1400
13031SOL    HW144929   6.211   5.262   9.312  0.7360  0.5467 -0.4576
13031SOL    HW244930   6.066   5.305   9.305  0.4512 -0.0539  1.2094
13032SOL     OW44931   1.435   3.435   9.799 -0.2883 -0.4119 -0.4256
13032SOL    HW144932   1.513   3.391   9.764  0.1652 -0.7644  0.9726
13032SOL    HW244933   1.367   3.419   9.733  0.9148  0.2760 -1.8792
13033SOL     OW44934   5.850   5.636   6.651 -0.1492  0.4284 -0.0353
13033SOL    HW144935   5.828   5.675   6.735  1.8769  2.0455 -0.1836
13033SOL    HW244936   5.851   5.709   6.590  0.8182 -0.3111 -0.9566
13034SOL     OW44937   4.384   1.541   7.222 -0.8285  0.6322  0.3263
13034SOL    HW144938   4.402   1.578   7.308 -2.3921 -1.1137  1.4924
13034SOL    HW244939   4.400   1.447   7.232 -1.7189  0.2909 -1.0691
13035SOL     OW44940   5.390   5.329   6.084 -0.4293  0.5341  0.4291
13035SOL    HW144941   5.348   5.264   6.140 -2.1113  0.2168 -1.1102
13035SOL    HW244942   5.476   5.344   6.124 -0.9572 -0.8299  2.1612
13036SOL     OW44943   1.547   9.784   8.481 -0.0919  0.1081  0.2382
13036SOL    HW144944   1.621   9.772   8.422  1.5921 -0.9351  2.4221
13036SOL    HW244945   1.475   9.737   8.438  1.3675 -1.6059 -0.4801
13037SOL     OW44946   8.837   9.058   6.745 -0.2511 -0.0087 -0.4941
13037SOL    HW144947   8.847   8.969   6.710  1.2030  0.0422 -0.2540
13037SOL    HW244948   8.926   9.086   6.765 -0.6533  1.6547 -0.9076
13038SOL     OW44949   9.570   1.739   9.119  0.8159 -0.1770 -0.1367
13038SOL    HW144950   9.512   1.674   9.159  0.2112 -0.7071 -1.8142
13038SOL    HW244951   9.563   1.723   9.025  0.6502  2.3334 -0.6028
13039SOL     OW44952   2.895   0.138   3.155  0.1890 -0.2344  0.1066
13039SOL    HW144953   2.904   0.051   3.194  0.5077  0.4841  1.7380
13039SOL    HW244954   2.918   0.199   3.226  0.3272  1.1749 -1.0864
13040SOL     OW44955   7.465   9.157   3.720 -0.2101  0.7685 -0.2720
13040SOL    HW144956   7.535   9.221   3.712 -0.9824  1.5455 -1.0904
13040SOL    HW244957   7.396   9.203   3.767  0.8132 -0.8696  3.1268
13041SOL     OW44958  10.409   4.649  10.064  0.1114 -0.1975  0.3320
13041SOL    HW144959  10.393   4.647   9.969 -0.3942 -1.1686  0.4262
13041SOL    HW244960  10.478   4.714  10.075 -0.0140  0.1266 -0.6766
13042SOL     OW44961   7.242   1.682   2.679  0.2185  0.0487  0.6922
13042SOL    HW144962   7.317   1.662   2.623  0.2335 -1.2061  1.1318
13042SOL    HW244963   7.244   1.615   2.747 -1.8922 -0.6837  0.1203
13043SOL     OW44964   1.224   3.514   2.636  0.3394 -0.3123  0.3027
13043SOL    HW144965   1.284   3.520   2.561  2.1291 -1.8146  1.5303
13043SOL    HW244966   1.220   3.604   2.670  1.3787 -0.0482 -0.2133
13044SOL     OW44967   5.607   3.770   4.482 -0.1908 -0.0101  0.0167
13044SOL    HW144968   5.694   3.807   4.501 -0.1480  0.7288 -1.4245
13044SOL    HW244969   5.625   3.680   4.457  0.3103  0.3887 -1.1688
13045SOL     OW44970   1.683   2.001   1.870 -0.2680 -0.2958  0.2915
13045SOL    HW144971   1.683   2.035   1.781 -1.1524  0.4070  0.5420
13045SOL    HW244972   1.773   1.974   1.886 -0.2601 -1.1665 -1.0785
13046SOL     OW44973   0.878   7.717   0.062  0.3392 -0.1754 -0.1741
13046SOL    HW144974   0.969   7.745   0.066  0.0209  0.8370  0.2411
13046SOL    HW244975   0.855   7.695   0.152 -0.2259  0.9113 -0.0435
13047SOL     OW44976   4.036   8.699   7.594  0.6202  0.2013 -0.0432
13047SOL    HW144977   4.048   8.665   7.683  0.3557  5.0489  2.1797
13047SOL    HW244978   3.950   8.667   7.567  0.7658 -1.5180  1.3066
13048SOL     OW44979   5.785   0.212   9.287 -0.2653  0.1556  0.3988
13048SOL    HW144980   5.700   0.173   9.305 -0.8123  1.1142 -0.0223
13048SOL    HW244981   5.831   0.211   9.371 -0.6785 -0.3924  0.6215
13049SOL     OW44982   3.702   6.044   3.241  0.0396 -0.1909  0.2532
13049SOL    HW144983   3.750   6.024   3.161 -0.2690 -0.4095  0.1250
13049SOL    HW244984   3.614   6.010   3.227 -0.7214  1.8496 -0.2475
13050SOL     OW44985   2.836   4.480   9.315 -0.5181 -0.4806 -0.3296
13050SOL    HW144986   2.922   4.489   9.274 -0.3767  1.9806  0.3336
13050SOL    HW244987   2.774   4.494   9.243 -0.2941  0.9042 -0.2844
13051SOL     OW44988   2.912  10.514   8.904  0.0485  0.1808 -0.7292
13051SOL    HW144989   3.004  10.491   8.912 -0.0811  0.1774  1.0104
13051SOL    HW244990   2.907  10.606   8.930 -0.7039 -0.4060  1.4260
13052SOL     OW44991   5.197   9.191   8.324  0.2863  0.2993 -0.0893
13052SOL    HW144992   5.268   9.226   8.272 -0.5930  2.0727 -0.1723
13052SOL    HW244993   5.188   9.100   8.295  3.3067 -0.4281  0.8469
13053SOL     OW44994   1.033   1.729   2.323  0.2957  0.6917  0.2928
13053SOL    HW144995   1.030   1.650   2.270  0.1577  1.3976 -0.7661
13053SOL    HW244996   0.942   1.750   2.341 -0.0054  2.9485 -3.0324
13054SOL     OW44997   1.768   8.887   7.273 -0.2595 -0.1721  0.1683
13054SOL    HW144998   1.787   8.889   7.367  0.4713 -2.2962  0.1050
13054SOL    HW244999   1.761   8.795   7.252 -1.0888  0.2936 -1.7630
13055SOL     OW45000   4.064   3.715   2.224 -0.1927  0.5434 -0.1348
13055SOL    HW145001   4.148   3.678   2.253  0.5764  0.3734 -2.4158
13055SOL    HW245002   4.064   3.704   2.129 -2.7977  0.6103 -0.2047
13056SOL     OW45003   7.858   2.389   4.954 -0.3764 -0.5294 -0.1632
13056SOL    HW145004   7.842   2.482   4.968  2.0149  0.2217 -1.8048
13056SOL    HW245005   7.775   2.354   4.923 -0.3590  1.9675 -3.5478
13057SOL     OW45006   7.325   7.649   0.620 -0.4385 -0.0829 -0.2997
13057SOL    HW145007   7.297   7.578   0.563 -1.8070  0.0169  0.1941
13057SOL    HW245008   7.327   7.610   0.708 -1.1851  0.4668 -0.0288
13058SOL     OW45009   0.932   1.697  10.378  0.1069  0.1352  0.5410
13058SOL    HW145010   0.880   1.778  10.373 -1.7224 -1.0168 -0.1014
13058SOL    HW245011   0.990   1.700  10.302 -1.2500  0.0310 -0.5341
13059SOL     OW45012   4.368   2.545   6.004  0.0573 -0.7682  0.4534
13059SOL    HW145013   4.457   2.574   6.025  0.7441 -3.0833  1.1070
13059SOL    HW245014   4.331   2.516   6.087  0.0114 -3.0254 -0.2850
13060SOL     OW45015   5.492   5.292   8.395 -0.0509 -0.4459  0.4149
13060SOL    HW145016   5.510   5.241   8.316  0.2133 -1.0084  0.8311
13060SOL    HW245017   5.501   5.229   8.467  4.4202  0.9443  1.3880
13061SOL     OW45018   8.801   7.184   9.230  0.4139 -0.2568  0.0563
13061SOL    HW145019   8.795   7.230   9.146 -0.2790  0.4059  0.4603
13061SOL    HW245020   8.710   7.162   9.252  0.6436 -0.9173  0.3710
13062SOL     OW45021   7.236   9.733   1.754  0.0850  0.3814  0.3478
13062SOL    HW145022   7.159   9.726   1.810  0.3043 -0.6941  0.5330
13062SOL    HW245023   7.251   9.644   1.722  1.2007  0.5890  0.2531
13063SOL     OW45024   9.911   9.100   0.291 -0.0838 -0.2520 -0.6017
13063SOL    HW145025   9.953   9.150   0.221 -1.9504 -0.7208 -2.1446
13063SOL    HW245026   9.819   9.128   0.289 -0.2518 -0.4541  1.5477
13064SOL     OW45027   0.360   3.388   1.135  0.1450 -0.2503 -0.2179
13064SOL    HW145028   0.295   3.459   1.135  1.1618  0.7393  1.5815
13064SOL    HW245029   0.310   3.309   1.155 -1.0853 -0.2126 -2.6849
13065SOL     OW45030   5.743   7.629   4.103 -0.0320  0.3838 -0.0969
13065SOL    HW145031   5.773   7.634   4.194  0.7099 -0.9217 -0.2358
13065SOL    HW245032   5.817   7.661   4.051 -0.5837  1.4577 -0.2313
13066SOL     OW45033  10.718   4.257   8.059  0.0576 -0.0978  0.2490
13066SOL    HW145034  10.801   4.243   8.104  0.8138  1.6218 -0.5294
13066SOL    HW245035  10.655   4.203   8.107  1.9456 -3.0799 -0.3512
13067SOL     OW45036   1.993   8.903   5.916  0.7246 -0.3137  0.5197
13067SOL    HW145037   2.069   8.854   5.947  0.3478 -1.0923  0.2487
13067SOL    HW245038   2.014   8.994   5.936  1.3435 -0.5990  1.2393
13068SOL     OW45039  10.082   5.070   8.036 -0.5976  0.4715  0.9298
13068SOL    HW145040  10.025   5.013   7.985 -0.1475  0.3545  0.5541
13068SOL    HW245041  10.142   5.010   8.081 -0.0640  0.6520  0.4618
13069SOL     OW45042   2.139   1.538   0.006 -0.2475  0.0287  0.2547
13069SOL    HW145043   2.049   1.532  -0.025 -0.2607 -0.8114  0.4179
13069SOL    HW245044   2.160   1.631   0.004 -0.5804  0.0907 -1.3048
13070SOL     OW45045   8.005   7.984   0.345  0.3278  0.0420 -0.1638
13070SOL    HW145046   7.972   8.035   0.419  0.2719 -0.7178  0.3403
13070SOL    HW245047   7.946   7.909   0.339  1.0392 -0.5189 -0.2340
13071SOL     OW45048   6.424   8.282   5.470 -0.6153 -0.1623 -0.1045
13071SOL    HW145049   6.472   8.327   5.400  1.4297 -0.4129  1.0853
13071SOL    HW245050   6.335   8.320   5.465 -0.0253  1.1739 -1.6132
13072SOL     OW45051  10.381   2.568   2.476 -0.0619  0.1048  0.4137
13072SOL    HW145052  10.469   2.568   2.439 -0.3164 -1.0305 -0.2291
13072SOL    HW245053  10.379   2.646   2.532  0.5654  1.4825 -1.3978
13073SOL     OW45054   4.169   5.487   0.356  0.6459  0.0712 -0.1631
13073SOL    HW145055   4.136   5.465   0.443 -1.9493  0.3588 -0.9887
13073SOL    HW245056   4.171   5.403   0.309 -1.0188  0.3173 -0.7345
13074SOL     OW45057  10.214   6.126   0.884 -0.4260  0.1263 -0.6367
13074SOL    HW145058  10.234   6.066   0.956 -2.5723 -1.1215 -0.9858
13074SOL    HW245059  10.147   6.184   0.920 -1.5064 -0.4949 -1.5915
13075SOL     OW45060  10.350   6.274   3.534 -0.5059 -0.0874  0.3939
13075SOL    HW145061  10.420   6.273   3.599 -0.9322  1.0412  0.8993
13075SOL    HW245062  10.288   6.208   3.565 -0.3012 -0.1529  0.6698
13076SOL     OW45063   8.874   1.773   1.205  0.0907 -0.8300 -0.3758
13076SOL    HW145064   8.779   1.762   1.206  0.0109 -0.1957  0.9747
13076SOL    HW245065   8.888   1.864   1.231  1.1029 -1.6433  2.2917
13077SOL     OW45066   4.964   7.249   6.741  0.3491  0.4635  0.0219
13077SOL    HW145067   5.000   7.308   6.676  2.0790 -1.9550 -1.3930
13077SOL    HW245068   4.895   7.201   6.695 -0.2479  0.5603  0.7935
13078SOL     OW45069   3.213   4.169   8.097 -0.1331  0.1720  0.6706
13078SOL    HW145070   3.300   4.165   8.057 -0.3188 -0.1920  0.2977
13078SOL    HW245071   3.157   4.206   8.029 -0.5522 -0.9271  0.4016
13079SOL     OW45072   9.068   1.078   9.197  0.4391 -1.0887 -0.4905
13079SOL    HW145073   9.151   1.061   9.242  1.0236 -0.1750 -1.1955
13079SOL    HW245074   9.093   1.127   9.119 -0.6817 -1.6596 -1.2241
13080SOL     OW45075   1.868   4.117   1.766 -0.4409  0.2306  0.3529
13080SOL    HW145076   1.776   4.139   1.753 -0.3554  0.1049 -0.5275
13080SOL    HW245077   1.901   4.097   1.678  0.5078  0.5865  0.6116
13081SOL     OW45078   0.003   4.074   1.456 -0.0502  0.1656  0.4627
13081SOL    HW145079   0.060   4.120   1.395 -0.1058 -0.3488  0.0093
13081SOL    HW245080   0.025   4.110   1.541  0.6674  0.2624  0.2466
13082SOL     OW45081  10.120   4.432   8.287 -0.5229 -0.4649  0.2724
13082SOL    HW145082  10.071   4.402   8.363  0.0061 -2.9671 -0.2779
13082SOL    HW245083  10.064   4.411   8.212  0.3233 -1.0520 -0.2116
13083SOL     OW45084   3.901   5.895   9.728  0.1708  0.3194 -0.5603
13083SOL    HW145085   3.973   5.947   9.765  0.4374  0.2102 -0.9296
13083SOL    HW245086   3.923   5.805   9.751 -0.8562  0.4381  1.0641
13084SOL     OW45087   9.550  10.580   4.489  0.2676  0.1026 -0.3265
13084SOL    HW145088   9.535  10.656   4.432  1.1661 -0.9345 -2.0463
13084SOL    HW245089   9.597  10.616   4.565 -1.1735  1.5669 -0.0698
13085SOL     OW45090   1.735   0.057   4.308  0.4200  0.2223 -0.3758
13085SOL    HW145091   1.668   0.067   4.376  1.3825 -0.8880  0.7730
13085SOL    HW245092   1.727  -0.034   4.278  1.8942 -0.1601  0.3207
13086SOL     OW45093   7.256   0.002   1.846 -0.5845 -0.6388 -0.1512
13086SOL    HW145094   7.277  -0.088   1.868 -0.0851 -0.1785  1.3438
13086SOL    HW245095   7.198  -0.005   1.770 -0.7284 -2.2151  0.0769
13087SOL     OW45096   5.017   6.987   4.294  0.3183  0.2438  0.0166
13087SOL    HW145097   5.090   7.000   4.233  0.4344  0.4138  0.1891
13087SOL    HW245098   5.053   6.928   4.361  0.3059  0.3538  0.1194
13088SOL     OW45099   4.843   7.855   4.184  0.0017  0.6833 -0.0312
13088SOL    HW145100   4.801   7.937   4.159 -0.6097 -0.2600 -2.4218
13088SOL    HW245101   4.775   7.806   4.231 -0.5516  0.4878 -1.0028
13089SOL     OW45102   3.974   3.705   3.053  0.0554 -0.5066  0.1758
13089SOL    HW145103   3.906   3.773   3.047  0.0917 -0.5211 -0.4881
13089SOL    HW245104   4.038   3.729   2.986  0.2114 -1.0384  0.1300
13090SOL     OW45105   1.227   3.604   8.201  0.6094  0.1148 -0.3145
13090SOL    HW145106   1.245   3.559   8.119  0.4966 -0.2364 -0.1466
13090SOL    HW245107   1.145   3.567   8.232  0.6583  0.2340 -0.0349
13091SOL     OW45108   5.751   8.851   5.389 -0.5209  0.0797  0.3632
13091SOL    HW145109   5.727   8.848   5.296 -0.3655 -2.5659  0.3171
13091SOL    HW245110   5.692   8.788   5.431  0.7432 -0.2873  1.6827
13092SOL     OW45111   2.461   5.065   2.698  0.8990 -0.2553 -0.7842
13092SOL    HW145112   2.521   5.136   2.674  2.3415 -1.0367  0.3339
13092SOL    HW245113   2.433   5.029   2.614  0.6044  1.2364 -1.3550
13093SOL     OW45114   0.349   2.510   7.173 -0.3831 -0.0643 -0.5159
13093SOL    HW145115   0.395   2.508   7.257  0.0091  3.6315 -0.5146
13093SOL    HW245116   0.418   2.513   7.107 -0.6985 -2.2000 -1.0310
13094SOL     OW45117   8.419   7.995   4.261  0.1281  0.6215 -0.0631
13094SOL    HW145118   8.381   8.041   4.187  0.3309  1.5373  0.3907
13094SOL    HW245119   8.497   7.952   4.226 -0.4528  0.0049 -0.6478
13095SOL     OW45120  10.719   2.027   9.177 -0.3462  0.2033 -0.2644
13095SOL    HW145121  10.707   1.942   9.135 -1.7442  1.7002 -3.1690
13095SOL    HW245122  10.746   2.085   9.106 -0.2133  2.3606  1.4567
13096SOL     OW45123   5.666   5.424   8.105  0.6249  0.7295  0.5951
13096SOL    HW145124   5.733   5.426   8.037 -0.1565  1.5338 -0.1819
13096SOL    HW245125   5.593   5.474   8.068  0.1033  1.0107  1.9565
13097SOL     OW45126   9.896   8.225   3.365 -0.0756 -0.4706 -0.2611
13097SOL    HW145127   9.843   8.148   3.387 -0.6447 -0.4122 -1.3276
13097SOL    HW245128   9.842   8.299   3.391  0.8550 -0.3966  1.6215
13098SOL     OW45129  10.624   8.728   2.660  0.3906 -0.3017 -0.2123
13098SOL    HW145130  10.622   8.651   2.603  0.5357 -0.8925  0.5615
13098SOL    HW245131  10.699   8.779   2.630 -0.9234  0.6530 -2.1243
13099SOL     OW45132   4.273   7.885   2.224  0.0514 -0.3836 -0.9126
13099SOL    HW145133   4.290   7.884   2.130  0.7721  2.4152 -0.8874
13099SOL    HW245134   4.179   7.871   2.231 -0.4967  2.0614 -2.2939
13100SOL     OW45135   0.390   4.561   0.754  0.2254  0.4228 -0.7510
13100SOL    HW145136   0.328   4.540   0.683 -3.3955 -3.7799  3.0016
13100SOL    HW245137   0.355   4.641   0.793 -0.0736  0.6188 -1.4034
13101SOL     OW45138   7.789   4.712  10.436 -0.7358 -0.1458 -0.1260
13101SOL    HW145139   7.764   4.627  10.472  0.7251  0.1607  1.7709
13101SOL    HW245140   7.841   4.691  10.358  3.0280 -1.3472  2.4147
13102SOL     OW45141   7.521   2.564   0.122 -0.1158  0.4028  0.2799
13102SOL    HW145142   7.429   2.572   0.096 -0.3608  1.3926  1.3407
13102SOL    HW245143   7.521   2.499   0.192  0.4415 -1.7469 -1.6130
13103SOL     OW45144  10.393   5.502   2.990 -0.3220  0.1295  0.1326
13103SOL    HW145145  10.378   5.596   3.000  1.1425  0.5041 -0.8532
13103SOL    HW245146  10.477   5.486   3.033 -1.3871 -1.1000  1.8765
13104SOL     OW45147   8.312   8.261   6.338 -0.3014 -0.0897  0.6474
13104SOL    HW145148   8.224   8.291   6.359  0.5205  2.7595  0.4548
13104SOL    HW245149   8.364   8.341   6.332  1.9085 -1.5204 -1.1321
13105SOL     OW45150   6.361   9.011   0.151  0.3119 -0.0148 -0.2918
13105SOL    HW145151   6.424   9.054   0.095  0.7966 -0.6910 -0.2777
13105SOL    HW245152   6.413   8.951   0.205 -0.2006  0.2722  0.5424
13106SOL     OW45153   1.483   6.179   9.631  0.1101 -0.2861 -0.2808
13106SOL    HW145154   1.407   6.159   9.576  0.4694 -0.2469 -0.7876
13106SOL    HW245155   1.462   6.264   9.670  0.3281  0.2092 -1.2074
13107SOL     OW45156   8.618   1.287   9.423  0.1592 -0.1843 -0.2324
13107SOL    HW145157   8.544   1.297   9.363 -0.0982  1.3187  0.2816
13107SOL    HW245158   8.691   1.263   9.367 -0.7458 -1.9218 -0.7200
13108SOL     OW45159  10.032   0.044   5.392 -0.2273  0.2342 -0.2919
13108SOL    HW145160   9.946   0.045   5.432 -1.1246 -0.9671 -2.0767
13108SOL    HW245161  10.019   0.084   5.306  0.5372 -1.6512 -1.3450
13109SOL     OW45162   4.202   7.179   8.667 -0.1006  0.1285  0.2834
13109SOL    HW145163   4.211   7.263   8.622  0.6157 -0.5132 -0.8203
13109SOL    HW245164   4.290   7.142   8.666 -0.7122 -1.4163 -0.8469
13110SOL     OW45165   8.884   3.043   8.782  0.0551 -0.0664  0.1122
13110SOL    HW145166   8.809   2.992   8.812  0.0983 -1.0423 -1.3611
13110SOL    HW245167   8.849   3.130   8.764 -1.1998 -0.9785 -2.3233
13111SOL     OW45168   1.109   5.838   0.707  0.4379  1.1121 -0.0707
13111SOL    HW145169   1.173   5.771   0.685  0.7369  0.4798  2.4236
13111SOL    HW245170   1.027   5.790   0.720 -0.9121  1.9744 -3.8987
13112SOL     OW45171   7.290   9.033   9.109  0.4895  0.0779 -0.0009
13112SOL    HW145172   7.374   9.037   9.064  1.7238 -2.1201  1.8780
13112SOL    HW245173   7.238   8.969   9.060  1.1964 -1.0290  0.6437
13113SOL     OW45174   6.067   6.338   1.737 -0.5027 -0.3743  0.0684
13113SOL    HW145175   6.035   6.254   1.704  1.2065 -0.8688 -0.4433
13113SOL    HW245176   6.111   6.377   1.661  1.5975 -0.5386  1.1246
13114SOL     OW45177   6.767   6.474   6.818  0.2108  0.1507 -0.1956
13114SOL    HW145178   6.751   6.547   6.877 -0.3845 -0.1563  0.0421
13114SOL    HW245179   6.808   6.513   6.741 -1.5513  1.0027 -0.7622
13115SOL     OW45180   1.631   4.172  10.585 -0.0843 -0.6937 -0.1080
13115SOL    HW145181   1.569   4.169  10.658  1.3937 -0.8364  1.2185
13115SOL    HW245182   1.704   4.116  10.614  1.4505  0.8399 -0.7951
13116SOL     OW45183   6.074   2.538   7.374 -0.0903  0.1071  0.6212
13116SOL    HW145184   6.135   2.522   7.302 -1.7426  0.4063 -0.9360
13116SOL    HW245185   6.111   2.612   7.421  0.4878  0.6324 -0.6083
13117SOL     OW45186   1.013   9.743   9.838  0.1771  0.6468  0.5012
13117SOL    HW145187   1.022   9.782   9.925 -0.8987  2.1527 -0.0027
13117SOL    HW245188   0.944   9.795   9.796 -1.6500 -2.1029 -0.1156
13118SOL     OW45189   7.846   8.931   3.872 -0.1675 -0.3163 -0.3572
13118SOL    HW145190   7.916   8.993   3.850  0.8566 -1.1028  0.5900
13118SOL    HW245191   7.882   8.846   3.850 -0.4753 -0.8148  0.9872
13119SOL     OW45192   5.098   5.438   8.014  0.4370  0.2284  0.4400
13119SOL    HW145193   5.086   5.533   8.014  0.8315  0.2792  0.1496
13119SOL    HW245194   5.105   5.414   8.106  0.4992  0.5004  0.5047
13120SOL     OW45195   4.520   9.308   4.221  0.0112 -0.1722  0.2914
13120SOL    HW145196   4.452   9.251   4.258  0.9054 -0.7728  1.0685
13120SOL    HW245197   4.545   9.365   4.294  1.2653 -0.8555  0.4231
13121SOL     OW45198   3.089   4.769   8.111  0.5123 -0.1952  1.1777
13121SOL    HW145199   3.111   4.770   8.204 -1.3402  1.3008  1.6605
13121SOL    HW245200   3.174   4.776   8.066  1.4488 -1.1536  2.7180
13122SOL     OW45201   7.398   6.166   0.452  0.6103  0.7768  0.5208
13122SOL    HW145202   7.315   6.118   0.455  1.1013 -0.0678  2.5267
13122SOL    HW245203   7.462   6.105   0.488  1.9245  1.7552 -0.0985
13123SOL     OW45204   2.674   2.974   3.499 -0.2096  0.5060 -0.6092
13123SOL    HW145205   2.616   2.926   3.558  0.0073  1.0278  0.0466
13123SOL    HW245206   2.663   2.932   3.414 -0.0228 -0.7139 -0.0545
13124SOL     OW45207   5.132   9.220   7.769 -0.4941 -0.1994 -0.1648
13124SOL    HW145208   5.172   9.134   7.781 -2.8283 -1.2111  1.1403
13124SOL    HW245209   5.111   9.249   7.858 -1.5061  0.8189 -0.7078
13125SOL     OW45210   0.923   4.476   9.988  0.0731 -0.2827  0.0797
13125SOL    HW145211   0.983   4.463  10.062  0.0154  0.5424  0.2776
13125SOL    HW245212   0.944   4.405   9.927  1.3638  0.0886  0.0732
13126SOL     OW45213   8.860   6.489  10.298 -0.0243  0.2444  0.1485
13126SOL    HW145214   8.862   6.394  10.304  2.0421  0.1729 -0.7985
13126SOL    HW245215   8.802   6.516  10.370  0.3133 -1.6658  1.2206
13127SOL     OW45216   6.696   4.930   3.087  0.1785 -0.7916 -0.1421
13127SOL    HW145217   6.684   4.835   3.096 -0.3310 -0.6126  1.2923
13127SOL    HW245218   6.653   4.952   3.004 -0.8996 -1.6198  0.1837
13128SOL     OW45219   2.687   2.004   1.045  0.4991 -0.3674  0.3837
13128SOL    HW145220   2.594   1.988   1.025  0.1448  0.9570  0.8716
13128SOL    HW245221   2.690   2.012   1.140  1.3181 -1.4985  0.4718
13129SOL     OW45222   2.349   8.644   1.295  0.3406  0.2664  0.2194
13129SOL    HW145223   2.387   8.716   1.345 -0.1316  0.2610  0.6022
13129SOL    HW245224   2.388   8.651   1.208  0.3693  0.9300  0.2809
13130SOL     OW45225   2.419   4.621   3.548 -0.3967 -0.2213  0.0933
13130SOL    HW145226   2.479   4.547   3.551 -0.5469 -0.3814 -0.6968
13130SOL    HW245227   2.372   4.612   3.465 -1.8337 -0.3511  0.8765
13131SOL     OW45228   4.190   6.972   3.366 -0.4764 -1.2636  0.2231
13131SOL    HW145229   4.105   6.976   3.408 -0.6447 -0.7795 -0.1619
13131SOL    HW245230   4.246   7.028   3.419 -0.1768 -2.2258  0.9589
13132SOL     OW45231   7.361   2.244   6.672  0.7535  0.4609  0.1394
13132SOL    HW145232   7.282   2.287   6.705  1.1903  1.8656 -0.5519
13132SOL    HW245233   7.360   2.262   6.578  1.8050  0.3750  0.1009
13133SOL     OW45234   5.316   2.856   6.403  0.4972  0.2780  0.3897
13133SOL    HW145235   5.281   2.865   6.314  1.5726  0.1541 -0.0681
13133SOL    HW245236   5.410   2.873   6.393  1.3091 -3.0764  0.8599
13134SOL     OW45237   7.731   3.985   4.389  0.1747 -0.8537  0.0449
13134SOL    HW145238   7.734   4.020   4.478  0.9092 -0.7279 -0.0223
13134SOL    HW245239   7.696   4.057   4.337 -0.5205 -1.0182  0.2606
13135SOL     OW45240   0.949   1.242   1.840  0.1115 -0.4206 -1.0350
13135SOL    HW145241   0.943   1.295   1.760 -1.5600  0.3006 -0.4727
13135SOL    HW245242   0.890   1.284   1.902 -0.2986 -2.2079 -0.1335
13136SOL     OW45243   9.113   2.359   1.338  0.1433  0.5091 -0.1031
13136SOL    HW145244   9.195   2.334   1.379 -1.2812 -1.7413  1.6496
13136SOL    HW245245   9.124   2.335   1.245  2.1558  2.3029 -0.3983
13137SOL     OW45246   6.662   9.406   9.620  0.0467 -0.8178 -0.3404
13137SOL    HW145247   6.706   9.472   9.673 -1.3626 -0.0415 -0.0718
13137SOL    HW245248   6.711   9.326   9.635  1.4957  0.0558 -0.2815
13138SOL     OW45249   9.568  10.719   9.960 -0.0043  0.3578 -0.5203
13138SOL    HW145250   9.627  10.787   9.927  1.3722 -0.0961  0.8580
13138SOL    HW245251   9.534  10.754  10.042  0.5586 -0.5098  0.0984
13139SOL     OW45252   7.699   0.445   2.031 -0.5599 -0.2187 -0.3796
13139SOL    HW145253   7.691   0.378   1.964 -0.3006 -2.0467  1.3061
13139SOL    HW245254   7.786   0.430   2.070 -0.2859  1.4342 -0.2788
13140SOL     OW45255  10.328   2.749   8.338  0.1892 -0.0499  0.3255
13140SOL    HW145256  10.406   2.705   8.303 -0.1853 -0.3212 -0.1787
13140SOL    HW245257  10.269   2.757   8.262 -0.0621  0.6239  0.5870
13141SOL     OW45258   5.192  10.398   7.289  0.6629  0.0066 -0.4332
13141SOL    HW145259   5.172  10.319   7.339  0.4663 -0.2330 -0.8872
13141SOL    HW245260   5.204  10.367   7.200  1.3973  0.3801 -0.4696
13142SOL     OW45261   8.121   5.010   6.335  0.1377 -0.2814  0.6221
13142SOL    HW145262   8.140   4.995   6.428  0.1960 -1.6438  0.4152
13142SOL    HW245263   8.143   5.102   6.321  2.3167 -0.6009  1.4489
13143SOL     OW45264   7.532   9.523   1.340  0.2573 -0.8205  0.2290
13143SOL    HW145265   7.553   9.502   1.431  0.6088  2.1970  0.9506
13143SOL    HW245266   7.489   9.609   1.345  0.3940 -0.5210 -2.4603
13144SOL     OW45267   5.448   6.550   5.168  0.8834  0.6691 -0.0948
13144SOL    HW145268   5.379   6.525   5.106 -0.2564  1.0939  0.9631
13144SOL    HW245269   5.463   6.472   5.221  2.0110  0.2380 -1.0039
13145SOL     OW45270   0.765   1.546   6.884  0.4080  0.2654 -0.4338
13145SOL    HW145271   0.759   1.606   6.810  1.5295  1.6263  0.5261
13145SOL    HW245272   0.828   1.587   6.943 -0.8824 -0.4731  1.5629
13146SOL     OW45273   7.232  10.583   9.557  0.1826 -0.3362 -0.1602
13146SOL    HW145274   7.275  10.667   9.541  1.5526 -1.0029 -0.2153
13146SOL    HW245275   7.183  10.595   9.638  0.3432  0.5149 -0.1820
13147SOL     OW45276   6.491   7.830   7.000 -0.4879  0.5368  0.6638
13147SOL    HW145277   6.572   7.874   6.972 -0.2575  0.4963  1.2582
13147SOL    HW245278   6.494   7.834   7.095 -0.5568 -0.6007  0.7204
13148SOL     OW45279   0.561   8.897   0.232 -0.5081 -0.2555 -0.2207
13148SOL    HW145280   0.469   8.920   0.221 -0.1372  0.4078 -2.4318
13148SOL    HW245281   0.574   8.894   0.327 -2.4237  1.1955  0.1457
13149SOL     OW45282  10.423   5.224   6.765  0.4345 -0.0473 -0.9787
13149SOL    HW145283  10.407   5.229   6.859 -0.8982 -0.4365 -1.1662
13149SOL    HW245284  10.518   5.213   6.758  0.5527 -0.0458  0.3142
13150SOL     OW45285   7.416   6.169   7.999 -0.7615 -0.0440  0.4942
13150SOL    HW145286   7.425   6.240   8.062 -0.1375  0.3086  0.0165
13150SOL    HW245287   7.348   6.112   8.036 -1.8856  1.2434  0.4784
13151SOL     OW45288   5.842   7.210   0.988  0.1738  0.0808 -0.0485
13151SOL    HW145289   5.810   7.250   0.907 -0.2260  0.3757  0.2506
13151SOL    HW245290   5.796   7.257   1.057 -0.7771 -1.2873  0.3055
13152SOL     OW45291  10.658   8.423   8.116 -0.1324  0.3310  0.4272
13152SOL    HW145292  10.641   8.334   8.147 -2.8278  0.6928  0.2499
13152SOL    HW245293  10.648   8.477   8.195  2.1752  0.4707  0.6768
13153SOL     OW45294   0.565   5.243   6.377 -0.1270  0.0946  0.1284
13153SOL    HW145295   0.478   5.212   6.403 -0.6603  0.5841 -0.9877
13153SOL    HW245296   0.580   5.320   6.431  0.0370 -0.5484  1.0103
13154SOL     OW45297   1.651   4.243   9.847 -0.5155 -0.0002  0.3052
13154SOL    HW145298   1.684   4.241   9.757 -0.9204 -1.2130  0.1709
13154SOL    HW245299   1.730   4.254   9.901 -0.0059 -1.5861 -0.0802
13155SOL     OW45300   5.189   6.824   8.871  0.0279  0.6295 -0.0478
13155SOL    HW145301   5.113   6.877   8.892  0.1144  0.3867  0.9287
13155SOL    HW245302   5.225   6.863   8.791 -0.7229  1.1525 -0.1328
13156SOL     OW45303   6.808   9.260   0.292 -0.1435 -0.1237  0.2361
13156SOL    HW145304   6.776   9.219   0.372  0.0138 -1.9559 -0.5941
13156SOL    HW245305   6.864   9.194   0.251 -1.9243 -0.1281 -2.4802
13157SOL     OW45306   3.236  10.703   1.188 -0.0947 -0.1969  0.3246
13157SOL    HW145307   3.177  10.706   1.263 -2.2475 -1.3964 -1.1776
13157SOL    HW245308   3.217  10.783   1.139 -0.5783 -0.6368 -0.2192
13158SOL     OW45309   5.259   1.775   2.009 -0.5469  0.5870 -0.1107
13158SOL    HW145310   5.354   1.773   1.998 -0.4525 -2.3972  0.4534
13158SOL    HW245311   5.228   1.694   1.969 -2.8027  1.0883  0.4369
13159SOL     OW45312   4.525   7.513   4.123 -0.4142 -0.1962 -0.0889
13159SOL    HW145313   4.570   7.465   4.054  1.3487  0.9400  0.2157
13159SOL    HW245314   4.514   7.602   4.088 -0.2573  0.1717  0.7662
13160SOL     OW45315   1.620   1.363   3.493 -0.2727  0.1546  0.9655
13160SOL    HW145316   1.689   1.341   3.431 -2.4638 -1.2995 -1.1498
13160SOL    HW245317   1.666   1.387   3.574  2.6294 -1.1830 -0.1655
13161SOL     OW45318   1.869   9.457   3.246 -0.3070 -0.0823  0.4775
13161SOL    HW145319   1.822   9.481   3.166  1.8567 -0.6189 -1.0827
13161SOL    HW245320   1.871   9.537   3.298 -1.6861  0.3129 -0.0245
13162SOL     OW45321   5.346   4.913   9.301  0.2034  0.6198 -1.1152
13162SOL    HW145322   5.351   4.946   9.390 -1.0434  2.1488 -1.5681
13162SOL    HW245323   5.253   4.895   9.287  0.4124  0.1900 -2.0401
13163SOL     OW45324   6.968   0.784   2.464 -0.0857  0.6158  0.3227
13163SOL    HW145325   6.915   0.863   2.453 -0.1893  0.6811  1.2357
13163SOL    HW245326   7.046   0.814   2.511 -0.6314 -0.0016  1.6914
13164SOL     OW45327   1.293   7.486   8.836 -0.6151  0.6755  0.0397
13164SOL    HW145328   1.321   7.473   8.745  0.5080  1.1771  0.2918
13164SOL    HW245329   1.310   7.402   8.878  0.5878  0.9661  0.1853
13165SOL     OW45330   9.078   0.985   6.463 -0.5299 -0.1877 -0.3593
13165SOL    HW145331   9.120   0.982   6.377 -1.3017 -2.6449 -0.7220
13165SOL    HW245332   9.126   0.922   6.516  0.3187  1.7163  1.2751
13166SOL     OW45333   5.539   1.474   3.963  0.0964 -0.2242 -0.1717
13166SOL    HW145334   5.555   1.521   3.882  2.5236  0.7753  0.7928
13166SOL    HW245335   5.541   1.541   4.031  2.5064 -1.4644  1.1162
13167SOL     OW45336   8.295   9.478   5.709 -0.3100 -0.1228 -0.1976
13167SOL    HW145337   8.283   9.439   5.795  0.4943  0.5120  0.2099
13167SOL    HW245338   8.242   9.558   5.712  1.4578  1.0972  0.5423
13168SOL     OW45339   4.273   9.016   3.213  0.0993 -0.1363  0.3934
13168SOL    HW145340   4.219   9.082   3.256 -1.3066 -1.0413  0.1029
13168SOL    HW245341   4.262   9.033   3.120  0.7260 -0.0227  0.3390
13169SOL     OW45342   3.275   6.835   1.770  0.2337  0.4503  0.3349
13169SOL    HW145343   3.210   6.873   1.712 -0.8289 -1.0264  0.4996
13169SOL    HW245344   3.246   6.745   1.783  1.5389  0.1674  1.5620
13170SOL     OW45345   8.344   4.969   5.334 -0.7127  0.1751  0.1616
13170SOL    HW145346   8.371   4.895   5.389  1.6232  1.5850  1.0810
13170SOL    HW245347   8.404   4.966   5.260  0.2715  1.7914  0.8322
13171SOL     OW45348   0.482   8.575   8.902 -0.5071 -0.0585 -0.2656
13171SOL    HW145349   0.557   8.634   8.899 -0.2615 -0.3909 -0.8806
13171SOL    HW245350   0.506   8.509   8.967 -0.9318  0.7072  0.6850
13172SOL     OW45351   0.240   9.931   0.447 -0.4908  0.0263  0.5255
13172SOL    HW145352   0.305   9.873   0.408 -0.0185 -0.4751  1.9811
13172SOL    HW245353   0.279  10.018   0.443  0.5757 -0.3519  1.9206
13173SOL     OW45354   8.872   9.881   7.748  0.4968  0.8428 -0.1912
13173SOL    HW145355   8.851   9.911   7.660  1.5483  1.0623 -0.3738
13173SOL    HW245356   8.952   9.830   7.738  0.8049  1.1396  0.6850
13174SOL     OW45357   9.606   2.887   5.207  0.4766  0.0850 -0.1300
13174SOL    HW145358   9.638   2.963   5.256  0.4672 -1.1057  1.8247
13174SOL    HW245359   9.535   2.851   5.261  1.9043 -2.5702  0.1587
13175SOL     OW45360   0.031   9.299   3.288  0.3806  0.8546 -0.0595
13175SOL    HW145361  -0.011   9.381   3.314 -0.3505  0.4063  0.2253
13175SOL    HW245362  -0.030   9.259   3.226 -0.8513 -0.9460  2.1610
13176SOL     OW45363   4.801   9.058   3.682 -0.3130  0.1727  0.0732
13176SOL    HW145364   4.863   8.995   3.646  2.7962  3.6604 -1.2774
13176SOL    HW245365   4.744   9.081   3.608 -0.0769  0.4623 -0.0202
13177SOL     OW45366   0.856   5.200   6.375  0.0549  0.1092 -0.2484
13177SOL    HW145367   0.763   5.184   6.392  0.1070  0.0792  0.0218
13177SOL    HW245368   0.888   5.239   6.457  0.0383  1.1412 -0.7165
13178SOL     OW45369   9.960   6.711   3.871  0.0720  0.6539  0.6784
13178SOL    HW145370   9.866   6.729   3.861  0.4740  2.3205 -0.5090
13178SOL    HW245371   9.989   6.770   3.940  0.1023 -0.5551  1.7432
13179SOL     OW45372   8.348  10.259  10.660  0.3112  0.1064 -0.1008
13179SOL    HW145373   8.366  10.166  10.651 -0.2367 -0.1990  1.6601
13179SOL    HW245374   8.259  10.264  10.695  0.0042  1.3298 -0.9647
13180SOL     OW45375   9.718   7.719  10.331 -0.0397 -0.3900 -0.1818
13180SOL    HW145376   9.712   7.774  10.410 -1.2703 -1.2407  0.3324
13180SOL    HW245377   9.661   7.645  10.349  0.7524 -1.3033 -1.3237
13181SOL     OW45378   6.399   6.822   7.655 -0.0885  0.2016  0.1783
13181SOL    HW145379   6.335   6.752   7.656  0.4755 -0.3280  1.3920
13181SOL    HW245380   6.349   6.901   7.673 -0.8034  0.2057 -1.6912
13182SOL     OW45381   5.561   2.606  10.694 -0.4204 -1.0733 -0.0192
13182SOL    HW145382   5.655   2.599  10.713 -0.7916  0.2670  2.9514
13182SOL    HW245383   5.554   2.593  10.600  2.9250  0.3945 -0.6038
13183SOL     OW45384   6.172   2.063   7.276  0.6181 -0.0956 -0.1159
13183SOL    HW145385   6.141   1.973   7.290  0.2565  0.1177  0.4996
13183SOL    HW245386   6.093   2.116   7.278  0.9451  0.3954  0.9639
13184SOL     OW45387   6.906   3.257   2.599  0.5386 -0.4342  0.0360
13184SOL    HW145388   6.980   3.317   2.608 -1.1466  2.1342 -1.7444
13184SOL    HW245389   6.835   3.299   2.647  0.0404 -2.6341  1.3833
13185SOL     OW45390   1.195   6.916   0.287 -0.3123 -0.6065 -0.1736
13185SOL    HW145391   1.205   6.928   0.382 -0.5079 -2.8624  0.1986
13185SOL    HW245392   1.180   6.822   0.277 -2.1076 -0.1550 -2.3170
13186SOL     OW45393   9.280   7.866   9.736  0.5994  0.2510  0.3519
13186SOL    HW145394   9.242   7.927   9.673 -0.2381  1.4525  1.9462
13186SOL    HW245395   9.234   7.784   9.720  0.3936  0.5342 -0.5811
13187SOL     OW45396   4.552   4.673   0.322 -0.2083  0.7226  0.4077
13187SOL    HW145397   4.632   4.674   0.269  0.4221 -1.1515  1.2033
13187SOL    HW245398   4.549   4.584   0.358 -2.2361  1.0021  1.0613
13188SOL     OW45399   9.125   1.603   1.961  0.0402 -0.3287  0.0095
13188SOL    HW145400   9.211   1.642   1.975 -0.2986 -0.5266  3.7102
13188SOL    HW245401   9.128   1.519   2.007 -2.4422  0.2528  1.4552
13189SOL     OW45402   4.388   9.034   7.848 -0.3427 -0.2727  0.9127
13189SOL    HW145403   4.389   9.127   7.826 -2.3587 -0.2102  0.9539
13189SOL    HW245404   4.371   8.990   7.765 -0.2521 -0.5575  1.0449
13190SOL     OW45405  10.144   9.030   1.840  0.1239 -0.0586 -0.0147
13190SOL    HW145406  10.186   9.020   1.755 -1.5288 -0.0694 -0.8609
13190SOL    HW245407  10.164   8.949   1.887 -0.0869 -0.6472 -0.9210
13191SOL     OW45408   3.158   9.251   6.614 -0.5347  0.0730  0.1415
13191SOL    HW145409   3.068   9.273   6.591 -0.6222 -0.8824 -0.4914
13191SOL    HW245410   3.206   9.254   6.531  0.4650  2.5014  0.7360
13192SOL     OW45411   1.056   1.039   0.243 -0.4786  0.3037 -0.1090
13192SOL    HW145412   1.124   1.098   0.211 -1.1987  0.5889 -1.1703
13192SOL    HW245413   1.033   0.986   0.166 -1.4588  0.2249  0.2226
13193SOL     OW45414  10.631   8.817   9.621 -0.2691 -0.3407  0.6724
13193SOL    HW145415  10.663   8.826   9.531  1.5419 -1.4339  1.1382
13193SOL    HW245416  10.624   8.906   9.653 -0.6543  0.0496 -0.4597
13194SOL     OW45417   4.822   8.073   1.940 -0.1140  0.3005  0.3217
13194SOL    HW145418   4.881   7.998   1.929 -1.1067 -0.3780 -0.6169
13194SOL    HW245419   4.753   8.042   1.998 -1.0475  0.1474 -0.8338
13195SOL     OW45420  10.652   9.324   6.870 -0.4480 -0.2135  0.2855
13195SOL    HW145421  10.605   9.241   6.877 -0.0675 -0.5436 -0.8905
13195SOL    HW245422  10.636   9.353   6.780  0.9443  0.0729  0.1161
13196SOL     OW45423   8.333   1.746   0.395  0.1640 -0.4342  0.0435
13196SOL    HW145424   8.393   1.673   0.407  1.4856  0.7049  0.6326
13196SOL    HW245425   8.326   1.756   0.300 -1.1682 -2.1747 -0.0967
13197SOL     OW45426   7.450   1.133   1.585  0.5160  0.3382 -0.1130
13197SOL    HW145427   7.421   1.127   1.676 -1.4721 -1.3382 -0.7622
13197SOL    HW245428   7.440   1.225   1.562 -0.7928  0.4588  0.8333
13198SOL     OW45429   5.113   0.344   8.440 -0.0514  0.3004 -0.1900
13198SOL    HW145430   5.126   0.378   8.529  0.0730  0.8435 -0.4128
13198SOL    HW245431   5.023   0.368   8.419 -0.1193  0.0668 -0.1681
13199SOL     OW45432   1.733   7.681   0.931  0.0852 -0.4319  0.3600
13199SOL    HW145433   1.676   7.605   0.944 -1.3232  0.0345 -2.3035
13199SOL    HW245434   1.682   7.739   0.874  1.1800  2.4487  2.1129
13200SOL     OW45435   0.294   3.751   7.303 -0.1164 -0.3966  0.5411
13200SOL    HW145436   0.294   3.729   7.209  0.7637  1.4802  0.0668
13200SOL    HW245437   0.245   3.679   7.343  0.8675 -2.1229 -1.1318
13201SOL     OW45438   0.229   8.653   8.904 -0.1040  0.5922  0.2634
13201SOL    HW145439   0.238   8.740   8.865  0.6719  0.1046 -0.6755
13201SOL    HW245440   0.319   8.624   8.920 -0.3738  0.3299  1.4481
13202SOL     OW45441   0.096   1.874   5.308  0.3797  0.0557 -0.0343
13202SOL    HW145442   0.033   1.924   5.256  0.7243 -0.3855 -0.8891
13202SOL    HW245443   0.150   1.828   5.244  3.3883  2.4765  0.4944
13203SOL     OW45444   8.062   0.939   9.536 -0.5345 -0.0260  0.0404
13203SOL    HW145445   8.067   0.931   9.441  0.2640 -2.6809  0.2202
13203SOL    HW245446   7.986   0.886   9.560 -1.6761  1.8675  0.8324
13204SOL     OW45447   0.605   4.299  10.151  0.0172  0.1597 -0.0107
13204SOL    HW145448   0.615   4.211  10.114 -1.0419 -0.0353  0.1378
13204SOL    HW245449   0.615   4.287  10.245 -2.0738 -0.1437  0.2032
13205SOL     OW45450  10.200   4.210   7.872  0.2620  0.1043 -0.9238
13205SOL    HW145451  10.222   4.252   7.955 -1.7689 -0.8738  0.1820
13205SOL    HW245452  10.241   4.124   7.878 -1.2870 -0.6173 -0.1305
13206SOL     OW45453   9.349  10.564  10.319 -0.2327 -0.3761  0.2232
13206SOL    HW145454   9.340  10.655  10.292  2.6260 -0.5429 -1.8131
13206SOL    HW245455   9.261  10.538  10.347 -1.8808  2.0482 -2.1935
13207SOL     OW45456   3.642   5.993   5.062 -0.4945  0.1030 -0.0778
13207SOL    HW145457   3.673   6.071   5.016 -0.9483  0.9643  1.0261
13207SOL    HW245458   3.547   5.997   5.054 -0.5453 -0.0546  0.4171
13208SOL     OW45459   8.457   9.121   8.679  0.6341 -0.3026 -0.3754
13208SOL    HW145460   8.423   9.075   8.602 -0.2893 -0.4098  0.0861
13208SOL    HW245461   8.481   9.052   8.740 -0.9714 -0.1923  0.4086
13209SOL     OW45462   1.475   5.630   7.247 -0.0231  0.2072 -0.2757
13209SOL    HW145463   1.436   5.612   7.333 -1.8817 -0.4818 -1.2233
13209SOL    HW245464   1.560   5.586   7.250  0.4954  1.2055  1.6206
13210SOL     OW45465   6.691   5.634   6.792  0.4959 -0.6251  0.2299
13210SOL    HW145466   6.661   5.646   6.882  0.3505 -0.6469  0.1835
13210SOL    HW245467   6.787   5.633   6.799  0.4951 -2.9631  0.6924
13211SOL     OW45468   6.773   4.931   0.974 -1.0547 -0.3646  0.3650
13211SOL    HW145469   6.771   5.024   0.951 -0.6986 -0.8028 -1.5516
13211SOL    HW245470   6.689   4.897   0.945 -0.8378 -0.8113  0.2502
13212SOL     OW45471   1.344   8.453   2.957  0.5137  0.2692  0.3999
13212SOL    HW145472   1.415   8.434   2.896 -1.0024 -1.7092 -0.8724
13212SOL    HW245473   1.307   8.536   2.925  2.0252  1.2160  0.9590
13213SOL     OW45474   9.689   0.970  10.387  0.0107  0.2152  0.0715
13213SOL    HW145475   9.781   0.991  10.403  0.2017 -2.2079  3.1212
13213SOL    HW245476   9.642   1.015  10.457 -1.1948  1.4549 -1.4807
13214SOL     OW45477   2.709   6.427  10.073 -0.5611 -0.2129 -0.2212
13214SOL    HW145478   2.708   6.332  10.062  0.6239 -0.0666 -1.9936
13214SOL    HW245479   2.621   6.448  10.106 -1.2890 -1.7905 -1.0481
13215SOL     OW45480  10.466   9.960   6.809 -0.2100  0.0419  0.2585
13215SOL    HW145481  10.535   9.955   6.743  2.6175 -0.0785  2.9630
13215SOL    HW245482  10.510   9.995   6.887 -3.0018 -0.9205  2.4584
13216SOL     OW45483  10.028   3.501   8.474 -0.4612 -0.3609 -0.0335
13216SOL    HW145484   9.938   3.471   8.464 -0.3492 -0.2500 -1.6236
13216SOL    HW245485  10.023   3.597   8.472 -0.3860 -0.3354  0.7339
13217SOL     OW45486   7.080   6.161   0.961 -0.5050  0.0195  0.0140
13217SOL    HW145487   7.145   6.104   1.000 -0.1269  0.6258  0.2858
13217SOL    HW245488   7.113   6.178   0.872  0.3117  1.2288  0.5200
13218SOL     OW45489   4.612   2.747  10.207  0.7166  0.3121 -0.5053
13218SOL    HW145490   4.642   2.785  10.289 -1.4930  1.7765 -0.2868
13218SOL    HW245491   4.692   2.715  10.164  2.0426  0.5510  1.6606
13219SOL     OW45492   7.838   5.847   6.604  1.0492  0.6234  0.1661
13219SOL    HW145493   7.855   5.930   6.558 -1.0746  1.6131  1.0206
13219SOL    HW245494   7.813   5.786   6.535  2.0997  0.8239 -0.4167
13220SOL     OW45495   2.546   6.896   7.761 -0.5386 -0.9307  0.5290
13220SOL    HW145496   2.585   6.983   7.770 -0.8480 -0.7791  0.4506
13220SOL    HW245497   2.573   6.849   7.839  0.9319 -1.2874 -0.1667
13221SOL     OW45498   8.159   9.736   5.993 -0.1409 -0.4025 -0.0811
13221SOL    HW145499   8.071   9.750   6.027  0.4399  2.2295  0.6395
13221SOL    HW245500   8.216   9.781   6.055  1.5899 -0.9212 -1.2066
13222SOL     OW45501   5.596  10.102   2.216 -0.1617 -0.3703 -0.0674
13222SOL    HW145502   5.547  10.139   2.143  1.0797 -0.0556 -0.7802
13222SOL    HW245503   5.584  10.165   2.287  0.0214  0.2149 -0.5431
13223SOL     OW45504   2.978   4.333   2.606 -0.1470  0.6689 -0.4333
13223SOL    HW145505   3.025   4.366   2.530 -2.1462  0.8112 -1.6789
13223SOL    HW245506   2.926   4.407   2.636  0.4250  0.5480  0.9780
13224SOL     OW45507   7.640   3.036   0.373  0.7371 -0.3885  0.1609
13224SOL    HW145508   7.587   3.090   0.431  0.6726 -0.5774  0.2791
13224SOL    HW245509   7.643   2.950   0.416  0.7005 -0.5254 -0.1089
13225SOL     OW45510   3.258   2.535   3.541 -0.5480 -0.4176 -0.1325
13225SOL    HW145511   3.190   2.599   3.560 -0.3950 -0.6572  1.3139
13225SOL    HW245512   3.331   2.558   3.599 -0.6392 -2.0967  0.7234
13226SOL     OW45513   6.826   9.783   5.416 -1.3056  0.2093 -0.8810
13226SOL    HW145514   6.896   9.725   5.446  0.5759  2.4958 -0.5391
13226SOL    HW245515   6.833   9.781   5.320  0.3319  1.6016 -0.8269
13227SOL     OW45516   2.449  10.258   0.617 -0.1063 -0.2469 -0.6489
13227SOL    HW145517   2.447  10.313   0.539  1.5442 -0.4965 -0.9271
13227SOL    HW245518   2.494  10.311   0.683 -2.2238  0.2766  0.4415
13228SOL     OW45519   6.761  10.599   0.318  0.3022  0.2014  0.4542
13228SOL    HW145520   6.677  10.630   0.353  0.0781  0.7123 -0.5046
13228SOL    HW245521   6.821  10.604   0.392 -0.7593 -1.2625  1.4723
13229SOL     OW45522   7.550   3.344   4.668 -0.1024  0.1190  0.0292
13229SOL    HW145523   7.605   3.271   4.693 -0.8471 -0.6218 -0.4342
13229SOL    HW245524   7.609   3.419   4.662  0.6073 -0.3663  0.8401
13230SOL     OW45525   6.243   7.160   4.740  0.4074 -0.2970 -0.3631
13230SOL    HW145526   6.278   7.101   4.674 -1.1147 -0.0870 -1.4113
13230SOL    HW245527   6.171   7.206   4.696  0.1114  0.7147  1.0879
13231SOL     OW45528   2.113   1.606   9.728 -0.4369  0.0837 -0.0638
13231SOL    HW145529   2.184   1.606   9.793 -1.7810 -0.7603  1.4869
13231SOL    HW245530   2.101   1.514   9.705 -2.8827 -0.1922  1.9129
13232SOL     OW45531   8.826   4.980   9.244 -0.3579 -0.4110 -0.6353
13232SOL    HW145532   8.807   5.025   9.162  1.1578  1.4677 -0.0219
13232SOL    HW245533   8.921   4.978   9.249 -0.3753 -2.6342 -0.0032
13233SOL     OW45534   1.675   1.880   9.359  0.0064  0.6942 -0.0996
13233SOL    HW145535   1.709   1.794   9.333 -0.8112  0.7267 -1.3826
13233SOL    HW245536   1.593   1.888   9.311 -0.9319  1.3684  1.5314
13234SOL     OW45537   2.715   8.617   0.630 -0.2738  0.4498  0.3323
13234SOL    HW145538   2.669   8.643   0.550  0.6404  0.8868 -0.0620
13234SOL    HW245539   2.670   8.538   0.659 -0.8503  0.5000 -0.4041
13235SOL     OW45540   2.884   2.250   1.362 -0.1466 -0.1757 -0.0157
13235SOL    HW145541   2.963   2.299   1.338  0.1392  0.6595  2.3720
13235SOL    HW245542   2.828   2.314   1.405 -0.5150 -1.5392  1.6332
13236SOL     OW45543   7.859   1.167   0.937 -0.2801 -0.2218 -0.1717
13236SOL    HW145544   7.867   1.261   0.953 -1.6436 -0.1112  0.0149
13236SOL    HW245545   7.932   1.128   0.986  0.9571  0.7979 -1.1337
13237SOL     OW45546   2.678   0.331   9.266  0.0600  0.0893  0.9694
13237SOL    HW145547   2.600   0.304   9.217  2.2246 -2.2713 -1.5506
13237SOL    HW245548   2.698   0.256   9.322  1.5494 -0.2049  0.1014
13238SOL     OW45549  10.482   2.813   9.401  0.1416 -0.9029  0.4280
13238SOL    HW145550  10.499   2.881   9.466 -2.2526 -0.5717  0.8069
13238SOL    HW245551  10.453   2.861   9.324 -0.4211 -1.4288  0.3071
13239SOL     OW45552   8.707   3.659   4.525  0.3034 -0.2869  0.6078
13239SOL    HW145553   8.642   3.604   4.481 -0.0215  0.0977  0.5999
13239SOL    HW245554   8.655   3.723   4.573  0.6762 -0.0640  0.7139
13240SOL     OW45555   7.345   1.204  10.258 -0.7181 -0.1445 -0.0014
13240SOL    HW145556   7.432   1.239  10.275 -0.5360 -0.6815  0.1996
13240SOL    HW245557   7.300   1.273  10.211 -0.5476  0.5763  0.8605
13241SOL     OW45558   6.112  10.457   9.793 -0.2342  0.2781 -0.0313
13241SOL    HW145559   6.166  10.380   9.811 -0.7910  0.1526  1.2025
13241SOL    HW245560   6.051  10.461   9.867 -0.8749  1.3223 -0.5973
13242SOL     OW45561   5.033   7.085   0.250  0.3198 -0.0814 -0.2249
13242SOL    HW145562   5.080   7.007   0.220  0.0893 -0.4292  0.3007
13242SOL    HW245563   4.941   7.060   0.248  0.2989 -0.1709  0.8862
13243SOL     OW45564   9.691   8.657   7.501  0.2321 -0.6260 -0.4100
13243SOL    HW145565   9.612   8.702   7.533  1.0607  2.9836 -2.8418
13243SOL    HW245566   9.744   8.643   7.579 -0.6649  1.6438  0.6950
13244SOL     OW45567   5.136   6.302   4.582 -0.0239 -0.5426  0.1552
13244SOL    HW145568   5.053   6.319   4.626 -0.6726 -1.5211 -0.6318
13244SOL    HW245569   5.136   6.207   4.567  0.3027 -0.2919 -1.6355
13245SOL     OW45570   8.529   9.765   7.160 -0.4721  0.0384  0.3207
13245SOL    HW145571   8.436   9.756   7.139 -0.0761 -1.3561 -1.0401
13245SOL    HW245572   8.574   9.735   7.081  1.1240 -1.3606  1.6856
13246SOL     OW45573   9.584   1.520   2.637  0.8800 -0.6334  0.8456
13246SOL    HW145574   9.561   1.562   2.719  1.3588 -0.4437  0.8823
13246SOL    HW245575   9.551   1.430   2.646 -0.7663 -0.1065  0.4943
13247SOL     OW45576   0.125   2.330   1.150  0.7155 -0.2962  0.1617
13247SOL    HW145577   0.084   2.317   1.236 -0.1351  1.1651  0.0171
13247SOL    HW245578   0.213   2.295   1.160  0.5033 -0.5183  1.5168
13248SOL     OW45579  10.123   2.463   2.699  0.1368 -0.5770  0.2605
13248SOL    HW145580  10.130   2.423   2.612 -1.6506  2.5196 -1.4660
13248SOL    HW245581  10.208   2.504   2.714 -0.4883  1.5739 -1.5830
13249SOL     OW45582   6.860   3.996   5.498  0.2097  0.7428  0.3680
13249SOL    HW145583   6.930   4.045   5.454  0.5354 -0.4196 -0.4560
13249SOL    HW245584   6.859   3.911   5.454 -0.4785  0.0739  1.6219
13250SOL     OW45585   9.514   3.755   2.840 -0.0114 -0.1356 -0.7939
13250SOL    HW145586   9.488   3.837   2.883 -3.2894 -1.1098 -0.6935
13250SOL    HW245587   9.486   3.765   2.749 -0.1267 -1.0034 -0.8615
13251SOL     OW45588   1.164   2.399   2.444  0.1189  0.0410 -0.4296
13251SOL    HW145589   1.202   2.336   2.382 -0.9810 -1.8153  0.6799
13251SOL    HW245590   1.223   2.396   2.519 -1.3039 -1.7797  0.7157
13252SOL     OW45591   5.376   8.429   5.693  0.3365  0.1207 -0.2081
13252SOL    HW145592   5.455   8.468   5.731 -0.0723  1.5806 -0.7891
13252SOL    HW245593   5.305   8.460   5.749 -0.0823  0.9044 -1.1424
13253SOL     OW45594   9.929   1.418   0.487 -0.3398 -0.6182 -0.0952
13253SOL    HW145595   9.992   1.475   0.531 -1.2199  1.6906 -1.6490
13253SOL    HW245596   9.845   1.438   0.531 -0.7739 -0.1811 -1.1012
13254SOL     OW45597   4.566   3.272  10.498  0.5181  0.6102  0.4260
13254SOL    HW145598   4.623   3.343  10.468  1.4483  0.7912  2.4679
13254SOL    HW245599   4.563   3.283  10.593  0.8684 -2.2347  0.8388
13255SOL     OW45600   7.901   1.224   8.336  0.4016 -0.9020  0.3727
13255SOL    HW145601   7.890   1.250   8.428  0.7358 -0.8682  0.4043
13255SOL    HW245602   7.812   1.221   8.302  0.3869  1.2267  0.0991
13256SOL     OW45603   9.340   4.969   3.269  0.2979 -0.0533  0.3659
13256SOL    HW145604   9.369   5.028   3.339 -0.7160  2.2506 -1.0331
13256SOL    HW245605   9.406   4.899   3.268  0.8625  0.3358  2.9483
13257SOL     OW45606   3.510   4.615   1.182  0.0743  0.3238 -0.1750
13257SOL    HW145607   3.536   4.573   1.100 -0.8386  0.7958 -0.7235
13257SOL    HW245608   3.587   4.608   1.238  0.0064 -1.9493 -0.2864
13258SOL     OW45609   5.098  10.596  10.457 -0.2566 -0.4715  0.1600
13258SOL    HW145610   5.096  10.554  10.543  0.3430 -0.3806  0.2256
13258SOL    HW245611   5.006  10.605  10.432 -0.5272  0.8076  1.4336
13259SOL     OW45612   7.835   7.774   3.593 -0.7973  0.6961  0.4821
13259SOL    HW145613   7.811   7.864   3.575 -1.1596  0.5192  0.0868
13259SOL    HW245614   7.753   7.730   3.615 -0.7584  0.2400 -0.2536
13260SOL     OW45615   4.861   6.622   1.394  0.6236  0.4696  0.0534
13260SOL    HW145616   4.955   6.637   1.386  0.8156 -0.0897  1.0300
13260SOL    HW245617   4.845   6.622   1.489 -0.2885  0.1695 -0.0942
13261SOL     OW45618   0.658   9.714   1.828  0.1731  0.1494 -0.2511
13261SOL    HW145619   0.740   9.761   1.814 -1.3620  2.5895 -1.8324
13261SOL    HW245620   0.597   9.780   1.860 -1.4188 -1.3943  0.0733
13262SOL     OW45621  10.317   6.984   3.728  0.3690 -0.0435 -0.0770
13262SOL    HW145622  10.404   6.979   3.766  0.8892 -0.9177 -1.3065
13262SOL    HW245623  10.330   6.961   3.636 -0.9256  1.3018 -0.6424
13263SOL     OW45624   9.810   3.928   8.723 -0.4635 -0.3462 -0.0707
13263SOL    HW145625   9.867   3.983   8.776 -1.5349  1.4576 -0.7104
13263SOL    HW245626   9.726   3.973   8.723 -1.3281 -1.8769 -0.8279
13264SOL     OW45627   5.717   9.850   6.739  0.1017 -1.4351 -0.0599
13264SOL    HW145628   5.680   9.843   6.651 -0.5311 -1.9635  0.2436
13264SOL    HW245629   5.763   9.767   6.752 -0.2140 -1.5569  0.2906
13265SOL     OW45630   5.609   1.284   1.996  0.2428 -0.0696  0.2899
13265SOL    HW145631   5.654   1.289   1.912  0.2998  0.7343  0.3668
13265SOL    HW245632   5.523   1.324   1.980 -0.1885 -0.9564  0.3222
13266SOL     OW45633   8.648   2.200   7.076 -0.4367  0.0985  0.1666
13266SOL    HW145634   8.647   2.295   7.069  0.5237  0.2857  2.0092
13266SOL    HW245635   8.633   2.183   7.169 -1.6288 -1.6047 -0.2901
13267SOL     OW45636   7.898   8.293   1.413 -0.7506  0.2051  0.0905
13267SOL    HW145637   7.814   8.277   1.456 -0.1363 -0.2525  1.1473
13267SOL    HW245638   7.934   8.206   1.397 -0.5361  0.3968 -0.4842
13268SOL     OW45639  10.454   4.977   1.152 -0.2908 -0.4103 -0.0916
13268SOL    HW145640  10.484   5.017   1.233 -1.7917 -1.7403  1.1822
13268SOL    HW245641  10.532   4.934   1.117  0.2837 -0.1994  0.8894
13269SOL     OW45642   2.892   3.957   3.027 -0.0213 -0.1138 -0.3923
13269SOL    HW145643   2.867   3.908   2.948 -0.9560  2.2352 -1.6470
13269SOL    HW245644   2.816   3.951   3.084 -0.0151 -0.3579 -0.4069
13270SOL     OW45645   1.753   0.227   5.313 -0.1941 -0.3575 -0.4832
13270SOL    HW145646   1.660   0.237   5.296 -0.3252  0.7557  0.7232
13270SOL    HW245647   1.771   0.134   5.301 -1.0523 -0.3067 -2.6015
13271SOL     OW45648   2.538   3.008   8.779  0.4871 -0.0838 -0.1850
13271SOL    HW145649   2.514   3.100   8.787  1.7210  0.1525  1.1615
13271SOL    HW245650   2.628   3.009   8.747  0.6057 -0.8127  0.1089
13272SOL     OW45651   5.856  10.436   7.465  0.1351  0.4123  0.0207
13272SOL    HW145652   5.925  10.473   7.519 -0.8408  0.5557  1.2107
13272SOL    HW245653   5.902  10.393   7.393  1.6357 -2.0766  2.3143
13273SOL     OW45654   9.798   8.861   2.601 -0.8470  0.2989  0.4734
13273SOL    HW145655   9.785   8.793   2.668 -2.2640  0.0598 -0.0015
13273SOL    HW245656   9.710   8.879   2.568 -0.1189 -0.3148 -2.0324
13274SOL     OW45657   7.462   3.800   4.159  0.3721  0.2246 -0.0987
13274SOL    HW145658   7.554   3.777   4.152  0.1022 -1.1070  0.4922
13274SOL    HW245659   7.419   3.721   4.191 -0.9507  0.8787 -0.1685
13275SOL     OW45660  10.291   3.445   4.830 -0.7982 -0.2533  0.7285
13275SOL    HW145661  10.303   3.488   4.915  1.2844 -0.3689  0.5318
13275SOL    HW245662  10.217   3.491   4.790  0.4777  2.2708  1.0951
13276SOL     OW45663   0.888   5.266   3.309 -0.6672  0.1050  0.0874
13276SOL    HW145664   0.818   5.224   3.358 -0.3927 -0.0790  0.3235
13276SOL    HW245665   0.848   5.345   3.274 -0.4925  0.9694  1.7583
13277SOL     OW45666   1.018   2.744   5.511 -0.1163 -0.0698 -0.2776
13277SOL    HW145667   0.989   2.780   5.428  1.1455  0.7918 -0.3724
13277SOL    HW245668   1.104   2.784   5.526 -0.2528 -0.3223  1.3621
13278SOL     OW45669   4.318   1.507   0.261 -0.0978 -0.3164  1.2725
13278SOL    HW145670   4.409   1.480   0.271 -0.3933 -1.5136  0.8075
13278SOL    HW245671   4.304   1.511   0.166 -0.2023  1.0490  1.3165
13279SOL     OW45672   6.214   1.638   2.878  0.0911 -0.1411  0.1795
13279SOL    HW145673   6.223   1.594   2.793  0.1900 -2.2342  1.2133
13279SOL    HW245674   6.133   1.603   2.914  1.4469 -1.5496  2.1235
13280SOL     OW45675   3.973   7.158   5.453  0.7164  0.1565 -0.0116
13280SOL    HW145676   4.025   7.142   5.531 -0.9093 -1.3910  0.8280
13280SOL    HW245677   4.029   7.212   5.397  2.0268  1.0701  2.0736
13281SOL     OW45678   2.011   5.215  10.366  0.7514 -0.2577 -0.0203
13281SOL    HW145679   1.917   5.235  10.357  0.6789 -1.4433 -3.3166
13281SOL    HW245680   2.013   5.130  10.410  0.3240 -0.0471  0.4240
13282SOL     OW45681   3.384   9.776   8.163 -0.4160 -0.0774  0.5606
13282SOL    HW145682   3.325   9.719   8.212  1.7971 -0.3479  3.0983
13282SOL    HW245683   3.463   9.781   8.216  1.2862  1.5571 -1.9092
13283SOL     OW45684   9.227   4.004   2.207 -0.1120 -0.1934  0.0771
13283SOL    HW145685   9.300   4.034   2.260 -0.0326 -1.1777  0.5445
13283SOL    HW245686   9.150   4.045   2.246  0.1236  0.4388 -0.1084
13284SOL     OW45687   8.742   4.678   6.487 -0.3691 -0.1483  0.2940
13284SOL    HW145688   8.749   4.767   6.523 -0.8661 -0.3261  0.8474
13284SOL    HW245689   8.748   4.690   6.392 -2.3679  0.6841  0.2320
13285SOL     OW45690   9.604  10.580   2.174  0.8950 -1.1960 -0.1686
13285SOL    HW145691   9.598  10.536   2.259  2.0155  1.3372  1.3477
13285SOL    HW245692   9.520  10.625   2.164  1.9189  1.2820  1.3755
13286SOL     OW45693  10.401   2.721   8.735 -0.0673  0.3764 -0.2262
13286SOL    HW145694  10.347   2.761   8.803 -0.4988 -1.2424  0.4190
13286SOL    HW245695  10.481   2.695   8.780 -0.3588 -0.7180 -0.3105
13287SOL     OW45696   8.161   8.661   0.150  0.0664 -0.1904  0.2724
13287SOL    HW145697   8.208   8.606   0.087 -1.7888 -0.8583 -0.5841
13287SOL    HW245698   8.228   8.687   0.213  1.9768  0.4535 -1.9172
13288SOL     OW45699   9.609   9.530   4.616  0.7191 -0.0048 -0.5554
13288SOL    HW145700   9.566   9.477   4.549  0.2938 -0.8208  0.3273
13288SOL    HW245701   9.689   9.481   4.638  0.5277 -0.0869 -0.0180
13289SOL     OW45702   6.385   4.343   1.939 -0.2529  0.2073  0.5864
13289SOL    HW145703   6.311   4.289   1.968 -1.7097  2.2744  0.8927
13289SOL    HW245704   6.459   4.282   1.935 -1.7619 -1.7468  1.1167
13290SOL     OW45705   5.071   3.292   8.906  0.0270 -0.2770 -0.4383
13290SOL    HW145706   4.994   3.247   8.940  2.6233 -2.6871  3.0990
13290SOL    HW245707   5.054   3.385   8.923 -2.4811 -0.5809 -0.9060
13291SOL     OW45708   7.733   6.538   1.543  0.2693  0.4057  0.5995
13291SOL    HW145709   7.777   6.623   1.544  0.0268  0.5430  0.0709
13291SOL    HW245710   7.639   6.560   1.548  0.2654  0.1026  2.2283
13292SOL     OW45711   5.152   1.978   2.680 -0.0265 -0.8223  0.4256
13292SOL    HW145712   5.231   1.983   2.735 -0.6673 -2.1980  1.5417
13292SOL    HW245713   5.184   1.939   2.598  1.0865  1.9785 -0.5748
13293SOL     OW45714   9.024  10.088   7.278  0.3798  0.6610 -0.5527
13293SOL    HW145715   8.972  10.088   7.198  0.6333 -0.0835 -0.7239
13293SOL    HW245716   9.057   9.999   7.285  0.1771  0.6519  0.5002
13294SOL     OW45717   9.008   3.365   9.073 -0.9299 -0.1179 -0.6191
13294SOL    HW145718   9.073   3.435   9.077  1.5044 -2.2116 -0.0951
13294SOL    HW245719   8.924   3.408   9.085  0.5778  2.4575  1.9185
13295SOL     OW45720   9.145   4.234   3.581  0.4195  0.0791  0.1801
13295SOL    HW145721   9.207   4.304   3.604 -0.9829  0.7692  2.1498
13295SOL    HW245722   9.157   4.169   3.650  0.3039 -0.6964 -0.5268
13296SOL     OW45723   5.419   4.840   8.291  0.3472 -0.0611 -0.1290
13296SOL    HW145724   5.472   4.771   8.252 -0.2128 -0.9964  0.7185
13296SOL    HW245725   5.384   4.889   8.217 -1.4632 -2.3608 -0.8967
13297SOL     OW45726  10.478   3.931   3.067 -0.2776  0.3321  0.2830
13297SOL    HW145727  10.383   3.921   3.078 -0.4840  1.1993 -0.6226
13297SOL    HW245728  10.488   4.013   3.019  0.8715 -0.4155 -0.8014
13298SOL     OW45729   7.996   2.796   5.819 -0.2954  0.3550 -0.7591
13298SOL    HW145730   8.072   2.781   5.764 -0.8560  0.7146 -1.6592
13298SOL    HW245731   7.972   2.710   5.853 -0.7445 -0.1003 -2.1724
13299SOL     OW45732   0.440   4.676   6.760 -0.1700  0.2162  0.4871
13299SOL    HW145733   0.439   4.591   6.804 -0.4002 -1.5013 -2.5822
13299SOL    HW245734   0.533   4.697   6.749  0.2069 -2.4782 -3.4758
13300SOL     OW45735   3.610   2.249   5.318  0.0805  0.4662  0.3496
13300SOL    HW145736   3.562   2.208   5.247  0.1966 -1.5658  1.3719
13300SOL    HW245737   3.543   2.292   5.372 -0.5513 -1.6389  1.3145
13301SOL     OW45738   9.305   0.430  10.505 -0.0622 -0.0749  0.4753
13301SOL    HW145739   9.229   0.412  10.449  0.6169 -0.6083 -0.2847
13301SOL    HW245740   9.381   0.420  10.447  0.5816  0.7459  1.1549
13302SOL     OW45741   1.126   6.085   3.458  0.1702  0.2290 -0.8883
13302SOL    HW145742   1.183   6.043   3.393  0.8995  0.2600 -0.2756
13302SOL    HW245743   1.133   6.179   3.438  0.8894  0.2881 -0.3715
13303SOL     OW45744   1.326   7.542  10.540  0.1459 -0.3249 -0.5039
13303SOL    HW145745   1.276   7.611  10.496  0.7446  0.4739  0.0282
13303SOL    HW245746   1.415   7.551  10.504  0.2707 -0.6921 -0.2886
13304SOL     OW45747   4.619   6.988   1.488  0.0865  0.0236  0.3281
13304SOL    HW145748   4.686   6.925   1.514 -0.0954  0.1852  1.2238
13304SOL    HW245749   4.600   7.037   1.568  0.0601  1.0639 -0.2962
13305SOL     OW45750   3.241  10.326   2.103  0.2882 -0.4220  0.0031
13305SOL    HW145751   3.173  10.273   2.062  0.2367 -1.0247  0.8326
13305SOL    HW245752   3.195  10.401   2.139 -0.0844 -1.1832  1.1920
13306SOL     OW45753   8.030   5.401   4.875  0.0188 -0.6542 -0.2972
13306SOL    HW145754   8.103   5.439   4.924  0.1196 -2.1748  0.8348
13306SOL    HW245755   8.002   5.326   4.929 -1.6528 -0.7749 -1.2562
13307SOL     OW45756   1.566   4.551   2.478  0.1665  0.0784 -0.6260
13307SOL    HW145757   1.521   4.470   2.500  1.7898 -0.3372  1.5731
13307SOL    HW245758   1.527   4.617   2.535 -0.8822  0.8095 -2.1321
13308SOL     OW45759  10.677   9.477   9.873  0.2934  0.2277  0.2902
13308SOL    HW145760  10.685   9.387   9.906  0.3564 -0.1513 -0.7060
13308SOL    HW245761  10.723   9.530   9.938  1.6028 -0.6491  0.1420
13309SOL     OW45762   7.832   5.113   4.198 -0.3799  0.8429 -0.1806
13309SOL    HW145763   7.789   5.116   4.112 -1.4101  1.3939  0.3380
13309SOL    HW245764   7.926   5.118   4.177 -0.5220 -0.6305 -1.3443
13310SOL     OW45765   3.930   1.806  10.721  0.1911 -0.0381  0.7399
13310SOL    HW145766   3.855   1.852  10.759 -0.4590  0.6556 -1.2599
13310SOL    HW245767   3.901   1.715  10.714 -1.2135  0.5276 -1.6429
13311SOL     OW45768   1.124   9.524   3.436 -0.5134 -0.2114 -0.5808
13311SOL    HW145769   1.063   9.593   3.463  0.5795  0.8760 -0.7867
13311SOL    HW245770   1.197   9.531   3.497 -0.5452 -1.4461 -0.3828
13312SOL     OW45771   4.251   3.965   8.549  0.1675  0.4340 -0.2009
13312SOL    HW145772   4.224   3.923   8.630 -1.3239 -0.1178 -0.9398
13312SOL    HW245773   4.342   3.938   8.537  0.8098  1.4811  1.8457
13313SOL     OW45774   6.730   0.017   4.610 -0.0761  1.1850 -0.3899
13313SOL    HW145775   6.698  -0.006   4.697  0.0260  0.0187 -0.6453
13313SOL    HW245776   6.776  -0.061   4.579  1.7974  2.2954 -0.6157
13314SOL     OW45777   3.465   8.696   7.323 -0.0451  0.2233 -0.1959
13314SOL    HW145778   3.444   8.683   7.415  1.2622  1.0679  0.2528
13314SOL    HW245779   3.381   8.717   7.281 -0.8930 -1.6256  0.4921
13315SOL     OW45780   4.329   4.318   7.932  0.5596  0.6035 -0.2977
13315SOL    HW145781   4.238   4.307   7.961  0.6293  1.0133  0.0946
13315SOL    HW245782   4.379   4.327   8.013  0.8927  0.7933 -0.5211
13316SOL     OW45783   5.868   3.346   1.767 -0.4160  0.0692  0.3313
13316SOL    HW145784   5.929   3.380   1.702  0.3184 -0.3051  0.8102
13316SOL    HW245785   5.868   3.412   1.837  0.2920 -0.4435  0.8315
13317SOL     OW45786   0.773  10.154   8.432 -0.1837 -0.4331 -0.3342
13317SOL    HW145787   0.730  10.229   8.473 -2.8898 -1.2247 -1.4775
13317SOL    HW245788   0.713  10.126   8.363  1.9043 -2.1270 -1.6231
13318SOL     OW45789   2.512   3.212   3.711 -0.7128  0.1227  0.4874
13318SOL    HW145790   2.560   3.292   3.691 -0.3327 -0.7469 -2.7765
13318SOL    HW245791   2.581   3.147   3.729 -0.7279 -0.4471 -1.3254
13319SOL     OW45792   8.000   2.230   0.947 -0.0959  0.3750  0.0193
13319SOL    HW145793   7.972   2.312   0.988 -1.0227  0.5588 -0.9330
13319SOL    HW245794   8.058   2.257   0.876 -2.5241  0.4794 -2.0813
13320SOL     OW45795   2.915   2.214   2.275 -0.2369 -0.4755  0.1835
13320SOL    HW145796   2.905   2.278   2.204  0.7779 -1.5750 -1.0192
13320SOL    HW245797   2.840   2.229   2.332 -1.4107  0.0943 -1.4381
13321SOL     OW45798   1.607   1.730   5.165  0.5288  0.3535 -0.2360
13321SOL    HW145799   1.681   1.704   5.111  0.3653 -1.2139  0.2250
13321SOL    HW245800   1.546   1.656   5.159 -0.0994  0.7404  0.9632
13322SOL     OW45801   6.020   9.952   8.830  0.4983  0.2473  0.3472
13322SOL    HW145802   6.109   9.942   8.795  0.0582 -1.7572 -0.3441
13322SOL    HW245803   6.026   9.923   8.921  0.1344 -2.4291 -0.3914
13323SOL     OW45804   9.268   8.314   9.584 -0.0738 -0.3983  0.1563
13323SOL    HW145805   9.195   8.352   9.632  0.9924  2.0631 -0.0077
13323SOL    HW245806   9.285   8.376   9.513  0.6014 -2.1883 -1.3382
13324SOL     OW45807   1.334   9.650  10.234  0.1725  0.4482  0.1459
13324SOL    HW145808   1.239   9.662  10.233 -0.1817 -1.8389 -0.3392
13324SOL    HW245809   1.366   9.706  10.163 -0.9977  0.0916 -0.6969
13325SOL     OW45810   2.486   1.029   2.306 -0.2505  0.4353 -0.6787
13325SOL    HW145811   2.427   1.104   2.308 -1.4411 -0.4898 -0.4998
13325SOL    HW245812   2.525   1.032   2.218 -0.8989  0.8028 -0.9626
13326SOL     OW45813   8.462   1.383   4.968 -0.4019 -0.2446 -0.3047
13326SOL    HW145814   8.490   1.416   5.053 -0.5113 -0.9521  0.0147
13326SOL    HW245815   8.416   1.456   4.927 -0.5783  0.0099  0.3523
13327SOL     OW45816  10.177   0.286   0.718 -0.7637  0.3716 -0.1047
13327SOL    HW145817  10.229   0.223   0.668  1.4892  0.4327  1.9461
13327SOL    HW245818  10.133   0.233   0.784  0.8993  0.8017  1.4342
13328SOL     OW45819   8.759   8.504   2.464  0.3981 -0.5380  0.1913
13328SOL    HW145820   8.834   8.527   2.410  0.5891 -2.0658 -0.2459
13328SOL    HW245821   8.707   8.584   2.467  1.0547 -0.0159 -1.1329
13329SOL     OW45822   4.501   6.229   5.278 -0.1804 -0.5502  0.4958
13329SOL    HW145823   4.519   6.285   5.202 -0.2332 -0.7076  0.3675
13329SOL    HW245824   4.511   6.288   5.353 -0.9948 -0.1742  0.3226
13330SOL     OW45825   2.087   3.798   5.352  0.2033  0.2026 -0.3465
13330SOL    HW145826   2.182   3.795   5.357  0.3873  1.7876 -1.8878
13330SOL    HW245827   2.068   3.786   5.258 -0.9085  2.7414 -0.5140
13331SOL     OW45828   6.272   5.628   3.500  0.1611 -0.3765  0.1934
13331SOL    HW145829   6.194   5.604   3.450  0.4238 -1.2146  0.1728
13331SOL    HW245830   6.319   5.545   3.513  0.0837 -0.1959  1.8602
13332SOL     OW45831   9.518   5.115   0.684  0.5319  0.4921  0.0024
13332SOL    HW145832   9.503   5.207   0.661  2.6458  0.7154 -0.7918
13332SOL    HW245833   9.603   5.116   0.728  1.2387 -1.2075 -1.2065
13333SOL     OW45834   5.267   4.973   9.557 -0.0354 -0.4836  0.0938
13333SOL    HW145835   5.188   4.920   9.555 -0.7585  0.4389  2.1630
13333SOL    HW245836   5.237   5.061   9.582  1.6469 -0.1736  1.1906
13334SOL     OW45837   0.480   0.053   2.195  0.3727  0.1441  0.3645
13334SOL    HW145838   0.503  -0.004   2.268 -0.8122 -1.0719 -0.1582
13334SOL    HW245839   0.492   0.142   2.228  1.3081 -0.3925  1.5272
13335SOL     OW45840   3.971   4.425   0.832  0.4041 -0.6783  0.4132
13335SOL    HW145841   3.943   4.340   0.797  1.2217 -0.4422 -0.8554
13335SOL    HW245842   4.045   4.404   0.889 -0.8115 -1.0393  1.9377
13336SOL     OW45843   5.285   8.966   9.092  0.1650  0.3103 -0.5226
13336SOL    HW145844   5.202   8.956   9.045 -0.4967  0.1831  0.6389
13336SOL    HW245845   5.328   9.039   9.049  0.3175 -0.7965 -2.3695
13337SOL     OW45846   3.074   4.013   1.260  0.0764 -0.0698  0.4100
13337SOL    HW145847   3.046   4.043   1.173  1.0282 -0.0279  0.1127
13337SOL    HW245848   3.122   3.933   1.244 -1.5551 -1.2474  1.1159
13338SOL     OW45849   2.140   9.403  10.418 -0.1796  0.4955  0.0069
13338SOL    HW145850   2.077   9.353  10.365 -0.4591  0.6160  0.2219
13338SOL    HW245851   2.184   9.460  10.354 -1.8288  2.0084  0.1260
13339SOL     OW45852   7.992   4.593   5.715  0.8115 -0.0114 -0.0734
13339SOL    HW145853   7.924   4.646   5.757  0.5677 -0.7569  0.4829
13339SOL    HW245854   8.004   4.634   5.629  0.2688  0.6392  0.1509
13340SOL     OW45855   0.879  10.310   5.692  0.5757 -0.0636 -0.4028
13340SOL    HW145856   0.964  10.345   5.668  0.4057  0.6393  0.0003
13340SOL    HW245857   0.851  10.362   5.768  0.0499 -0.6725 -0.1654
13341SOL     OW45858  10.050   2.198   2.526 -0.2266  0.0630  0.0188
13341SOL    HW145859  10.142   2.175   2.509 -0.1885  0.4657 -0.3286
13341SOL    HW245860  10.015   2.122   2.572  0.6367  0.4638  1.3887
13342SOL     OW45861   8.023   4.800   4.997 -0.1958  0.1046  0.5003
13342SOL    HW145862   8.040   4.886   5.036 -0.8239 -0.7234  2.7530
13342SOL    HW245863   8.050   4.809   4.906  1.7061  2.0802  1.1824
13343SOL     OW45864   0.839   4.327   3.578  0.0679  0.2802 -0.1613
13343SOL    HW145865   0.902   4.260   3.605  0.1069  0.2060 -0.4307
13343SOL    HW245866   0.828   4.312   3.484 -2.4085 -1.4727  0.2945
13344SOL     OW45867   3.038   4.774   1.698 -0.1395  0.3466  0.2874
13344SOL    HW145868   3.060   4.755   1.789 -1.8652 -1.8801  0.3303
13344SOL    HW245869   3.099   4.721   1.647  0.7818  1.5412  0.1096
13345SOL     OW45870   7.913   2.424   7.228  0.1236 -0.1012 -0.1040
13345SOL    HW145871   7.855   2.496   7.204 -0.9001 -0.9581 -0.2880
13345SOL    HW245872   7.944   2.388   7.145 -0.9038 -1.0640 -0.1007
13346SOL     OW45873   9.843   7.297   2.630  0.3483  0.0319  0.0755
13346SOL    HW145874   9.929   7.330   2.654 -0.2265  0.7537  1.2668
13346SOL    HW245875   9.783   7.368   2.653 -0.6130 -0.6311 -0.3084
13347SOL     OW45876   8.493   7.637   3.635 -0.0884 -0.2084  0.1095
13347SOL    HW145877   8.430   7.672   3.698 -0.3611  0.0384 -0.3006
13347SOL    HW245878   8.469   7.545   3.627  0.1904 -0.3362  0.6565
13348SOL     OW45879  10.323   2.598   9.800 -0.1588  0.5240  0.0862
13348SOL    HW145880  10.385   2.537   9.761 -0.9964 -0.5017  0.2955
13348SOL    HW245881  10.315   2.569   9.891  0.2240  1.6108  0.4765
13349SOL     OW45882   4.298   8.780   5.366 -0.2094  0.0199  0.4589
13349SOL    HW145883   4.280   8.739   5.282  0.7695 -0.6732  0.5718
13349SOL    HW245884   4.379   8.829   5.353 -0.1799  0.1070  0.9268
13350SOL     OW45885   2.167   9.813   0.446  0.4549 -0.5313 -0.0308
13350SOL    HW145886   2.234   9.750   0.419  0.2242 -0.0717 -1.7367
13350SOL    HW245887   2.100   9.758   0.488  1.2512 -1.1469  0.4802
13351SOL     OW45888   9.224   9.364   8.597 -0.4796  0.3975  0.3475
13351SOL    HW145889   9.170   9.319   8.662 -1.5485  1.0210 -0.0703
13351SOL    HW245890   9.186   9.337   8.513  0.4218  0.1722  0.0058
13352SOL     OW45891   9.137   4.019   1.060 -0.1405 -0.2757  0.1666
13352SOL    HW145892   9.212   3.968   1.090  1.1200  0.8290 -0.9977
13352SOL    HW245893   9.174   4.089   1.007 -1.8225  1.7044  1.4370
13353SOL     OW45894   1.251   1.757   9.354 -0.1849  0.3510 -0.2076
13353SOL    HW145895   1.283   1.809   9.428  1.0624  0.6601 -0.9453
13353SOL    HW245896   1.221   1.822   9.291 -0.2158  0.1193 -0.4313
13354SOL     OW45897   4.416   3.398   0.287 -0.7965 -0.2684  0.0507
13354SOL    HW145898   4.501   3.387   0.330 -1.7434 -1.3746  1.7151
13354SOL    HW245899   4.396   3.312   0.251 -1.6982 -0.2957  0.6064
13355SOL     OW45900   2.063   4.894   0.965  0.3331  0.3020  0.4922
13355SOL    HW145901   2.147   4.916   0.925  0.6351 -0.7886  0.4953
13355SOL    HW245902   2.075   4.805   0.999 -0.9120  0.0149  0.2324
13356SOL     OW45903  10.486   9.122   9.231  0.1095 -0.1872 -0.0175
13356SOL    HW145904  10.517   9.152   9.316  0.5094  1.4758 -0.7218
13356SOL    HW245905  10.433   9.045   9.251 -0.7486  0.8300  1.8525
13357SOL     OW45906   6.766   4.107   8.561 -0.6893 -0.4842 -0.5374
13357SOL    HW145907   6.794   4.133   8.648 -1.3796  0.8576 -0.6830
13357SOL    HW245908   6.813   4.166   8.502 -0.3010 -1.3116 -1.0686
13358SOL     OW45909   0.558   0.931   0.660 -0.1261  0.4818 -0.3544
13358SOL    HW145910   0.466   0.941   0.635 -0.7525 -1.6929  0.7874
13358SOL    HW245911   0.604   0.918   0.578 -0.8160  1.6213 -0.9494
13359SOL     OW45912   7.687   0.558   9.044 -0.2567  0.0203  0.3046
13359SOL    HW145913   7.639   0.625   9.093 -0.5104 -0.0906  0.2104
13359SOL    HW245914   7.715   0.495   9.109 -0.0399  0.2033  0.3912
13360SOL     OW45915   2.961   3.942   3.446 -0.7529 -0.2718  0.4813
13360SOL    HW145916   3.034   3.952   3.508 -0.4741 -0.2719  0.1573
13360SOL    HW245917   2.908   3.871   3.483  0.7482 -2.0096 -0.5418
13361SOL     OW45918   0.435   5.138   3.195  0.5300 -0.2483  0.5699
13361SOL    HW145919   0.520   5.175   3.173 -0.5217  1.8115 -0.2027
13361SOL    HW245920   0.400   5.105   3.113 -0.4930  1.2921  0.3436
13362SOL     OW45921   9.542   9.746   3.911 -0.3698 -0.8679 -0.9359
13362SOL    HW145922   9.581   9.818   3.860  0.7667 -0.6937  0.1376
13362SOL    HW245923   9.448   9.750   3.890 -0.2191  0.4528 -1.4745
13363SOL     OW45924   0.427   9.431   9.669 -0.2857 -0.1856 -0.2498
13363SOL    HW145925   0.437   9.412   9.576 -0.1199  0.2935 -0.3276
13363SOL    HW245926   0.338   9.464   9.677 -0.7556 -1.4304 -0.0372
13364SOL     OW45927   6.834   3.475   7.469 -0.1672  0.0688 -0.2358
13364SOL    HW145928   6.887   3.395   7.472 -1.2824 -0.6801  0.8001
13364SOL    HW245929   6.753   3.451   7.515 -0.6722  1.6986 -0.2203
13365SOL     OW45930   9.930   1.776  10.254  0.3657  0.4963 -0.0140
13365SOL    HW145931   9.927   1.702  10.315 -0.3935  0.1371 -0.4720
13365SOL    HW245932   9.870   1.751  10.183  0.8219  1.1402 -0.6412
13366SOL     OW45933   8.203   7.553   2.030  0.1927  0.5451 -0.1577
13366SOL    HW145934   8.263   7.495   2.079  1.5721  0.5955 -1.6995
13366SOL    HW245935   8.238   7.641   2.044  0.0377  0.6578 -0.4677
13367SOL     OW45936   4.738   1.065   3.675 -0.3984 -0.1572  0.0464
13367SOL    HW145937   4.826   1.029   3.687 -0.2434  0.4592  0.8664
13367SOL    HW245938   4.751   1.140   3.616 -0.6039 -0.9234 -1.0077
13368SOL     OW45939   1.038   2.039   0.742 -0.1491 -0.2057  0.5554
13368SOL    HW145940   1.118   1.997   0.709 -0.1972 -0.3654  0.6375
13368SOL    HW245941   1.009   2.095   0.670 -0.8315 -1.3468 -0.0995
13369SOL     OW45942   5.803   5.123   3.772 -0.1326  0.8598  0.7986
13369SOL    HW145943   5.881   5.178   3.777  0.5604  0.0240 -0.2561
13369SOL    HW245944   5.811   5.063   3.846  1.8831 -1.2316 -0.9643
13370SOL     OW45945   7.697   8.971   4.898 -0.0302 -0.4571 -0.2464
13370SOL    HW145946   7.671   9.028   4.825 -0.3723 -0.0895  0.1594
13370SOL    HW245947   7.780   9.007   4.928 -1.7069  1.8176  2.0410
13371SOL     OW45948   9.849   2.703   7.085  0.2469  0.0609  0.1978
13371SOL    HW145949   9.875   2.653   7.162 -1.0892 -1.0460 -0.0329
13371SOL    HW245950   9.917   2.685   7.021 -1.1355 -3.1640 -0.5553
13372SOL     OW45951   4.617   3.864  10.212  0.0101  0.1089  0.1349
13372SOL    HW145952   4.652   3.921  10.144 -0.1395 -0.3373 -0.3180
13372SOL    HW245953   4.639   3.776  10.183  0.5753 -0.0565  1.0192
13373SOL     OW45954   2.436   3.510   4.750  0.2383  0.0389 -0.4192
13373SOL    HW145955   2.364   3.446   4.748  0.4057 -0.2584  1.2104
13373SOL    HW245956   2.515   3.456   4.755  0.4273  0.3566  0.1303
13374SOL     OW45957   6.048   1.847  10.055  0.1801 -0.5004  0.1378
13374SOL    HW145958   5.967   1.857  10.105 -1.1078 -4.0449 -0.9570
13374SOL    HW245959   6.047   1.921   9.993 -2.4884 -0.6696 -0.1453
13375SOL     OW45960   3.107   9.710   9.883  0.4044  0.1694 -0.1850
13375SOL    HW145961   3.195   9.741   9.860  1.3188 -0.4125  2.1828
13375SOL    HW245962   3.117   9.674   9.972 -2.5143  1.3386  0.7341
13376SOL     OW45963   6.433   9.479   0.395  0.2766  0.0811 -0.4694
13376SOL    HW145964   6.345   9.516   0.387  0.4209  0.7748  0.7979
13376SOL    HW245965   6.465   9.512   0.479  1.7043 -0.2615 -0.8474
13377SOL     OW45966   9.427  10.432   6.999  0.3932  0.2582 -0.3717
13377SOL    HW145967   9.503  10.400   7.047 -0.0228 -1.0572 -0.5444
13377SOL    HW245968   9.458  10.445   6.910 -0.0930 -2.5847 -1.0320
13378SOL     OW45969   7.772   6.733   4.453 -0.1271  0.8994  0.4916
13378SOL    HW145970   7.843   6.670   4.462  1.3373  2.0063 -2.2252
13378SOL    HW245971   7.779   6.789   4.531 -0.4048 -1.1330  2.0885
13379SOL     OW45972   0.825   2.067   4.743 -0.2419 -0.1457 -0.0816
13379SOL    HW145973   0.876   2.074   4.824 -1.6185 -1.7977  0.9872
13379SOL    HW245974   0.841   2.150   4.698  0.0144  1.1473  2.2188
13380SOL     OW45975   6.469   2.515   5.550 -0.4224  0.1901 -0.0348
13380SOL    HW145976   6.422   2.447   5.599 -0.0638  0.3155  0.4990
13380SOL    HW245977   6.441   2.597   5.591 -0.0091  0.2884  0.0504
13381SOL     OW45978  10.351   6.802   2.127  0.3241 -0.0576  0.0284
13381SOL    HW145979  10.400   6.728   2.091 -1.5891 -0.5773 -1.6691
13381SOL    HW245980  10.406   6.878   2.109  1.9083 -0.9144  0.9985
13382SOL     OW45981   1.606   5.250   4.030 -0.2411  0.0010 -0.2772
13382SOL    HW145982   1.607   5.155   4.041  2.3706  0.0859  0.9580
13382SOL    HW245983   1.612   5.264   3.935  1.3941 -1.1329 -0.3745
13383SOL     OW45984   4.593   1.177   7.948  0.1909  0.2673 -0.1422
13383SOL    HW145985   4.654   1.123   7.999 -1.1027  0.6423  1.8936
13383SOL    HW245986   4.562   1.243   8.009 -0.7227  1.3386 -1.7031
13384SOL     OW45987   7.205   5.319   5.267  0.0151 -0.3138  0.7422
13384SOL    HW145988   7.182   5.251   5.330  2.6383 -0.0169  2.1624
13384SOL    HW245989   7.268   5.276   5.208 -1.5946 -0.2760 -1.1022
13385SOL     OW45990   9.278   1.315   7.542  0.2862  0.6961  0.7202
13385SOL    HW145991   9.226   1.373   7.596  0.2883  1.1974  0.1969
13385SOL    HW245992   9.218   1.246   7.514  0.4016  0.1655  1.7360
13386SOL     OW45993   8.062   6.937   3.089  0.6516  0.1887 -0.0979
13386SOL    HW145994   8.092   6.853   3.125  0.8347  1.1600  2.2113
13386SOL    HW245995   7.967   6.928   3.082  0.6641 -0.1959  0.2032
13387SOL     OW45996   5.549  10.463   9.452 -0.0101 -0.1265  0.1381
13387SOL    HW145997   5.620  10.498   9.505 -0.5643  0.1995  0.6824
13387SOL    HW245998   5.475  10.456   9.512  0.0253 -2.1037  0.0151
13388SOL     OW45999   6.359   2.176   2.627 -0.1264  0.1061 -0.0380
13388SOL    HW146000   6.446   2.189   2.588  0.5108 -2.6834  0.1828
13388SOL    HW246001   6.349   2.247   2.690  1.6513  0.9463 -0.6450
13389SOL     OW46002   7.345   0.710   2.816 -0.6456 -0.5512 -0.3602
13389SOL    HW146003   7.394   0.664   2.884  0.1261 -0.3058 -0.7396
13389SOL    HW246004   7.404   0.780   2.787 -1.4577  0.1269 -0.4103
13390SOL     OW46005   1.305   7.516   5.265 -0.3799 -0.2280  0.3844
13390SOL    HW146006   1.286   7.601   5.303 -0.3474  0.0132 -0.1377
13390SOL    HW246007   1.337   7.463   5.338  0.7989  0.5777  0.4727
13391SOL     OW46008   0.862   6.257   0.978  0.3018  0.5154 -0.1581
13391SOL    HW146009   0.838   6.337   1.024  0.6456 -0.0512  1.0332
13391SOL    HW246010   0.829   6.270   0.889 -1.7190  1.0110  0.6198
13392SOL     OW46011   0.365   2.513   8.729 -0.6531 -0.3394 -0.5941
13392SOL    HW146012   0.412   2.431   8.715 -0.5126 -0.1318 -1.3925
13392SOL    HW246013   0.311   2.496   8.806 -0.8484 -1.2829 -0.9171
13393SOL     OW46014   0.323   7.260   9.380  0.3531 -0.0395  0.0302
13393SOL    HW146015   0.241   7.290   9.341 -0.4598 -1.1257  0.8557
13393SOL    HW246016   0.381   7.243   9.305 -1.7098 -3.6799 -1.0054
13394SOL     OW46017   1.298   0.379   9.961 -0.0489  0.2830  0.2032
13394SOL    HW146018   1.295   0.395  10.055 -1.5469  0.9666  0.0683
13394SOL    HW246019   1.277   0.287   9.951  1.8590 -0.2343  0.6121
13395SOL     OW46020   8.064   9.317   6.695  0.3389  0.3508 -0.3769
13395SOL    HW146021   8.067   9.389   6.759  1.3862  0.0070 -0.0176
13395SOL    HW246022   8.150   9.276   6.701 -0.6112 -1.7336  0.3471
13396SOL     OW46023   1.082   3.302   9.517 -0.2063  0.2990 -0.3661
13396SOL    HW146024   1.019   3.368   9.545  1.6680  1.0988  2.3618
13396SOL    HW246025   1.037   3.254   9.447 -3.8264  0.8049  1.3667
13397SOL     OW46026   5.078   3.946   5.989 -0.4272  0.0570 -0.1483
13397SOL    HW146027   5.023   3.868   5.989 -0.3893 -0.0311  1.9204
13397SOL    HW246028   5.043   4.000   6.060  1.7015  0.2920  0.7984
13398SOL     OW46029   1.302   1.039   1.010 -0.2477 -0.1858  0.0875
13398SOL    HW146030   1.238   0.990   1.061 -0.6741  1.3104  1.0329
13398SOL    HW246031   1.265   1.044   0.922 -0.7481 -0.5530  0.2766
13399SOL     OW46032  10.083   0.640   3.129  0.2221 -0.4691  0.4856
13399SOL    HW146033  10.058   0.655   3.038  2.7640  0.6162 -0.1241
13399SOL    HW246034  10.045   0.555   3.152 -2.0602  0.0996 -0.9269
13400SOL     OW46035   0.980   2.302   4.698 -0.4143 -0.0367  0.2490
13400SOL    HW146036   0.941   2.353   4.627  0.2580 -0.2097 -0.2596
13400SOL    HW246037   0.930   2.326   4.776 -1.4118 -0.1267 -0.3509
13401SOL     OW46038   0.429   5.510   4.152  0.4386 -0.1395 -0.1095
13401SOL    HW146039   0.477   5.550   4.224 -1.8502 -0.1390  1.5037
13401SOL    HW246040   0.422   5.418   4.176 -0.5481 -0.0968 -0.1955
13402SOL     OW46041   3.913   3.034   7.192 -0.3139  0.5277  0.1155
13402SOL    HW146042   3.937   3.046   7.284  0.3457 -0.1088  0.0344
13402SOL    HW246043   3.974   2.968   7.159 -2.1655 -1.1570 -0.1195
13403SOL     OW46044   5.452   8.317   1.768  0.4125  0.0240 -0.5503
13403SOL    HW146045   5.495   8.396   1.735 -0.8248  1.0398  0.2234
13403SOL    HW246046   5.414   8.343   1.852 -1.1425 -1.0298 -0.8963
13404SOL     OW46047   9.933   8.865  10.113  0.0692 -0.0401 -0.6553
13404SOL    HW146048   9.915   8.948  10.068 -1.7267 -1.7764 -3.4897
13404SOL    HW246049   9.898   8.878  10.201 -3.8113  1.0841 -2.1465
13405SOL     OW46050   2.979  10.437   2.940  0.5313  0.3560 -0.2333
13405SOL    HW146051   2.947  10.464   2.855 -2.5758 -1.8092  0.1049
13405SOL    HW246052   2.911  10.463   3.002  1.4331 -0.5249  1.2104
13406SOL     OW46053   8.525   1.387   2.385  0.1944  0.3492 -0.2173
13406SOL    HW146054   8.470   1.323   2.340 -1.1186  0.5969  0.9761
13406SOL    HW246055   8.605   1.338   2.407 -0.8285 -0.9503  0.7796
13407SOL     OW46056   9.206   6.235   9.617 -0.4005 -0.1480 -0.2409
13407SOL    HW146057   9.121   6.215   9.655  0.4115 -0.8765  1.3065
13407SOL    HW246058   9.267   6.231   9.692  1.0175  0.1143 -1.3393
13408SOL     OW46059   4.100   4.832   6.192  0.0598 -0.1552 -0.2764
13408SOL    HW146060   4.008   4.831   6.166 -0.0119 -0.5372 -0.0123
13408SOL    HW246061   4.149   4.817   6.111 -0.0332  1.6828 -0.7232
13409SOL     OW46062   2.902   8.771   8.615  0.4161 -0.2730 -0.2134
13409SOL    HW146063   2.911   8.677   8.598  1.7850 -0.2086  0.0656
13409SOL    HW246064   2.965   8.789   8.685 -2.0990  0.2458  2.1098
13410SOL     OW46065   9.757  10.118   7.838 -0.0220  0.2200 -0.0875
13410SOL    HW146066   9.696  10.179   7.879 -0.9614  0.5957 -1.9128
13410SOL    HW246067   9.813  10.173   7.784  0.5891 -0.3254 -0.0211
13411SOL     OW46068   7.189   9.462   1.957  0.6314 -0.1714 -0.4916
13411SOL    HW146069   7.148   9.398   1.899 -0.1342 -0.9512  0.8806
13411SOL    HW246070   7.123   9.531   1.967  0.2063 -0.7271  0.5718
13412SOL     OW46071   9.243   5.698  10.678  0.3872  0.0530  0.0610
13412SOL    HW146072   9.267   5.682  10.587  0.5412 -0.2809  0.1584
13412SOL    HW246073   9.307   5.761  10.709 -0.9439  1.8543 -0.6785
13413SOL     OW46074   6.292   2.350   1.116  0.3293 -0.1303 -0.3141
13413SOL    HW146075   6.386   2.359   1.134  0.2826 -0.6616  0.2099
13413SOL    HW246076   6.249   2.407   1.179  0.2524 -0.7022  0.1613
13414SOL     OW46077   0.944   9.114   1.050 -0.3691 -0.6790  0.1631
13414SOL    HW146078   0.857   9.143   1.080 -0.7854 -1.3524 -0.3677
13414SOL    HW246079   0.937   9.019   1.043 -0.1998 -0.5900 -1.7259
13415SOL     OW46080   3.950   1.837   9.417 -0.0243  0.2168  0.4382
13415SOL    HW146081   4.030   1.795   9.385 -0.4608 -1.4099  1.3468
13415SOL    HW246082   3.913   1.880   9.341  0.2443 -1.4314 -0.6764
13416SOL     OW46083   6.048   1.568   8.899 -0.8796  0.5577 -0.1606
13416SOL    HW146084   6.113   1.528   8.841 -0.6425  1.5318 -0.5838
13416SOL    HW246085   6.096   1.590   8.979 -0.9468  0.2775 -0.0405
13417SOL     OW46086   0.798   9.961   6.463 -0.0539  0.0990 -0.5531
13417SOL    HW146087   0.886   9.926   6.450 -0.3094 -0.5370 -0.6033
13417SOL    HW246088   0.756   9.899   6.524  0.4051  1.8110  1.6444
13418SOL     OW46089   4.830   3.294   3.257  0.0647 -0.0581 -0.4350
13418SOL    HW146090   4.836   3.374   3.309 -1.7290  2.2949 -3.5566
13418SOL    HW246091   4.911   3.291   3.206  0.5968 -0.8715  0.4224
13419SOL     OW46092   7.236   5.210   0.724 -0.1156 -0.0260  0.0048
13419SOL    HW146093   7.273   5.286   0.769  1.4583  0.2510 -1.6062
13419SOL    HW246094   7.146   5.235   0.704 -0.3050  0.5109  1.4170
13420SOL     OW46095   1.474   2.315   7.583 -0.4536 -0.3779  0.1510
13420SOL    HW146096   1.425   2.370   7.645 -0.5953 -1.3571  0.9312
13420SOL    HW246097   1.425   2.233   7.580 -0.1831 -0.5179 -0.9177
13421SOL     OW46098   8.372   2.312   7.895 -0.0552 -0.2347 -0.1564
13421SOL    HW146099   8.327   2.316   7.810  0.5799 -0.1527 -0.4959
13421SOL    HW246100   8.331   2.380   7.948 -0.3312 -0.1620 -0.4617
13422SOL     OW46101   2.809   6.034   3.334  0.3618 -0.1382  0.6378
13422SOL    HW146102   2.889   6.022   3.385  0.2460 -0.5989  0.7235
13422SOL    HW246103   2.739   6.027   3.399  0.2263 -0.4464  0.4620
13423SOL     OW46104   8.351   9.301   7.729  0.0843 -0.3886  0.3611
13423SOL    HW146105   8.418   9.350   7.776 -0.5171 -0.4220  1.2586
13423SOL    HW246106   8.335   9.224   7.783 -0.7516 -0.3378  0.1985
13424SOL     OW46107   2.728   3.391   3.662 -0.2261  0.9450 -0.2494
13424SOL    HW146108   2.787   3.453   3.618 -0.5576 -0.1372 -2.3721
13424SOL    HW246109   2.784   3.319   3.689 -0.2735  0.8239 -0.4707
13425SOL     OW46110   3.971   4.953  10.374  0.2747  0.0253 -0.1455
13425SOL    HW146111   3.889   4.948  10.325 -0.2727  0.0048  0.7498
13425SOL    HW246112   3.966   4.881  10.436  0.9368  0.0771 -0.0226
13426SOL     OW46113   6.255   6.974   6.342  0.1428 -0.1422 -0.4342
13426SOL    HW146114   6.259   6.953   6.435 -1.2738 -1.4243 -0.6145
13426SOL    HW246115   6.187   7.040   6.334 -0.9466 -1.2627 -0.7116
13427SOL     OW46116   6.648  10.396   0.754  0.1593  0.5977  0.0679
13427SOL    HW146117   6.723  10.435   0.710 -0.2721  0.1030 -1.1617
13427SOL    HW246118   6.588  10.374   0.683 -0.2693 -0.8945  0.8562
13428SOL     OW46119   4.937   1.666   7.307  0.2433 -0.0996 -0.0263
13428SOL    HW146120   4.913   1.587   7.356  1.5455 -0.7973 -0.4714
13428SOL    HW246121   5.032   1.672   7.315  0.1396  1.7046  0.3828
13429SOL     OW46122   2.781   4.705   8.917 -0.1847 -0.7781 -0.0019
13429SOL    HW146123   2.744   4.620   8.940  0.8598 -1.3534 -0.4051
13429SOL    HW246124   2.875   4.695   8.931 -0.0494  0.3172 -0.0385
13430SOL     OW46125   7.906   1.711   9.273 -0.5775 -0.8740 -0.3434
13430SOL    HW146126   7.869   1.741   9.356 -1.7515 -0.5500 -0.9671
13430SOL    HW246127   7.861   1.629   9.254 -0.3119 -0.9486 -0.6645
13431SOL     OW46128  10.600   8.598  10.197 -0.0431  0.0735  0.1399
13431SOL    HW146129  10.551   8.674  10.230  0.6312  1.3171 -1.5705
13431SOL    HW246130  10.547   8.522  10.221 -0.8625  1.0883  1.6916
13432SOL     OW46131   2.999   2.365   8.811  0.3419  0.4734  0.4976
13432SOL    HW146132   2.989   2.288   8.756  1.6800  0.7647 -0.1872
13432SOL    HW246133   2.974   2.438   8.754 -0.5173  0.6025  1.0155
13433SOL     OW46134   8.766   8.425   5.234 -0.3631 -0.0588 -0.1645
13433SOL    HW146135   8.728   8.484   5.169  0.1510  0.5441  0.0695
13433SOL    HW246136   8.735   8.338   5.208 -0.1126  0.1615 -1.2560
13434SOL     OW46137   7.180   2.411   3.631 -0.5531 -0.0595  0.2081
13434SOL    HW146138   7.211   2.347   3.567 -0.7290  1.0175 -0.9973
13434SOL    HW246139   7.158   2.359   3.708 -0.8485 -1.4700 -0.7797
13435SOL     OW46140   4.011   5.474   3.632  0.2124  0.2022  0.9559
13435SOL    HW146141   3.961   5.553   3.610 -0.4232 -0.4363  0.0335
13435SOL    HW246142   3.952   5.402   3.611  1.6820 -0.5859 -0.6613
13436SOL     OW46143   7.961  10.524   5.028  0.0894 -0.3028  0.3154
13436SOL    HW146144   7.969  10.557   4.938  1.8098 -0.5395  0.3429
13436SOL    HW246145   7.936  10.601   5.079  0.2604  0.1017 -0.1940
13437SOL     OW46146   2.738   5.442   0.290  0.7595 -0.1394 -0.1623
13437SOL    HW146147   2.714   5.361   0.245  2.1212 -0.3358 -0.5844
13437SOL    HW246148   2.674   5.506   0.259 -0.2982 -1.0126  0.1308
13438SOL     OW46149   2.932   6.459   4.139  0.3268  0.5723  0.3104
13438SOL    HW146150   3.020   6.451   4.101  0.3951  0.5353  0.4751
13438SOL    HW246151   2.902   6.546   4.111 -0.1694  0.0100 -0.9683
13439SOL     OW46152   3.014   2.712   0.052  0.1158  0.5496 -0.4099
13439SOL    HW146153   3.041   2.622   0.067 -0.0262  0.5646 -0.0552
13439SOL    HW246154   3.076   2.745  -0.014  0.5270  0.3730 -0.1161
13440SOL     OW46155   9.925   1.584   8.265 -0.2575 -0.0658 -0.4260
13440SOL    HW146156   9.912   1.548   8.353  3.4053 -0.4425  0.1223
13440SOL    HW246157   9.908   1.510   8.207 -0.8500 -0.3636  0.1141
13441SOL     OW46158   2.417   7.805   9.495  0.8231  0.1693 -0.6742
13441SOL    HW146159   2.478   7.732   9.502  0.2279 -0.3887 -1.1958
13441SOL    HW246160   2.465   7.873   9.447  1.4455  0.2092 -0.0206
13442SOL     OW46161   7.899   9.175   3.224  0.0735  0.1057  0.1732
13442SOL    HW146162   7.904   9.216   3.138 -3.1686  2.2399  0.8277
13442SOL    HW246163   7.981   9.198   3.266  1.4883 -0.4935 -2.0769
13443SOL     OW46164   6.184   7.355   1.689 -0.4794  0.3823 -0.3411
13443SOL    HW146165   6.155   7.273   1.728 -0.1318  0.2042 -0.4520
13443SOL    HW246166   6.121   7.373   1.620  0.3426 -0.6205 -1.3751
13444SOL     OW46167   2.397   6.791   8.541  0.3184  0.8119 -0.1714
13444SOL    HW146168   2.338   6.726   8.579  1.5914 -0.3909 -0.1950
13444SOL    HW246169   2.384   6.782   8.446 -0.4465  1.5094 -0.1404
13445SOL     OW46170   9.178   0.071   3.269 -0.5913  0.2323  0.0602
13445SOL    HW146171   9.267   0.048   3.243  0.7219  3.1364  1.5315
13445SOL    HW246172   9.134   0.097   3.188  0.3975  0.2825 -0.4677
13446SOL     OW46173   3.825   1.673   7.226 -0.3402  0.0859  0.3333
13446SOL    HW146174   3.731   1.691   7.219 -0.6406 -0.8144  1.6303
13446SOL    HW246175   3.865   1.733   7.163 -1.8826 -0.5290 -1.3508
13447SOL     OW46176   8.762   9.783   0.999 -0.0128  0.4340 -0.4532
13447SOL    HW146177   8.734   9.753   1.086  0.8101 -1.1024 -0.6906
13447SOL    HW246178   8.685   9.770   0.944 -0.2815  0.6471 -0.1352
13448SOL     OW46179   4.050   0.849   4.470 -0.1993 -0.0190 -0.2610
13448SOL    HW146180   3.992   0.819   4.400 -1.8419  1.9774  0.1560
13448SOL    HW246181   4.138   0.847   4.431 -0.9193 -0.1759 -1.9518
13449SOL     OW46182   9.578   8.715   7.223 -0.6716  0.2609  0.4860
13449SOL    HW146183   9.637   8.675   7.159 -0.2717  2.2287 -0.4658
13449SOL    HW246184   9.624   8.707   7.306  2.3963  3.9303 -0.5356
13450SOL     OW46185   3.022   6.095  10.114 -0.5447  0.1678 -0.0286
13450SOL    HW146186   3.015   6.069  10.206 -2.1940 -1.2596 -0.5171
13450SOL    HW246187   3.103   6.055  10.084 -0.9444 -0.9470  0.3380
13451SOL     OW46188   2.399   3.626   6.001 -0.0949  0.4962  0.2187
13451SOL    HW146189   2.317   3.623   6.051  0.2744 -2.1692  0.7968
13451SOL    HW246190   2.452   3.690   6.048 -0.4338 -0.6110  2.2479
13452SOL     OW46191  10.472   8.776   0.265 -0.0991  0.1190 -0.3571
13452SOL    HW146192  10.507   8.755   0.178 -0.8580 -2.0961 -0.1864
13452SOL    HW246193  10.514   8.713   0.323  1.5298  2.4695  1.2473
13453SOL     OW46194   2.094   3.749   1.023 -0.1865 -0.7025 -0.3058
13453SOL    HW146195   2.129   3.809   0.958 -0.6272 -1.0618 -0.8836
13453SOL    HW246196   2.170   3.699   1.054  0.0873 -0.2447 -0.2331
13454SOL     OW46197   7.247  10.041   8.575 -0.5561 -0.2347  0.3308
13454SOL    HW146198   7.341  10.058   8.564 -0.3345 -2.2360 -1.6753
13454SOL    HW246199   7.243   9.978   8.648 -0.3917  0.2070  0.7237
13455SOL     OW46200   4.730   5.898   0.304 -0.1499  0.1426  0.0882
13455SOL    HW146201   4.742   5.965   0.371  1.3242 -1.2238  1.2719
13455SOL    HW246202   4.815   5.890   0.262 -0.8944  0.5216 -1.5484
13456SOL     OW46203   9.662   1.359   4.335  0.0065 -0.0272  0.1766
13456SOL    HW146204   9.668   1.286   4.274 -1.1453 -1.5786  1.8463
13456SOL    HW246205   9.628   1.321   4.416  2.5781  1.7066  2.2374
13457SOL     OW46206   5.782  10.512   8.349  0.0994  0.3142 -0.0813
13457SOL    HW146207   5.781  10.607   8.340 -0.3439  0.3363  0.1705
13457SOL    HW246208   5.772  10.479   8.260 -0.4204  0.5080 -0.0956
13458SOL     OW46209   4.380   4.323   1.889  0.3671 -0.1045  0.3723
13458SOL    HW146210   4.309   4.387   1.890  2.2418  2.1095 -0.7902
13458SOL    HW246211   4.431   4.344   1.811  2.3538 -1.5633  1.1920
13459SOL     OW46212   6.274   0.078   9.208  0.1356 -0.8167  0.3994
13459SOL    HW146213   6.316   0.144   9.152 -1.9022  0.6618  0.5200
13459SOL    HW246214   6.243   0.011   9.147 -0.4203 -0.1602 -0.0459
13460SOL     OW46215   2.140   8.966  10.114 -0.4633  0.2368 -0.2039
13460SOL    HW146216   2.050   8.969  10.081 -0.1718  1.9386 -0.9267
13460SOL    HW246217   2.185   8.905  10.056 -1.2054 -0.9096  0.3789
13461SOL     OW46218   8.430   7.590   8.642  0.0987 -0.5887  0.4987
13461SOL    HW146219   8.382   7.673   8.643  1.1606  0.0659 -0.1812
13461SOL    HW246220   8.471   7.587   8.555  0.9841 -1.2833  0.9162
13462SOL     OW46221  10.305   3.578   6.867  0.3836  0.4837  0.4142
13462SOL    HW146222  10.276   3.668   6.851  0.8545  0.6061  0.2120
13462SOL    HW246223  10.391   3.588   6.908 -0.3822  0.1591  2.1971
13463SOL     OW46224   1.089   8.164   8.742 -0.2510  0.2215 -0.7037
13463SOL    HW146225   1.174   8.186   8.780 -0.4401  0.0002 -0.1407
13463SOL    HW246226   1.081   8.069   8.755  0.3592 -0.1469 -2.7001
13464SOL     OW46227   9.815   3.750   7.583  0.0509 -0.9352 -0.4891
13464SOL    HW146228   9.767   3.778   7.505  0.9254  0.3046 -0.6170
13464SOL    HW246229   9.875   3.823   7.601 -1.0585 -0.5779  2.1411
13465SOL     OW46230   0.104   7.710   1.325  0.1043  0.4891 -0.0648
13465SOL    HW146231   0.044   7.784   1.320 -0.4752 -0.0656 -2.0891
13465SOL    HW246232   0.184   7.740   1.282  0.5632  0.5361  0.7904
13466SOL     OW46233   9.642   4.388   1.981 -0.7371 -0.6467  0.6720
13466SOL    HW146234   9.564   4.365   1.931  0.1318 -2.0596 -0.0922
13466SOL    HW246235   9.684   4.458   1.930 -1.3046 -0.1224  0.9105
13467SOL     OW46236   2.432   8.248   9.062 -0.0471  0.0612  0.2326
13467SOL    HW146237   2.368   8.179   9.048  1.1517 -0.9728 -0.4254
13467SOL    HW246238   2.456   8.239   9.154 -0.4667  0.1120  0.3484
13468SOL     OW46239   1.226   6.343   1.713  0.1821 -0.8597  0.7432
13468SOL    HW146240   1.208   6.323   1.805 -1.0232  2.0363  1.2549
13468SOL    HW246241   1.320   6.361   1.710  0.2031 -0.8413  1.4268
13469SOL     OW46242   7.855   6.734   9.581  0.4099  0.0878 -0.1582
13469SOL    HW146243   7.920   6.674   9.617 -0.4870 -1.5984 -1.2121
13469SOL    HW246244   7.771   6.695   9.605 -0.2244  1.4976  0.0217
13470SOL     OW46245   2.021  10.402   3.665 -0.2389  0.1297 -0.5100
13470SOL    HW146246   1.926  10.410   3.664 -0.3562 -0.9286  0.1891
13470SOL    HW246247   2.050  10.442   3.583 -1.0844  2.6356  0.3440
13471SOL     OW46248   4.093   7.933   0.270  0.8943  0.0891 -0.2426
13471SOL    HW146249   4.102   7.847   0.229 -0.7380  0.3114 -1.1503
13471SOL    HW246250   4.018   7.973   0.226 -0.3480  0.7409  2.3099
13472SOL     OW46251  10.401   4.399   0.557 -0.3009 -0.1862  0.2150
13472SOL    HW146252  10.484   4.389   0.512  0.7892 -1.8219  2.4006
13472SOL    HW246253  10.423   4.447   0.637 -1.4973 -0.4541  0.7263
13473SOL     OW46254   4.824   4.141   8.134 -0.3178  0.4068  0.4210
13473SOL    HW146255   4.859   4.154   8.045  0.4685  3.0268  1.0232
13473SOL    HW246256   4.734   4.111   8.120 -0.2899  1.0082 -1.2880
13474SOL     OW46257   7.337   7.115   8.764  0.2265 -0.2027 -0.3034
13474SOL    HW146258   7.245   7.108   8.738  0.8532 -1.6029 -2.4493
13474SOL    HW246259   7.337   7.099   8.858 -1.7145 -0.1930 -0.2649
13475SOL     OW46260   8.838   6.895   4.394 -0.1828 -0.3362  0.8414
13475SOL    HW146261   8.837   6.991   4.391 -1.3832 -0.3417  0.3503
13475SOL    HW246262   8.747   6.870   4.410 -0.3102 -1.4221 -1.1779
13476SOL     OW46263   6.831   9.850   4.826  0.1888 -0.2558 -0.5350
13476SOL    HW146264   6.859   9.764   4.796 -0.1485 -0.7587  0.5458
13476SOL    HW246265   6.912   9.893   4.854  0.2734 -0.5040 -0.3939
13477SOL     OW46266   5.547   8.731   0.323  0.2092  0.0805 -0.5578
13477SOL    HW146267   5.599   8.780   0.387 -0.9031  0.4910  0.0518
13477SOL    HW246268   5.533   8.646   0.363 -1.7123  0.8173  0.4301
13478SOL     OW46269   6.141   0.842  10.175  0.1729 -0.2620 -0.0467
13478SOL    HW146270   6.110   0.919  10.222 -3.0726 -1.9541  0.8846
13478SOL    HW246271   6.115   0.856  10.084 -1.7016 -0.7906  0.3746
13479SOL     OW46272   7.564  10.542   0.071  0.4340  0.2542 -0.7548
13479SOL    HW146273   7.546  10.566   0.162  0.7156 -0.4723 -0.5012
13479SOL    HW246274   7.489  10.576   0.022 -0.6769 -0.9830  0.0114
13480SOL     OW46275   5.777   5.484   0.101  0.0890  0.4025  0.2103
13480SOL    HW146276   5.853   5.513   0.152  0.1711 -1.4147  1.2151
13480SOL    HW246277   5.795   5.392   0.082 -1.8897 -0.1028  0.5397
13481SOL     OW46278   9.128   5.326   3.598  0.3647 -0.3319  0.6342
13481SOL    HW146279   9.209   5.367   3.567  0.6890  0.1217  2.0221
13481SOL    HW246280   9.157   5.246   3.642  0.1783  0.4237  2.1623
13482SOL     OW46281  10.425   5.930   3.536  0.3306 -0.8596  0.2580
13482SOL    HW146282  10.345   5.978   3.559  0.8838 -0.1278  0.6810
13482SOL    HW246283  10.405   5.890   3.451  0.9345  2.8586 -1.8787
13483SOL     OW46284   9.243   1.857   5.901  0.4198 -0.0348 -0.8081
13483SOL    HW146285   9.336   1.849   5.877  1.1405 -1.1017  1.9576
13483SOL    HW246286   9.227   1.783   5.960 -1.6521  1.2736  0.3737
13484SOL     OW46287   8.673   8.555   0.482  0.8012  0.0860 -0.8200
13484SOL    HW146288   8.765   8.564   0.457  0.3547  3.0959 -1.6808
13484SOL    HW246289   8.650   8.638   0.522 -1.5878 -0.5701 -0.6769
13485SOL     OW46290   1.519   9.830   9.301 -0.0354  0.2333  0.0878
13485SOL    HW146291   1.559   9.863   9.381 -0.3204  0.6864  0.0479
13485SOL    HW246292   1.450   9.770   9.331  1.0661 -1.0391  0.1488
13486SOL     OW46293   5.872   8.243   9.887  0.0338  0.1251  0.3966
13486SOL    HW146294   5.849   8.242   9.794 -2.8867 -1.7621  0.9896
13486SOL    HW246295   5.836   8.161   9.921  1.4141  0.5369  3.1471
13487SOL     OW46296   3.487   8.013   9.583 -0.2499 -0.1575 -0.1979
13487SOL    HW146297   3.405   7.977   9.550 -0.1329 -0.8321  0.2306
13487SOL    HW246298   3.551   7.997   9.513  0.3377 -2.8914  0.8414
13488SOL     OW46299   5.602   5.973   1.922 -0.3848 -0.4631 -0.3698
13488SOL    HW146300   5.513   5.942   1.907 -0.0930 -0.8375 -1.4152
13488SOL    HW246301   5.642   5.905   1.977  0.6740 -2.8369 -3.7636
13489SOL     OW46302   3.337   9.388   4.397  0.0640  0.2770 -0.3594
13489SOL    HW146303   3.419   9.358   4.357  1.3648 -0.3972  2.5765
13489SOL    HW246304   3.273   9.322   4.371  0.5838  0.3903 -2.0628
13490SOL     OW46305   1.980   6.396   8.945 -0.6379 -0.7064 -0.0941
13490SOL    HW146306   2.020   6.470   8.899 -0.8996 -0.7435 -0.3835
13490SOL    HW246307   1.981   6.324   8.882  0.8880 -1.3768  0.6291
13491SOL     OW46308  10.386   7.197   3.268  0.8358 -0.3623  0.4715
13491SOL    HW146309  10.413   7.270   3.212  1.1059 -1.4162 -0.8167
13491SOL    HW246310  10.302   7.224   3.303  0.7637  0.4299 -0.2754
13492SOL     OW46311   7.614   6.349   6.276 -0.7628  0.1967 -0.8143
13492SOL    HW146312   7.637   6.264   6.238  0.5711  1.0641 -2.0329
13492SOL    HW246313   7.547   6.328   6.341  0.0800 -1.8785 -0.5315
13493SOL     OW46314   3.778   0.966   4.147 -0.0219  1.1001  0.1583
13493SOL    HW146315   3.694   0.953   4.104 -0.3817 -1.2511  1.3942
13493SOL    HW246316   3.835   1.003   4.080 -1.3518  0.3215 -1.4506
13494SOL     OW46317   8.462   3.240   0.040  0.1628 -0.4694 -0.4387
13494SOL    HW146318   8.433   3.148   0.043  0.7071 -0.6185  1.2893
13494SOL    HW246319   8.400   3.282  -0.020 -1.0097 -1.6668 -0.1308
13495SOL     OW46320   3.651   8.942   9.897 -0.2368  0.0910  0.3351
13495SOL    HW146321   3.703   8.875   9.853  0.5571  0.3462  0.8636
13495SOL    HW246322   3.599   8.894   9.961  0.0843 -0.0540  0.4877
13496SOL     OW46323   4.015   1.391   0.823 -0.0324 -0.4660  0.2144
13496SOL    HW146324   3.924   1.392   0.853 -0.0397 -1.3426  0.2460
13496SOL    HW246325   4.043   1.482   0.827 -0.4526 -0.3881  1.5871
13497SOL     OW46326   0.463   5.324   0.713 -0.1745  0.4394  0.5180
13497SOL    HW146327   0.420   5.263   0.652 -2.1140  0.2805  1.9629
13497SOL    HW246328   0.556   5.322   0.687 -0.6305 -1.0406 -1.2055
13498SOL     OW46329   2.584   8.501   6.998  0.3655  0.0535  0.2725
13498SOL    HW146330   2.655   8.506   6.934 -0.6171  1.7667 -0.7446
13498SOL    HW246331   2.629   8.484   7.081  1.7997 -0.6550 -0.6007
13499SOL     OW46332   2.625   0.158   2.655 -0.6541 -0.1440 -0.7686
13499SOL    HW146333   2.681   0.085   2.632 -1.0095 -1.0325  1.0076
13499SOL    HW246334   2.666   0.234   2.614  2.4375 -0.5689  1.2307
13500SOL     OW46335   6.364   9.388   0.738 -0.1213 -0.7521 -0.6041
13500SOL    HW146336   6.299   9.435   0.685 -1.2960 -0.0537  1.3791
13500SOL    HW246337   6.426   9.456   0.765 -1.8781 -0.1714  2.3521
13501SOL     OW46338   6.123   3.106   2.544  0.1841 -0.2280 -0.4248
13501SOL    HW146339   6.085   3.156   2.616  0.5576 -0.0066 -0.3815
13501SOL    HW246340   6.107   3.014   2.567 -1.7212 -0.1286 -1.1515
13502SOL     OW46341   2.270   0.666   2.127  0.1224  0.0974 -0.1991
13502SOL    HW146342   2.264   0.581   2.084  0.5502  0.3482 -0.7728
13502SOL    HW246343   2.184   0.706   2.114  0.4838  0.4881 -1.5184
13503SOL     OW46344   1.081   4.814   5.983  0.5889 -0.3135  0.4758
13503SOL    HW146345   1.027   4.809   6.062  0.1465 -0.5382  0.1655
13503SOL    HW246346   1.132   4.895   5.993  0.3586 -0.2181  0.8781
13504SOL     OW46347   4.226   5.038   1.838  0.5178 -0.2031  0.2488
13504SOL    HW146348   4.214   5.115   1.783 -0.1168 -0.4277  0.0683
13504SOL    HW246349   4.270   4.974   1.782  1.7372  0.2807  0.6228
13505SOL     OW46350   5.639  10.103   4.774 -0.5886  0.1556 -0.0048
13505SOL    HW146351   5.606  10.026   4.820 -0.5310  0.2586  0.2149
13505SOL    HW246352   5.695  10.068   4.705 -1.4770 -0.0318 -0.6459
13506SOL     OW46353   4.292   0.789   4.363 -0.2627  0.0330  0.6616
13506SOL    HW146354   4.268   0.759   4.276 -0.3117  2.1098 -0.1085
13506SOL    HW246355   4.354   0.724   4.394 -0.2259 -0.7556 -0.9435
13507SOL     OW46356   9.043   3.572  10.460 -0.2283  0.7164  0.0516
13507SOL    HW146357   9.063   3.549  10.550  1.1436  1.7109  0.0432
13507SOL    HW246358   9.128   3.568  10.415 -0.9489 -0.2079 -1.3084
13508SOL     OW46359   9.998   7.564   9.269 -0.1022  0.0344 -0.0855
13508SOL    HW146360   9.932   7.537   9.205 -0.3441  1.1159 -0.3183
13508SOL    HW246361   9.997   7.496   9.336 -1.5267  0.0800 -0.0387
13509SOL     OW46362   8.584   1.020   2.161 -0.0312  0.1709  0.3541
13509SOL    HW146363   8.623   1.054   2.080 -2.0386  0.0220 -0.7359
13509SOL    HW246364   8.558   1.098   2.209 -2.0343  0.2901 -0.8249
13510SOL     OW46365   3.696   3.053   0.076 -0.2160  0.2273  0.0881
13510SOL    HW146366   3.696   3.072   0.170 -0.2903 -0.9052  0.3331
13510SOL    HW246367   3.758   2.981   0.066 -0.5364  0.0413 -0.6628
13511SOL     OW46368   7.347   1.559   3.955  0.1718  0.2000 -0.1096
13511SOL    HW146369   7.374   1.629   3.895 -0.7369  0.4712 -0.2114
13511SOL    HW246370   7.425   1.504   3.964  0.9201  1.2469  0.0077
13512SOL     OW46371   1.876   1.423  10.047  0.0224  0.7308 -0.4190
13512SOL    HW146372   1.928   1.380  10.116  0.0774  0.6744 -0.4962
13512SOL    HW246373   1.850   1.507  10.087  0.0063  0.6742 -0.3087
13513SOL     OW46374   5.875   6.160   7.259 -0.4871  0.6474  0.1210
13513SOL    HW146375   5.897   6.081   7.309 -0.8661  1.1310  1.0809
13513SOL    HW246376   5.810   6.205   7.313  1.0818  2.5752  0.5661
13514SOL     OW46377   5.588   7.735   6.517 -0.0032 -0.1002  0.0715
13514SOL    HW146378   5.560   7.705   6.604 -1.0761 -1.8478 -0.8303
13514SOL    HW246379   5.683   7.725   6.517  0.1113  0.7613  1.3285
13515SOL     OW46380   6.840   5.534   2.255  0.5979  0.3743  0.2460
13515SOL    HW146381   6.834   5.441   2.234  0.6203  0.7943 -1.9382
13515SOL    HW246382   6.792   5.544   2.337 -1.5062 -1.1864 -0.7111
13516SOL     OW46383   6.761   4.441   6.219  0.4973 -0.4625 -0.3344
13516SOL    HW146384   6.783   4.353   6.190 -0.6417 -0.5394 -1.0188
13516SOL    HW246385   6.667   4.438   6.237  0.2065  0.8752 -1.4288
13517SOL     OW46386   1.051   7.302   2.343  0.0412  0.4225  0.0553
13517SOL    HW146387   1.019   7.291   2.254  0.4410 -0.9250  0.0485
13517SOL    HW246388   0.985   7.355   2.387 -0.6183  0.3177 -0.7979
13518SOL     OW46389   8.261   3.835   5.215 -0.1126  0.2725 -0.3072
13518SOL    HW146390   8.345   3.791   5.197  0.0365  0.3043  0.2932
13518SOL    HW246391   8.198   3.763   5.223 -0.5338  0.2946 -2.5369
13519SOL     OW46392   5.887   3.154  10.011 -0.0269  0.2885 -0.3597
13519SOL    HW146393   5.812   3.214  10.012  0.8175  1.3759 -0.1739
13519SOL    HW246394   5.914   3.152   9.919 -2.0249 -2.4240 -1.0208
13520SOL     OW46395   8.122  10.700   6.135 -0.5828 -0.0178 -0.2634
13520SOL    HW146396   8.145  10.670   6.047 -1.3914 -0.0748 -0.4628
13520SOL    HW246397   8.102  10.793   6.125 -0.6818 -0.0256 -0.1442
13521SOL     OW46398   0.810   9.466   4.362 -0.2121 -0.1136  0.0219
13521SOL    HW146399   0.724   9.445   4.397 -0.9719  0.8732 -1.1858
13521SOL    HW246400   0.840   9.540   4.414 -0.7075  0.4145 -0.4224
13522SOL     OW46401   5.231   2.163   2.037  0.6207 -0.1894  0.0306
13522SOL    HW146402   5.183   2.149   1.955 -0.6794 -0.1547  0.7591
13522SOL    HW246403   5.316   2.196   2.009  0.8844 -1.9372 -1.3782
13523SOL     OW46404   3.397   2.572   7.638 -0.3034  0.7711 -0.7722
13523SOL    HW146405   3.330   2.584   7.571  0.2908  0.7290 -1.3821
13523SOL    HW246406   3.351   2.586   7.721 -1.2497 -0.0924 -1.1348
13524SOL     OW46407   6.890   2.156   5.608  0.7815 -0.4252 -0.0591
13524SOL    HW146408   6.850   2.139   5.694  1.0307  0.1984  0.1803
13524SOL    HW246409   6.979   2.122   5.616  1.6533  1.8705  0.7885
13525SOL     OW46410   3.463   7.801   8.506  0.8642  0.2801 -0.1457
13525SOL    HW146411   3.488   7.838   8.422 -0.6810 -0.9796 -1.2167
13525SOL    HW246412   3.465   7.706   8.493 -1.3829  0.0707  0.5653
13526SOL     OW46413   6.435   9.905   4.040 -0.3072  0.0309  0.1977
13526SOL    HW146414   6.455   9.862   4.123 -0.5297 -0.0453  0.2142
13526SOL    HW246415   6.346   9.875   4.019 -0.9987  1.5131  0.8737
13527SOL     OW46416   2.126   6.673   4.696 -0.4373 -0.0048  0.8044
13527SOL    HW146417   2.143   6.581   4.717  0.2154  0.1333  0.9240
13527SOL    HW246418   2.199   6.720   4.737 -0.5092  0.5169  0.3412
13528SOL     OW46419   0.688   7.747   4.113  0.2642 -0.4342  0.6012
13528SOL    HW146420   0.776   7.772   4.084 -0.1033  0.7110  0.4080
13528SOL    HW246421   0.673   7.662   4.073  0.6726  0.0752 -0.6781
13529SOL     OW46422   8.504   5.714   0.360  0.8973 -0.0797  0.1912
13529SOL    HW146423   8.455   5.636   0.331  0.4484  0.0739  0.5268
13529SOL    HW246424   8.440   5.785   0.355  1.3477  0.2964 -0.2465
13530SOL     OW46425   2.929   5.503   9.352  0.7296  0.2732 -0.0478
13530SOL    HW146426   2.853   5.481   9.299  0.9672 -0.8960  0.0517
13530SOL    HW246427   3.003   5.496   9.292  0.9244 -0.3367  0.2500
13531SOL     OW46428   0.645   3.535   9.701 -0.0287 -0.1980 -0.1486
13531SOL    HW146429   0.705   3.562   9.632 -0.0147  0.5316  0.1474
13531SOL    HW246430   0.589   3.469   9.659 -0.3999  0.6426 -1.0356
13532SOL     OW46431   1.558   3.689   2.193 -0.5464  0.1499 -0.0900
13532SOL    HW146432   1.471   3.701   2.231  0.3598  1.2842  1.8625
13532SOL    HW246433   1.568   3.763   2.134 -0.4804  0.7432  0.6397
13533SOL     OW46434   1.542   5.410   8.498 -0.2595  0.4152  0.0697
13533SOL    HW146435   1.506   5.430   8.585 -0.2699  0.5326  0.0389
13533SOL    HW246436   1.481   5.346   8.461  0.2821 -0.3961  0.5494
13534SOL     OW46437   1.221   4.868   0.948 -0.5599 -0.1182 -0.3530
13534SOL    HW146438   1.210   4.957   0.983 -2.0996 -0.4835  0.1861
13534SOL    HW246439   1.307   4.869   0.906  0.7012  0.8117  2.0766
13535SOL     OW46440   1.111   0.672   7.901 -0.4239  0.0843  0.6296
13535SOL    HW146441   1.096   0.751   7.952  0.6985  0.5910  0.2128
13535SOL    HW246442   1.134   0.605   7.966  0.8885  0.6949  0.8228
13536SOL     OW46443   9.671   2.390   9.661  0.6366 -0.5766 -0.0495
13536SOL    HW146444   9.585   2.398   9.619  0.8045 -2.7547 -0.9770
13536SOL    HW246445   9.688   2.295   9.662  2.8716 -0.2347  0.4303
13537SOL     OW46446   2.185   4.584   9.380  0.6721  0.4122  0.2579
13537SOL    HW146447   2.123   4.612   9.312  0.6129  1.6421  0.8056
13537SOL    HW246448   2.222   4.502   9.345 -0.9188 -0.1257 -0.2912
13538SOL     OW46449   5.361   7.080   3.443 -0.0888 -0.5882 -0.0916
13538SOL    HW146450   5.408   7.057   3.363 -1.1082  0.0734 -0.9059
13538SOL    HW246451   5.353   7.175   3.440  0.3929 -0.4932  1.1172
13539SOL     OW46452   9.800   6.300   6.971 -0.5125  0.2338 -0.2927
13539SOL    HW146453   9.787   6.296   6.876  0.3885 -1.3863 -0.3897
13539SOL    HW246454   9.839   6.215   6.993 -2.6067 -0.2890  1.8299
13540SOL     OW46455   2.196   0.500   5.193 -0.0071  0.4172  0.1844
13540SOL    HW146456   2.210   0.485   5.286 -0.8111 -1.7046 -0.0011
13540SOL    HW246457   2.282   0.486   5.153 -0.3458 -2.3371  0.2399
13541SOL     OW46458   3.937   8.007   7.524  0.1189  0.0757  0.8024
13541SOL    HW146459   3.948   7.925   7.571  1.3063  1.3880  2.9364
13541SOL    HW246460   4.018   8.017   7.474 -0.0746 -0.0819  0.4500
13542SOL     OW46461   4.766   6.824   3.993  0.3792  0.1763  0.1638
13542SOL    HW146462   4.803   6.876   3.922  0.6523  0.3250  0.4104
13542SOL    HW246463   4.843   6.783   4.034  0.1775 -0.3601  0.0212
13543SOL     OW46464   0.606   0.552   0.667 -0.0740 -0.0971  0.0843
13543SOL    HW146465   0.565   0.472   0.699 -0.6627 -0.0170 -0.4392
13543SOL    HW246466   0.535   0.601   0.626  0.5937 -0.0951 -1.1317
13544SOL     OW46467   6.818   5.472   7.377 -0.1421 -0.2077 -0.2330
13544SOL    HW146468   6.731   5.504   7.403 -0.5926  0.2184 -2.1449
13544SOL    HW246469   6.803   5.421   7.298  1.1838 -1.4524  0.2732
13545SOL     OW46470   8.471   4.393  10.357 -0.2407 -0.3444  0.5924
13545SOL    HW146471   8.445   4.343  10.280 -0.3467  1.4531 -0.5992
13545SOL    HW246472   8.557   4.429  10.336 -1.1286  1.8493  0.3865
13546SOL     OW46473   3.325   1.574   7.553  0.6698  0.0942 -0.0025
13546SOL    HW146474   3.244   1.624   7.563  1.1331  0.5625  1.7577
13546SOL    HW246475   3.310   1.519   7.476 -0.8526  1.0307 -0.4208
13547SOL     OW46476   2.373   8.654   0.824  0.4499  0.4622 -0.1629
13547SOL    HW146477   2.420   8.605   0.891 -0.5378  1.0032  0.9606
13547SOL    HW246478   2.340   8.588   0.763 -0.6079 -0.2592  1.1586
13548SOL     OW46479   0.826   3.522   6.256 -0.0844  0.0528 -0.4438
13548SOL    HW146480   0.804   3.576   6.333 -0.1174 -0.9440  0.2622
13548SOL    HW246481   0.798   3.575   6.181 -2.3857  0.0450  0.3115
13549SOL     OW46482   0.614   1.688  10.567  0.0709 -0.0020 -1.0505
13549SOL    HW146483   0.625   1.747  10.492  2.4454 -0.6581 -1.2813
13549SOL    HW246484   0.602   1.747  10.641  2.5589  0.8631 -1.2539
13550SOL     OW46485   4.858   9.566   9.059  0.1133  0.2032 -0.2527
13550SOL    HW146486   4.823   9.502   8.997  0.5897 -0.7001  0.4036
13550SOL    HW246487   4.792   9.572   9.127 -0.2938  1.0127 -0.6977
13551SOL     OW46488   2.299   6.147   8.572 -0.0914  0.2070  0.3041
13551SOL    HW146489   2.211   6.166   8.538 -0.0856  0.7602  0.6023
13551SOL    HW246490   2.358   6.178   8.504 -0.1337 -0.8445 -0.2377
13552SOL     OW46491   6.513   9.019   2.825  0.3733  0.5149  0.1404
13552SOL    HW146492   6.568   8.941   2.836 -0.2587 -0.1270 -0.9880
13552SOL    HW246493   6.492   9.020   2.731 -0.6940  1.3110  0.3679
13553SOL     OW46494   9.854  10.506   1.126  0.0837  0.3767 -0.7111
13553SOL    HW146495   9.862  10.422   1.171 -0.2735  0.3584 -0.6841
13553SOL    HW246496   9.837  10.483   1.035 -0.0690  0.4233 -0.6934
13554SOL     OW46497   9.435   4.856   5.638 -0.6345  0.3396  0.0939
13554SOL    HW146498   9.429   4.779   5.695  0.2527  0.7186  0.7086
13554SOL    HW246499   9.509   4.906   5.672 -0.7793  1.1317 -0.7193
13555SOL     OW46500   7.464   7.273   0.605  0.2849 -0.3803  0.0617
13555SOL    HW146501   7.447   7.262   0.511 -0.2324 -0.0301  0.1087
13555SOL    HW246502   7.558   7.291   0.610  0.2242  0.1274 -0.4437
13556SOL     OW46503   9.979   5.854  10.649  0.5109 -0.0191  0.7240
13556SOL    HW146504   9.895   5.880  10.612 -0.7135 -3.2243  0.9199
13556SOL    HW246505  10.021   5.802  10.580  2.8177  2.1926  0.3181
13557SOL     OW46506   5.916   6.285   0.477  0.2529  0.4563 -0.3303
13557SOL    HW146507   5.886   6.281   0.386 -0.0698  0.1873 -0.2152
13557SOL    HW246508   6.001   6.240   0.476  0.4113  0.7574 -0.5607
13558SOL     OW46509   5.627   7.133  10.504  0.1400 -0.3897  0.3280
13558SOL    HW146510   5.562   7.126  10.434  0.5778  0.2352 -0.1445
13558SOL    HW246511   5.696   7.072  10.480 -0.9485 -2.2515  1.6232
13559SOL     OW46512   2.246   3.891   5.650  0.0812  0.2757 -0.4629
13559SOL    HW146513   2.310   3.927   5.588  1.0497 -1.5394 -0.5658
13559SOL    HW246514   2.187   3.838   5.596 -0.6086  0.7170 -0.1559
13560SOL     OW46515   8.496   6.680  10.203  0.0690 -0.6096 -0.2403
13560SOL    HW146516   8.567   6.625  10.237 -0.5806 -1.2661  0.0656
13560SOL    HW246517   8.428   6.675  10.270 -0.5711 -0.5941 -0.8850
13561SOL     OW46518   1.280   5.007  10.539  0.3249  0.6446  0.2800
13561SOL    HW146519   1.242   5.083  10.584 -0.1905 -0.4244  1.7390
13561SOL    HW246520   1.357   5.042  10.494 -0.4915  2.2171  0.0501
13562SOL     OW46521   7.752   9.626   9.592 -0.3502  0.6132 -0.2967
13562SOL    HW146522   7.717   9.701   9.640  0.5054  1.6358 -1.2206
13562SOL    HW246523   7.779   9.662   9.508  0.1286 -0.7336 -0.7423
13563SOL     OW46524   4.354   4.427   4.345  0.1238  0.3157  0.2621
13563SOL    HW146525   4.333   4.461   4.432 -0.4516 -0.3428  0.3890
13563SOL    HW246526   4.280   4.371   4.322  0.2682  0.4838 -0.6570
13564SOL     OW46527   9.445   4.949   6.057 -0.5840 -0.2241 -0.0306
13564SOL    HW146528   9.385   4.896   6.005  2.0957 -1.1230 -2.4954
13564SOL    HW246529   9.390   5.015   6.099 -3.1944 -0.6807 -2.4540
13565SOL     OW46530   5.934   2.182   8.647 -0.7819 -0.1186 -0.2260
13565SOL    HW146531   5.905   2.123   8.577  1.9317 -0.7913 -0.9092
13565SOL    HW246532   5.866   2.176   8.714 -0.7063 -4.0630 -0.2695
13566SOL     OW46533   9.470   9.524   4.310  0.2404  0.0839  0.1495
13566SOL    HW146534   9.421   9.468   4.250 -0.4274 -0.0315  0.7930
13566SOL    HW246535   9.408   9.592   4.336  0.0238 -0.6977  1.8526
13567SOL     OW46536   6.829   5.295   1.169  0.2452 -0.0680 -0.2112
13567SOL    HW146537   6.919   5.264   1.177  0.4525  0.6449  0.2538
13567SOL    HW246538   6.777   5.230   1.217  0.7602  0.6557  1.3919
13568SOL     OW46539   6.798   2.106   4.286 -0.1827  0.6352 -0.0310
13568SOL    HW146540   6.722   2.162   4.304 -0.2875  0.0143  1.6524
13568SOL    HW246541   6.767   2.018   4.303  1.2503  0.4689  2.0016
13569SOL     OW46542   4.008   4.484   1.214  0.0382  0.2835 -0.1820
13569SOL    HW146543   3.995   4.398   1.255 -3.1955 -0.0099 -1.5193
13569SOL    HW246544   4.052   4.465   1.131 -2.5182 -0.4451 -1.4518
13570SOL     OW46545   4.773   7.111   4.330 -0.0110  0.0540  0.2723
13570SOL    HW146546   4.733   7.143   4.249 -0.5288  1.3240  0.9841
13570SOL    HW246547   4.855   7.070   4.303 -0.9298 -0.9812 -1.0466
13571SOL     OW46548   2.230  10.577   4.353 -0.3114 -0.3434 -0.2398
13571SOL    HW146549   2.212  10.549   4.264 -2.8692 -0.4650  0.2482
13571SOL    HW246550   2.254  10.497   4.399 -0.2768 -0.4944 -0.5183
13572SOL     OW46551   3.987   8.257   5.048  0.2218 -0.1837 -0.1413
13572SOL    HW146552   4.017   8.173   5.013 -1.1810 -0.7792  0.0337
13572SOL    HW246553   3.988   8.246   5.143 -0.3873 -0.1535 -0.1315
13573SOL     OW46554  10.254   8.354   8.222 -0.3004 -0.5951  0.5858
13573SOL    HW146555  10.337   8.339   8.267 -0.0599 -0.8726  0.0545
13573SOL    HW246556  10.278   8.367   8.130 -0.7683  0.1611  0.5615
13574SOL     OW46557   7.478   0.717  10.080  0.3140  0.1831  0.2746
13574SOL    HW146558   7.427   0.750  10.007 -0.5268  0.7619  1.0967
13574SOL    HW246559   7.476   0.788  10.145  2.3273  0.3116  0.2665
13575SOL     OW46560   6.229   4.876   5.337  0.5784  0.0265  0.0668
13575SOL    HW146561   6.262   4.919   5.416  2.6616 -0.1430 -0.6609
13575SOL    HW246562   6.270   4.924   5.265  0.9385 -1.5585 -0.8208
13576SOL     OW46563  10.227   5.069  10.074 -0.9317  0.2000  0.4767
13576SOL    HW146564  10.297   5.008  10.050 -1.1168  0.6313 -1.2719
13576SOL    HW246565  10.189   5.031  10.153  0.7802 -0.4396  1.0409
13577SOL     OW46566   1.311   3.754   4.412  0.2584  0.6384 -0.2830
13577SOL    HW146567   1.365   3.780   4.487 -0.9413  1.3979  0.3466
13577SOL    HW246568   1.236   3.708   4.450  0.2810 -0.1475 -1.1250
13578SOL     OW46569   9.083   7.065   2.638 -0.4492  0.3222  0.0266
13578SOL    HW146570   9.058   7.057   2.546 -0.1264 -0.3078 -0.0077
13578SOL    HW246571   9.014   7.018   2.685  0.7069 -1.5891 -0.0808
13579SOL     OW46572   3.840   6.246   4.358 -0.5182 -0.5660 -0.1374
13579SOL    HW146573   3.898   6.246   4.282  0.8275  0.4286  0.8591
13579SOL    HW246574   3.843   6.336   4.391 -0.5854 -1.1174  1.4597
13580SOL     OW46575   9.213   0.491   0.537  0.2917  0.2215  0.3723
13580SOL    HW146576   9.204   0.527   0.449  1.5561 -1.0701 -0.3082
13580SOL    HW246577   9.162   0.410   0.536  0.3165  0.1961  0.8339
13581SOL     OW46578   7.105   8.747  10.210  0.1638 -0.4144 -0.4837
13581SOL    HW146579   7.032   8.713  10.158 -1.5237  2.5095 -0.2302
13581SOL    HW246580   7.151   8.668  10.239 -1.4643 -2.3117 -2.6119
13582SOL     OW46581   6.280   5.944  10.502  0.2694 -0.2640  0.0912
13582SOL    HW146582   6.355   5.918  10.447  0.0398 -1.4065  0.2904
13582SOL    HW246583   6.281   6.040  10.499  1.9014 -0.2339  0.3053
13583SOL     OW46584   5.969   5.247   5.257 -0.0419 -0.5624 -0.5037
13583SOL    HW146585   5.897   5.310   5.251 -1.2765 -1.5345  2.5073
13583SOL    HW246586   5.935   5.177   5.312  2.3837 -2.3282 -1.1058
13584SOL     OW46587   4.459   1.619  10.000 -0.0840 -0.5251 -0.4216
13584SOL    HW146588   4.486   1.563  10.073  0.5939  1.0258  0.5671
13584SOL    HW246589   4.363   1.614  10.001 -0.1523  0.3390  1.3351
13585SOL     OW46590   0.619   6.641   7.071 -0.3086  0.1390  0.1301
13585SOL    HW146591   0.595   6.732   7.085 -0.0068  0.4692 -1.3065
13585SOL    HW246592   0.698   6.629   7.123  1.9459  1.8832 -2.5786
13586SOL     OW46593   5.953   0.338   8.705  0.2454  0.4068 -0.4727
13586SOL    HW146594   6.020   0.273   8.724 -0.5600 -0.4205 -0.3657
13586SOL    HW246595   5.871   0.297   8.733 -0.2922  1.4416 -0.4743
13587SOL     OW46596   9.553   3.259   2.133  0.6878 -0.2030 -0.1217
13587SOL    HW146597   9.530   3.328   2.195  0.1263 -0.9327  0.5013
13587SOL    HW246598   9.508   3.181   2.166  0.4993 -0.6393 -1.3704
13588SOL     OW46599   3.974  10.576   2.902  0.1159 -0.3665 -0.7935
13588SOL    HW146600   3.934  10.569   2.816  2.4168  1.3609 -2.1377
13588SOL    HW246601   4.038  10.504   2.905 -1.2970 -1.6274  0.3341
13589SOL     OW46602   0.102   1.593   7.615  0.2924 -0.1170 -0.2542
13589SOL    HW146603   0.158   1.661   7.651 -0.0225 -0.1615  0.3303
13589SOL    HW246604   0.153   1.556   7.543  1.5486 -1.0068  1.0373
13590SOL     OW46605   6.236   2.971   7.644  0.0016  0.1259  0.0459
13590SOL    HW146606   6.225   2.986   7.738 -2.5365  1.3619 -0.3682
13590SOL    HW246607   6.277   3.051   7.612 -1.6305  0.8853 -0.2471
13591SOL     OW46608   9.516   8.139   6.690  0.2818  0.0724 -0.0638
13591SOL    HW146609   9.599   8.105   6.724  0.8604 -0.2405 -1.7006
13591SOL    HW246610   9.450   8.109   6.752  1.5355  1.8088  2.2717
13592SOL     OW46611   9.353   0.813   1.861  0.1727 -0.6963 -0.3395
13592SOL    HW146612   9.357   0.882   1.928 -1.4295 -0.6904 -0.2060
13592SOL    HW246613   9.372   0.858   1.779  1.3208 -0.5400 -0.0032
13593SOL     OW46614   6.270   3.863   9.381  0.1767 -0.1143  0.4445
13593SOL    HW146615   6.358   3.880   9.350 -0.4203  1.3114 -0.5687
13593SOL    HW246616   6.246   3.941   9.431 -1.5714  0.9349 -1.8320
13594SOL     OW46617   3.232   5.196   0.794 -0.3302  0.2228 -0.3906
13594SOL    HW146618   3.231   5.277   0.742 -1.2426  0.1265 -0.5278
13594SOL    HW246619   3.304   5.209   0.855 -0.6490  1.2664 -0.2129
13595SOL     OW46620   9.669   5.877   0.146  0.0755 -0.2086 -0.1398
13595SOL    HW146621   9.681   5.921   0.062  0.3356  0.6550  0.3337
13595SOL    HW246622   9.593   5.821   0.133  1.6338 -2.0913 -1.7343
13596SOL     OW46623  10.320   1.065   0.290  0.1590 -0.0078  0.2839
13596SOL    HW146624  10.368   0.982   0.279 -1.0928 -0.6073 -1.0125
13596SOL    HW246625  10.245   1.057   0.231  0.2090  2.2280 -0.1600
13597SOL     OW46626   5.785   0.853   8.340  0.1556  0.0254  0.2135
13597SOL    HW146627   5.785   0.857   8.435 -1.4084 -0.4952  0.2549
13597SOL    HW246628   5.695   0.833   8.316  0.4290  0.5457 -1.4008
13598SOL     OW46629  10.674   4.383   6.196  0.2683  0.1644  0.1954
13598SOL    HW146630  10.674   4.459   6.138  2.4403 -0.9398 -1.4138
13598SOL    HW246631  10.631   4.314   6.144 -0.2771 -0.1266  1.0198
13599SOL     OW46632   8.322   7.743   4.131 -0.2799 -0.0237  0.5186
13599SOL    HW146633   8.289   7.737   4.221  1.6579 -1.3948  1.2122
13599SOL    HW246634   8.280   7.670   4.086  0.1697 -0.4830  0.8308
13600SOL     OW46635   8.453   8.862   9.936  0.2920  0.3663  0.1482
13600SOL    HW146636   8.459   8.936   9.875  0.5993  0.2302  0.0118
13600SOL    HW246637   8.444   8.903  10.022  0.8423  0.5739  0.1153
13601SOL     OW46638   6.401   4.608   6.290 -0.6385  0.1093 -0.5112
13601SOL    HW146639   6.477   4.663   6.274 -1.2097  0.5893 -1.7246
13601SOL    HW246640   6.436   4.519   6.295 -0.0460  0.2635 -1.5945
13602SOL     OW46641   8.425   6.589   0.763  0.3412 -0.1522 -0.4529
13602SOL    HW146642   8.338   6.573   0.726  0.0282 -2.8495  1.1846
13602SOL    HW246643   8.409   6.646   0.838  0.4559  1.8486 -1.8651
13603SOL     OW46644   5.348   1.074   4.356  0.7744  0.0123 -0.3019
13603SOL    HW146645   5.298   1.151   4.330 -0.4401 -0.6335  0.0563
13603SOL    HW246646   5.339   1.013   4.283  0.8532 -0.2004 -0.1374
13604SOL     OW46647   6.128   1.709   1.748  0.7535  0.5645  0.3013
13604SOL    HW146648   6.051   1.652   1.741  0.0653  1.5711 -0.6285
13604SOL    HW246649   6.153   1.728   1.658  1.3704  1.2038  0.5934
13605SOL     OW46650   9.028   6.587   9.078 -0.1702  0.0317 -0.2654
13605SOL    HW146651   9.007   6.601   9.170  0.7362 -0.5725  0.0526
13605SOL    HW246652   9.060   6.497   9.074 -0.9111 -0.2005 -1.3120
13606SOL     OW46653   0.647   2.638   6.225 -0.0290 -0.1902 -0.0923
13606SOL    HW146654   0.714   2.697   6.192  0.7878  0.0389  1.8298
13606SOL    HW246655   0.570   2.694   6.237  0.2578  0.1518  0.1990
13607SOL     OW46656   7.072  10.012   4.955  0.1515 -0.1417 -0.2025
13607SOL    HW146657   7.018  10.091   4.959  0.6542  0.2095 -0.3763
13607SOL    HW246658   7.143  10.034   4.895  0.5323 -0.5825  0.0802
13608SOL     OW46659   5.299  10.551   1.223 -0.6991 -0.0583  0.4232
13608SOL    HW146660   5.357  10.490   1.176  1.0431  1.7179  0.1643
13608SOL    HW246661   5.274  10.503   1.302 -1.4915 -2.0779 -0.9521
13609SOL     OW46662   4.692   6.471   3.376  0.1434  0.0373  0.5080
13609SOL    HW146663   4.613   6.519   3.403  1.4596  1.1844  2.6136
13609SOL    HW246664   4.689   6.472   3.280 -2.5855 -0.3579  0.5120
13610SOL     OW46665   0.908   8.300   2.726 -0.0748  0.6634  0.2121
13610SOL    HW146666   0.953   8.281   2.644  1.6273 -0.7304  1.4165
13610SOL    HW246667   0.818   8.320   2.699  0.1523 -0.8059 -1.9114
13611SOL     OW46668   3.870   4.849   8.933 -0.3688  0.4737  0.1264
13611SOL    HW146669   3.898   4.933   8.968  0.1620  0.5082 -0.3665
13611SOL    HW246670   3.947   4.793   8.941 -0.1036  0.5956 -1.3204
13612SOL     OW46671   5.286   7.013   9.424 -0.6133 -0.2104 -0.2263
13612SOL    HW146672   5.244   6.983   9.344 -0.5419  1.2780 -0.8698
13612SOL    HW246673   5.297   7.108   9.411 -1.6200  0.2771  2.0146
13613SOL     OW46674   5.990   5.633   0.207  0.3436  0.2627  0.0866
13613SOL    HW146675   5.994   5.566   0.275 -1.1688  0.4495  0.3941
13613SOL    HW246676   6.010   5.715   0.252 -1.5036  0.5055  0.5246
13614SOL     OW46677   6.798  10.724   8.048 -0.2349 -0.7644  0.2435
13614SOL    HW146678   6.745  10.646   8.036 -0.3787 -0.7995  1.0433
13614SOL    HW246679   6.778  10.753   8.137 -0.6439  0.5247 -0.2384
13615SOL     OW46680   9.444   2.241   2.564  0.4439  0.3228  0.0950
13615SOL    HW146681   9.352   2.216   2.569  1.1185 -2.3338  0.7779
13615SOL    HW246682   9.452   2.290   2.481 -1.1906 -1.1785 -1.0060
13616SOL     OW46683   0.510   0.936   6.506 -0.1417 -0.2731 -0.0532
13616SOL    HW146684   0.450   0.872   6.544  1.1672 -0.7164  1.3928
13616SOL    HW246685   0.454   1.004   6.471 -1.6054 -2.2508 -1.7827
13617SOL     OW46686   0.214   4.491   1.607 -0.1738  0.0073 -0.5455
13617SOL    HW146687   0.160   4.412   1.603  2.1678 -1.7838  0.8340
13617SOL    HW246688   0.303   4.459   1.616  0.9426  2.8464 -0.3611
13618SOL     OW46689   0.647   2.829   2.016  0.0722 -0.3339 -0.2540
13618SOL    HW146690   0.636   2.754   1.957  3.3076 -1.0115 -0.1544
13618SOL    HW246691   0.742   2.839   2.025 -0.2885  2.1643  1.8331
13619SOL     OW46692   6.699   8.995   0.028  0.3569 -0.1670  0.3343
13619SOL    HW146693   6.644   9.056  -0.021  1.2354 -0.1367 -0.6628
13619SOL    HW246694   6.736   9.048   0.099 -1.0495 -0.2472  1.1500
13620SOL     OW46695  10.471   1.469   0.718  0.6399  0.0919 -0.2264
13620SOL    HW146696  10.482   1.531   0.790 -2.5803  0.4944  0.0871
13620SOL    HW246697  10.414   1.401   0.753  0.1598 -0.4622 -1.9694
13621SOL     OW46698   2.997   8.355   7.693  0.1521  0.2297  0.0569
13621SOL    HW146699   3.006   8.273   7.742 -0.1665  1.1425  1.6818
13621SOL    HW246700   2.902   8.368   7.686  0.2074  0.8274  0.4291
13622SOL     OW46701   3.459   5.958   1.597 -0.1780  0.3903  0.1759
13622SOL    HW146702   3.386   5.942   1.658  1.3071 -1.9095  1.5122
13622SOL    HW246703   3.418   5.999   1.521 -2.7944 -0.3800  1.0528
13623SOL     OW46704   5.800   3.681   8.989 -0.4210  0.2238 -0.4310
13623SOL    HW146705   5.721   3.695   9.041 -0.4381 -1.0857 -0.0626
13623SOL    HW246706   5.773   3.622   8.919  0.0979  0.2467 -0.6585
13624SOL     OW46707   9.942   4.292   4.970  0.1585  0.0905  0.0866
13624SOL    HW146708   9.979   4.214   5.012  0.2831  0.1545  0.0959
13624SOL    HW246709   9.898   4.258   4.891  0.1862  0.0073  0.1065
13625SOL     OW46710   4.137   2.968   9.985 -0.1425 -0.2416 -0.0712
13625SOL    HW146711   4.211   3.016  10.021 -0.3119  0.2184 -0.3146
13625SOL    HW246712   4.151   2.877  10.011  1.3858 -0.4636 -1.5125
13626SOL     OW46713   9.776   2.160   0.652  0.8279 -0.6594  0.2011
13626SOL    HW146714   9.693   2.144   0.608 -0.4362 -2.6974  3.0082
13626SOL    HW246715   9.760   2.236   0.709  1.8526  0.7442 -1.2834
13627SOL     OW46716   0.043   1.505   9.997 -0.5527 -0.6802  0.2835
13627SOL    HW146717   0.072   1.424   9.956  1.9132  1.1376 -1.8664
13627SOL    HW246718  -0.051   1.493  10.010 -0.3908 -3.5935 -0.5229
13628SOL     OW46719   4.459   6.225   8.407  0.1207  0.3429 -0.2168
13628SOL    HW146720   4.416   6.306   8.436  0.3504 -0.0949  1.4470
13628SOL    HW246721   4.544   6.255   8.372  0.4908  0.7836  1.0101
13629SOL     OW46722   9.274   1.668   1.403 -0.0745 -0.5529  0.4653
13629SOL    HW146723   9.186   1.648   1.370  0.1997 -0.3600 -0.3919
13629SOL    HW246724   9.269   1.761   1.428 -0.3045 -0.7191  1.0562
13630SOL     OW46725   8.354   8.651   1.944 -0.2460 -0.2258 -0.0450
13630SOL    HW146726   8.410   8.717   1.903  1.1255 -2.6446 -2.3680
13630SOL    HW246727   8.402   8.624   2.022  0.7729 -0.7217 -0.8316
13631SOL     OW46728   3.515   4.246   4.856  0.3757  0.0581 -0.0742
13631SOL    HW146729   3.527   4.241   4.761  0.5287 -1.3480  0.0051
13631SOL    HW246730   3.420   4.243   4.868  0.3802 -0.5420 -0.1549
13632SOL     OW46731   4.757   8.542   0.053  0.8048  0.1676  0.3162
13632SOL    HW146732   4.785   8.612   0.113  1.4769  0.4327 -0.2943
13632SOL    HW246733   4.712   8.479   0.109  0.3932  0.9803  0.9133
13633SOL     OW46734   4.279   8.092   5.298  0.3918 -0.0569 -0.4408
13633SOL    HW146735   4.203   8.117   5.350  0.7558 -0.4116  0.2705
13633SOL    HW246736   4.343   8.062   5.362  0.2702 -2.0677 -1.1879
13634SOL     OW46737   4.210   5.558   1.683  0.2747  0.4858  0.8894
13634SOL    HW146738   4.128   5.608   1.679 -1.3598 -2.0108  0.7433
13634SOL    HW246739   4.264   5.607   1.745 -1.4679  2.0274  1.3157
13635SOL     OW46740   8.284   5.442   2.383  0.4687 -0.2184  0.0940
13635SOL    HW146741   8.243   5.477   2.304  0.9343 -2.2099 -1.1262
13635SOL    HW246742   8.218   5.383   2.420  0.3785  0.4531  1.0170
13636SOL     OW46743  10.650   6.839   0.658 -0.1341  0.2188 -0.1018
13636SOL    HW146744  10.658   6.775   0.729 -0.3946  0.1769 -0.1087
13636SOL    HW246745  10.605   6.791   0.588  1.1620 -0.1043 -0.7486
13637SOL     OW46746   9.874   9.935   7.404  0.1588 -0.3282  0.3252
13637SOL    HW146747   9.785   9.959   7.378  1.5653  4.5091 -0.9710
13637SOL    HW246748   9.869   9.923   7.499 -1.9798 -1.1811  0.1581
13638SOL     OW46749   5.646   5.103  10.179  0.1490  0.4968  0.2594
13638SOL    HW146750   5.591   5.033  10.213  1.4559 -0.4305  0.5231
13638SOL    HW246751   5.686   5.066  10.100  1.8769  0.4389  1.1297
13639SOL     OW46752   1.710   3.965   1.565  0.0216  0.0943  0.5307
13639SOL    HW146753   1.746   3.897   1.508 -1.7631 -0.5244  0.0935
13639SOL    HW246754   1.676   4.031   1.504  0.0330  0.4667  0.9217
13640SOL     OW46755   9.822   0.534   7.207  0.0500  0.0490  0.3066
13640SOL    HW146756   9.764   0.467   7.170 -1.0609  1.8113 -1.3233
13640SOL    HW246757   9.767   0.587   7.263  0.3357  0.9961 -0.2745
13641SOL     OW46758   4.658   2.698   0.777  0.0629 -0.1536  0.3361
13641SOL    HW146759   4.582   2.713   0.834  0.4646  2.3437  0.2933
13641SOL    HW246760   4.728   2.751   0.815  0.8672  0.1149 -1.4325
13642SOL     OW46761  10.563   6.379   3.043  0.0900 -0.3937 -0.1178
13642SOL    HW146762  10.522   6.400   3.127 -0.0578 -1.3834  0.0756
13642SOL    HW246763  10.617   6.302   3.062 -1.0487 -1.5207 -1.2158
13643SOL     OW46764   8.151   7.671  10.182  0.3757  0.0952 -0.3183
13643SOL    HW146765   8.177   7.643  10.270 -1.0949  0.1986  0.1822
13643SOL    HW246766   8.086   7.606  10.154 -0.3190  0.9148 -0.6723
13644SOL     OW46767   0.834   3.914   8.610 -0.3014 -0.0629  0.3234
13644SOL    HW146768   0.763   3.957   8.561  0.5366  0.2906 -0.6131
13644SOL    HW246769   0.836   3.825   8.574 -0.8289 -0.3446  0.9682
13645SOL     OW46770   3.169   5.178   3.888  0.1412 -0.2143  0.7252
13645SOL    HW146771   3.168   5.235   3.964  0.0993  1.0379 -0.1846
13645SOL    HW246772   3.091   5.124   3.897 -0.1165  0.2504  1.3137
13646SOL     OW46773   4.980   3.365   1.436 -0.3722  0.0625  0.4533
13646SOL    HW146774   5.059   3.420   1.433  0.1434 -0.6823  0.0120
13646SOL    HW246775   4.917   3.417   1.485  0.5968  0.4285  1.3654
13647SOL     OW46776   8.583   1.611   5.738  0.3041  0.8409  0.2308
13647SOL    HW146777   8.653   1.653   5.689 -0.3060 -0.4834 -1.9484
13647SOL    HW246778   8.612   1.520   5.748 -1.0761  0.2597 -0.7618
13648SOL     OW46779   7.844   3.722   5.812 -0.0381  0.3824 -0.2755
13648SOL    HW146780   7.825   3.810   5.845  0.3209  0.0129  0.9958
13648SOL    HW246781   7.900   3.736   5.735  1.7372  1.2601  1.0900
13649SOL     OW46782   2.991   2.282   2.762 -0.4937 -0.3097  0.0248
13649SOL    HW146783   2.985   2.191   2.735 -1.3356 -0.3800  0.4041
13649SOL    HW246784   3.025   2.279   2.852 -1.2305 -0.3048  0.3119
13650SOL     OW46785   2.843   0.349   5.868  0.3286  0.1920 -0.4063
13650SOL    HW146786   2.890   0.424   5.831 -1.3895  1.1497 -0.7300
13650SOL    HW246787   2.801   0.383   5.947 -0.0756 -0.5662 -0.2870
13651SOL     OW46788   2.799   0.041   9.411  0.2797  0.2011  0.4232
13651SOL    HW146789   2.784  -0.022   9.341  1.2339  0.8558 -0.3858
13651SOL    HW246790   2.864  -0.001   9.468 -1.5215 -0.9454  1.7633
13652SOL     OW46791   9.501   5.137   1.250  0.2119  0.7252 -0.2087
13652SOL    HW146792   9.500   5.065   1.313  1.6690 -0.9319 -1.9595
13652SOL    HW246793   9.589   5.173   1.256 -0.2441  1.8305  0.0382
13653SOL     OW46794   8.362   0.266   4.401 -0.0643  0.7046  0.0501
13653SOL    HW146795   8.363   0.179   4.363 -0.7970  0.4222  0.6510
13653SOL    HW246796   8.415   0.319   4.341  0.5088 -0.1732 -0.2428
13654SOL     OW46797   9.856   3.535   4.097 -0.6990 -0.4300  0.0771
13654SOL    HW146798   9.947   3.562   4.087 -1.0519  1.6076  1.5762
13654SOL    HW246799   9.815   3.554   4.013 -0.0418  0.0644 -0.1398
13655SOL     OW46800   3.589   0.491   8.174  0.1089  0.1002 -0.2537
13655SOL    HW146801   3.545   0.455   8.252  1.5820  0.9691  1.0323
13655SOL    HW246802   3.682   0.473   8.188  0.4793  0.9183 -1.4755
13656SOL     OW46803   4.474   7.257   3.711  0.7446 -0.0087 -1.1685
13656SOL    HW146804   4.394   7.250   3.764  1.2109 -0.4017 -0.4852
13656SOL    HW246805   4.480   7.349   3.689  0.3265  0.0997 -0.8559
13657SOL     OW46806   2.875   2.750   9.882 -0.6209 -0.2207 -0.1201
13657SOL    HW146807   2.806   2.756   9.948  0.7603  0.6074  1.3248
13657SOL    HW246808   2.905   2.840   9.870  0.2103 -0.5595 -0.7289
13658SOL     OW46809   1.321   0.819   6.248 -0.2447  0.3616  0.1677
13658SOL    HW146810   1.251   0.877   6.217  1.7310  1.3627 -2.9138
13658SOL    HW246811   1.301   0.734   6.209 -0.9409  0.0020  1.2622
13659SOL     OW46812   3.869   0.818   0.275 -0.0788  0.3653  0.3689
13659SOL    HW146813   3.802   0.854   0.332 -0.5963  0.4514 -0.2807
13659SOL    HW246814   3.856   0.862   0.191  0.9958  0.6258  0.3203
13660SOL     OW46815   4.267   4.921   8.126  0.3832 -0.2843 -0.5459
13660SOL    HW146816   4.278   5.015   8.144  0.4208 -0.1973 -1.0100
13660SOL    HW246817   4.277   4.914   8.031  1.2936 -0.8921 -0.4132
13661SOL     OW46818  10.409   9.935   8.849 -0.2731 -0.2117 -0.4299
13661SOL    HW146819  10.441   9.857   8.895 -2.5050 -1.6045 -1.0460
13661SOL    HW246820  10.467   9.943   8.773  0.0506 -1.2552 -0.3084
13662SOL     OW46821   3.656   1.601   3.494  0.1538  0.2424 -0.1770
13662SOL    HW146822   3.640   1.628   3.404  3.9382 -0.2237 -1.1650
13662SOL    HW246823   3.662   1.506   3.491  0.4323  0.2274  0.5254
13663SOL     OW46824   8.476   0.023   9.332  0.2649  0.4417  0.1104
13663SOL    HW146825   8.508  -0.012   9.415  0.2606 -0.5745 -0.2957
13663SOL    HW246826   8.544  -0.001   9.269  2.4784  4.8914  0.4258
13664SOL     OW46827   2.181   2.906   1.863 -0.1929 -0.1430  0.4713
13664SOL    HW146828   2.109   2.861   1.818 -0.6777  0.9810  0.0877
13664SOL    HW246829   2.173   2.878   1.955  0.6872 -2.2928 -0.0533
13665SOL     OW46830   9.335   3.365   8.291 -0.3490 -0.1664  0.1887
13665SOL    HW146831   9.248   3.392   8.322 -0.8630 -0.6775 -0.7734
13665SOL    HW246832   9.322   3.276   8.258 -0.1226  0.7152 -2.5042
13666SOL     OW46833   9.788   4.135   7.283  0.2447 -0.0801 -0.3194
13666SOL    HW146834   9.776   4.158   7.190 -0.1964 -2.8813 -1.0619
13666SOL    HW246835   9.699   4.130   7.317  0.2873 -0.9673 -0.3106
13667SOL     OW46836   5.618   8.934   1.904  0.3668  0.3558 -0.5101
13667SOL    HW146837   5.680   8.864   1.919 -0.7555 -0.3195  1.2291
13667SOL    HW246838   5.665   9.014   1.928  0.4572 -0.1825  1.2185
13668SOL     OW46839   0.150   0.156   3.175 -0.2863 -0.2828 -0.0800
13668SOL    HW146840   0.076   0.102   3.146 -1.3769  0.7672  0.6714
13668SOL    HW246841   0.109   0.233   3.215  1.2229  0.9598 -0.8294
13669SOL     OW46842   5.363   6.651   4.682 -0.1630  0.1068  0.9936
13669SOL    HW146843   5.407   6.567   4.694  0.4073  0.0094 -1.2660
13669SOL    HW246844   5.287   6.631   4.627  0.1638  1.1006  0.1491
13670SOL     OW46845   1.655   1.485   0.198  0.1128  0.0665 -0.1734
13670SOL    HW146846   1.668   1.574   0.230  0.0878 -0.1268  0.3812
13670SOL    HW246847   1.576   1.491   0.144 -1.3938 -0.0932  1.8794
13671SOL     OW46848   6.155  10.590   0.630 -0.4499 -0.5830 -0.0775
13671SOL    HW146849   6.205  10.672   0.633  0.6962 -1.1576 -1.7781
13671SOL    HW246850   6.151  10.568   0.537 -0.1079 -2.8124  0.3755
13672SOL     OW46851   3.887   9.168   2.948  0.0826 -0.6475 -0.0422
13672SOL    HW146852   3.797   9.139   2.964 -0.2006  0.5533  0.6391
13672SOL    HW246853   3.878   9.249   2.898  0.7292  0.1204  1.0398
13673SOL     OW46854   4.276   2.807   1.057  0.3962  0.0437  0.0279
13673SOL    HW146855   4.252   2.898   1.074  0.5719  0.3314 -1.1295
13673SOL    HW246856   4.240   2.758   1.130 -0.6721  0.9078  0.1065
13674SOL     OW46857   0.122   1.863   5.592  0.7107  0.2430 -0.3714
13674SOL    HW146858   0.200   1.828   5.634  1.3216 -0.0982 -1.7167
13674SOL    HW246859   0.135   1.845   5.499 -1.3154 -0.4693 -0.5600
13675SOL     OW46860   6.726   1.373   2.869 -0.3898 -0.1268 -0.4694
13675SOL    HW146861   6.632   1.377   2.853 -0.7479 -1.7450  0.9416
13675SOL    HW246862   6.737   1.399   2.960  0.5874  0.4681 -0.7374
13676SOL     OW46863   2.229   0.054   9.971 -0.4808  0.0518  0.1710
13676SOL    HW146864   2.157  -0.005   9.992 -0.0917 -1.0550 -1.4413
13676SOL    HW246865   2.306   0.012  10.008 -0.6147  1.2316  1.8875
13677SOL     OW46866   7.692   9.701  10.443 -0.2203  0.6883  0.4492
13677SOL    HW146867   7.648   9.689  10.527 -1.1727  0.9879 -0.0006
13677SOL    HW246868   7.783   9.678  10.461 -0.1241  2.0236  1.8832
13678SOL     OW46869  10.004   1.950   2.654  0.2619  0.3142 -0.0815
13678SOL    HW146870   9.956   1.870   2.634  0.6723  0.5958 -2.5028
13678SOL    HW246871  10.080   1.921   2.704 -0.4894 -0.5690  0.5811
13679SOL     OW46872   3.101   4.825   3.798  0.5411 -0.8732  0.7143
13679SOL    HW146873   3.054   4.856   3.876  0.4816 -0.0971  0.3714
13679SOL    HW246874   3.032   4.805   3.735  0.6573  0.0417  0.2936
13680SOL     OW46875   6.434   5.356   6.473  0.6013 -0.5355  0.0338
13680SOL    HW146876   6.376   5.374   6.399 -0.1871 -0.0919  0.7450
13680SOL    HW246877   6.423   5.263   6.492  1.1128 -0.7465 -0.6465
13681SOL     OW46878   7.720   3.851   3.406 -0.3512  0.4051 -0.1600
13681SOL    HW146879   7.707   3.757   3.394  1.8380  0.1408 -0.9494
13681SOL    HW246880   7.771   3.878   3.330 -0.0198  2.0162  0.5922
13682SOL     OW46881   3.999   6.326   1.402 -0.0257  0.0840 -0.0545
13682SOL    HW146882   3.998   6.230   1.407  1.3367  0.0640  0.2588
13682SOL    HW246883   3.915   6.353   1.437 -0.8464 -1.0266 -1.0702
13683SOL     OW46884   2.249   6.834   2.841 -0.1432 -0.3218 -0.1107
13683SOL    HW146885   2.285   6.844   2.753  0.4568 -1.0492  0.0433
13683SOL    HW246886   2.232   6.740   2.849 -3.6442  0.1315 -0.7737
13684SOL     OW46887   5.535   3.915   2.453 -0.5213  0.3381  0.3289
13684SOL    HW146888   5.556   3.996   2.500 -1.3828  1.2611 -0.8253
13684SOL    HW246889   5.555   3.935   2.361 -1.7103 -0.4073 -0.1115
13685SOL     OW46890   6.867   5.745   8.294 -0.7338 -0.0473  0.3992
13685SOL    HW146891   6.936   5.737   8.228 -0.7644  1.2405  0.1833
13685SOL    HW246892   6.900   5.812   8.354 -1.5649  0.1907  0.5982
13686SOL     OW46893   7.452   6.722   6.126 -0.0660  0.3254 -0.0979
13686SOL    HW146894   7.441   6.754   6.036  0.8034  0.5773 -0.1173
13686SOL    HW246895   7.364   6.693   6.151 -0.3045  0.1705 -1.0597
13687SOL     OW46896   8.086   1.709   8.820  0.0822 -0.6428 -0.0967
13687SOL    HW146897   8.132   1.643   8.769  1.1132 -0.5119  0.6285
13687SOL    HW246898   8.052   1.771   8.755  1.0453 -0.6743 -0.6439
13688SOL     OW46899   1.136   4.611   8.602 -0.0842  0.4708 -0.2036
13688SOL    HW146900   1.121   4.647   8.689 -2.1020 -0.1873 -0.2236
13688SOL    HW246901   1.065   4.548   8.590  1.6073 -1.3153 -1.3367
13689SOL     OW46902   3.349   5.630   5.663  0.1975  0.0040  0.5090
13689SOL    HW146903   3.406   5.555   5.646  2.2662  0.8948  2.9429
13689SOL    HW246904   3.295   5.638   5.584  2.4646 -1.7599 -1.3441
13690SOL     OW46905   2.195   5.810   2.233  0.4000  0.5177  0.4778
13690SOL    HW146906   2.148   5.852   2.305  1.3128  0.1157  1.3340
13690SOL    HW246907   2.262   5.873   2.207 -0.5266  1.0576 -0.6853
13691SOL     OW46908   4.842   5.009  10.415 -0.4733 -0.2340  0.1300
13691SOL    HW146909   4.893   5.050  10.345 -0.1336 -1.1685 -0.1844
13691SOL    HW246910   4.807   4.928  10.375  0.2350 -1.0921  1.2096
13692SOL     OW46911  10.338   5.043   8.249  0.0400 -0.0495  0.2214
13692SOL    HW146912  10.417   5.083   8.211  0.0948  0.1823  0.5767
13692SOL    HW246913  10.326   4.962   8.199  0.4081 -0.0037  0.0551
13693SOL     OW46914   0.373   0.181   0.895 -0.5689 -0.0545  0.1684
13693SOL    HW146915   0.328   0.246   0.840 -2.7773 -1.0447  0.6843
13693SOL    HW246916   0.326   0.099   0.877  1.5454 -1.3300  0.2325
13694SOL     OW46917   5.376   7.644   2.808 -0.3884 -0.4794 -0.6310
13694SOL    HW146918   5.413   7.665   2.722  0.5478  0.4395 -0.0255
13694SOL    HW246919   5.394   7.721   2.861  0.4212 -1.6220  0.8267
13695SOL     OW46920   5.741   4.063   6.303  0.7653  0.0566  0.0281
13695SOL    HW146921   5.711   3.974   6.288  0.6153  0.1351 -0.1353
13695SOL    HW246922   5.748   4.070   6.399  1.2329 -0.2791  0.0244
13696SOL     OW46923   3.370   7.950   0.921 -0.2342  0.1235 -0.0259
13696SOL    HW146924   3.370   7.960   1.016  1.1953 -0.2793  0.0373
13696SOL    HW246925   3.338   8.034   0.888  0.2927  0.6525  0.7855
13697SOL     OW46926   0.839   2.544   7.030 -0.4729  0.0351  0.2921
13697SOL    HW146927   0.837   2.616   6.967 -1.9827 -0.3668 -0.1699
13697SOL    HW246928   0.925   2.504   7.018  0.0240  1.1951 -0.0879
13698SOL     OW46929   5.662   4.274   4.660 -0.8865 -0.0938  0.4412
13698SOL    HW146930   5.639   4.203   4.720 -3.7938  1.1510  0.9502
13698SOL    HW246931   5.627   4.246   4.575  0.0234 -0.2355  0.0943
13699SOL     OW46932   8.344   1.864   9.852 -0.0408 -0.1039 -0.4118
13699SOL    HW146933   8.332   1.834   9.943  0.4849  1.5578  0.2284
13699SOL    HW246934   8.414   1.808   9.818 -0.4783 -0.9788  0.0768
13700SOL     OW46935  10.480   1.954   7.717 -0.3565 -0.3532  0.0447
13700SOL    HW146936  10.536   1.967   7.640  0.0864  1.2901  0.5947
13700SOL    HW246937  10.537   1.976   7.791 -1.0981 -0.8350  0.7744
13701SOL     OW46938   4.502   2.037   5.850  0.0292  0.0660  0.1235
13701SOL    HW146939   4.534   2.031   5.940 -0.0071 -1.8070  0.0497
13701SOL    HW246940   4.563   1.984   5.800 -0.3643  0.5141 -0.8484
13702SOL     OW46941   7.956   3.881   1.311 -0.1521 -0.3442  0.5847
13702SOL    HW146942   8.041   3.895   1.353  0.1635 -0.2778 -0.0606
13702SOL    HW246943   7.941   3.961   1.260 -0.3424 -0.5789  0.2635
13703SOL     OW46944   6.476   4.275   3.220 -0.3682  0.6156  0.1947
13703SOL    HW146945   6.559   4.297   3.178  0.1309 -0.1570  0.7710
13703SOL    HW246946   6.417   4.255   3.147  0.3897 -0.3690 -0.1573
13704SOL     OW46947   0.689   3.784   8.144  0.0678 -0.1549 -0.1380
13704SOL    HW146948   0.710   3.876   8.157  1.9034 -0.4826 -0.4069
13704SOL    HW246949   0.594   3.782   8.132 -0.1379  1.5574  0.8827
13705SOL     OW46950   4.833   0.432   6.926 -0.2289 -0.1905 -0.0130
13705SOL    HW146951   4.799   0.404   7.011  0.2864 -1.2220 -0.1288
13705SOL    HW246952   4.755   0.444   6.871 -0.6141  1.1800  0.7812
13706SOL     OW46953   7.364   2.408   3.159  0.3723 -0.1535 -0.2489
13706SOL    HW146954   7.358   2.355   3.079 -0.9332  0.6344 -0.7020
13706SOL    HW246955   7.372   2.498   3.128 -0.1209  0.1604  0.5016
13707SOL     OW46956   6.030   3.925   6.962 -0.0634  0.6604 -0.6588
13707SOL    HW146957   5.973   3.879   6.900 -1.6907  0.3705  0.9715
13707SOL    HW246958   6.000   4.016   6.961 -1.5632  0.2409  1.2077
13708SOL     OW46959   4.730   7.918   2.320  0.3106 -0.0392 -0.7681
13708SOL    HW146960   4.744   7.945   2.410  1.0510  0.7312 -1.1006
13708SOL    HW246961   4.805   7.861   2.300 -0.9258 -1.9230 -0.2607
13709SOL     OW46962   1.774   4.502   4.771 -0.6649 -0.3224 -0.1768
13709SOL    HW146963   1.741   4.493   4.681 -1.5937 -1.9893  0.2873
13709SOL    HW246964   1.770   4.596   4.789  1.8342  0.4368 -2.6757
13710SOL     OW46965   3.375   2.964   9.487  0.0223 -0.5074  0.2524
13710SOL    HW146966   3.309   3.009   9.434 -0.0365 -0.3240  0.4796
13710SOL    HW246967   3.399   2.887   9.436  1.6640  0.8595 -1.1687
13711SOL     OW46968   2.418   8.071   7.172 -0.4010  0.2295  0.1646
13711SOL    HW146969   2.466   8.018   7.108 -0.7039  0.7471 -0.4935
13711SOL    HW246970   2.486   8.124   7.214 -0.2821  0.3079 -0.1262
13712SOL     OW46971   5.182   2.542   2.768  0.2753 -0.1011  0.1272
13712SOL    HW146972   5.254   2.582   2.719 -1.8436  0.7728 -2.5160
13712SOL    HW246973   5.191   2.448   2.750 -0.5905  0.2142 -2.2945
13713SOL     OW46974   1.216   8.784   5.853 -0.4282 -0.1325 -1.0214
13713SOL    HW146975   1.139   8.735   5.879 -0.2654  0.3380  0.4206
13713SOL    HW246976   1.276   8.777   5.927  0.1731  1.0400 -1.3587
13714SOL     OW46977   7.755   6.735   8.405 -0.8195  0.2782  0.2050
13714SOL    HW146978   7.693   6.804   8.382 -0.0748  0.4704 -1.3435
13714SOL    HW246979   7.825   6.743   8.340  0.9827  0.2660  2.0488
13715SOL     OW46980   6.562   8.225   8.967  0.3291 -0.2934  0.5440
13715SOL    HW146981   6.571   8.319   8.981  0.1434 -0.3184  0.8345
13715SOL    HW246982   6.648   8.190   8.990  0.1223 -0.2997  1.3506
13716SOL     OW46983   5.603   5.839  10.652  0.0648 -0.2919  0.2833
13716SOL    HW146984   5.627   5.749  10.631  1.4854  0.2229 -0.5015
13716SOL    HW246985   5.649   5.892  10.586 -1.8938  0.9400 -0.1974
13717SOL     OW46986   0.808   7.910   5.826  0.4225 -0.4968 -0.6855
13717SOL    HW146987   0.746   7.863   5.882  0.0407  1.0510  0.2383
13717SOL    HW246988   0.792   8.003   5.844 -0.6780  0.2116 -4.2946
13718SOL     OW46989  10.172  10.533   6.507  0.3619  0.5421 -0.2189
13718SOL    HW146990  10.193  10.610   6.454 -0.1442  0.3926 -0.6391
13718SOL    HW246991  10.182  10.459   6.447 -0.5199  0.3968 -0.1944
13719SOL     OW46992   7.704   9.409   7.923 -0.1753  0.0089 -0.3238
13719SOL    HW146993   7.610   9.403   7.941 -0.2432  1.0770 -0.2912
13719SOL    HW246994   7.744   9.363   7.997 -0.5584  2.3726  1.4835
13720SOL     OW46995   7.748   1.878   8.381  0.4085  0.3479  0.3046
13720SOL    HW146996   7.769   1.854   8.291  3.0854  0.5448  0.7951
13720SOL    HW246997   7.798   1.817   8.435  1.6318  2.3392  1.5846
13721SOL     OW46998   4.112   5.973   7.961 -0.6814 -0.4622  0.8887
13721SOL    HW146999   4.099   5.879   7.966  1.0121 -0.9267 -1.6412
13721SOL    HW247000   4.159   5.995   8.041  0.5942 -2.1389  0.6567
13722SOL     OW47001   8.043   0.496  10.684 -0.4169  0.7113 -0.1360
13722SOL    HW147002   8.077   0.406  10.679 -1.3983  0.3573 -0.7345
13722SOL    HW247003   7.952   0.488  10.658 -0.2294  2.0605 -1.3237
13723SOL     OW47004   6.786   1.173   3.771  0.6870 -0.0364 -0.3407
13723SOL    HW147005   6.694   1.175   3.744  0.8104 -1.3886 -0.9169
13723SOL    HW247006   6.831   1.226   3.705  0.5706 -0.8777 -1.1031
13724SOL     OW47007   2.337   1.447   0.289 -0.2872 -0.3727 -0.1951
13724SOL    HW147008   2.302   1.506   0.222 -0.3770  0.0089  0.1860
13724SOL    HW247009   2.264   1.431   0.348  0.2717  0.8202  0.8796
13725SOL     OW47010   7.481   9.371   9.357 -0.1326 -0.0135  0.0197
13725SOL    HW147011   7.438   9.444   9.312  0.5511  0.6606  0.4439
13725SOL    HW247012   7.410   9.326   9.403 -0.3111  1.5526  1.3670
13726SOL     OW47013   7.985   4.571   6.838 -0.1593  0.1912  0.4108
13726SOL    HW147014   7.948   4.541   6.921  0.5093  0.1253  0.6936
13726SOL    HW247015   8.021   4.492   6.797  1.2218  0.5054  0.9580
13727SOL     OW47016   9.601   0.639   7.349 -0.0648 -0.3742 -0.1756
13727SOL    HW147017   9.530   0.588   7.387  0.7034 -0.8512  0.6480
13727SOL    HW247018   9.590   0.727   7.386  0.7993 -0.8827  1.3553
13728SOL     OW47019   7.431  10.092   0.935 -0.1469 -0.0506  0.2475
13728SOL    HW147020   7.353  10.127   0.978  0.1880  0.7017  0.2489
13728SOL    HW247021   7.485  10.057   1.006 -0.1318  0.1274  0.3238
13729SOL     OW47022   5.507   5.205   2.843  0.6930  0.0175 -0.1004
13729SOL    HW147023   5.467   5.285   2.878  0.8726 -0.4368  1.2058
13729SOL    HW247024   5.581   5.188   2.901  0.9736 -0.8143 -0.6818
13730SOL     OW47025   6.061   4.596   4.184  0.7701  0.2451 -0.4162
13730SOL    HW147026   6.056   4.671   4.125  2.7815  0.9512  0.2214
13730SOL    HW247027   6.154   4.574   4.186  0.1121 -3.1897 -1.6512
13731SOL     OW47028   4.601   9.934   1.610  0.2319  0.4030 -0.2523
13731SOL    HW147029   4.643   9.865   1.558 -0.5489 -1.2071  1.1361
13731SOL    HW247030   4.661   9.948   1.683 -1.0932 -1.2180  1.2233
13732SOL     OW47031   2.832   6.454   0.960 -0.3587  0.5561  0.4220
13732SOL    HW147032   2.786   6.407   0.889 -2.5779  2.7134  0.3068
13732SOL    HW247033   2.865   6.534   0.918  1.0423  0.4086  1.1870
13733SOL     OW47034   3.086  10.026   6.721  0.3468  0.1160 -0.1725
13733SOL    HW147035   3.044   9.962   6.663 -1.6193 -0.3365  1.6206
13733SOL    HW247036   3.063  10.111   6.682 -0.3081 -0.1933 -0.4866
13734SOL     OW47037   8.797   2.625   6.167 -0.6752 -0.0304 -0.0922
13734SOL    HW147038   8.730   2.687   6.137 -1.0510 -0.1511  0.4863
13734SOL    HW247039   8.855   2.677   6.222  0.0391  0.1997 -1.0235
13735SOL     OW47040   6.021   8.427   3.820 -0.2511 -0.3853 -0.4788
13735SOL    HW147041   5.931   8.448   3.844 -0.4012 -0.4754 -0.9589
13735SOL    HW247042   6.046   8.493   3.756  0.0366 -0.3466 -0.3313
13736SOL     OW47043   2.695   4.951  10.602 -0.0500 -0.2071 -0.0205
13736SOL    HW147044   2.623   4.901  10.565  0.2771 -0.4108 -0.3959
13736SOL    HW247045   2.754   4.885  10.639  1.4044 -0.3216 -2.3149
13737SOL     OW47046   0.685  10.258   3.517  0.0216  0.0265 -0.0940
13737SOL    HW147047   0.653  10.312   3.590 -0.8569 -1.8895  1.0319
13737SOL    HW247048   0.766  10.220   3.550  0.0874 -0.1549 -0.4656
13738SOL     OW47049   5.754   5.179   9.448  0.3157  0.0119  0.4873
13738SOL    HW147050   5.668   5.220   9.456  0.1584 -0.1750 -0.2319
13738SOL    HW247051   5.740   5.088   9.474  0.1527 -0.1871 -0.2976
13739SOL     OW47052   4.276   7.354   5.569  0.3189  0.0203  0.1938
13739SOL    HW147053   4.285   7.449   5.560 -1.3096  0.0582 -1.6007
13739SOL    HW247054   4.328   7.318   5.496  2.0579 -0.5896  1.6458
13740SOL     OW47055   6.701   9.545   2.764  0.4650 -0.0587 -0.1723
13740SOL    HW147056   6.784   9.590   2.748  0.6287 -0.6402 -1.0232
13740SOL    HW247057   6.646   9.568   2.690  0.6181 -1.3762 -0.7307
13741SOL     OW47058   1.269   5.868  10.286 -0.3450  0.3952  0.1589
13741SOL    HW147059   1.280   5.962  10.303 -0.7608  0.6449 -0.8692
13741SOL    HW247060   1.264   5.862  10.191 -1.2895 -0.5596  0.2576
13742SOL     OW47061   3.041   7.509   8.819  0.0658 -0.1347  0.3999
13742SOL    HW147062   2.989   7.455   8.760 -1.5315  1.0401  0.6683
13742SOL    HW247063   3.121   7.528   8.770 -0.9657  0.3320 -1.1756
13743SOL     OW47064   6.659   2.815   3.581  0.1520  0.0971 -0.2129
13743SOL    HW147065   6.600   2.874   3.626 -2.8367  0.4534 -4.0416
13743SOL    HW247066   6.732   2.871   3.553  0.1885  0.6542  0.9481
13744SOL     OW47067   0.639   8.495   4.958 -0.2986 -0.0269 -0.0536
13744SOL    HW147068   0.569   8.434   4.933  0.0900  0.2382 -1.9433
13744SOL    HW247069   0.710   8.477   4.896 -0.2501  2.4348 -0.8342
13745SOL     OW47070   5.481   8.619   2.135  0.1303  0.0144 -0.1995
13745SOL    HW147071   5.486   8.683   2.205  0.3419 -0.2225  0.0041
13745SOL    HW247072   5.572   8.608   2.107 -0.1727  2.2459 -2.4649
13746SOL     OW47073   1.246   8.147   9.237  0.0302  0.0768  0.2913
13746SOL    HW147074   1.228   8.102   9.319 -0.0262 -0.5941 -0.0799
13746SOL    HW247075   1.165   8.137   9.186 -0.1850  1.0962  0.4249
13747SOL     OW47076   8.124  10.374   0.123 -0.2600  0.3312 -0.4281
13747SOL    HW147077   8.062  10.412   0.186  0.4493  1.5925 -0.4658
13747SOL    HW247078   8.167  10.303   0.171  1.8461  2.6402  1.3305
13748SOL     OW47079   0.841   9.813   4.914 -0.2260  0.1490 -0.5400
13748SOL    HW147080   0.775   9.873   4.948  0.2256  0.0942  0.4742
13748SOL    HW247081   0.791   9.740   4.878 -0.7247  0.2438 -0.0491
13749SOL     OW47082   2.970   2.031   6.967 -0.8716 -0.1433  0.5536
13749SOL    HW147083   2.971   2.071   6.880  0.3640 -1.0164  0.1464
13749SOL    HW247084   2.877   2.014   6.983 -1.4060  2.4782  0.5924
13750SOL     OW47085   4.700   8.827   9.714  0.0766  0.7871  0.1560
13750SOL    HW147086   4.767   8.886   9.679 -0.8994  1.7096 -0.2112
13750SOL    HW247087   4.622   8.845   9.660 -1.1424  1.3967  2.0398
13751SOL     OW47088   7.733   8.480  10.344 -0.0940 -0.0029  0.2674
13751SOL    HW147089   7.803   8.541  10.368 -0.8276  1.7879 -1.8301
13751SOL    HW247090   7.764   8.438  10.264 -0.0661 -1.6800  1.1101
13752SOL     OW47091   4.101   4.208   5.720 -0.6755  0.0991 -0.6936
13752SOL    HW147092   4.111   4.150   5.645 -0.6121  1.3883 -1.7202
13752SOL    HW247093   4.138   4.159   5.794  1.4680 -0.2790 -1.9391
13753SOL     OW47094  10.272   9.070   7.404  0.0397 -0.6158  0.3512
13753SOL    HW147095  10.289   8.976   7.408  2.3302 -0.1983  2.3304
13753SOL    HW247096  10.221   9.088   7.483 -0.3311 -0.1675  0.0138
13754SOL     OW47097   3.490   4.998   1.688 -0.3312 -0.0748 -0.0944
13754SOL    HW147098   3.523   5.071   1.637 -0.6544 -1.4074 -2.3239
13754SOL    HW247099   3.562   4.934   1.689 -0.3755 -0.1372  1.0392
13755SOL     OW47100   4.425   4.597   3.159  0.8422 -0.7635  0.1236
13755SOL    HW147101   4.359   4.534   3.186 -1.3643  1.2121 -0.4153
13755SOL    HW247102   4.491   4.594   3.229 -1.1286 -0.9056  2.0743
13756SOL     OW47103  10.493   5.868   5.582  0.1053  0.1151  0.3882
13756SOL    HW147104  10.557   5.797   5.576  0.2352  0.2858 -0.4070
13756SOL    HW247105  10.502   5.915   5.499 -0.6867  0.4589  0.4924
13757SOL     OW47106   1.400   3.468   5.765 -0.1898  0.2757 -0.4122
13757SOL    HW147107   1.311   3.455   5.796 -0.4024 -1.6279 -1.6650
13757SOL    HW247108   1.392   3.477   5.670  0.9057  0.7415 -0.4880
13758SOL     OW47109   5.156   9.864   3.040  0.2580 -0.1999  0.5804
13758SOL    HW147110   5.143   9.953   3.074 -0.5173 -0.3925  0.8124
13758SOL    HW247111   5.168   9.877   2.946 -1.3061  0.0670  0.3805
13759SOL     OW47112   3.414   7.134   7.529  0.2763  0.0034  0.4721
13759SOL    HW147113   3.508   7.143   7.546  0.3148 -0.2399  0.3957
13759SOL    HW247114   3.409   7.075   7.454  0.1088  1.0015 -0.3243
13760SOL     OW47115   3.629   8.339  10.607  0.3449 -0.1707  0.4172
13760SOL    HW147116   3.602   8.430  10.619 -0.5966 -0.3922  0.0309
13760SOL    HW247117   3.618   8.299  10.694 -1.2703 -0.4263  0.1204
13761SOL     OW47118  10.177   0.074   1.466  0.0294  0.6772  0.0513
13761SOL    HW147119  10.266   0.062   1.499 -0.1685 -0.1842  0.3037
13761SOL    HW247120  10.185   0.074   1.371  0.4516  1.8785  0.0778
13762SOL     OW47121   8.597   0.541   1.530  0.6513 -0.2025  0.6664
13762SOL    HW147122   8.580   0.586   1.448 -1.2089  0.7758  1.5233
13762SOL    HW247123   8.691   0.527   1.531  0.9709  1.5182 -0.7407
13763SOL     OW47124   1.512   3.901   3.550 -0.1717 -0.6743  0.6338
13763SOL    HW147125   1.479   3.811   3.545 -0.5683 -0.5984  1.5877
13763SOL    HW247126   1.437   3.952   3.582 -0.1418  0.1183 -0.5100
13764SOL     OW47127   7.875   1.029   7.608 -0.0473  0.3292 -0.1786
13764SOL    HW147128   7.929   1.008   7.532  0.5080  1.2690 -0.0566
13764SOL    HW247129   7.835   1.113   7.587 -1.2385 -0.2036 -0.1338
13765SOL     OW47130   1.969   7.660   6.000  0.0068  0.1574 -0.1553
13765SOL    HW147131   1.999   7.629   5.915  1.0741 -0.8890  0.5739
13765SOL    HW247132   1.942   7.581   6.047 -0.0397  0.6484  0.6835
13766SOL     OW47133   7.133   2.777   6.349  0.0915  0.0391  0.1920
13766SOL    HW147134   7.199   2.722   6.392 -0.4992 -1.0594 -0.2550
13766SOL    HW247135   7.059   2.718   6.336 -0.5238  0.9344 -0.3989
13767SOL     OW47136   8.696   9.484   7.626 -0.3653  0.4695 -0.2938
13767SOL    HW147137   8.658   9.571   7.618  0.2007  0.8994  1.2501
13767SOL    HW247138   8.636   9.427   7.577 -1.2227  1.5898 -0.5923
13768SOL     OW47139   2.931   3.020   1.975 -0.4407  0.1071 -0.3585
13768SOL    HW147140   2.841   3.004   1.947 -1.2445  1.2536  1.3957
13768SOL    HW247141   2.924   3.092   2.037  1.3406 -1.3637  1.7252
13769SOL     OW47142   1.846   9.848  10.190 -0.1832  0.1171 -0.1263
13769SOL    HW147143   1.875   9.850  10.281  0.1200 -1.8336 -0.1271
13769SOL    HW247144   1.860   9.937  10.158  1.3190  0.4215  1.2553
13770SOL     OW47145   2.231   5.277   5.552 -0.2873  0.8914  0.0986
13770SOL    HW147146   2.252   5.257   5.643 -0.7371 -0.0040  0.0265
13770SOL    HW247147   2.137   5.296   5.553 -0.2031  1.3180 -0.1116
13771SOL     OW47148   6.708   4.989  10.358 -0.1628  0.3006  0.2025
13771SOL    HW147149   6.691   5.029  10.444  0.0380 -0.9917  0.8692
13771SOL    HW247150   6.782   5.039  10.323  0.4823  0.1499  1.2794
13772SOL     OW47151   1.467   7.501   1.743  0.5332  0.1832 -0.2807
13772SOL    HW147152   1.553   7.485   1.705  1.0596  2.7782 -0.3349
13772SOL    HW247153   1.486   7.541   1.828 -0.6610 -2.1023  1.1650
13773SOL     OW47154   4.579   7.465   1.601 -0.2519  0.0317  0.0250
13773SOL    HW147155   4.511   7.485   1.536  0.6511 -0.3196 -1.0659
13773SOL    HW247156   4.648   7.528   1.583 -0.3008  0.4154  1.1540
13774SOL     OW47157   7.895   4.508   0.010 -0.1080  0.2613  0.6982
13774SOL    HW147158   7.981   4.513  -0.032 -0.2609  3.4807  0.5132
13774SOL    HW247159   7.833   4.504  -0.063 -0.1833  0.0153  0.7756
13775SOL     OW47160   6.753   3.865   1.868 -0.1260  0.2462  0.0204
13775SOL    HW147161   6.846   3.878   1.884  0.0681  0.4132 -1.1550
13775SOL    HW247162   6.747   3.778   1.828 -0.4033  0.4840 -0.4628
13776SOL     OW47163   2.340   2.436   6.046 -0.3456  0.5859 -0.3989
13776SOL    HW147164   2.406   2.506   6.043 -0.1497  0.3951 -0.5343
13776SOL    HW247165   2.391   2.355   6.038 -0.4487  0.3604  1.0647
13777SOL     OW47166   0.479   9.331   3.773  0.1521  0.3319 -0.1712
13777SOL    HW147167   0.463   9.271   3.846 -0.2468  0.2071 -0.3537
13777SOL    HW247168   0.426   9.409   3.794 -0.6105 -0.0259 -0.7114
13778SOL     OW47169   8.364   6.384   1.612  0.0836  0.6177 -0.5961
13778SOL    HW147170   8.397   6.436   1.685 -0.9869 -0.3222  0.6080
13778SOL    HW247171   8.420   6.307   1.610 -1.2222 -0.4177  0.6983
13779SOL     OW47172   9.292   5.976   3.259 -0.0027  0.2944  0.3886
13779SOL    HW147173   9.369   6.026   3.233  0.5738  0.6450  2.6108
13779SOL    HW247174   9.242   6.035   3.315 -1.0179 -0.5115  0.3717
13780SOL     OW47175   7.366   2.952   1.740 -0.1596 -0.2443 -0.5269
13780SOL    HW147176   7.335   2.897   1.669 -2.5648  0.1905  0.1092
13780SOL    HW247177   7.299   3.019   1.751  1.0021  0.7599  1.0092
13781SOL     OW47178   4.269   5.427   4.755  0.0926  0.3095 -0.3929
13781SOL    HW147179   4.192   5.396   4.803  1.0623 -1.5399  0.0549
13781SOL    HW247180   4.324   5.468   4.822  1.7612 -2.8744  0.3690
13782SOL     OW47181   8.064   3.875   1.585 -0.4214  0.3545 -0.0962
13782SOL    HW147182   8.136   3.918   1.539  0.0306 -0.0921  0.1899
13782SOL    HW247183   8.078   3.896   1.678  0.0668 -0.7736  0.1026
13783SOL     OW47184  10.062   6.408   5.286 -0.2603 -0.3035  0.6138
13783SOL    HW147185  10.032   6.319   5.268  0.1301 -0.0696 -1.4216
13783SOL    HW247186  10.131   6.397   5.352 -0.6905 -1.4137  0.9016
13784SOL     OW47187   9.214   9.400  10.337  0.2877  0.6613 -0.1562
13784SOL    HW147188   9.196   9.485  10.379  2.5000  0.8632  0.5364
13784SOL    HW247189   9.283   9.420  10.273 -1.1015 -0.1614 -1.9779
13785SOL     OW47190   2.170   8.121   0.370  0.1562 -0.3772  0.0735
13785SOL    HW147191   2.098   8.154   0.423 -0.8303 -0.9104 -0.8914
13785SOL    HW247192   2.181   8.186   0.301  1.7858  0.5831  1.1699
13786SOL     OW47193   3.040   5.682   5.205 -0.3578 -0.2120  0.0032
13786SOL    HW147194   2.969   5.654   5.146 -0.0666 -2.6042  0.6717
13786SOL    HW247195   2.995   5.712   5.283 -0.6838 -1.3226  0.2622
13787SOL     OW47196   1.410   2.211   1.408 -0.0755 -0.1565 -0.0713
13787SOL    HW147197   1.420   2.242   1.499 -2.3864 -2.1235  0.9672
13787SOL    HW247198   1.434   2.287   1.355 -0.6654  1.7824  2.2098
13788SOL     OW47199   2.873   7.051   8.557  0.4581 -0.2395 -0.4687
13788SOL    HW147200   2.809   7.108   8.600 -0.1126 -1.5367  0.4494
13788SOL    HW247201   2.945   7.045   8.620  1.0292  0.3605 -1.0502
13789SOL     OW47202   2.706   6.673  10.258  0.7488  0.4174 -0.4519
13789SOL    HW147203   2.769   6.698  10.190  1.2156 -0.5276 -0.3954
13789SOL    HW247204   2.664   6.594  10.222 -1.8825  2.1230 -1.3913
13790SOL     OW47205   5.856   0.098   3.263  0.5524 -0.3772 -0.2342
13790SOL    HW147206   5.856   0.078   3.170 -0.0090  0.0999 -0.3419
13790SOL    HW247207   5.828   0.189   3.268  1.1423 -0.2202  0.3671
13791SOL     OW47208   2.753   7.622   1.767 -0.3600  0.2408 -0.5487
13791SOL    HW147209   2.697   7.597   1.841  1.3899 -0.6519  0.5379
13791SOL    HW247210   2.827   7.561   1.771  1.7846  2.6481 -0.6105
13792SOL     OW47211   6.865   4.603   0.774 -0.5750  0.0529 -0.5962
13792SOL    HW147212   6.914   4.682   0.797 -1.2737  0.3474 -0.0902
13792SOL    HW247213   6.774   4.625   0.793 -0.7949 -0.8149 -0.6238
13793SOL     OW47214   9.359   8.660   1.589 -0.1497  0.2325  0.2396
13793SOL    HW147215   9.418   8.702   1.527  0.3717 -0.2813  0.3846
13793SOL    HW247216   9.416   8.618   1.653 -0.4503 -3.2523 -1.4876
13794SOL     OW47217   1.198   4.587   2.396 -0.0647  0.4786 -0.1801
13794SOL    HW147218   1.241   4.658   2.443  1.4549 -0.0507 -0.7265
13794SOL    HW247219   1.132   4.554   2.458  0.8538  0.7887  1.0036
13795SOL     OW47220   3.356   9.299   0.317  0.3439 -0.0513  0.0746
13795SOL    HW147221   3.436   9.247   0.325 -1.7458 -3.3302  2.2011
13795SOL    HW247222   3.309   9.261   0.242 -0.3325  0.0705  0.4232
13796SOL     OW47223   1.840   1.548  10.579 -0.8231  0.9102  0.2029
13796SOL    HW147224   1.919   1.565  10.528 -0.7085 -2.4419 -1.0159
13796SOL    HW247225   1.780   1.620  10.557  0.3517  1.2251 -2.2691
13797SOL     OW47226   2.340   9.468   4.045  0.0503  0.6163  0.2000
13797SOL    HW147227   2.337   9.557   4.011 -0.9505  1.2061  1.7517
13797SOL    HW247228   2.315   9.476   4.137 -0.3513 -1.2963  0.3026
13798SOL     OW47229   2.296   8.244   5.359  0.0222  0.4815  0.3316
13798SOL    HW147230   2.222   8.195   5.394  0.6238  0.6204  1.8971
13798SOL    HW247231   2.365   8.232   5.425  0.0917  3.6904  1.0166
13799SOL     OW47232   0.025   2.618   8.037  0.0389 -0.4524 -0.2269
13799SOL    HW147233  -0.035   2.685   8.004  1.3440  1.4662  1.1096
13799SOL    HW247234   0.011   2.616   8.131 -0.4362 -2.6077 -0.2807
13800SOL     OW47235   0.129   0.893   1.467 -0.0370  0.4296  0.0058
13800SOL    HW147236   0.211   0.921   1.508  1.5920 -1.3172 -1.8218
13800SOL    HW247237   0.080   0.851   1.538 -0.9594  4.3134  1.9194
13801SOL     OW47238   4.149   0.916   4.927  0.0884  0.0541  0.2866
13801SOL    HW147239   4.214   0.954   4.867 -0.0087  1.0359  0.7838
13801SOL    HW247240   4.093   0.989   4.951 -1.2721 -0.8008 -0.1902
13802SOL     OW47241   8.036  10.495   6.559  0.2709  0.5097  0.3134
13802SOL    HW147242   8.045  10.420   6.618  0.1748  0.1639 -0.1047
13802SOL    HW247243   7.943  10.515   6.560 -0.0237 -0.6057 -1.0448
13803SOL     OW47244   2.589   6.870   0.734  0.2870  0.3216 -0.2039
13803SOL    HW147245   2.580   6.956   0.776 -0.2523  0.5761 -0.8173
13803SOL    HW247246   2.661   6.881   0.673  0.0009  0.4488 -0.5259
13804SOL     OW47247   0.233   2.348   9.508 -0.5512 -0.4261 -0.0629
13804SOL    HW147248   0.328   2.335   9.505 -0.4369  0.3765 -0.0319
13804SOL    HW247249   0.210   2.381   9.421 -0.7338 -0.1695  0.0821
13805SOL     OW47250   9.909   4.051   6.214 -0.0918 -0.2738  0.3953
13805SOL    HW147251   9.893   3.978   6.154  2.1645 -0.6981  0.2151
13805SOL    HW247252   9.984   4.023   6.266  1.2821  2.1382 -0.1185
13806SOL     OW47253   2.483   2.421   6.937  0.1271 -0.0053  0.3464
13806SOL    HW147254   2.569   2.438   6.896  0.1454  1.2569  0.8542
13806SOL    HW247255   2.479   2.483   7.010 -2.3761  2.0203 -1.3438
13807SOL     OW47256   4.845   3.999   0.811 -0.1694  0.0260  0.1191
13807SOL    HW147257   4.774   4.012   0.749 -0.1381 -0.5998 -0.0494
13807SOL    HW247258   4.814   4.039   0.892 -0.4010  0.4244 -0.1631
13808SOL     OW47259   2.840   6.310   2.866 -0.6302  0.3230  0.1169
13808SOL    HW147260   2.816   6.217   2.862  0.2851  0.1160 -1.3048
13808SOL    HW247261   2.757   6.356   2.850 -0.7873 -0.2944 -0.9551
13809SOL     OW47262   7.497   4.080   6.382 -0.4433  0.1773 -0.1858
13809SOL    HW147263   7.408   4.056   6.405 -0.1452 -1.2026 -0.3957
13809SOL    HW247264   7.547   3.999   6.389  0.9686  1.0581  0.6777
13810SOL     OW47265   1.069   0.160   2.784 -0.4161 -0.4674  0.4376
13810SOL    HW147266   0.986   0.171   2.830 -1.0345 -1.2498 -0.4650
13810SOL    HW247267   1.123   0.233   2.815 -1.0906 -0.5075  1.7644
13811SOL     OW47268   6.073   6.420   7.519  0.5405 -0.1643  0.5597
13811SOL    HW147269   6.028   6.428   7.435  1.9636  1.0856 -0.1474
13811SOL    HW247270   6.095   6.327   7.527  0.4854 -0.2775 -0.5111
13812SOL     OW47271   3.863   9.123   1.929  0.5248  0.2873  0.1441
13812SOL    HW147272   3.936   9.181   1.949  0.1042  0.5846  0.8133
13812SOL    HW247273   3.867   9.113   1.834  3.7701 -2.7307  0.3659
13813SOL     OW47274   5.872   8.713   8.495 -0.1097  0.3171  0.0773
13813SOL    HW147275   5.806   8.777   8.468  1.2674  1.7812 -0.0281
13813SOL    HW247276   5.855   8.698   8.588 -1.0199  0.1187 -0.1171
13814SOL     OW47277   7.970   2.925   7.405 -0.1658 -0.4115 -0.4673
13814SOL    HW147278   7.887   2.936   7.358  0.2335  2.7717 -0.6893
13814SOL    HW247279   8.037   2.936   7.337  0.3964  2.2954  0.4077
13815SOL     OW47280   5.657   7.146   8.398 -0.1913  0.1101  0.0633
13815SOL    HW147281   5.608   7.073   8.360 -0.2448 -1.0009  2.1534
13815SOL    HW247282   5.748   7.115   8.401 -0.3154 -0.1603  1.5591
13816SOL     OW47283   0.890   9.605   3.035 -0.4555 -0.4813  0.3134
13816SOL    HW147284   0.956   9.582   2.970  0.1011 -1.7781  1.3006
13816SOL    HW247285   0.912   9.695   3.060 -1.0442  0.2587 -1.6821
13817SOL     OW47286   2.028   0.530   7.326 -0.1731 -0.0228  0.3618
13817SOL    HW147287   2.060   0.550   7.238  1.5230 -1.2538  0.6420
13817SOL    HW247288   1.971   0.454   7.314 -0.3111  0.0949  0.2705
13818SOL     OW47289  10.079   3.326   1.690  0.3829  0.5032  0.3789
13818SOL    HW147290  10.060   3.407   1.641 -0.2722  0.0742 -0.0946
13818SOL    HW247291  10.002   3.313   1.745 -0.2279 -0.6098 -0.6736
13819SOL     OW47292   2.164   6.102   9.089 -0.6834  0.0591  0.2991
13819SOL    HW147293   2.194   6.129   9.001 -0.8144  1.1727  0.5716
13819SOL    HW247294   2.225   6.034   9.115  1.2427  1.7666  0.5453
13820SOL     OW47295   8.520   5.185  10.050 -0.3607 -0.2596 -0.3350
13820SOL    HW147296   8.507   5.230  10.133 -0.6836  0.8833 -0.9863
13820SOL    HW247297   8.456   5.226   9.991  0.4163 -0.4967 -1.3555
13821SOL     OW47298   7.056   2.637   5.475  0.3009  0.2326  0.2271
13821SOL    HW147299   7.007   2.559   5.451  1.9731 -0.7644 -0.0757
13821SOL    HW247300   7.044   2.697   5.401  1.0717 -0.7463 -0.7117
13822SOL     OW47301   2.767   1.629   4.730 -0.6599 -0.3530  0.1577
13822SOL    HW147302   2.851   1.583   4.738 -0.0069  0.7133 -0.4353
13822SOL    HW247303   2.753   1.638   4.635 -0.5497  1.0746  0.2654
13823SOL     OW47304   9.859   8.436   1.776  0.1999 -0.2047  0.4154
13823SOL    HW147305   9.792   8.376   1.810  0.6689 -0.3858  1.0296
13823SOL    HW247306   9.900   8.474   1.854 -0.0263  0.8538  0.0372
13824SOL     OW47307   3.204   9.256  10.034  0.1966  0.1109  0.3261
13824SOL    HW147308   3.188   9.199  10.110  1.0039 -0.7810 -0.1507
13824SOL    HW247309   3.179   9.203   9.959  1.2165  0.2721 -0.1459
13825SOL     OW47310   6.515   4.341   7.214  0.6345 -0.3165 -0.5283
13825SOL    HW147311   6.539   4.284   7.141 -0.5628  0.1558 -1.3183
13825SOL    HW247312   6.517   4.430   7.177 -1.4485 -0.1890 -0.4317
13826SOL     OW47313   0.266   3.869   4.243 -0.0098 -0.1087  0.8022
13826SOL    HW147314   0.329   3.877   4.314 -0.6792 -0.7495  1.4830
13826SOL    HW247315   0.308   3.912   4.169  0.8537  0.2458  1.4808
13827SOL     OW47316   9.379   2.091   6.775 -0.1290 -0.1991 -0.3999
13827SOL    HW147317   9.431   2.025   6.729  0.7677 -0.1701  0.5143
13827SOL    HW247318   9.305   2.042   6.811  1.0497 -0.9643  1.1289
13828SOL     OW47319   6.261   4.822   7.167 -0.1548  0.3879 -0.0536
13828SOL    HW147320   6.264   4.917   7.179  0.9719  0.4815 -0.9145
13828SOL    HW247321   6.170   4.803   7.145 -0.2654  1.3365 -0.4435
13829SOL     OW47322   5.976   2.640   5.412 -0.7859 -0.7420  0.3152
13829SOL    HW147323   6.011   2.695   5.482 -0.2871  0.2769 -0.6990
13829SOL    HW247324   6.014   2.554   5.428  0.9351 -0.0514  0.1790
13830SOL     OW47325   4.721  10.438   7.329  0.0095  0.5044  0.4292
13830SOL    HW147326   4.632  10.471   7.334 -0.1267  0.1805  0.1534
13830SOL    HW247327   4.754  10.445   7.419 -0.3109  0.5688  0.5435
13831SOL     OW47328   8.053   9.538   3.057  0.1343 -0.3110 -0.1110
13831SOL    HW147329   7.967   9.580   3.063  0.2456 -0.1031  0.0501
13831SOL    HW247330   8.043   9.474   2.987 -0.0936 -0.1445 -0.2339
13832SOL     OW47331   3.609   8.262   1.034  0.1433 -0.4585  0.4377
13832SOL    HW147332   3.595   8.351   1.064  1.1557 -0.4330  0.8738
13832SOL    HW247333   3.614   8.210   1.114 -0.5991 -0.9379  0.1824
13833SOL     OW47334   6.189   9.057   6.400  0.0365 -0.0569 -0.4439
13833SOL    HW147335   6.157   9.063   6.490 -0.4538 -1.2025 -0.5310
13833SOL    HW247336   6.255   9.126   6.393  0.4141 -0.2629  0.9265
13834SOL     OW47337   8.030   5.812   9.328  0.3170  0.1119  0.1959
13834SOL    HW147338   7.957   5.762   9.292 -0.8518  0.8662  1.4405
13834SOL    HW247339   8.106   5.754   9.318 -0.9002 -1.7526  1.1538
13835SOL     OW47340   5.119   5.351   4.384  0.0905 -0.5310  0.1296
13835SOL    HW147341   5.103   5.283   4.318  0.7636 -0.0237 -0.5815
13835SOL    HW247342   5.129   5.303   4.466  0.0300 -1.2496 -0.2764
13836SOL     OW47343   6.819   3.057   6.866 -0.5836 -0.1464 -0.1785
13836SOL    HW147344   6.855   3.089   6.783  0.6038 -0.0934  0.3447
13836SOL    HW247345   6.858   2.970   6.877 -0.9805 -0.2835  0.1784
13837SOL     OW47346  10.611   9.260   2.982  0.2896 -0.2187  0.4567
13837SOL    HW147347  10.589   9.344   2.941  0.6370  0.6883  2.0160
13837SOL    HW247348  10.687   9.228   2.933  1.5956  1.5280  1.2291
13838SOL     OW47349   3.026   1.287   9.266  0.4338  0.1745  0.0114
13838SOL    HW147350   2.959   1.343   9.306 -0.6045 -0.5818 -0.6126
13838SOL    HW247351   3.101   1.344   9.255 -1.3381  2.1899 -2.8664
13839SOL     OW47352   0.941   9.028   8.382 -0.2257  0.7032 -0.6955
13839SOL    HW147353   0.850   9.001   8.395 -0.5986  1.4737 -1.6078
13839SOL    HW247354   0.992   8.962   8.428 -1.2851  0.9661  0.9557
13840SOL     OW47355   7.602   4.781   6.834 -0.3274  0.4295  0.0014
13840SOL    HW147356   7.616   4.862   6.884 -1.9285  0.4272  0.5089
13840SOL    HW247357   7.533   4.735   6.883  0.9261 -1.5218  0.0424
13841SOL     OW47358   0.912   7.706  10.486 -0.8345 -0.5306  0.3991
13841SOL    HW147359   0.999   7.744  10.471 -0.8228  0.3689  2.3741
13841SOL    HW247360   0.912   7.683  10.579 -2.0164 -2.4459 -0.0152
13842SOL     OW47361   6.574   9.883   9.658  0.5880  0.4866 -0.5320
13842SOL    HW147362   6.647   9.912   9.604  1.2964 -0.6062 -0.1896
13842SOL    HW247363   6.502   9.869   9.596  1.6647 -1.6916 -1.3881
13843SOL     OW47364   4.065   6.076  10.338 -0.1837  0.6084  0.2225
13843SOL    HW147365   4.098   6.089  10.249  0.5855  0.0410  0.4060
13843SOL    HW247366   4.132   6.115  10.394  1.3665 -2.4487  0.7075
13844SOL     OW47367   5.908   4.392   4.659 -0.3975  0.0672  0.1163
13844SOL    HW147368   5.906   4.468   4.717 -1.1876  1.2566 -1.4160
13844SOL    HW247369   5.818   4.362   4.654 -0.0998 -0.9649  0.6702
13845SOL     OW47370   5.803   3.618   9.568 -0.4698  0.4551 -0.0545
13845SOL    HW147371   5.781   3.546   9.509 -1.9031  0.6007  0.2687
13845SOL    HW247372   5.819   3.577   9.652 -3.0291  0.5810  0.5857
13846SOL     OW47373   1.896   2.782   2.367  0.5232  0.3343  0.6658
13846SOL    HW147374   1.845   2.812   2.291 -1.2255  1.3205  2.1476
13846SOL    HW247375   1.898   2.686   2.358 -1.8950  0.2192  0.6606
13847SOL     OW47376   6.444   5.620   0.583  0.3154  0.7133 -0.1205
13847SOL    HW147377   6.516   5.676   0.556  0.9920 -0.4533 -0.8269
13847SOL    HW247378   6.394   5.605   0.504  0.2237  0.2151  0.0276
13848SOL     OW47379   5.937  10.477   4.367  0.4373  0.2578  0.1948
13848SOL    HW147380   6.019  10.526   4.363 -0.3791  1.6144 -1.8645
13848SOL    HW247381   5.945  10.413   4.296 -0.0798  0.0759  0.3012
13849SOL     OW47382   2.550   2.592   6.609  0.6393 -0.0772 -0.2930
13849SOL    HW147383   2.494   2.515   6.619 -0.3191  0.5932 -0.3951
13849SOL    HW247384   2.566   2.597   6.514 -0.4566  0.6331 -0.4588
13850SOL     OW47385   6.324   5.787   1.441 -0.0689  0.0813 -0.2672
13850SOL    HW147386   6.370   5.776   1.358 -1.3212  0.6121 -1.0500
13850SOL    HW247387   6.249   5.728   1.435 -1.0824  1.3271 -0.2182
13851SOL     OW47388   5.048   1.681   6.280 -0.0664  0.3166  0.3235
13851SOL    HW147389   5.017   1.709   6.367 -0.5809 -0.0608  0.2636
13851SOL    HW247390   5.140   1.708   6.278 -0.6115  2.4027  0.1219
13852SOL     OW47391   7.732   5.447   7.957 -0.0243 -0.0402  0.0151
13852SOL    HW147392   7.650   5.488   7.983  0.5096  1.0576  0.0453
13852SOL    HW247393   7.768   5.505   7.889  0.3978 -0.8665 -0.4879
13853SOL     OW47394   8.720   0.712   5.672  0.2972 -0.3368  0.1599
13853SOL    HW147395   8.787   0.756   5.723 -0.1433 -0.3430  0.7517
13853SOL    HW247396   8.681   0.781   5.618 -0.3404 -0.0002  1.0282
13854SOL     OW47397   1.245   4.098   2.944 -0.0150 -0.1196  0.6949
13854SOL    HW147398   1.287   4.140   3.019  0.5699 -0.7902  0.7506
13854SOL    HW247399   1.317   4.074   2.886 -0.3292 -1.0538  0.6744
13855SOL     OW47400   8.297   3.313   3.365  0.0665  0.1296  0.4535
13855SOL    HW147401   8.352   3.269   3.431  1.0802  0.5250 -0.1069
13855SOL    HW247402   8.248   3.378   3.415 -0.0308 -0.3529  0.9981
13856SOL     OW47403   0.737   1.456   4.898  0.8260  0.9568  0.2926
13856SOL    HW147404   0.675   1.384   4.914  0.6635  1.0815  0.2345
13856SOL    HW247405   0.816   1.413   4.867 -0.0082  0.9077 -2.0056
13857SOL     OW47406   8.081   8.368   1.667 -0.1991 -0.0352  0.1931
13857SOL    HW147407   8.004   8.423   1.647  0.8376  0.8700 -1.4824
13857SOL    HW247408   8.044   8.281   1.684 -1.6760  0.6008  0.4674
13858SOL     OW47409   0.828  10.581   4.588 -0.7428 -0.1475 -0.1592
13858SOL    HW147410   0.900  10.525   4.619 -1.6066 -1.2168 -0.0059
13858SOL    HW247411   0.868  10.666   4.574  0.3780 -0.5028  0.7284
13859SOL     OW47412   3.603   2.273   3.412  0.1849  0.2056  0.3205
13859SOL    HW147413   3.514   2.286   3.446  0.1069 -2.7414  1.5795
13859SOL    HW247414   3.590   2.256   3.318 -0.2813  2.0463  0.0112
13860SOL     OW47415  10.203   3.062   7.145  0.1074  0.0027  0.8423
13860SOL    HW147416  10.270   2.995   7.131 -0.3194 -0.0820 -1.0567
13860SOL    HW247417  10.122   3.013   7.159 -0.1473  0.0922 -0.2340
13861SOL     OW47418   1.339   3.943   2.645  0.0843 -0.1514  0.1331
13861SOL    HW147419   1.272   4.006   2.616  0.1054  0.1934  0.8002
13861SOL    HW247420   1.289   3.869   2.679  0.0589 -1.0807 -1.8268
13862SOL     OW47421   5.458   8.804   2.926  0.0620  0.6641 -0.5511
13862SOL    HW147422   5.504   8.738   2.977  0.4518  1.5242  0.2358
13862SOL    HW247423   5.473   8.779   2.835  0.5796 -0.0702 -0.2734
13863SOL     OW47424   5.507   4.424   7.038  0.4373  0.1026  0.4622
13863SOL    HW147425   5.490   4.485   7.110 -0.9701  0.2099  0.0768
13863SOL    HW247426   5.470   4.341   7.067 -1.6087  0.5219 -0.7068
13864SOL     OW47427   8.324   9.151   2.193  0.1432 -0.1490  0.1370
13864SOL    HW147428   8.332   9.240   2.226 -1.6208 -0.2031  0.8014
13864SOL    HW247429   8.277   9.159   2.110  3.5114 -0.1376 -1.9674
13865SOL     OW47430   8.319   2.876   6.399  0.4664  0.0544 -1.1287
13865SOL    HW147431   8.374   2.864   6.476  1.5798 -0.3476 -1.9764
13865SOL    HW247432   8.308   2.788   6.363 -2.4801 -0.2377  0.1532
13866SOL     OW47433   8.716   1.435   2.156 -0.7908 -0.1355 -0.1467
13866SOL    HW147434   8.690   1.360   2.210 -0.5120  0.8147  1.3472
13866SOL    HW247435   8.788   1.475   2.204  0.6157 -0.2006 -2.0647
13867SOL     OW47436   5.791   1.853   3.662  0.0630  0.5919  0.3740
13867SOL    HW147437   5.761   1.811   3.582 -0.7647  1.2613  0.3204
13867SOL    HW247438   5.717   1.844   3.723  0.0925  1.4488  0.5498
13868SOL     OW47439   2.252   0.966   5.307 -0.2812  0.6596 -0.3673
13868SOL    HW147440   2.207   0.961   5.223 -0.6445  2.1135 -0.3006
13868SOL    HW247441   2.182   0.975   5.372  0.0124  0.0951  0.0310
13869SOL     OW47442   3.434   7.136   8.115  0.6482 -0.0869  0.0015
13869SOL    HW147443   3.380   7.212   8.138  1.1275  0.4891 -0.7210
13869SOL    HW247444   3.450   7.092   8.198 -0.9899 -0.3163  0.2279
13870SOL     OW47445   1.101   6.306   8.985 -0.4764 -0.7048 -0.3133
13870SOL    HW147446   1.108   6.398   9.009 -2.6182 -0.9412  1.5267
13870SOL    HW247447   1.192   6.275   8.982  0.2124  1.0816  0.5844
13871SOL     OW47448   1.825   9.285  10.507  0.1787  0.0636  0.2623
13871SOL    HW147449   1.812   9.336  10.427  1.4919  1.4229  0.8819
13871SOL    HW247450   1.899   9.228  10.488 -1.2200 -1.6265 -0.3925
13872SOL     OW47451   3.796   0.321   2.427  0.4144  0.3217  0.7004
13872SOL    HW147452   3.796   0.292   2.519 -1.8427 -2.1864  0.0345
13872SOL    HW247453   3.757   0.408   2.430 -1.3985 -0.4741  2.0150
13873SOL     OW47454   3.483   4.648   0.739 -0.2231  0.2613  0.5332
13873SOL    HW147455   3.430   4.617   0.666 -0.1846 -1.9655  1.3773
13873SOL    HW247456   3.570   4.613   0.722 -0.0235  0.3861  1.2641
13874SOL     OW47457   2.881   9.468   3.784  0.1405  0.3262 -0.3744
13874SOL    HW147458   2.879   9.382   3.742 -0.2741  0.3481 -0.4072
13874SOL    HW247459   2.812   9.464   3.850 -0.3793  0.8761 -0.8670
13875SOL     OW47460   0.588   7.483   3.988 -0.2868 -0.2028  0.4296
13875SOL    HW147461   0.519   7.429   3.950 -0.9751  0.2986  0.9375
13875SOL    HW247462   0.661   7.476   3.926 -1.2147  0.2326 -0.7539
13876SOL     OW47463   2.013   3.718  10.005  0.1855  0.2297  0.1878
13876SOL    HW147464   2.084   3.660   9.981 -0.9629 -0.9157 -0.5593
13876SOL    HW247465   1.985   3.757   9.922  0.1661  0.9598  0.5259
13877SOL     OW47466   7.102   7.887   3.794  0.0525  0.2741 -0.0965
13877SOL    HW147467   7.089   7.815   3.855 -2.1286  1.4626  0.9545
13877SOL    HW247468   7.026   7.944   3.806  0.3014  1.3822 -2.8154
13878SOL     OW47469   0.904   2.566   3.643 -0.6457 -0.4225  0.1740
13878SOL    HW147470   0.903   2.642   3.585 -1.1277 -0.8510 -0.3864
13878SOL    HW247471   0.838   2.507   3.607  1.3119 -2.1629 -0.8038
13879SOL     OW47472   7.582   0.004   2.053 -0.2565  0.3795  0.1035
13879SOL    HW147473   7.553  -0.069   1.998 -0.1113  1.3506 -1.3061
13879SOL    HW247474   7.663  -0.027   2.093  1.1673  0.5918 -2.4255
13880SOL     OW47475   4.776   1.180  10.149 -0.1410  0.0166 -0.5457
13880SOL    HW147476   4.720   1.117  10.195  1.0103 -1.7133 -1.3763
13880SOL    HW247477   4.808   1.131  10.073  1.3438  1.4148 -0.8607
13881SOL     OW47478   7.304   5.970   2.380  0.6629 -0.2123 -0.0169
13881SOL    HW147479   7.329   5.950   2.470 -0.0020  1.7143  0.6424
13881SOL    HW247480   7.218   6.012   2.388  1.2066  1.2511 -1.3904
13882SOL     OW47481   3.291   7.899   9.453  0.7290  0.2717  0.1012
13882SOL    HW147482   3.257   7.816   9.419 -0.3937  0.6242  0.3194
13882SOL    HW247483   3.254   7.965   9.395  0.5124  0.7187  0.7434
13883SOL     OW47484   0.643   8.605   6.154 -0.3025 -0.1231 -0.3736
13883SOL    HW147485   0.737   8.589   6.164  0.2053  1.9243 -1.4330
13883SOL    HW247486   0.618   8.650   6.235 -1.0207 -2.9473  1.1078
13884SOL     OW47487   3.375   0.954   8.674 -0.0698 -0.2038  0.3606
13884SOL    HW147488   3.399   1.017   8.605 -0.6049  1.2368  1.4529
13884SOL    HW247489   3.458   0.911   8.696  0.2278 -0.2108 -0.7058
13885SOL     OW47490   9.238   8.590   8.438 -0.6003  0.4379  0.1757
13885SOL    HW147491   9.258   8.679   8.468  0.7029  0.2202 -0.0009
13885SOL    HW247492   9.305   8.571   8.373 -1.0953 -0.5471 -0.0611
13886SOL     OW47493   7.522   4.066   8.032 -0.0143  0.8424  0.0767
13886SOL    HW147494   7.490   4.078   7.943  0.1242 -0.1096 -0.1132
13886SOL    HW247495   7.494   4.144   8.079 -0.9777  0.8837 -0.5462
13887SOL     OW47496   1.509   6.098  10.545  0.6216 -0.0319 -0.1195
13887SOL    HW147497   1.439   6.033  10.546  0.1166  0.4862 -0.7938
13887SOL    HW247498   1.558   6.082  10.626 -0.6334 -0.0105  0.6715
13888SOL     OW47499   2.034   8.088   3.699 -0.4703  0.1941  0.0671
13888SOL    HW147500   2.077   8.137   3.770 -1.5454  2.2823 -0.6355
13888SOL    HW247501   2.102   8.073   3.635 -0.1929  1.1657  0.1203
13889SOL     OW47502   0.758   9.583   8.532  0.4860 -0.6758 -0.0994
13889SOL    HW147503   0.845   9.586   8.491  1.1115 -1.0453  1.1529
13889SOL    HW247504   0.702   9.542   8.466  1.1117  0.1100 -1.1602
13890SOL     OW47505   5.570   6.348   4.385 -0.6989 -0.2112  0.1724
13890SOL    HW147506   5.590   6.404   4.309 -1.5730  0.2792  0.2870
13890SOL    HW247507   5.562   6.260   4.348  1.0712 -0.3567  0.0475
13891SOL     OW47508   4.223   5.784   8.139  0.1540 -0.7010 -0.3677
13891SOL    HW147509   4.178   5.709   8.178  0.8377 -0.8615  0.1415
13891SOL    HW247510   4.278   5.819   8.210  1.1159 -0.7478 -1.0696
13892SOL     OW47511   9.854   1.212   9.764 -0.5155 -0.3761 -0.2908
13892SOL    HW147512   9.828   1.292   9.810  0.4763  0.1948 -0.6792
13892SOL    HW247513   9.935   1.184   9.808 -0.6211 -0.9274 -0.4372
13893SOL     OW47514   0.692   8.249   1.020  0.2943  0.0089 -0.0484
13893SOL    HW147515   0.627   8.311   1.054 -0.5007 -1.2801  0.8496
13893SOL    HW247516   0.696   8.268   0.926  1.2591  2.4755  0.4264
13894SOL     OW47517   1.679   0.348   4.283 -0.0978  0.3104 -0.0163
13894SOL    HW147518   1.617   0.364   4.211  0.2815  0.1931 -0.3683
13894SOL    HW247519   1.648   0.405   4.353 -0.2486  0.7135 -0.4008
13895SOL     OW47520   3.675   6.376   7.069 -0.1151  0.2991 -0.5174
13895SOL    HW147521   3.761   6.413   7.089 -0.1671  0.2249 -0.1393
13895SOL    HW247522   3.613   6.432   7.116 -0.1635 -0.4795  0.3839
13896SOL     OW47523   1.147   4.768  10.358  0.3198 -0.1211 -0.3908
13896SOL    HW147524   1.132   4.862  10.363 -0.8531 -0.1822 -1.9943
13896SOL    HW247525   1.236   4.756  10.391  0.8675  1.6619 -1.0940
13897SOL     OW47526   8.882   3.489   3.520 -0.3398  0.6548  0.1648
13897SOL    HW147527   8.912   3.578   3.500  1.2082  0.3299  0.9467
13897SOL    HW247528   8.914   3.436   3.448  0.2063  0.4493  0.5576
13898SOL     OW47529   6.500   8.554   9.614  0.8015 -0.4803  0.1778
13898SOL    HW147530   6.504   8.475   9.668  1.6103 -1.2894 -1.0099
13898SOL    HW247531   6.589   8.565   9.580  0.0171 -0.9846 -2.3062
13899SOL     OW47532   6.944   1.701   0.609 -0.3466  0.4655 -0.1809
13899SOL    HW147533   6.874   1.721   0.547 -1.2066  0.7671  0.8586
13899SOL    HW247534   6.954   1.781   0.660  0.3223  0.2058  0.1046
13900SOL     OW47535   7.409   9.272   8.882 -0.1305  0.2504 -0.0514
13900SOL    HW147536   7.501   9.281   8.857  0.5886 -1.6514  1.7160
13900SOL    HW247537   7.378   9.196   8.832 -0.9668  1.2608 -1.1253
13901SOL     OW47538   4.932   8.409   4.086  0.4146  0.5365 -0.3702
13901SOL    HW147539   4.875   8.338   4.057  1.8301 -1.6954  1.8778
13901SOL    HW247540   4.873   8.483   4.100 -1.8825 -1.4135  1.0764
13902SOL     OW47541   6.831   4.265   0.552  0.4546 -0.3194 -0.4257
13902SOL    HW147542   6.748   4.218   0.545 -0.1290  0.4084  1.1090
13902SOL    HW247543   6.807   4.358   0.551  0.9590 -0.0789  2.2276
13903SOL     OW47544   9.626   2.199   6.330 -0.4087 -0.0091 -0.2426
13903SOL    HW147545   9.564   2.254   6.377  0.7877 -0.5006  2.0428
13903SOL    HW247546   9.643   2.125   6.389 -0.1515 -1.6189 -2.2021
13904SOL     OW47547   6.059   4.005   8.682  0.0397 -0.1861  0.0727
13904SOL    HW147548   6.072   4.022   8.589 -1.1743 -1.8161 -0.4503
13904SOL    HW247549   6.006   4.078   8.713  0.6393  0.4841 -0.4597
13905SOL     OW47550   1.569   2.614   8.937  0.3534  0.4563 -0.2142
13905SOL    HW147551   1.502   2.679   8.960 -0.6740 -0.0710 -1.6236
13905SOL    HW247552   1.650   2.649   8.976 -0.1445  2.6160 -0.9655
13906SOL     OW47553   6.524  10.111  10.089 -0.5040  0.3654  0.0540
13906SOL    HW147554   6.491  10.183  10.035 -2.7803 -0.2067  0.5819
13906SOL    HW247555   6.523  10.035  10.030 -1.3548  0.0925  0.4078
13907SOL     OW47556   7.775   0.176   0.568  0.0021  0.1312  0.3308
13907SOL    HW147557   7.794   0.231   0.491  1.0622 -1.3250 -0.4876
13907SOL    HW247558   7.795   0.233   0.643  0.1838  1.1679 -0.4732
13908SOL     OW47559   6.155  10.198   8.216  0.0526  0.0008  0.2645
13908SOL    HW147560   6.081  10.166   8.268  0.0378 -1.4020 -0.5674
13908SOL    HW247561   6.221  10.130   8.225  0.7544  0.6362 -0.0376
13909SOL     OW47562   8.277   7.140   5.087 -0.4865 -0.4448 -0.7934
13909SOL    HW147563   8.317   7.224   5.067 -0.6185 -0.2788 -0.3728
13909SOL    HW247564   8.348   7.088   5.126  0.3505 -1.5134 -3.5308
13910SOL     OW47565   5.408   4.575   6.518 -0.2790 -0.0125  0.6322
13910SOL    HW147566   5.410   4.649   6.579 -1.3904  0.3847  0.1889
13910SOL    HW247567   5.494   4.576   6.477  0.3374 -0.0145  1.8534
13911SOL     OW47568   5.176   2.673  10.524  0.8612 -0.1279 -0.0870
13911SOL    HW147569   5.253   2.728  10.508  0.0968  0.7979 -0.6869
13911SOL    HW247570   5.173   2.665  10.620  1.7092 -0.1974 -0.0568
13912SOL     OW47571   4.895   3.957   8.324  0.3050 -0.0372  0.2130
13912SOL    HW147572   4.984   3.948   8.292 -0.0964  0.5034 -1.1006
13912SOL    HW247573   4.858   4.030   8.275 -1.6660 -1.8161 -1.1347
13913SOL     OW47574   2.565   8.763   6.192 -0.1544 -0.5670  0.4057
13913SOL    HW147575   2.584   8.725   6.106  0.0913  0.7612 -0.1573
13913SOL    HW247576   2.649   8.761   6.238 -0.5932 -2.6305  1.2065
13914SOL     OW47577   8.861   8.928   5.634 -0.2365  0.2731  0.2154
13914SOL    HW147578   8.889   8.933   5.725 -1.0226  1.7254  0.4124
13914SOL    HW247579   8.940   8.948   5.584  0.2749 -0.8486  0.5415
13915SOL     OW47580   4.351   2.621   0.870 -0.7974 -0.3773  0.1063
13915SOL    HW147581   4.333   2.700   0.921  0.5569  0.5683 -0.7881
13915SOL    HW247582   4.341   2.549   0.932  0.4685  0.6900  1.6512
13916SOL     OW47583   2.096   1.315   2.379  0.2019 -0.0950  0.2364
13916SOL    HW147584   2.069   1.396   2.421 -0.3253  1.0173 -2.1308
13916SOL    HW247585   2.016   1.280   2.339  0.5773 -1.4080  0.5639
13917SOL     OW47586   5.020  10.266   2.395 -0.1988  0.0946  0.3025
13917SOL    HW147587   4.969  10.194   2.432 -0.6184 -0.5460 -1.4188
13917SOL    HW247588   5.111  10.239   2.406 -0.2459  0.4106  1.7542
13918SOL     OW47589   6.758   2.535   2.439 -0.3708  0.5324 -0.0093
13918SOL    HW147590   6.707   2.551   2.518 -2.0309  0.4118 -1.0074
13918SOL    HW247591   6.773   2.441   2.438  1.1307  0.7284  0.9928
13919SOL     OW47592   0.343   2.266   0.529  0.2384 -0.4677  0.7854
13919SOL    HW147593   0.355   2.184   0.481  0.2574  0.8895 -1.6614
13919SOL    HW247594   0.388   2.251   0.613 -1.1676 -3.4933  1.1297
13920SOL     OW47595   7.267   0.997   8.477  0.3375 -0.2260  0.0200
13920SOL    HW147596   7.321   1.001   8.398 -1.3729 -0.7310 -1.2105
13920SOL    HW247597   7.308   1.060   8.537  1.9114 -0.1391 -1.0832
13921SOL     OW47598   7.470   2.481   1.622  0.3104 -0.1424  1.1345
13921SOL    HW147599   7.439   2.555   1.674  1.5374  0.7816  0.5948
13921SOL    HW247600   7.542   2.517   1.570  0.3054 -1.4901  0.1565
13922SOL     OW47601   3.558   1.609   9.127 -0.0133 -0.2433 -0.1156
13922SOL    HW147602   3.599   1.667   9.063  1.5297 -1.4148 -0.2474
13922SOL    HW247603   3.629   1.551   9.155 -1.3712 -1.7133  0.4032
13923SOL     OW47604   4.108   2.213   1.307  0.0315 -0.0111 -0.0992
13923SOL    HW147605   4.054   2.152   1.257 -2.4313  2.0673 -0.1632
13923SOL    HW247606   4.168   2.250   1.242  0.0510 -0.7187 -0.5022
13924SOL     OW47607  10.245   6.237   9.298  0.5797  0.4317 -0.8848
13924SOL    HW147608  10.336   6.264   9.285  1.2370 -0.2424  1.8208
13924SOL    HW247609  10.241   6.210   9.389 -1.5694 -2.6779 -1.7492
13925SOL     OW47610   3.520   7.095   3.271  0.2892 -0.4461 -0.4067
13925SOL    HW147611   3.444   7.047   3.238 -0.7035  1.5731 -1.2389
13925SOL    HW247612   3.570   7.117   3.193  1.1768 -0.8078  0.0409
13926SOL     OW47613  10.000   1.494   8.570 -0.1274  0.2168 -0.2055
13926SOL    HW147614  10.075   1.444   8.538  0.2730  0.6966 -0.0186
13926SOL    HW247615   9.998   1.479   8.664 -0.6716 -0.3354 -0.2951
13927SOL     OW47616   9.162   9.244   1.473 -0.9479  0.2710 -0.3682
13927SOL    HW147617   9.083   9.241   1.527 -0.5988  0.2678  0.1509
13927SOL    HW247618   9.137   9.296   1.396 -1.3620  0.5306 -0.0610
13928SOL     OW47619   7.290   9.820   4.472  0.0516  0.5203  0.7772
13928SOL    HW147620   7.278   9.747   4.411 -0.3003  0.6305  0.7107
13928SOL    HW247621   7.375   9.803   4.513  1.2142  1.4454 -1.0961
13929SOL     OW47622   6.449   5.039   2.415 -0.2051  0.1579  0.0819
13929SOL    HW147623   6.483   5.119   2.456  1.9865 -0.3599 -0.5750
13929SOL    HW247624   6.495   4.968   2.460 -1.9333 -0.7701  0.4809
13930SOL     OW47625   6.679   9.927   3.884 -0.5128 -0.1583  0.4586
13930SOL    HW147626   6.693  10.007   3.832 -0.4405 -0.5394 -0.1149
13930SOL    HW247627   6.601   9.945   3.936 -0.0795  0.5668  0.8863
13931SOL     OW47628   4.254   3.064   2.582  0.0816  0.3752 -0.4500
13931SOL    HW147629   4.324   3.107   2.631  0.8490  0.3358 -1.4757
13931SOL    HW247630   4.206   3.136   2.540  0.5506  0.3226 -1.0949
13932SOL     OW47631   4.557   5.778   5.774 -0.0979 -0.0380 -0.1166
13932SOL    HW147632   4.589   5.728   5.849 -0.0898  1.7665  1.1598
13932SOL    HW247633   4.462   5.773   5.781 -0.1023 -0.3373 -0.3419
13933SOL     OW47634   0.012   6.608   3.617 -0.5468  0.2935  0.2410
13933SOL    HW147635   0.021   6.553   3.695 -2.0379 -0.6052 -0.1804
13933SOL    HW247636   0.088   6.586   3.563 -0.6457 -0.6940  0.4870
13934SOL     OW47637   7.993  10.114   6.400  0.3315  0.0265 -0.2300
13934SOL    HW147638   7.976  10.045   6.463 -1.5978  0.7661  0.1334
13934SOL    HW247639   7.921  10.176   6.412  1.1006  1.2763 -1.6672
13935SOL     OW47640   7.410   8.362  10.163 -0.3377 -0.2152  0.5447
13935SOL    HW147641   7.340   8.339  10.101  1.4653  0.5920 -1.9693
13935SOL    HW247642   7.481   8.301  10.141  0.8021  0.9460  0.9126
13936SOL     OW47643   5.869   8.124   4.409 -0.5538 -0.0545  1.0032
13936SOL    HW147644   5.914   8.077   4.479 -2.5368 -1.3499  1.5007
13936SOL    HW247645   5.788   8.155   4.449 -1.1183  0.3458 -0.3730
13937SOL     OW47646   1.602   5.483   5.096 -0.7816  0.0773 -0.5936
13937SOL    HW147647   1.665   5.555   5.088  1.3248 -1.6451 -0.3294
13937SOL    HW247648   1.544   5.494   5.021  0.1332  1.4390 -1.1425
13938SOL     OW47649   7.260   0.769   9.055  0.1718  0.2069  0.6658
13938SOL    HW147650   7.228   0.704   8.993 -0.1007 -0.0194  1.0442
13938SOL    HW247651   7.355   0.769   9.043  0.0782  0.6182 -0.1964
13939SOL     OW47652   9.559   2.947   3.742 -0.8993  0.0385  0.9667
13939SOL    HW147653   9.624   3.017   3.743 -0.0596 -0.6732 -0.3813
13939SOL    HW247654   9.580   2.894   3.819  1.7068 -1.4812 -0.5998
13940SOL     OW47655   6.077   2.057   3.956 -0.0782  0.1636  0.2702
13940SOL    HW147656   6.004   1.996   3.952 -1.0174  1.2904 -0.2539
13940SOL    HW247657   6.129   2.038   3.877  0.1133 -0.5134  0.5511
13941SOL     OW47658   1.601   9.182   4.698 -0.2754 -0.2774 -0.0354
13941SOL    HW147659   1.506   9.195   4.705 -0.4963 -1.1247 -1.0163
13941SOL    HW247660   1.609   9.110   4.635  1.0677  0.6536 -0.9603
13942SOL     OW47661   8.536   0.550   3.035 -0.9341  0.6927 -0.2642
13942SOL    HW147662   8.453   0.525   3.076 -0.9044  1.4393  0.2857
13942SOL    HW247663   8.511   0.583   2.949 -0.9461 -1.3651 -1.0939
13943SOL     OW47664   5.042   8.014   8.319 -0.7656 -0.0666 -0.0936
13943SOL    HW147665   5.035   7.929   8.275 -2.2271  0.0845 -0.1960
13943SOL    HW247666   5.019   8.078   8.252 -0.5282  0.3502  0.2176
13944SOL     OW47667   0.753   0.393   5.279 -0.1955 -0.1382 -0.4036
13944SOL    HW147668   0.699   0.317   5.256  1.3464 -1.8222  1.1623
13944SOL    HW247669   0.792   0.370   5.363  1.0511  2.0348 -0.3174
13945SOL     OW47670   2.836   4.776   5.527 -0.8478  0.5309  0.2752
13945SOL    HW147671   2.868   4.686   5.519 -3.0006 -0.2525 -0.0360
13945SOL    HW247672   2.859   4.818   5.444  0.5982  0.4540  0.6105
13946SOL     OW47673   1.059   0.272   8.677 -0.6069 -0.4193  0.2966
13946SOL    HW147674   1.092   0.302   8.592  0.2694 -0.6992  0.5317
13946SOL    HW247675   0.964   0.287   8.672 -0.3981  0.9339 -0.1810
13947SOL     OW47676   7.685   6.899   3.632  0.2254 -0.4209  1.1402
13947SOL    HW147677   7.716   6.859   3.551 -0.3604  0.7183  0.3225
13947SOL    HW247678   7.764   6.918   3.682  0.7223  0.4733  0.0431
13948SOL     OW47679   0.354   7.654   2.768  0.1968 -0.0409 -0.0260
13948SOL    HW147680   0.318   7.585   2.824  1.2625 -0.4098  0.2177
13948SOL    HW247681   0.281   7.678   2.711 -0.3487 -0.9945  0.2384
13949SOL     OW47682   0.392   1.812   9.436  0.2417  0.2724  0.0005
13949SOL    HW147683   0.392   1.907   9.445 -3.5479  0.6359 -1.9507
13949SOL    HW247684   0.354   1.795   9.350 -1.1832 -3.0040  1.1073
13950SOL     OW47685   6.899   6.306   3.374  0.2818 -0.4817  0.1235
13950SOL    HW147686   6.858   6.366   3.435 -0.5836 -0.5830 -0.3466
13950SOL    HW247687   6.921   6.360   3.298  1.2820 -0.3718  0.4781
13951SOL     OW47688   4.046   9.448   7.821 -0.2363  0.4150  0.0511
13951SOL    HW147689   3.967   9.404   7.790 -0.6178  1.5119 -0.6023
13951SOL    HW247690   4.016   9.502   7.894  0.3522 -0.8700  1.2910
13952SOL     OW47691   5.982   4.096   8.024  0.1566 -0.5408 -0.7489
13952SOL    HW147692   6.056   4.128   7.974  1.2047 -1.2843  0.2474
13952SOL    HW247693   5.973   4.157   8.097  1.5629 -1.8840  0.6320
13953SOL     OW47694   3.729   5.744  10.500 -0.2734 -0.4780  0.1301
13953SOL    HW147695   3.757   5.676  10.561  1.5115  0.2821  0.2004
13953SOL    HW247696   3.800   5.808  10.501 -2.2399  1.8317  0.7029
13954SOL     OW47697   6.353  10.325   5.786  0.4259 -0.2336  0.5247
13954SOL    HW147698   6.276  10.282   5.749  1.0478 -0.3489 -0.6713
13954SOL    HW247699   6.397  10.256   5.837 -0.8930  0.1468  2.2902
13955SOL     OW47700   5.249   8.018   4.146 -0.1092 -0.7060 -0.0211
13955SOL    HW147701   5.232   8.098   4.096 -0.9887 -1.0072 -0.2182
13955SOL    HW247702   5.239   7.947   4.081  1.8590 -0.9289 -0.1457
13956SOL     OW47703   3.697   7.522   6.233 -0.1332 -0.2004 -1.1547
13956SOL    HW147704   3.632   7.474   6.284 -0.7704 -0.2794 -2.0271
13956SOL    HW247705   3.668   7.613   6.236  0.3482 -0.0577 -0.6045
13957SOL     OW47706   2.971   2.394   4.146 -0.5157 -0.5446  0.1572
13957SOL    HW147707   2.922   2.322   4.186 -0.4076 -0.7484 -0.0782
13957SOL    HW247708   3.053   2.354   4.116 -1.1632 -0.7051 -1.5073
13958SOL     OW47709   9.533   9.892   7.433  0.1910 -0.2102  0.1476
13958SOL    HW147710   9.575   9.821   7.384  1.3515 -0.1881  1.0567
13958SOL    HW247711   9.499   9.849   7.512  0.7394  0.2017  0.6172
13959SOL     OW47712   8.949  10.547   0.838  0.0828 -0.2952  0.2865
13959SOL    HW147713   9.003  10.623   0.860 -0.7171 -0.1883  2.0729
13959SOL    HW247714   8.865  10.584   0.810  0.0926 -0.4972 -0.0143
13960SOL     OW47715   8.000   3.372   1.427 -0.1170  0.5990  0.6571
13960SOL    HW147716   7.984   3.467   1.429  0.8372  0.7925  0.0842
13960SOL    HW247717   7.923   3.336   1.384  0.6877  1.4556 -1.7120
13961SOL     OW47718   0.189   9.930   4.540 -0.1350  0.2784  0.1104
13961SOL    HW147719   0.210   9.934   4.447  2.0961 -1.7099  0.4408
13961SOL    HW247720   0.264   9.972   4.584  0.3145 -1.4450  1.0923
13962SOL     OW47721   2.436   9.286   2.990  0.0017 -0.9255 -0.2945
13962SOL    HW147722   2.531   9.275   2.993  0.4618  1.9669 -1.3735
13962SOL    HW247723   2.402   9.197   2.984  2.7692 -2.0026 -2.2649
13963SOL     OW47724   5.884   3.306   5.629 -0.4233  0.1654  0.5097
13963SOL    HW147725   5.901   3.219   5.665 -0.7773 -0.2426 -0.2925
13963SOL    HW247726   5.812   3.341   5.682 -2.2120 -1.1702 -0.9183
13964SOL     OW47727   1.249   0.432   1.537  0.2268 -0.1417  0.1853
13964SOL    HW147728   1.166   0.473   1.513  0.9576  0.4659 -1.4465
13964SOL    HW247729   1.282   0.484   1.610 -1.2604 -0.9938  1.5230
13965SOL     OW47730   8.515   9.370   7.962  0.2290  0.6307  0.0565
13965SOL    HW147731   8.560   9.439   8.011  0.4919  0.3854  0.1575
13965SOL    HW247732   8.466   9.322   8.029 -0.5623  1.1818 -0.1101
13966SOL     OW47733   2.393   7.859   0.953 -0.2548 -0.5419 -0.0787
13966SOL    HW147734   2.324   7.812   1.000  0.7733 -0.0582  2.0780
13966SOL    HW247735   2.471   7.805   0.967  0.2524  0.0758 -0.4968
13967SOL     OW47736   4.319  10.028  10.360  0.0944  0.0783 -0.3392
13967SOL    HW147737   4.261  10.014  10.285 -1.3731 -1.5054  1.0285
13967SOL    HW247738   4.279   9.979  10.431  2.5989 -0.2375  0.9505
13968SOL     OW47739   7.445   2.369   0.312  0.3685  0.2809 -0.2934
13968SOL    HW147740   7.383   2.309   0.271 -1.3854 -1.2211  3.9468
13968SOL    HW247741   7.527   2.320   0.317  0.5971  0.4678 -1.7616
13969SOL     OW47742   5.817   3.618  10.504  0.2678 -0.4788  0.0679
13969SOL    HW147743   5.724   3.640  10.500  0.4056  0.0815 -0.1982
13969SOL    HW247744   5.846   3.649  10.590  0.5093  0.6347 -0.3887
13970SOL     OW47745   9.711   0.668   8.011 -1.0020  0.6376 -0.1328
13970SOL    HW147746   9.641   0.704   8.066 -2.4521  1.3898 -2.2838
13970SOL    HW247747   9.698   0.574   8.014 -0.2526  0.5575  1.7395
13971SOL     OW47748   3.852   3.993   7.605 -0.1966 -0.3977 -1.1745
13971SOL    HW147749   3.796   3.959   7.675 -0.8072 -1.4150 -2.1392
13971SOL    HW247750   3.813   4.078   7.583  1.2484  0.9857  1.1407
13972SOL     OW47751   0.214   3.711   6.073 -0.4265  0.4221  0.2534
13972SOL    HW147752   0.304   3.680   6.075 -0.8997 -1.1468 -0.9003
13972SOL    HW247753   0.178   3.686   6.158 -0.2781 -0.6359  0.0219
13973SOL     OW47754   9.364   7.015   3.831 -0.2983 -0.1424  0.1754
13973SOL    HW147755   9.276   7.050   3.820 -0.2080  0.4904  1.2714
13973SOL    HW247756   9.396   7.056   3.912  1.3392  0.3571 -0.6738
13974SOL     OW47757   2.963   5.829   7.829 -0.7127 -0.6960 -0.4251
13974SOL    HW147758   2.974   5.750   7.882  2.0059 -1.5086 -2.0134
13974SOL    HW247759   2.973   5.901   7.891  0.7301 -1.6083  0.4554
13975SOL     OW47760   9.758   4.985   5.131  0.6088 -0.1438  0.0844
13975SOL    HW147761   9.683   4.928   5.145  0.8581  0.1131  3.0424
13975SOL    HW247762   9.732   5.042   5.058 -0.1654 -2.9960 -2.0339
13976SOL     OW47763   4.996   0.321   2.907  0.6020  0.2213 -0.0872
13976SOL    HW147764   5.070   0.369   2.870 -0.4207  0.8561 -1.3756
13976SOL    HW247765   5.034   0.271   2.979  2.0929  1.3118 -0.0713
13977SOL     OW47766   1.131   5.567   1.425 -0.8350 -0.5405 -0.4439
13977SOL    HW147767   1.091   5.642   1.380  1.2885  0.2220 -1.1745
13977SOL    HW247768   1.220   5.563   1.391  0.3850 -0.9587  2.5113
13978SOL     OW47769   6.450   6.113   2.568  0.3945  0.2326 -0.0306
13978SOL    HW147770   6.402   6.181   2.521  1.5448  0.1026 -1.4750
13978SOL    HW247771   6.428   6.127   2.660 -1.1501  1.1313 -0.5057
13979SOL     OW47772  10.511   1.100  10.116  0.4437  0.1215 -0.1455
13979SOL    HW147773  10.458   1.026  10.086  1.5039 -0.5386 -0.4204
13979SOL    HW247774  10.450   1.154  10.167 -0.0525 -1.5632  1.1268
13980SOL     OW47775   6.831   1.551   3.606  0.0669  0.0415 -0.0303
13980SOL    HW147776   6.742   1.529   3.579  0.2954 -0.7922 -0.1269
13980SOL    HW247777   6.884   1.476   3.578  0.4490 -0.4986  2.0073
13981SOL     OW47778   2.941  10.340   2.001  0.3119  0.1715  0.2868
13981SOL    HW147779   2.922  10.430   1.975 -1.9825 -0.3077  0.0406
13981SOL    HW247780   2.865  10.314   2.053  1.2997 -1.3759  1.0222
13982SOL     OW47781   9.883   9.797   6.643  0.3246 -0.4821 -0.1911
13982SOL    HW147782   9.907   9.704   6.649  0.7083 -0.4220 -0.6614
13982SOL    HW247783   9.914   9.835   6.725 -1.0914 -1.0248  0.6328
13983SOL     OW47784   6.217   7.482   5.318 -0.4756  0.1642  0.0399
13983SOL    HW147785   6.142   7.423   5.313 -0.3818  0.0705 -0.3001
13983SOL    HW247786   6.209   7.524   5.404 -0.9596  0.2131 -0.0240
13984SOL     OW47787   6.199  10.181   3.423 -0.1851  0.8568 -0.6366
13984SOL    HW147788   6.129  10.116   3.420  0.3084  0.3413 -1.3641
13984SOL    HW247789   6.209  10.203   3.515 -2.2838  2.0151 -0.6226
13985SOL     OW47790   5.006   8.007   8.608 -0.5837 -0.7261 -0.2191
13985SOL    HW147791   5.088   8.009   8.658 -1.4121  1.5430  1.1980
13985SOL    HW247792   5.032   8.019   8.517  0.6308  0.7801  0.2941
13986SOL     OW47793   9.229   0.220   6.167 -0.0728 -0.2194  0.2645
13986SOL    HW147794   9.166   0.247   6.101  0.7012 -0.1584 -0.4705
13986SOL    HW247795   9.242   0.126   6.150  1.2946  0.1090 -0.7205
13987SOL     OW47796   2.244   9.598   3.728 -0.2837 -0.0932  0.1317
13987SOL    HW147797   2.315   9.536   3.738  0.1802  0.2645 -0.8335
13987SOL    HW247798   2.249   9.654   3.805  0.2974 -0.2604  0.2166
13988SOL     OW47799   2.843   6.379   1.731  0.1686 -0.7594  0.6141
13988SOL    HW147800   2.785   6.391   1.807 -0.6838  0.1203 -0.1584
13988SOL    HW247801   2.860   6.467   1.699  2.3769 -0.9354  1.0998
13989SOL     OW47802   6.093   9.064   6.664 -0.2665  0.0400  0.1050
13989SOL    HW147803   6.086   9.160   6.663 -0.3710  0.0442 -1.9154
13989SOL    HW247804   6.018   9.035   6.716 -2.0441  0.9705 -1.7971
13990SOL     OW47805   5.428  10.340   3.692  0.0789  0.2418  0.6935
13990SOL    HW147806   5.521  10.319   3.704 -0.0870 -1.6628 -0.8477
13990SOL    HW247807   5.426  10.396   3.615 -0.0960 -0.3633  0.2523
13991SOL     OW47808   1.656   5.768   8.101  0.2603  0.2868  0.2003
13991SOL    HW147809   1.667   5.725   8.186 -1.4021 -0.5049  0.0566
13991SOL    HW247810   1.667   5.861   8.120 -1.8202  0.3106  1.6757
13992SOL     OW47811   0.194   4.228   8.772  0.4228 -0.7086 -0.5778
13992SOL    HW147812   0.264   4.215   8.708 -0.6957  1.8053 -2.5084
13992SOL    HW247813   0.181   4.323   8.774 -1.3312 -0.9178  1.5082
13993SOL     OW47814   2.898   8.479   4.329 -0.1554  0.1502  0.7469
13993SOL    HW147815   2.890   8.553   4.389  1.2063  0.6926  0.2856
13993SOL    HW247816   2.914   8.519   4.244 -2.3539 -0.5968 -0.0855
13994SOL     OW47817   0.896   9.572   2.306  0.3410  0.0508  0.0934
13994SOL    HW147818   0.844   9.499   2.271  0.8539 -0.4581  0.3738
13994SOL    HW247819   0.889   9.640   2.239 -0.5483 -0.0663  0.0523
13995SOL     OW47820   1.471   9.768   0.286 -0.4060 -0.0059 -0.0029
13995SOL    HW147821   1.410   9.816   0.343 -0.3337 -0.5031  0.5080
13995SOL    HW247822   1.418   9.698   0.248 -0.5875  0.6541 -0.9923
13996SOL     OW47823   6.219   1.010   8.571 -0.2767 -0.2488 -0.0492
13996SOL    HW147824   6.151   1.004   8.638  0.8569 -1.3458  1.0613
13996SOL    HW247825   6.197   0.941   8.508 -0.2480 -0.5654  0.2807
13997SOL     OW47826   0.118   6.873   9.568 -0.2432 -0.2167 -0.2723
13997SOL    HW147827   0.202   6.917   9.576 -0.0357 -0.7986  1.1773
13997SOL    HW247828   0.056   6.930   9.613 -0.1013 -1.0344  1.0052
13998SOL     OW47829   0.843   0.805   7.604  0.0857 -0.3504  0.1116
13998SOL    HW147830   0.908   0.874   7.616 -0.8223  0.7743 -1.0623
13998SOL    HW247831   0.882   0.746   7.539  0.4133 -0.3320  0.2917
13999SOL     OW47832   0.557   7.300   1.629  0.7136  0.1380 -0.4407
13999SOL    HW147833   0.538   7.228   1.690 -1.1381 -1.1608 -2.4099
13999SOL    HW247834   0.634   7.270   1.581 -0.8947 -1.3295 -2.2604
14000SOL     OW47835   0.099   3.556  10.319 -0.3938 -0.2538 -0.3358
14000SOL    HW147836   0.067   3.466  10.318  1.0892 -0.9435  2.7133
14000SOL    HW247837   0.021   3.610  10.321 -1.3171 -1.5671 -0.0378
14001SOL     OW47838   2.857   2.548   4.477 -0.1405  0.1040 -0.1469
14001SOL    HW147839   2.839   2.639   4.500 -2.9058  0.1157 -1.8216
14001SOL    HW247840   2.778   2.501   4.502  0.5450 -1.5241 -0.8853
14002SOL     OW47841   9.714   2.121   6.050 -0.0618 -0.0588 -0.0131
14002SOL    HW147842   9.675   2.150   6.132 -1.1658  0.9852 -0.8625
14002SOL    HW247843   9.640   2.099   5.994  0.5988  0.5112 -1.1703
14003SOL     OW47844   3.867   7.857   5.725  0.1214  0.0798 -0.2216
14003SOL    HW147845   3.786   7.810   5.707  0.8407 -1.8450  1.2084
14003SOL    HW247846   3.934   7.790   5.728  1.5671  1.4633 -0.0796
14004SOL     OW47847   0.521   1.675   7.630  0.2134 -0.4092 -0.0617
14004SOL    HW147848   0.568   1.612   7.685 -0.0421 -1.2289 -0.7573
14004SOL    HW247849   0.589   1.724   7.585  0.4584  0.9479  1.6737
14005SOL     OW47850   6.175   0.466   7.385  0.5555 -0.1395  0.5761
14005SOL    HW147851   6.242   0.398   7.394  1.9104  0.8351 -1.5772
14005SOL    HW247852   6.095   0.417   7.366  1.5339 -1.1828 -1.0953
14006SOL     OW47853   9.019   3.915   0.504  0.5151  0.4066  0.1485
14006SOL    HW147854   8.960   3.887   0.434  0.3314  2.6256 -0.6776
14006SOL    HW247855   8.961   3.934   0.578  0.6090 -0.9708  0.5980
14007SOL     OW47856   8.828   9.188   8.926  0.7805 -0.0569 -0.2658
14007SOL    HW147857   8.828   9.093   8.913 -0.1539 -0.5753  2.8686
14007SOL    HW247858   8.744   9.207   8.967  2.0518  1.6858  1.6948
14008SOL     OW47859   0.147   5.169   6.239 -0.1689 -0.7712 -0.6888
14008SOL    HW147860   0.164   5.080   6.206 -0.0631 -1.6410  1.5522
14008SOL    HW247861   0.067   5.196   6.195  0.8322 -1.1642 -2.8843
14009SOL     OW47862   4.095   6.910   8.164  0.3270  0.2168 -0.3167
14009SOL    HW147863   4.178   6.926   8.119  0.9515 -1.0854  0.3247
14009SOL    HW247864   4.085   6.986   8.222  2.2634 -0.6626  1.2902
14010SOL     OW47865  10.639   1.081   3.199 -0.1749  0.0720  0.0299
14010SOL    HW147866  10.630   0.999   3.150  0.5534 -0.0045  0.0101
14010SOL    HW247867  10.734   1.095   3.206 -0.2375 -0.0749  1.6699
14011SOL     OW47868   4.196   8.291   9.375 -0.1340 -0.3416 -0.0624
14011SOL    HW147869   4.200   8.326   9.464  0.1300 -0.4925 -0.0119
14011SOL    HW247870   4.112   8.321   9.340 -0.0364  0.0933  0.0792
14012SOL     OW47871   3.270   9.633   4.283 -0.1011 -0.1154  0.5541
14012SOL    HW147872   3.266   9.541   4.310 -1.5060  0.0814  1.1353
14012SOL    HW247873   3.349   9.639   4.230  0.2238 -1.5749  0.8167
14013SOL     OW47874   3.032   1.105   9.033 -0.3002 -0.0840  0.5155
14013SOL    HW147875   3.058   1.168   9.100  0.6700  0.6432 -0.5134
14013SOL    HW247876   2.993   1.159   8.963  1.9014 -0.3974 -1.0543
14014SOL     OW47877   7.199   0.760  10.365  0.0519  0.3263 -0.1397
14014SOL    HW147878   7.131   0.753  10.299 -1.5032 -0.0761  1.4216
14014SOL    HW247879   7.158   0.730  10.446  1.6744  1.3500  1.1542
14015SOL     OW47880   3.139   5.989   8.331 -0.0933 -0.0885 -0.1029
14015SOL    HW147881   3.081   6.003   8.406  1.6172 -0.1590  1.2882
14015SOL    HW247882   3.122   6.064   8.274 -1.2502  0.0943  0.4598
14016SOL     OW47883   0.850   1.120   9.768 -0.1105 -0.4568  0.7798
14016SOL    HW147884   0.838   1.107   9.862 -0.5984 -0.0437  0.7785
14016SOL    HW247885   0.802   1.048   9.727 -1.3143  0.2930  0.8160
14017SOL     OW47886   8.953   8.570   4.659 -0.1012  0.0731 -0.6256
14017SOL    HW147887   9.033   8.518   4.671 -0.2794 -0.2973 -0.9947
14017SOL    HW247888   8.975   8.634   4.592  0.4365  1.1681  0.5522
14018SOL     OW47889   5.210   3.262   5.957  0.2349 -0.1374 -0.1974
14018SOL    HW147890   5.170   3.177   5.939 -3.1171  1.2559 -0.0190
14018SOL    HW247891   5.204   3.272   6.052 -2.9291  1.7171 -0.4620
14019SOL     OW47892   8.995  10.307   1.723 -0.0194  0.6110 -0.2663
14019SOL    HW147893   8.994  10.316   1.628 -1.6828  1.1570 -0.2192
14019SOL    HW247894   8.960  10.390   1.755 -0.4438  0.0328  0.7864
14020SOL     OW47895   4.224  10.145   6.031 -0.1844 -0.6611 -0.2903
14020SOL    HW147896   4.239  10.228   6.076 -2.8192 -0.5989  0.6593
14020SOL    HW247897   4.186  10.169   5.947 -0.7139 -0.8761 -0.1177
14021SOL     OW47898   2.242   6.508   9.244 -0.4813 -0.3077  0.1149
14021SOL    HW147899   2.213   6.428   9.200 -0.4596  0.1998 -0.8343
14021SOL    HW247900   2.334   6.490   9.267 -1.1377 -1.4652  2.0889
14022SOL     OW47901   9.524  10.264   7.831  0.1763 -0.4768  0.3295
14022SOL    HW147902   9.450  10.226   7.785 -1.0268 -0.8502  2.4487
14022SOL    HW247903   9.577  10.304   7.762 -2.0808 -0.0134 -1.2372
14023SOL     OW47904   4.326   8.333   1.352 -0.3691  0.3180  0.0712
14023SOL    HW147905   4.412   8.317   1.391 -0.0604  1.4865 -0.0918
14023SOL    HW247906   4.267   8.343   1.427 -0.4126 -0.6432  0.1832
14024SOL     OW47907   6.637   4.568   7.447 -0.6282  0.6127  0.1308
14024SOL    HW147908   6.668   4.633   7.509 -0.0156 -1.6172  2.3178
14024SOL    HW247909   6.699   4.573   7.374  2.7478 -1.0319  2.6170
14025SOL     OW47910   1.751   1.046   5.480 -0.5213 -0.2978  0.0937
14025SOL    HW147911   1.695   1.011   5.411  0.6177  0.3844 -1.2210
14025SOL    HW247912   1.691   1.072   5.549 -2.0156  1.8146 -1.8649
14026SOL     OW47913   9.506   2.286   2.821  0.3021  0.0252 -0.2934
14026SOL    HW147914   9.494   2.270   2.728 -0.5114 -0.6789 -0.0887
14026SOL    HW247915   9.525   2.200   2.858 -1.5231 -0.1150  0.4669
14027SOL     OW47916   2.708   3.219   9.319 -0.0253  0.5044  0.1009
14027SOL    HW147917   2.661   3.171   9.251  1.8281 -0.4994 -0.5541
14027SOL    HW247918   2.734   3.301   9.278  0.1977  0.3425 -0.0884
14028SOL     OW47919   9.081   2.331   9.006 -0.1892  0.6385  0.4655
14028SOL    HW147920   9.158   2.330   9.062 -0.5554 -0.9350  0.9775
14028SOL    HW247921   9.086   2.251   8.955 -0.3085  1.6293 -1.1976
14029SOL     OW47922   0.251   4.502   2.979 -0.4977 -0.6424 -0.1003
14029SOL    HW147923   0.340   4.475   2.999 -0.2766 -0.2319 -0.5212
14029SOL    HW247924   0.254   4.598   2.978 -1.1073 -0.6078  0.6256
14030SOL     OW47925   7.168   1.529   1.600 -0.1207 -0.2357  0.7570
14030SOL    HW147926   7.100   1.463   1.614  0.5280 -0.9187  0.7441
14030SOL    HW247927   7.200   1.550   1.688 -0.9749  0.7741  0.8433
14031SOL     OW47928  10.496   4.664   1.343 -0.1997  0.4036 -0.3805
14031SOL    HW147929  10.419   4.715   1.370  0.2440  0.7086  0.3281
14031SOL    HW247930  10.503   4.594   1.407  0.2102  0.4754 -0.3426
14032SOL     OW47931   0.747   4.277   0.522  0.1955  0.0332  0.1604
14032SOL    HW147932   0.829   4.250   0.481 -0.0597 -0.9550  0.2657
14032SOL    HW247933   0.770   4.296   0.613  0.5557  1.1258 -0.1502
14033SOL     OW47934   2.952   7.325   3.308  0.0546  0.0029  0.6882
14033SOL    HW147935   3.023   7.275   3.347  0.2203 -1.4598 -1.3442
14033SOL    HW247936   2.993   7.371   3.235 -0.9493 -0.3725 -0.1319
14034SOL     OW47937   1.098  10.708   1.102  0.4558  0.1625  0.2612
14034SOL    HW147938   1.004  10.688   1.098  0.4265 -0.1934  1.8920
14034SOL    HW247939   1.116  10.758   1.022 -1.4662  1.6565  0.6876
14035SOL     OW47940   6.224   1.432   8.736  0.1246  0.0641  0.0400
14035SOL    HW147941   6.279   1.354   8.748  0.7392  0.7228  1.9108
14035SOL    HW247942   6.140   1.398   8.705  0.1298 -1.4461  1.5396
14036SOL     OW47943   3.326   7.605   6.002 -0.0438 -0.5594  0.3139
14036SOL    HW147944   3.417   7.583   6.021  0.2219  0.6234  0.5579
14036SOL    HW247945   3.325   7.701   6.003 -0.7492 -0.4816 -2.3311
14037SOL     OW47946   1.202  10.719   3.486  0.2912 -0.3317 -0.1488
14037SOL    HW147947   1.138  10.748   3.551  0.9356 -0.8502  0.7495
14037SOL    HW247948   1.287  10.744   3.524  0.8043 -2.3486  0.1622
14038SOL     OW47949   6.509   2.164   7.705 -0.0152 -0.0204  0.2349
14038SOL    HW147950   6.461   2.135   7.628  0.4967  0.7860 -0.4063
14038SOL    HW247951   6.447   2.220   7.752 -0.6799 -1.3268  0.9806
14039SOL     OW47952  10.187   2.878   6.222  0.2067  0.6404 -0.3799
14039SOL    HW147953  10.111   2.821   6.239 -0.4262  1.2226 -1.1738
14039SOL    HW247954  10.209   2.863   6.130  1.9864 -0.5878  0.1959
14040SOL     OW47955   5.917   9.509   4.789  0.1979  0.3423  0.0899
14040SOL    HW147956   5.822   9.507   4.801  0.1340 -0.4669 -0.4350
14040SOL    HW247957   5.948   9.576   4.850 -0.7265  0.7359  0.1330
14041SOL     OW47958   6.631   0.928   4.529 -0.1132  0.3377  0.2255
14041SOL    HW147959   6.644   0.934   4.435 -2.9549 -0.1747 -0.3022
14041SOL    HW247960   6.652   0.837   4.551  1.5000  0.7055  0.3130
14042SOL     OW47961   9.781   9.961   4.176 -0.0732  0.2182 -0.0193
14042SOL    HW147962   9.775   9.946   4.270  3.3203 -2.0576 -0.0157
14042SOL    HW247963   9.762   9.876   4.137 -0.6838  0.9531 -1.4219
14043SOL     OW47964   0.493   9.620   2.645 -0.0678 -0.0096 -0.5388
14043SOL    HW147965   0.567   9.645   2.701 -1.3182  0.1426  1.1507
14043SOL    HW247966   0.448   9.703   2.627  0.5421 -0.0089 -2.1392
14044SOL     OW47967   3.651  10.402   9.358  0.3887 -0.0746 -0.4417
14044SOL    HW147968   3.573  10.398   9.414  0.7989 -2.1101  0.0681
14044SOL    HW247969   3.700  10.477   9.391 -0.7283  0.4552  0.0750
14045SOL     OW47970  10.530   7.025  10.583  0.4762 -0.1553 -0.2166
14045SOL    HW147971  10.559   6.934  10.596  0.2324 -0.0357  1.3377
14045SOL    HW247972  10.497   7.026  10.493  2.8969 -0.9244 -1.2198
14046SOL     OW47973   3.997   6.993   4.215 -0.0142  0.0086 -0.3067
14046SOL    HW147974   4.057   6.921   4.233  0.2811  0.1369 -0.7452
14046SOL    HW247975   3.984   7.036   4.299 -0.6453 -0.8923  0.0788
14047SOL     OW47976   3.910   8.916   2.837  0.4722  0.1708  0.4640
14047SOL    HW147977   3.886   9.003   2.870 -0.9168 -0.0392  0.1063
14047SOL    HW247978   3.829   8.865   2.845  1.2074 -1.0231  0.4489
14048SOL     OW47979   0.907   7.085   1.825  0.0144 -0.5707 -0.5906
14048SOL    HW147980   0.854   7.012   1.857  2.4197 -2.1984  0.0078
14048SOL    HW247981   0.980   7.043   1.779  1.8398  1.3930  0.3210
14049SOL     OW47982   5.273   7.948   7.775 -0.2071 -0.2941  0.1038
14049SOL    HW147983   5.213   7.875   7.761 -0.9856  0.3982 -0.3287
14049SOL    HW247984   5.344   7.934   7.712 -0.5743 -0.4505 -0.2801
14050SOL     OW47985   5.195   5.174   8.492 -0.0147  0.2299 -0.2920
14050SOL    HW147986   5.262   5.122   8.536 -1.2424 -0.9553  0.2619
14050SOL    HW247987   5.187   5.253   8.546  1.6642  0.9139 -0.9793
14051SOL     OW47988  10.073   3.566   4.759 -0.2297 -0.2483  0.5207
14051SOL    HW147989  10.014   3.498   4.725 -0.2394 -1.0930  2.1027
14051SOL    HW247990  10.063   3.559   4.854  2.1115 -0.1286  0.8170
14052SOL     OW47991   0.797   9.145   3.554 -0.2196 -0.2007  0.1185
14052SOL    HW147992   0.746   9.124   3.476 -0.0466 -1.6548  0.3586
14052SOL    HW247993   0.761   9.087   3.622  0.8963 -0.3230  0.6168
14053SOL     OW47994   7.032   1.436   2.016  0.7000  0.1311 -0.5877
14053SOL    HW147995   7.085   1.510   1.987 -0.2957  1.1763  0.1338
14053SOL    HW247996   7.039   1.372   1.946  1.1014  1.1672 -1.5229
14054SOL     OW47997   2.117   8.008   9.325 -0.1163 -0.0734 -0.1009
14054SOL    HW147998   2.117   7.913   9.324  0.4582 -0.0800  0.0575
14054SOL    HW247999   2.145   8.033   9.237  1.3124 -0.0785  0.3265
14055SOL     OW48000   1.920   5.182   3.553 -0.7436 -0.1209 -0.0111
14055SOL    HW148001   1.960   5.210   3.636  1.0724 -0.5552 -0.7122
14055SOL    HW248002   1.835   5.146   3.579  0.0614 -0.8545  1.7423
14056SOL     OW48003  10.569   1.195   4.124  0.5675 -0.2666  0.1231
14056SOL    HW148004  10.569   1.118   4.181 -0.8866 -1.7464 -1.7029
14056SOL    HW248005  10.512   1.258   4.169  0.5020 -0.8840  0.9248
14057SOL     OW48006   3.968   0.636   1.206  0.2752  0.4598  0.1558
14057SOL    HW148007   3.966   0.695   1.130 -0.4362 -0.1390 -0.3034
14057SOL    HW248008   4.051   0.588   1.197 -0.0150  0.0666 -0.5019
14058SOL     OW48009   9.676  10.090   0.309  0.1844 -0.2297  0.4108
14058SOL    HW148010   9.713  10.005   0.283  2.2998  0.6057  0.4814
14058SOL    HW248011   9.582  10.074   0.315  0.6585 -3.0642  2.2674
14059SOL     OW48012   2.395   9.854   6.456  0.1805 -0.0612  0.6587
14059SOL    HW148013   2.414   9.781   6.398  2.2898  0.1705  0.9980
14059SOL    HW248014   2.451   9.925   6.425  0.6526  0.3606  2.3736
14060SOL     OW48015   6.708   4.798   3.785 -0.3166 -0.1573 -0.1457
14060SOL    HW148016   6.741   4.717   3.745  0.9144  0.6913 -0.9254
14060SOL    HW248017   6.775   4.822   3.849  0.0167  0.9400 -0.8769
14061SOL     OW48018   6.930   6.182   4.129  0.5547 -0.0281 -0.4770
14061SOL    HW148019   6.836   6.166   4.127  0.6470 -0.9569  1.1170
14061SOL    HW248020   6.942   6.261   4.077 -1.1629  0.3844 -0.2957
14062SOL     OW48021   7.789   4.238   2.535  0.2853  0.2158 -0.1432
14062SOL    HW148022   7.811   4.149   2.509  0.4624  0.7510 -1.9266
14062SOL    HW248023   7.696   4.248   2.512 -0.4296 -0.2111  2.2107
14063SOL     OW48024   9.676   3.445   4.892  0.0194  0.3153  0.5286
14063SOL    HW148025   9.616   3.389   4.942 -0.3502  0.2211 -0.0234
14063SOL    HW248026   9.650   3.534   4.916  0.2770  0.2674  1.0133
14064SOL     OW48027   7.179   9.670   6.695  0.0769  0.1653 -0.1385
14064SOL    HW148028   7.095   9.717   6.690  0.5289  1.1294  1.0545
14064SOL    HW248029   7.244   9.738   6.711  1.0795 -0.6081 -0.7610
14065SOL     OW48030   1.045  10.448   3.166  0.3357  0.4839  0.0326
14065SOL    HW148031   1.114  10.511   3.186 -1.2231  1.8950  1.2448
14065SOL    HW248032   1.029  10.458   3.072  0.8638  1.1083  0.0081
14066SOL     OW48033   5.997   8.921   8.973 -0.3678 -0.0505 -0.3033
14066SOL    HW148034   5.988   9.001   8.921  1.2149  0.8031  0.6626
14066SOL    HW248035   6.090   8.915   8.991 -0.9114  0.2568  3.2822
14067SOL     OW48036   0.084   8.576   4.402  0.1403 -0.4432 -0.4337
14067SOL    HW148037   0.063   8.546   4.313  3.2747 -1.8092 -0.8294
14067SOL    HW248038   0.057   8.668   4.403 -3.6990 -1.3767 -1.3698
14068SOL     OW48039   4.608   3.550   6.507  0.4248  0.5261  0.5115
14068SOL    HW148040   4.620   3.639   6.472 -1.8185  0.7381  0.1109
14068SOL    HW248041   4.557   3.505   6.440  1.1296 -0.9297  0.9342
14069SOL     OW48042   2.831   1.415   3.475  0.2926 -0.3964  0.0400
14069SOL    HW148043   2.841   1.481   3.406 -0.5822 -0.0003  0.2818
14069SOL    HW248044   2.739   1.419   3.499  0.3882 -1.2121  0.5634
14070SOL     OW48045   1.255   6.216   8.559  0.1542  0.1785  0.1748
14070SOL    HW148046   1.258   6.273   8.482 -1.0389 -1.5520 -1.2515
14070SOL    HW248047   1.298   6.135   8.530  1.5192  0.1836  2.0277
14071SOL     OW48048   3.600   6.615   3.251 -0.0038  0.9671 -0.1536
14071SOL    HW148049   3.671   6.577   3.301  0.0957 -0.8071 -1.5314
14071SOL    HW248050   3.529   6.627   3.314  1.6038  3.3663  1.3864
14072SOL     OW48051   2.260   7.484   2.323  1.0178  0.0421 -0.4299
14072SOL    HW148052   2.218   7.489   2.409 -0.1810  0.6323 -1.0152
14072SOL    HW248053   2.336   7.542   2.330  1.3111 -0.4278  0.4197
14073SOL     OW48054   2.017   3.819   5.068 -0.4548  0.0382  0.4839
14073SOL    HW148055   2.010   3.795   4.975 -0.1716  1.1628  0.1601
14073SOL    HW248056   2.061   3.904   5.068  1.8611 -1.0503  1.7856
14074SOL     OW48057   5.888   8.825  10.208  0.0158 -0.0006  0.4382
14074SOL    HW148058   5.887   8.910  10.165  0.6325 -0.6265 -0.8987
14074SOL    HW248059   5.899   8.762  10.136  0.6043 -1.1347  1.4794
14075SOL     OW48060   2.613   4.418   7.988  0.5776  0.0452 -0.4171
14075SOL    HW148061   2.687   4.465   8.027 -0.2499  1.1626 -0.1414
14075SOL    HW248062   2.608   4.453   7.899 -1.4183  2.2067  0.4686
14076SOL     OW48063   6.990   9.112   0.132 -0.3229  0.0525  0.1141
14076SOL    HW148064   7.056   9.178   0.155  1.3864 -2.1093  1.9316
14076SOL    HW248065   7.004   9.096   0.039  1.3139  0.1362  0.3112
14077SOL     OW48066   1.499   1.032   4.619  0.2750 -0.1237 -0.3586
14077SOL    HW148067   1.545   1.110   4.651 -1.4982  0.2531  1.5026
14077SOL    HW248068   1.478   0.983   4.699 -1.7366 -0.6874 -1.1815
14078SOL     OW48069   7.464   7.628   9.346 -0.2249  0.1694 -0.5606
14078SOL    HW148070   7.535   7.651   9.406 -0.7316  1.9906 -0.6015
14078SOL    HW248071   7.508   7.592   9.269  0.5135 -0.7819  0.2677
14079SOL     OW48072   9.136   3.052   7.632  0.3387 -0.4709 -0.3517
14079SOL    HW148073   9.179   2.990   7.573 -1.4174  0.4459 -2.7515
14079SOL    HW248074   9.191   3.131   7.628  0.8103 -0.7702  0.1219
14080SOL     OW48075   2.916   4.484   1.418  0.4900 -0.0119  0.1622
14080SOL    HW148076   2.865   4.565   1.412 -0.8106 -0.8804 -1.5241
14080SOL    HW248077   2.936   4.461   1.327 -0.0119 -2.0733  0.5072
14081SOL     OW48078   5.276   9.896   7.646  0.1404 -0.2096  0.4086
14081SOL    HW148079   5.325   9.948   7.710 -1.9430  1.3080  0.8873
14081SOL    HW248080   5.255   9.957   7.576 -0.8445 -0.8769  0.0998
14082SOL     OW48081   4.863   5.396   3.842  0.1291  0.2199  0.7754
14082SOL    HW148082   4.817   5.479   3.854  0.5331  0.4334  0.8531
14082SOL    HW248083   4.823   5.358   3.763 -0.1158  0.4451  0.7894
14083SOL     OW48084   5.633  10.715   6.106  0.7477 -0.3891  0.0529
14083SOL    HW148085   5.711  10.770   6.116  0.8748 -0.7533  1.2012
14083SOL    HW248086   5.665  10.626   6.124  0.3500 -0.7214 -0.8542
14084SOL     OW48087   3.489   3.677  10.401  0.0278 -0.2313  0.0868
14084SOL    HW148088   3.579   3.663  10.431  0.4685 -1.8034 -1.7956
14084SOL    HW248089   3.435   3.630  10.465  0.7919 -1.8587 -0.4024
14085SOL     OW48090   4.008   5.736   1.673  0.2488 -0.4165  0.2430
14085SOL    HW148091   3.964   5.822   1.671  0.8205 -0.0126  2.4733
14085SOL    HW248092   3.967   5.687   1.602  0.3057  1.8749 -1.4932
14086SOL     OW48093   6.581   6.860  10.276  0.7617  0.0164 -0.0107
14086SOL    HW148094   6.534   6.943  10.279  0.2292 -0.3109  0.8961
14086SOL    HW248095   6.650   6.874  10.210 -1.3801  0.0783 -2.3902
14087SOL     OW48096  10.192   8.675   3.243 -0.4386 -0.5299 -0.4591
14087SOL    HW148097  10.226   8.762   3.221 -0.2072 -0.7969 -1.2126
14087SOL    HW248098  10.258   8.614   3.209 -1.9818 -1.0874 -2.6837
14088SOL     OW48099   2.511   9.701   5.589 -0.1408 -0.1794  0.0410
14088SOL    HW148100   2.485   9.706   5.497 -0.2354 -0.4651  0.0515
14088SOL    HW248101   2.603   9.729   5.589  0.1728 -1.1649 -0.2897
14089SOL     OW48102   5.153   4.980   7.060 -0.1430 -0.5318  0.4348
14089SOL    HW148103   5.080   5.002   7.117 -0.7640 -0.1343 -0.4911
14089SOL    HW248104   5.210   5.057   7.063 -0.7148 -0.0642 -0.3018
14090SOL     OW48105   3.652   9.869   8.808  0.0371  0.3214 -0.0794
14090SOL    HW148106   3.664   9.958   8.775 -1.8515  0.7339  0.2421
14090SOL    HW248107   3.561   9.848   8.787  0.1914 -1.2060  0.6422
14091SOL     OW48108   4.933   4.757   2.027 -0.0760 -0.3966  0.5505
14091SOL    HW148109   4.919   4.684   1.967 -0.3575  0.5364 -0.5552
14091SOL    HW248110   4.888   4.831   1.986  0.1272  0.3818  1.6832
14092SOL     OW48111   1.513   0.935   1.768  0.4404 -0.2752 -0.0328
14092SOL    HW148112   1.436   0.991   1.757 -0.0158 -0.6813  1.0238
14092SOL    HW248113   1.526   0.896   1.681  1.0627  1.7980 -0.9364
14093SOL     OW48114   9.637   2.818   7.718  0.0017  0.0637 -0.2848
14093SOL    HW148115   9.621   2.877   7.791 -0.8818 -1.5128  0.8340
14093SOL    HW248116   9.571   2.842   7.653  0.6741  1.3428 -0.5410
14094SOL     OW48117   3.896   3.425   1.441  0.0106  0.4635 -0.1073
14094SOL    HW148118   3.988   3.422   1.417  0.0528  2.3158 -0.3164
14094SOL    HW248119   3.891   3.492   1.509 -1.3636  1.4103 -1.0894
14095SOL     OW48120   0.165   4.879   2.349 -0.0750 -0.7423  0.6269
14095SOL    HW148121   0.133   4.916   2.431  1.8703 -1.5089  1.8059
14095SOL    HW248122   0.103   4.810   2.327 -1.5411  0.5611  0.5155
14096SOL     OW48123   9.111   3.873   8.851  0.0111 -0.2108  0.7438
14096SOL    HW148124   9.037   3.874   8.913  0.7239  0.8476  1.6146
14096SOL    HW248125   9.112   3.961   8.815 -1.3368 -1.1985 -2.0154
14097SOL     OW48126   0.302   4.455   0.986  0.1826  0.3429 -0.1893
14097SOL    HW148127   0.340   4.463   0.898 -0.3043  0.5182 -0.3852
14097SOL    HW248128   0.208   4.469   0.973 -0.0846 -0.9572  0.1598
14098SOL     OW48129   3.950   5.230  10.384  0.1298  0.3943 -0.4354
14098SOL    HW148130   3.979   5.140  10.373 -2.1333 -0.6497  1.2943
14098SOL    HW248131   3.913   5.254  10.299  0.4850 -0.3955 -0.8191
14099SOL     OW48132   4.468   2.380   5.101 -0.5010  0.1996 -0.1098
14099SOL    HW148133   4.391   2.336   5.136 -1.9881  1.7859 -1.2650
14099SOL    HW248134   4.505   2.427   5.176 -0.6524 -0.5494  0.4448
14100SOL     OW48135   5.695   7.766   1.322  0.0382 -0.0458 -0.0998
14100SOL    HW148136   5.600   7.774   1.329 -0.1465 -2.2401  0.6808
14100SOL    HW248137   5.719   7.705   1.392  2.0133  0.3490 -0.3777
14101SOL     OW48138   4.164   2.070   0.520 -0.1643  0.0393 -0.5932
14101SOL    HW148139   4.188   1.984   0.554 -0.4777  0.2938  0.3010
14101SOL    HW248140   4.222   2.083   0.445  0.9593 -0.2995  0.1880
14102SOL     OW48141   3.855   6.663   1.996 -0.2678  0.7760 -0.4376
14102SOL    HW148142   3.896   6.710   1.923 -0.4051  2.6702  0.6594
14102SOL    HW248143   3.762   6.686   1.989 -0.7054 -1.0434 -1.1015
14103SOL     OW48144   4.469   7.048   2.439 -0.1873 -0.6064 -0.2447
14103SOL    HW148145   4.526   7.004   2.502  0.1214 -0.7796 -0.6373
14103SOL    HW248146   4.471   7.140   2.465 -0.7821 -0.8046  0.5420
14104SOL     OW48147   1.095   5.479   2.364  0.4917 -0.0956  0.3267
14104SOL    HW148148   1.020   5.491   2.422  0.7990 -2.2522  1.2623
14104SOL    HW248149   1.061   5.496   2.276 -1.1559 -1.2103  0.7079
14105SOL     OW48150   4.202   7.758   9.363  0.6959 -1.2088  0.4300
14105SOL    HW148151   4.116   7.729   9.394 -0.3552  1.3971  0.2384
14105SOL    HW248152   4.196   7.755   9.268  1.2523 -2.1222  0.4174
14106SOL     OW48153   1.439   5.787   3.001 -0.3554  0.2529 -0.3741
14106SOL    HW148154   1.352   5.779   2.961  0.0883  0.4739 -1.4020
14106SOL    HW248155   1.480   5.702   2.987 -0.6480 -0.0813  0.7193
14107SOL     OW48156   2.573   9.706   7.067 -0.6145 -0.1755  0.3465
14107SOL    HW148157   2.630   9.753   7.129  0.0504  0.1229 -0.4693
14107SOL    HW248158   2.564   9.618   7.105  1.4915 -0.6702 -0.1255
14108SOL     OW48159   1.320   8.200   5.390 -0.2650  0.9603 -0.0829
14108SOL    HW148160   1.335   8.206   5.296 -0.1099 -1.7300 -0.2855
14108SOL    HW248161   1.381   8.264   5.428  1.2209  0.5673 -1.6971
14109SOL     OW48162   1.559   4.697   3.004  0.5131  0.1387  0.1417
14109SOL    HW148163   1.508   4.618   2.988 -1.5826  1.3614  0.5269
14109SOL    HW248164   1.499   4.769   2.986  2.5872  1.7061 -0.9901
14110SOL     OW48165   7.276   6.072   9.578 -0.0837 -0.4363 -0.2687
14110SOL    HW148166   7.315   6.034   9.656  1.3349 -0.0970 -0.7781
14110SOL    HW248167   7.321   6.156   9.567 -2.2727  0.8590  0.1404
14111SOL     OW48168   3.685   7.204  10.306  0.1717  0.0776  0.0694
14111SOL    HW148169   3.694   7.295  10.334  1.4741 -0.4384  1.4502
14111SOL    HW248170   3.591   7.191  10.298 -0.0660  1.3823  0.3944
14112SOL     OW48171   9.801   6.447   8.758 -0.0393  0.1660 -0.4064
14112SOL    HW148172   9.854   6.377   8.795 -1.0893 -0.9427 -0.9208
14112SOL    HW248173   9.856   6.525   8.764  0.1001 -0.0568  2.8244
14113SOL     OW48174   5.650   6.628   5.818  0.0126 -0.1113  1.0563
14113SOL    HW148175   5.562   6.636   5.856 -0.6189  0.0090 -0.3646
14113SOL    HW248176   5.675   6.717   5.797  0.6524 -0.1059  1.8068
14114SOL     OW48177   3.520   1.551   6.229  0.3739  0.3005 -0.2649
14114SOL    HW148178   3.603   1.515   6.260 -0.3120 -0.4969  0.7131
14114SOL    HW248179   3.502   1.506   6.147  1.8650  1.9227 -1.5576
14115SOL     OW48180   4.101   4.764   1.524  0.1336  0.3121  0.6936
14115SOL    HW148181   4.176   4.793   1.576  0.6178  0.3633 -0.0265
14115SOL    HW248182   4.138   4.741   1.439 -0.5068 -0.7099  0.6733
14116SOL     OW48183   3.852   3.727   0.315 -0.5130  0.0776 -0.1472
14116SOL    HW148184   3.825   3.641   0.284 -1.2194 -0.4494  1.7846
14116SOL    HW248185   3.782   3.754   0.375  0.4949  1.2585  0.5498
14117SOL     OW48186   6.874  10.561   8.867  0.3100  0.0458 -0.1211
14117SOL    HW148187   6.953  10.594   8.910  0.7017  0.8330 -1.3774
14117SOL    HW248188   6.819  10.638   8.855 -1.0365 -0.6339  1.4786
14118SOL     OW48189   4.173   5.807   1.341 -0.3933 -0.9653 -0.0057
14118SOL    HW148190   4.195   5.721   1.377  0.4750 -1.5899 -1.8913
14118SOL    HW248191   4.116   5.787   1.267  0.6969 -0.0304 -1.1399
14119SOL     OW48192   2.770   3.527   8.186  0.1293 -0.6135 -0.2907
14119SOL    HW148193   2.740   3.549   8.274 -1.2398 -0.8734 -0.6781
14119SOL    HW248194   2.734   3.596   8.131 -0.9451 -1.6870 -0.9674
14120SOL     OW48195   1.959   7.599   3.236 -0.3558  1.1227  0.3238
14120SOL    HW148196   1.968   7.620   3.143 -0.8568  0.4879  0.1219
14120SOL    HW248197   1.878   7.642   3.263 -0.3447  1.0958  0.4018
14121SOL     OW48198   3.793   5.949   4.676  0.2086  0.2328  0.1011
14121SOL    HW148199   3.846   5.870   4.690  0.5626  0.4462 -0.0215
14121SOL    HW248200   3.812   6.004   4.752  1.2393  0.8978 -0.6191
14122SOL     OW48201   9.770   2.348   3.368 -0.1573 -0.2116 -0.3501
14122SOL    HW148202   9.859   2.316   3.352  0.7692  0.6734  2.3173
14122SOL    HW248203   9.736   2.290   3.437 -1.6489 -0.4672 -1.2528
14123SOL     OW48204   0.581   0.680   0.034  0.3682  0.6354 -0.1257
14123SOL    HW148205   0.622   0.640   0.110 -1.2615  0.5746  0.7641
14123SOL    HW248206   0.653   0.695  -0.027  1.5970 -0.0063  1.1141
14124SOL     OW48207   0.649   7.861  10.392  0.5342  1.1741  0.2480
14124SOL    HW148208   0.707   7.834  10.321 -1.7950 -1.4746 -0.8407
14124SOL    HW248209   0.665   7.798  10.462 -0.5127  0.7975  0.1763
14125SOL     OW48210   0.123   4.234   3.937 -0.1166  0.0798  0.4594
14125SOL    HW148211   0.104   4.188   3.855  1.2847 -0.9109  0.6543
14125SOL    HW248212   0.186   4.301   3.913 -0.0941  0.1269  0.6480
14126SOL     OW48213  10.468   0.948   3.693  0.2016  0.1166  0.2830
14126SOL    HW148214  10.559   0.916   3.695  0.3288  0.4463 -0.0621
14126SOL    HW248215  10.451   0.974   3.784 -0.8253 -3.3618  1.2282
14127SOL     OW48216   7.731   9.343   9.235 -0.1910 -0.3185 -0.2348
14127SOL    HW148217   7.757   9.255   9.206  1.2707  0.4748 -1.4961
14127SOL    HW248218   7.645   9.331   9.275 -1.5130 -1.8933 -3.1883
14128SOL     OW48219   7.119   6.842   9.109  0.2646  0.5218  0.2252
14128SOL    HW148220   7.048   6.819   9.168  0.2369  1.1118  0.4343
14128SOL    HW248221   7.198   6.835   9.163  0.1869  1.6170  0.5130
14129SOL     OW48222   4.531   1.294   5.997 -0.5629  0.3015  0.3659
14129SOL    HW148223   4.473   1.317   6.070 -0.0492  0.2778  0.7939
14129SOL    HW248224   4.497   1.342   5.922 -1.2164  0.1797  0.5773
14130SOL     OW48225   4.089  10.332  10.664  0.1022 -0.2203  0.4245
14130SOL    HW148226   4.077  10.243  10.631 -0.8734 -0.4214  1.2441
14130SOL    HW248227   4.134  10.320  10.748 -0.5679 -0.0111  0.8285
14131SOL     OW48228   1.992   8.965   9.584  0.4735  0.0136 -0.4516
14131SOL    HW148229   2.036   8.962   9.668 -0.2882  0.6884 -0.0146
14131SOL    HW248230   2.024   9.045   9.542 -1.7074  1.6031  0.6944
14132SOL     OW48231   4.174   3.569   2.814 -0.0614 -0.3851  0.1696
14132SOL    HW148232   4.156   3.575   2.721 -0.1563 -0.3257  0.1918
14132SOL    HW248233   4.122   3.495   2.845  0.4332 -0.7803  0.0613
14133SOL     OW48234   0.654   1.818   5.820 -0.4142 -0.3254 -0.1350
14133SOL    HW148235   0.748   1.822   5.803 -0.2613  2.1349  0.9066
14133SOL    HW248236   0.617   1.780   5.740  1.1946  1.4615 -1.8339
14134SOL     OW48237   6.838   0.499   7.565  0.4806 -0.0124 -0.6859
14134SOL    HW148238   6.864   0.414   7.599  0.6733 -0.0933 -1.0308
14134SOL    HW248239   6.765   0.526   7.621 -0.5683 -1.0889 -1.4847
14135SOL     OW48240   5.929   4.032   3.796 -0.1182  0.6377  0.4209
14135SOL    HW148241   5.937   4.107   3.855  1.4147 -0.3840  1.6035
14135SOL    HW248242   5.943   3.956   3.852 -1.5194 -0.5643 -0.7606
14136SOL     OW48243   3.062   8.843   6.921 -0.0388 -0.2026 -0.0642
14136SOL    HW148244   3.129   8.911   6.910  0.7116 -0.9492 -0.2990
14136SOL    HW248245   2.980   8.891   6.927  0.5917  0.7978  1.0592
14137SOL     OW48246   6.021   6.750   9.860 -0.1553 -0.4235  0.5543
14137SOL    HW148247   6.012   6.695   9.782  2.0576  1.6207 -1.3201
14137SOL    HW248248   5.956   6.820   9.847  0.6795  0.2934  0.1471
14138SOL     OW48249   8.819   1.995   2.833  0.1808 -0.0995 -0.0801
14138SOL    HW148250   8.820   2.088   2.812 -0.5651 -0.0967 -0.1373
14138SOL    HW248251   8.739   1.983   2.885  0.8757 -0.4961  0.9321
14139SOL     OW48252   8.614   3.093   5.176 -0.5438 -0.5244 -0.0658
14139SOL    HW148253   8.623   3.066   5.085 -0.1363 -1.0790  0.1379
14139SOL    HW248254   8.613   3.189   5.173  0.9318 -0.5047 -0.5175
14140SOL     OW48255  10.559   4.022   8.114 -0.5867 -0.7512  0.5396
14140SOL    HW148256  10.521   4.062   8.036 -0.2054 -0.8540  0.3004
14140SOL    HW248257  10.506   4.055   8.186 -1.5604 -1.4213  0.1520
14141SOL     OW48258   1.045   2.564   7.874 -0.1037 -0.5562  0.0568
14141SOL    HW148259   1.129   2.542   7.835  0.4537 -1.1477  1.5312
14141SOL    HW248260   0.990   2.487   7.856 -0.1927 -0.3687 -0.4931
14142SOL     OW48261   9.299   3.934   0.341 -0.0215  0.2586  0.5129
14142SOL    HW148262   9.222   3.971   0.384  0.7665  3.1628 -0.3939
14142SOL    HW248263   9.266   3.900   0.258 -0.6590 -0.6133  1.1006
14143SOL     OW48264  10.430   4.832   7.640  0.8036 -0.3833  0.5164
14143SOL    HW148265  10.501   4.814   7.702  1.1380  0.9625  0.5522
14143SOL    HW248266  10.475   4.857   7.559  0.3757 -2.1769 -0.3303
14144SOL     OW48267   5.083   2.749   0.308 -0.6084  0.1588 -0.7050
14144SOL    HW148268   4.990   2.769   0.322 -0.5032  0.8079 -0.9267
14144SOL    HW248269   5.126   2.776   0.389 -0.8149 -1.6025  0.0354
14145SOL     OW48270  10.449   0.580   2.743  0.2556  0.2483  0.2607
14145SOL    HW148271  10.439   0.487   2.724 -2.1001  0.5336 -0.1103
14145SOL    HW248272  10.542   0.598   2.724  0.2357 -1.5151 -1.9402
14146SOL     OW48273  10.012   6.682   1.901  0.1093  0.0495 -0.0660
14146SOL    HW148274  10.035   6.701   1.810  0.1409 -0.4328 -0.1602
14146SOL    HW248275  10.089   6.638   1.937 -0.0510 -0.1100  0.0846
14147SOL     OW48276   5.853   6.056   1.320 -0.0880  0.0285  0.7556
14147SOL    HW148277   5.873   5.994   1.249 -0.4807  0.0968  0.5840
14147SOL    HW248278   5.854   6.142   1.278 -0.3307  0.0688  0.8304
14148SOL     OW48279  10.132  10.340   7.678  0.4753  0.3619 -0.2946
14148SOL    HW148280  10.201  10.388   7.632  0.9041  1.5955  1.5445
14148SOL    HW248281  10.179  10.283   7.739 -0.0997  0.8784  0.6530
14149SOL     OW48282   3.290   8.837   1.505 -1.0734  0.1410  0.3707
14149SOL    HW148283   3.332   8.839   1.419 -2.2974 -1.2078 -0.3208
14149SOL    HW248284   3.223   8.906   1.500 -0.1806  1.0671  0.8148
14150SOL     OW48285   4.509   3.543   2.656 -0.3828 -0.1118  0.2880
14150SOL    HW148286   4.495   3.612   2.591 -0.7255 -1.0291 -0.6304
14150SOL    HW248287   4.496   3.587   2.741  0.0130  1.0837 -0.2520
14151SOL     OW48288   8.627   9.515   4.907  0.2445 -0.6569  0.3351
14151SOL    HW148289   8.654   9.441   4.852 -1.0609 -0.6175 -0.3996
14151SOL    HW248290   8.580   9.475   4.980  0.0540 -0.5943  0.2479
14152SOL     OW48291   1.821   0.867   4.797 -0.1994 -0.3152 -0.8174
14152SOL    HW148292   1.794   0.950   4.837  1.5146  0.9977 -2.2169
14152SOL    HW248293   1.881   0.893   4.727 -0.5531 -2.6920 -2.1004
14153SOL     OW48294   3.674   2.652   0.521 -0.0239  0.1325 -0.6315
14153SOL    HW148295   3.763   2.674   0.548  0.2891 -0.0597 -1.4754
14153SOL    HW248296   3.673   2.668   0.427 -1.6604  2.6822 -0.2596
14154SOL     OW48297   3.956  10.721   3.385 -0.2936  0.5747 -0.5369
14154SOL    HW148298   3.886  10.786   3.378 -2.0285 -0.9148  1.5359
14154SOL    HW248299   3.912  10.637   3.374  1.6358 -0.3537 -1.6248
14155SOL     OW48300   2.422   7.428   6.367 -0.2244 -0.4313 -0.0652
14155SOL    HW148301   2.423   7.478   6.449 -0.8771  0.2202 -0.4409
14155SOL    HW248302   2.510   7.391   6.361  0.2520  0.5880  0.2775
14156SOL     OW48303   9.918   5.992   4.377  0.0629  0.0019 -0.3177
14156SOL    HW148304   9.995   5.978   4.323 -0.6594 -2.1501 -0.8914
14156SOL    HW248305   9.861   6.047   4.324  0.6550  0.5291 -0.4148
14157SOL     OW48306   7.015   1.150   8.007 -0.0877 -0.2810 -0.0188
14157SOL    HW148307   6.961   1.215   8.053 -0.4557  0.0299 -0.8696
14157SOL    HW248308   6.984   1.153   7.917  0.9616 -0.5249 -0.3978
14158SOL     OW48309   1.273   2.838   6.149  0.2680 -0.5562 -0.1729
14158SOL    HW148310   1.230   2.868   6.229 -0.6895 -2.2477  0.0001
14158SOL    HW248311   1.333   2.769   6.179 -1.9371 -3.0357 -1.0741
14159SOL     OW48312   1.159   7.790   0.113  0.6923 -0.0141  0.0628
14159SOL    HW148313   1.174   7.849   0.039  0.1686  0.0973  0.0429
14159SOL    HW248314   1.212   7.827   0.184  0.8648  0.1162 -0.1310
14160SOL     OW48315  10.425   5.161   9.507  0.1878 -0.4654 -0.2460
14160SOL    HW148316  10.345   5.197   9.546  0.6070 -0.1285  0.3156
14160SOL    HW248317  10.491   5.170   9.576  0.4921 -1.5857 -0.3745
14161SOL     OW48318   4.675   6.095   9.648  0.0739  0.1147 -0.3615
14161SOL    HW148319   4.639   6.036   9.582 -0.2257  0.9305 -0.9445
14161SOL    HW248320   4.734   6.040   9.700 -1.4647 -1.1026  0.1871
14162SOL     OW48321   8.174   6.475   0.347  0.1632 -0.2680 -0.1964
14162SOL    HW148322   8.194   6.432   0.430 -1.3730  0.7134  0.7265
14162SOL    HW248323   8.247   6.535   0.332  1.0777 -1.3567 -0.2279
14163SOL     OW48324   9.563   8.751   5.597  0.6137 -0.1586  0.3244
14163SOL    HW148325   9.474   8.745   5.561  0.2001 -0.7412  1.3711
14163SOL    HW248326   9.549   8.751   5.692  1.7682 -0.8315  0.5084
14164SOL     OW48327   8.479   8.726   0.868 -0.3383 -0.5058 -0.1442
14164SOL    HW148328   8.402   8.675   0.844 -0.3778 -0.1191 -0.8787
14164SOL    HW248329   8.553   8.669   0.846 -0.3972 -0.5164 -0.3202
14165SOL     OW48330   3.346   8.853   9.553 -0.3102 -0.6404  0.3440
14165SOL    HW148331   3.375   8.917   9.618 -0.0284 -1.7627  1.3435
14165SOL    HW248332   3.292   8.904   9.492  0.1323  0.5984  0.9486
14166SOL     OW48333   6.745   9.650   1.308 -0.2536 -0.4268 -0.3010
14166SOL    HW148334   6.676   9.712   1.283 -0.1750 -0.0092  0.4984
14166SOL    HW248335   6.745   9.651   1.404 -0.2106 -1.6266 -0.2676
14167SOL     OW48336   3.706   2.450   0.885  0.1252  0.0436 -0.6491
14167SOL    HW148337   3.636   2.385   0.888 -0.1144  0.2499 -1.4856
14167SOL    HW248338   3.781   2.406   0.925 -0.4500 -0.2040  0.1887
14168SOL     OW48339   3.331   9.545   8.581  0.1080 -0.0214  0.7021
14168SOL    HW148340   3.265   9.478   8.597  0.3424 -0.3013  0.5140
14168SOL    HW248341   3.415   9.500   8.593  0.3837 -0.6790 -2.6999
14169SOL     OW48342   9.183   2.001   5.332 -0.3213 -0.0567 -0.1941
14169SOL    HW148343   9.276   2.025   5.329  0.2983 -2.2616 -0.9701
14169SOL    HW248344   9.155   2.001   5.240 -1.1509  0.7282  0.0432
14170SOL     OW48345   6.017   7.684   9.894 -0.3256 -0.1651 -0.6837
14170SOL    HW148346   6.025   7.589   9.889 -1.6634 -0.5027  1.8022
14170SOL    HW248347   5.923   7.701   9.896 -0.1330  1.0075  0.6684
14171SOL     OW48348   3.034   7.326  10.244  0.3170  0.2501 -0.1934
14171SOL    HW148349   3.039   7.313  10.338 -1.6693 -1.2035 -0.2370
14171SOL    HW248350   2.945   7.358  10.229  0.1623 -0.8102 -1.7040
14172SOL     OW48351   9.498   7.787   2.278  0.1608 -0.1651 -0.1951
14172SOL    HW148352   9.544   7.707   2.254 -0.1796 -0.3561 -0.2153
14172SOL    HW248353   9.541   7.856   2.227 -0.2909 -0.5009 -1.0410
14173SOL     OW48354   6.384   9.488   3.974  0.6172 -0.2399  0.8545
14173SOL    HW148355   6.303   9.507   4.023 -0.1902  1.8973 -1.0937
14173SOL    HW248356   6.454   9.517   4.033 -0.3146  2.2256  0.9034
14174SOL     OW48357   2.127   6.661   2.311 -0.6872  0.6963  0.4924
14174SOL    HW148358   2.090   6.581   2.275  0.7375  0.4083 -0.4102
14174SOL    HW248359   2.057   6.726   2.302 -1.0659  0.1265 -0.9622
14175SOL     OW48360   6.032  10.660   2.080 -0.4090 -0.0542 -0.5280
14175SOL    HW148361   5.980  10.725   2.128 -1.6621  0.3243 -2.2750
14175SOL    HW248362   6.120  10.696   2.077 -0.7726  0.8780 -0.2435
14176SOL     OW48363   0.291   2.176   4.276  0.3925 -0.2086 -0.4163
14176SOL    HW148364   0.386   2.175   4.264  0.5420 -3.2282  0.2168
14176SOL    HW248365   0.259   2.104   4.221 -0.9024 -2.3592  2.8021
14177SOL     OW48366   2.457   4.884   5.344 -0.5492  0.1829  0.1230
14177SOL    HW148367   2.392   4.954   5.354  0.4359  0.9973  1.1924
14177SOL    HW248368   2.495   4.874   5.432  0.5772 -0.4512 -0.4124
14178SOL     OW48369   2.585   0.058   1.930 -0.1627  0.2949 -0.5160
14178SOL    HW148370   2.639   0.122   1.976 -0.4957 -0.5027  1.0487
14178SOL    HW248371   2.625  -0.026   1.952 -3.3953 -0.6130  2.8660
14179SOL     OW48372   3.501   6.562   8.667 -0.3482  0.6050  0.0292
14179SOL    HW148373   3.544   6.632   8.717 -1.5353  2.2205 -1.1093
14179SOL    HW248374   3.408   6.584   8.669 -0.8890 -1.4827  0.3981
14180SOL     OW48375   9.416   1.635   9.826  0.2588  0.0204  0.6660
14180SOL    HW148376   9.387   1.722   9.853 -1.4808  0.2055 -1.5364
14180SOL    HW248377   9.364   1.575   9.879  1.5259  0.2601  2.2575
14181SOL     OW48378   4.388   3.592   9.657  0.0765  0.8025 -0.1801
14181SOL    HW148379   4.314   3.542   9.692  0.4307 -0.0047 -0.5439
14181SOL    HW248380   4.431   3.628   9.734  1.4436 -1.7922  0.3991
14182SOL     OW48381   5.366   8.087   4.376  0.2135 -0.2041  0.8319
14182SOL    HW148382   5.330   8.044   4.298  2.7107 -0.2140 -0.4278
14182SOL    HW248383   5.320   8.171   4.380  1.2357  0.5963 -1.7990
14183SOL     OW48384   3.416   0.664   7.653 -0.6532  0.0459 -0.0505
14183SOL    HW148385   3.455   0.658   7.740 -2.3026  2.6863  0.9777
14183SOL    HW248386   3.416   0.574   7.621 -0.4825 -1.1100  2.8887
14184SOL     OW48387   6.434   2.360   6.214  0.3836  0.1711  0.1642
14184SOL    HW148388   6.400   2.426   6.154  0.7190  1.7129  1.5996
14184SOL    HW248389   6.424   2.399   6.301  0.5137 -1.7187  1.0823
14185SOL     OW48390   6.174   3.547   8.002  0.0207  0.0001 -0.0453
14185SOL    HW148391   6.239   3.533   8.070  0.6597 -0.1768 -0.6835
14185SOL    HW248392   6.169   3.642   7.992  0.9750 -0.0021 -0.7272
14186SOL     OW48393   6.987   6.198   9.555 -0.0710 -0.1160  0.4047
14186SOL    HW148394   7.036   6.280   9.549  0.2350 -0.2378  1.1369
14186SOL    HW248395   6.954   6.196   9.645 -1.6734  0.0932 -0.1365
14187SOL     OW48396   4.197   2.939   0.773 -0.0702  0.3712  0.4422
14187SOL    HW148397   4.179   2.922   0.866 -0.2894  0.4150  0.4086
14187SOL    HW248398   4.122   2.989   0.743 -0.3200 -0.2201  0.0688
14188SOL     OW48399   0.247   8.328   9.297 -0.1990 -0.2608  0.2114
14188SOL    HW148400   0.262   8.416   9.262 -0.5027 -0.8914 -1.6232
14188SOL    HW248401   0.157   8.329   9.329  0.0469  0.3049  0.8961
14189SOL     OW48402   9.643   3.000   8.392  0.1225 -0.4591 -0.0404
14189SOL    HW148403   9.660   3.073   8.451 -1.8700 -0.4670  0.6311
14189SOL    HW248404   9.644   3.039   8.305  0.7169  0.0354  0.1851
14190SOL     OW48405   9.681   3.745   9.594 -0.5241 -0.7266 -0.2526
14190SOL    HW148406   9.757   3.686   9.591  1.8911  2.1185 -4.0957
14190SOL    HW248407   9.712   3.821   9.644 -1.8933 -0.6378  0.4921
14191SOL     OW48408  10.269   3.575  10.203  0.2376 -0.5664  0.4753
14191SOL    HW148409  10.351   3.598  10.247  1.2430 -1.3614 -0.9001
14191SOL    HW248410  10.281   3.604  10.113 -0.4159 -1.9615 -0.0890
14192SOL     OW48411   0.087   8.589   0.285  0.6963  0.6758  0.4813
14192SOL    HW148412   0.065   8.528   0.214  2.0113  1.0531 -0.2934
14192SOL    HW248413   0.078   8.538   0.365 -1.4139  0.3998  0.1374
14193SOL     OW48414   8.412   7.076   2.236  0.0718  0.1836  0.1937
14193SOL    HW148415   8.454   7.156   2.267 -0.5693  0.8789 -0.7130
14193SOL    HW248416   8.480   7.009   2.245  1.3973  1.2699 -1.2249
14194SOL     OW48417  10.391   0.339   2.651 -0.1587  0.6440  0.5015
14194SOL    HW148418  10.445   0.341   2.572 -1.4535  4.0908 -0.4787
14194SOL    HW248419  10.329   0.267   2.635  0.5788  0.2729 -0.8921
14195SOL     OW48420   9.612   9.902   6.749 -0.3525  0.2064 -0.1445
14195SOL    HW148421   9.653   9.819   6.724 -0.4925 -0.1939  0.8890
14195SOL    HW248422   9.519   9.881   6.757 -0.2282  0.1212  1.3788
14196SOL     OW48423   1.573   3.927   2.020 -0.2699  0.0739 -0.1544
14196SOL    HW148424   1.593   3.870   1.946  0.4096 -1.1324  0.9246
14196SOL    HW248425   1.549   4.011   1.980 -2.3434 -1.2316 -1.8427
14197SOL     OW48426   3.206   6.610   9.506  0.5307  0.1454  0.2224
14197SOL    HW148427   3.125   6.571   9.539  0.6450  0.5954  1.0769
14197SOL    HW248428   3.276   6.555   9.541  0.5904 -0.3200 -0.6243
14198SOL     OW48429   7.932   5.443   3.420 -0.1226 -0.3074 -0.2592
14198SOL    HW148430   7.912   5.531   3.453 -0.2273  0.0527 -1.2409
14198SOL    HW248431   7.850   5.394   3.433  0.6818 -1.0612  2.6726
14199SOL     OW48432   1.359   9.203   6.988  0.0931  0.1097  0.7758
14199SOL    HW148433   1.341   9.204   7.082  1.0918 -1.2261  1.0231
14199SOL    HW248434   1.354   9.110   6.964  0.7315  0.3307 -0.2916
14200SOL     OW48435   1.350   9.773   6.096 -0.5935  0.0744  0.6210
14200SOL    HW148436   1.351   9.780   6.191 -0.6518 -1.7807  0.8002
14200SOL    HW248437   1.437   9.740   6.073 -1.0653 -0.9109  0.1855
14201SOL     OW48438   5.047   7.485   9.033  0.1375  0.1048  0.1947
14201SOL    HW148439   4.968   7.523   8.993 -0.0148 -0.3991  0.0163
14201SOL    HW248440   5.102   7.561   9.052  0.2894  0.3535 -1.1208
14202SOL     OW48441   9.507   7.162   8.637  0.3248 -0.6249 -0.3042
14202SOL    HW148442   9.597   7.132   8.648  0.6307  0.4383  0.2875
14202SOL    HW248443   9.512   7.227   8.567  0.5214  1.2965  1.3871
14203SOL     OW48444   9.228   3.186   6.893  0.0931 -0.6408  0.4199
14203SOL    HW148445   9.318   3.153   6.897 -0.4381 -2.0177  3.1916
14203SOL    HW248446   9.234   3.276   6.924  0.3980 -1.1220  1.8346
14204SOL     OW48447   0.063   2.825   3.967 -0.4510  0.4846  0.3608
14204SOL    HW148448   0.050   2.821   4.062  0.0968 -1.2323  0.4048
14204SOL    HW248449   0.118   2.749   3.948 -0.4225  0.8984 -1.3245
14205SOL     OW48450   9.471   5.513   2.106  0.3543 -0.3713 -0.1944
14205SOL    HW148451   9.381   5.481   2.106 -0.7215  2.3060  1.9413
14205SOL    HW248452   9.489   5.533   2.197  2.8001  0.0808 -0.7181
14206SOL     OW48453   1.464   1.371   9.604  0.6550 -0.4689 -0.1946
14206SOL    HW148454   1.386   1.316   9.613 -0.6191  0.9261 -1.9140
14206SOL    HW248455   1.533   1.312   9.574  0.5290 -1.8807  2.0921
14207SOL     OW48456   8.005   2.363   7.967 -0.5746  0.5648  0.1797
14207SOL    HW148457   7.984   2.353   7.874  0.5369  0.6183 -0.0829
14207SOL    HW248458   8.064   2.438   7.971 -2.0482  1.7334  1.1648
14208SOL     OW48459   1.186   4.243   8.094  0.3349  0.0141  0.3841
14208SOL    HW148460   1.108   4.277   8.051 -2.3166  1.0067  5.2545
14208SOL    HW248461   1.186   4.149   8.074  0.4344  0.5961 -2.9737
14209SOL     OW48462   8.244   3.821   4.925 -0.0295  0.4410  0.6460
14209SOL    HW148463   8.204   3.812   4.838  0.5929 -0.4405  0.4321
14209SOL    HW248464   8.309   3.890   4.915  1.6962 -1.2205 -0.2614
14210SOL     OW48465   4.419   9.384   5.789 -0.4863  0.0629  0.3934
14210SOL    HW148466   4.507   9.377   5.826 -0.5791 -0.0371  0.5964
14210SOL    HW248467   4.420   9.467   5.741  0.1780 -0.6411 -0.8433
14211SOL     OW48468   3.701   8.929   1.196 -0.5577 -0.4410  0.3033
14211SOL    HW148469   3.615   8.956   1.228 -0.6859  1.1328 -1.2292
14211SOL    HW248470   3.686   8.904   1.105  0.9831  2.5905 -0.9251
14212SOL     OW48471   5.959   1.511   1.800  0.2493  0.9181 -0.3298
14212SOL    HW148472   5.916   1.463   1.729  0.9783  1.5493 -1.2231
14212SOL    HW248473   5.972   1.445   1.869 -2.4753  0.7910  0.1740
14213SOL     OW48474   6.855   7.578   9.067 -0.8930  0.1524 -0.1160
14213SOL    HW148475   6.880   7.621   8.985  0.6841 -0.3000  0.0862
14213SOL    HW248476   6.891   7.490   9.060 -2.5637 -0.5934  0.2145
14214SOL     OW48477   7.481   5.853   7.993 -0.1791 -0.6193  0.3259
14214SOL    HW148478   7.551   5.909   8.025  0.9786 -1.8427  0.0299
14214SOL    HW248479   7.504   5.834   7.903 -0.6665 -1.3836  0.3486
14215SOL     OW48480   3.747   4.743   6.872  0.4813 -0.0098  0.2944
14215SOL    HW148481   3.757   4.838   6.878 -0.5443  0.1062  0.3048
14215SOL    HW248482   3.828   4.708   6.909  1.0450  0.8595 -0.0786
14216SOL     OW48483   2.468   6.101   9.185 -0.6231 -0.4285 -0.0428
14216SOL    HW148484   2.434   6.013   9.168 -0.9732 -0.1431 -0.8871
14216SOL    HW248485   2.402   6.142   9.242 -1.5504 -0.0056 -1.3732
14217SOL     OW48486   3.138   5.043   6.167  0.0033  0.3519  0.2198
14217SOL    HW148487   3.070   5.028   6.233 -0.5734 -1.9630 -0.7938
14217SOL    HW248488   3.093   5.089   6.097 -0.7025 -1.4307 -0.5789
14218SOL     OW48489   2.810   2.121   7.993 -0.3019 -0.1787 -0.0035
14218SOL    HW148490   2.805   2.209   8.032  2.3633 -0.6070  1.5668
14218SOL    HW248491   2.901   2.113   7.965 -0.8571 -1.9589 -1.4390
14219SOL     OW48492   5.072   3.688   9.718  0.7018  0.3531 -0.1073
14219SOL    HW148493   4.999   3.650   9.768  1.2037  1.8703  1.9197
14219SOL    HW248494   5.069   3.643   9.634 -1.2890 -1.1061  0.6517
14220SOL     OW48495   0.760   5.127   7.259  0.2959  0.2343  0.3456
14220SOL    HW148496   0.817   5.055   7.286 -0.6666 -1.6706 -2.2730
14220SOL    HW248497   0.809   5.171   7.189 -0.7570 -0.5152 -0.9103
14221SOL     OW48498   5.482   8.193   1.098  0.3678  0.5334  0.0797
14221SOL    HW148499   5.504   8.106   1.131  2.0154  0.6199 -0.6846
14221SOL    HW248500   5.388   8.202   1.115  0.0231 -1.6306 -0.4060
14222SOL     OW48501   5.657   0.663   7.870  0.7632  0.0870  0.6021
14222SOL    HW148502   5.576   0.703   7.903 -0.2147  1.2828 -2.8737
14222SOL    HW248503   5.629   0.581   7.830  1.1607  0.6403 -0.8715
14223SOL     OW48504   5.256   6.220   9.984  0.5735 -0.4840 -0.1637
14223SOL    HW148505   5.235   6.299   9.934  2.0629  1.0669  1.5537
14223SOL    HW248506   5.179   6.204  10.037  0.5185  0.2159 -0.0291
14224SOL     OW48507   7.643   8.081   0.666  0.5285  0.3551  0.0226
14224SOL    HW148508   7.637   8.047   0.577 -0.5919 -1.8673  0.8521
14224SOL    HW248509   7.552   8.095   0.692  0.8006  0.2966  1.0443
14225SOL     OW48510   3.854   3.248   3.983 -0.1035 -0.5533 -0.1660
14225SOL    HW148511   3.817   3.212   4.064  1.7021 -1.0701  0.4870
14225SOL    HW248512   3.942   3.276   4.008 -0.1516  0.9708 -1.5423
14226SOL     OW48513   1.641   6.390   6.557 -0.2865  0.2296  0.4599
14226SOL    HW148514   1.678   6.305   6.579  0.1119  0.1239 -0.5700
14226SOL    HW248515   1.702   6.454   6.594  0.9064  0.0588 -1.0777
14227SOL     OW48516   1.412   1.264   7.516 -0.3520 -0.1204  0.4172
14227SOL    HW148517   1.432   1.180   7.558 -0.7015 -0.2292  0.3625
14227SOL    HW248518   1.498   1.303   7.500 -0.1718 -0.6473  0.0697
14228SOL     OW48519   0.292   2.234   2.241  0.3534  0.0784  0.0343
14228SOL    HW148520   0.241   2.207   2.165 -0.0522 -0.3326  0.4505
14228SOL    HW248521   0.325   2.153   2.279 -1.7527  0.0023  1.9053
14229SOL     OW48522   1.330   8.412   9.531 -0.3267 -0.6078 -0.5512
14229SOL    HW148523   1.365   8.416   9.620  2.4356  0.5106 -1.5960
14229SOL    HW248524   1.252   8.357   9.539  1.2585 -2.7327  2.1113
14230SOL     OW48525   5.915  10.695   6.477 -0.1061 -0.2258  0.7453
14230SOL    HW148526   5.961  10.710   6.560 -2.3859  4.0582  1.5304
14230SOL    HW248527   5.835  10.747   6.484 -2.3715 -2.7709 -2.7241
14231SOL     OW48528   7.697   7.814   7.431 -0.1532 -0.0933 -0.4893
14231SOL    HW148529   7.762   7.866   7.480 -1.5113  1.3071 -0.0972
14231SOL    HW248530   7.664   7.751   7.495 -0.7667  0.6810 -0.0142
14232SOL     OW48531   7.036   6.635   0.073 -0.7809 -0.5969 -0.6479
14232SOL    HW148532   7.015   6.582   0.150 -4.2464  0.3608 -0.7434
14232SOL    HW248533   6.982   6.598   0.003  1.4851 -0.7727 -2.4122
14233SOL     OW48534   3.317   5.588   7.026  0.6739 -0.0415 -0.0799
14233SOL    HW148535   3.271   5.667   7.055  1.1571  0.3031 -0.2529
14233SOL    HW248536   3.410   5.609   7.033  0.8542 -1.0916  1.2676
14234SOL     OW48537   8.043   3.244   7.087 -0.2574  0.2281  0.0730
14234SOL    HW148538   8.090   3.286   7.016  0.4054 -0.3022  0.1923
14234SOL    HW248539   8.062   3.298   7.164 -2.5792  1.9894 -0.4567
14235SOL     OW48540   2.007   5.515  10.223 -0.2856  0.0793  0.0817
14235SOL    HW148541   2.076   5.539  10.163 -0.3603 -1.1444 -0.5236
14235SOL    HW248542   1.990   5.594  10.274  1.3052  0.4927  0.0101
14236SOL     OW48543   1.281   2.020   6.797  0.1646  0.4309 -0.0714
14236SOL    HW148544   1.228   2.052   6.723  0.2112 -0.8518 -0.6986
14236SOL    HW248545   1.216   1.992   6.862  0.1068  0.6290 -0.0426
14237SOL     OW48546   7.012   8.228   0.819 -0.1599  0.5514 -0.1031
14237SOL    HW148547   7.068   8.152   0.801 -1.1523 -0.3422  0.5084
14237SOL    HW248548   7.014   8.237   0.914 -0.8070  0.7020 -0.1003
14238SOL     OW48549   8.991   7.938   9.297  0.4788  0.4320  0.2380
14238SOL    HW148550   8.951   8.016   9.257  1.3323  1.6450  1.6442
14238SOL    HW248551   9.084   7.948   9.280  0.8048  0.7081  2.0147
14239SOL     OW48552   9.134   2.886  10.282  0.0105 -0.7873 -0.5749
14239SOL    HW148553   9.154   2.966  10.234  0.0717 -1.2837 -1.3894
14239SOL    HW248554   9.042   2.869  10.263 -0.6338  0.2205  1.3022
14240SOL     OW48555   4.295   1.068   5.378 -0.1120 -0.1826 -0.4561
14240SOL    HW148556   4.321   1.137   5.439 -2.1903  0.0049  0.2846
14240SOL    HW248557   4.291   1.111   5.293 -0.8621  0.4784 -0.0926
14241SOL     OW48558   0.409   3.887   4.471 -0.2452 -0.1788 -0.1094
14241SOL    HW148559   0.433   3.794   4.474  1.0486  0.1198 -0.4537
14241SOL    HW248560   0.464   3.928   4.538  0.4873  0.5770 -1.1265
14242SOL     OW48561  10.712  10.571   1.730 -0.1741  0.0579 -0.1985
14242SOL    HW148562  10.694  10.482   1.701  2.4559 -0.7930  0.4887
14242SOL    HW248563  10.633  10.598   1.776 -1.0889 -1.8648 -0.5545
14243SOL     OW48564   6.115   7.535   2.662 -0.3447  0.0792 -0.0838
14243SOL    HW148565   6.067   7.591   2.600  0.0806  1.1601  0.5484
14243SOL    HW248566   6.062   7.537   2.742  0.4213  0.7907  0.4223
14244SOL     OW48567   7.783   4.680   5.352  0.4903  0.1904 -0.3179
14244SOL    HW148568   7.796   4.645   5.264 -1.7435 -1.8788  0.0445
14244SOL    HW248569   7.858   4.647   5.402 -0.5220 -2.6879 -0.4687
14245SOL     OW48570   1.644   1.186   9.434  0.1621 -0.4565 -0.1842
14245SOL    HW148571   1.725   1.198   9.385  0.7935 -2.2868  0.3236
14245SOL    HW248572   1.673   1.175   9.525 -0.7326 -0.1768  0.1374
14246SOL     OW48573   7.298   6.520   5.535 -0.7441  0.4013 -0.3828
14246SOL    HW148574   7.312   6.558   5.449 -2.1010 -0.7286 -1.1512
14246SOL    HW248575   7.281   6.427   5.518  0.4468 -0.1575  1.2426
14247SOL     OW48576   5.065   4.235   9.469  0.3770  0.1056  0.0190
14247SOL    HW148577   5.132   4.299   9.443  1.3584 -0.6295  0.6463
14247SOL    HW248578   5.017   4.216   9.388  1.5040 -0.0085 -0.6468
14248SOL     OW48579   9.336   1.475   0.125 -0.1934  0.1811  0.3008
14248SOL    HW148580   9.270   1.530   0.168 -0.8025  1.2359 -1.8002
14248SOL    HW248581   9.403   1.537   0.097  0.1858 -0.4565 -0.2244
14249SOL     OW48582   8.800   0.368   2.837  0.1381  0.4808 -0.5240
14249SOL    HW148583   8.855   0.443   2.858  1.5485 -0.4910 -0.5691
14249SOL    HW248584   8.713   0.392   2.869  1.5748 -0.0238  4.6279
14250SOL     OW48585   0.288   3.787   3.823 -0.2525 -0.1454  0.3969
14250SOL    HW148586   0.258   3.707   3.866 -1.5900  0.4501  0.6235
14250SOL    HW248587   0.354   3.823   3.882 -0.0524 -0.7838  0.5669
14251SOL     OW48588   1.254   3.802   1.734 -0.1238 -0.7412  0.8490
14251SOL    HW148589   1.191   3.745   1.690  0.4964  0.0098 -1.1114
14251SOL    HW248590   1.286   3.750   1.808 -0.0515 -2.7187 -0.4874
14252SOL     OW48591  10.568   8.263   7.718  0.0070 -0.1693 -0.0208
14252SOL    HW148592  10.579   8.196   7.786  2.0891 -0.7167 -0.8298
14252SOL    HW248593  10.565   8.346   7.765  1.1833 -0.5597  0.7722
14253SOL     OW48594   5.940   5.933   6.261  0.1951 -0.0251  0.2055
14253SOL    HW148595   5.944   5.984   6.342 -0.2890 -0.2732  0.3930
14253SOL    HW248596   5.978   5.990   6.194  2.0696 -0.4146  0.8997
14254SOL     OW48597  10.569   0.636   8.062 -0.0734 -0.0175  0.3974
14254SOL    HW148598  10.596   0.594   7.981 -2.9141 -0.4138 -0.4512
14254SOL    HW248599  10.569   0.565   8.127 -0.9269 -0.4751 -0.0759
14255SOL     OW48600   3.566   3.136   3.346  0.2344 -0.5648 -0.0161
14255SOL    HW148601   3.582   3.211   3.290  0.5564 -0.8999 -0.3785
14255SOL    HW248602   3.530   3.173   3.427  1.7980  0.1233  0.4036
14256SOL     OW48603   3.504   3.632   9.572  0.6236 -0.4852 -0.3506
14256SOL    HW148604   3.591   3.610   9.541  0.9531 -1.3319  1.1102
14256SOL    HW248605   3.469   3.551   9.608  0.4106  0.4800  1.7788
14257SOL     OW48606   6.649   2.121   2.118  0.1126  0.1889 -0.8961
14257SOL    HW148607   6.621   2.201   2.074  0.5269  0.5864 -0.4557
14257SOL    HW248608   6.640   2.053   2.052 -2.3986  0.1768 -0.6282
14258SOL     OW48609   1.864   3.140   7.942  0.1293  0.0186  0.0102
14258SOL    HW148610   1.838   3.101   7.859  0.7696  2.3455 -1.4007
14258SOL    HW248611   1.957   3.119   7.950  0.0893 -0.1268  0.0974
14259SOL     OW48612   5.831   6.967  10.443 -0.0842 -0.0361  0.4161
14259SOL    HW148613   5.908   7.006  10.485  0.5925 -0.4810 -0.3729
14259SOL    HW248614   5.862   6.942  10.356 -1.0731 -0.4113  0.1649
14260SOL     OW48615   6.278   1.773   5.614  0.2532 -0.0992 -0.0183
14260SOL    HW148616   6.304   1.748   5.526 -1.1811  1.4658 -0.9387
14260SOL    HW248617   6.203   1.717   5.634  0.1761 -0.0001 -0.0343
14261SOL     OW48618   3.347   9.933   2.424  0.1129  0.1355 -0.4977
14261SOL    HW148619   3.385   9.881   2.495  0.5478  0.7024 -0.3164
14261SOL    HW248620   3.360  10.024   2.450  0.3666  0.3552 -1.3549
14262SOL     OW48621   7.616   6.052   6.990 -0.0672 -0.3169  0.1096
14262SOL    HW148622   7.615   6.071   7.084 -0.4410 -0.5094  0.1454
14262SOL    HW248623   7.675   5.977   6.982 -0.1707 -0.4109  0.2139
14263SOL     OW48624   9.478   8.358   7.850  0.1050 -0.3141 -0.9531
14263SOL    HW148625   9.430   8.345   7.931 -1.0681 -0.8116 -1.6970
14263SOL    HW248626   9.563   8.317   7.865 -0.0741 -0.3289  0.0441
14264SOL     OW48627   0.357   1.282   2.975  0.3950 -0.6270 -0.0552
14264SOL    HW148628   0.332   1.346   3.041  0.1608  0.2582 -0.9668
14264SOL    HW248629   0.431   1.235   3.013 -0.8269 -1.3539  1.5420
14265SOL     OW48630   3.861   5.155   4.733  0.3766  0.1439 -0.1843
14265SOL    HW148631   3.906   5.202   4.663 -1.2096  0.7402 -0.8490
14265SOL    HW248632   3.781   5.123   4.692  0.0718 -0.6884  1.0201
14266SOL     OW48633   6.675   2.383   0.063  0.2487 -0.3165  0.0670
14266SOL    HW148634   6.753   2.330   0.047 -0.2186 -0.4908 -1.9167
14266SOL    HW248635   6.680   2.454  -0.001 -1.8962 -1.1488 -1.1331
14267SOL     OW48636   9.156   4.493   4.581 -0.1894 -0.5786 -0.2094
14267SOL    HW148637   9.209   4.418   4.554  0.5647  0.8296 -2.9984
14267SOL    HW248638   9.065   4.465   4.569  0.0342 -1.5036  0.2049
14268SOL     OW48639   6.377   5.214  10.313 -0.0721 -0.2784  0.3993
14268SOL    HW148640   6.361   5.183  10.402 -0.2591 -1.7764 -0.1210
14268SOL    HW248641   6.419   5.299  10.324  2.2409 -1.5037  1.9813
14269SOL     OW48642   2.490   9.756   1.440 -0.6689  0.5087 -0.2102
14269SOL    HW148643   2.528   9.675   1.473  0.3266  1.2103  0.4678
14269SOL    HW248644   2.519   9.823   1.503 -0.7381  1.5156 -1.2082
14270SOL     OW48645   9.440  10.046   8.614 -0.4947 -0.6597 -0.1340
14270SOL    HW148646   9.402  10.086   8.536  0.8995  0.3579 -0.3303
14270SOL    HW248647   9.507   9.986   8.580 -1.1570 -1.6486  0.2389
14271SOL     OW48648   8.637   6.388   0.302 -0.3397 -0.2127  0.1483
14271SOL    HW148649   8.686   6.343   0.371 -1.7296  1.1296  2.1144
14271SOL    HW248650   8.653   6.481   0.318  0.5814  0.1309 -2.3772
14272SOL     OW48651   2.770   6.822   1.819  0.0801 -0.3061 -0.2483
14272SOL    HW148652   2.722   6.871   1.753  0.2549 -0.5997 -0.6015
14272SOL    HW248653   2.704   6.800   1.886  0.3358  1.8529  0.7894
14273SOL     OW48654   8.983   5.348   2.494 -0.0951 -0.0995 -0.5676
14273SOL    HW148655   8.923   5.327   2.565  1.4547 -1.7816  0.3482
14273SOL    HW248656   8.931   5.340   2.414 -1.6891  1.1035  0.2827
14274SOL     OW48657   6.988  10.230   9.178 -0.2908 -0.1865 -0.2490
14274SOL    HW148658   7.079  10.217   9.205 -0.0196  0.7572 -0.6626
14274SOL    HW248659   6.970  10.323   9.197 -1.1164 -0.3245 -0.3143
14275SOL     OW48660  10.081   0.954   0.154  0.3431  0.3528 -0.0476
14275SOL    HW148661  10.042   0.892   0.093  2.2297 -0.6548 -0.3190
14275SOL    HW248662  10.110   1.027   0.099  2.1615 -0.6134 -0.4706
14276SOL     OW48663   9.613   2.034   9.151 -0.4267  0.0588  0.1117
14276SOL    HW148664   9.690   2.065   9.104 -0.2871 -1.1418 -0.4894
14276SOL    HW248665   9.616   1.939   9.141 -0.1831 -0.3002  2.8612
14277SOL     OW48666   4.885   1.723   1.313 -0.3218  0.2985  0.4087
14277SOL    HW148667   4.797   1.719   1.350 -0.4406  3.0169  0.6369
14277SOL    HW248668   4.879   1.792   1.246  1.1047 -1.0721 -1.2229
14278SOL     OW48669   0.788   9.254   4.173 -0.2238  0.7647 -0.1246
14278SOL    HW148670   0.804   9.301   4.255  2.2255 -1.7051  1.0017
14278SOL    HW248671   0.788   9.322   4.106  1.3543  2.5610  1.5644
14279SOL     OW48672   0.328   6.600   1.131 -0.8170 -0.2074 -0.2071
14279SOL    HW148673   0.286   6.636   1.053 -2.6442 -2.3159 -0.2915
14279SOL    HW248674   0.257   6.589   1.194 -0.0319 -1.8186  0.4663
14280SOL     OW48675   8.588   5.909   1.688 -0.1659 -0.0203 -0.1990
14280SOL    HW148676   8.669   5.911   1.739 -0.2449 -0.9512 -0.0347
14280SOL    HW248677   8.616   5.887   1.599 -0.3162 -1.1203  0.0210
14281SOL     OW48678   5.151   3.908   2.190  0.2660 -0.2663 -0.4385
14281SOL    HW148679   5.091   3.846   2.231 -1.3186  1.3365 -0.2520
14281SOL    HW248680   5.109   3.933   2.109  0.9074  0.5344 -0.5398
14282SOL     OW48681   7.152   0.859   7.266 -0.3376 -0.2917 -0.1675
14282SOL    HW148682   7.117   0.812   7.191 -1.7327  1.7583 -0.8572
14282SOL    HW248683   7.112   0.817   7.342 -0.6266 -0.9586 -0.6860
14283SOL     OW48684   2.723   2.758   8.573 -0.2588  0.1865  0.1663
14283SOL    HW148685   2.629   2.740   8.575 -0.5921  1.2806 -2.0974
14283SOL    HW248686   2.729   2.848   8.539  1.6030 -0.3230 -0.9940
14284SOL     OW48687   1.897   5.611   9.516  0.4519 -0.3517  0.2305
14284SOL    HW148688   1.881   5.699   9.550  1.6829  0.5534 -1.3685
14284SOL    HW248689   1.992   5.602   9.515  0.4150 -0.9392 -1.3748
14285SOL     OW48690   1.713   3.088   0.686  0.6168 -0.0043 -0.0131
14285SOL    HW148691   1.684   3.151   0.752 -0.4585 -0.7496  0.2539
14285SOL    HW248692   1.638   3.031   0.673  1.6133 -1.3561 -0.0957
14286SOL     OW48693   5.319   1.647   3.195 -0.0854 -0.4666 -0.1195
14286SOL    HW148694   5.376   1.586   3.147  1.8939  0.4315  1.0120
14286SOL    HW248695   5.343   1.733   3.162 -0.0747  0.0062  1.0955
14287SOL     OW48696   4.111   1.664   0.871 -0.1650  0.4770 -0.1771
14287SOL    HW148697   4.135   1.681   0.962 -1.9623 -0.4889  0.5213
14287SOL    HW248698   4.194   1.668   0.824  0.7253  1.6656  1.3824
14288SOL     OW48699   6.746   8.726   2.063  0.6564 -0.1399  0.0333
14288SOL    HW148700   6.656   8.695   2.076  1.1597 -1.0199  1.6379
14288SOL    HW248701   6.742   8.778   1.983 -0.7978 -2.0654 -1.2143
14289SOL     OW48702   4.149   9.455   2.687 -0.6461 -0.0368  0.8258
14289SOL    HW148703   4.182   9.430   2.600 -0.7977 -1.9915  1.2700
14289SOL    HW248704   4.200   9.402   2.748 -2.3894 -0.7522  1.7430
14290SOL     OW48705   6.810   7.366   6.929 -0.3757 -0.8640 -0.4630
14290SOL    HW148706   6.723   7.331   6.947 -0.9039  0.9422  0.8174
14290SOL    HW248707   6.834   7.412   7.010  1.6731 -1.1173 -0.8805
14291SOL     OW48708   9.074   5.531   4.658  0.3144 -0.6631  0.3891
14291SOL    HW148709   9.121   5.589   4.599 -0.5957 -0.2909  0.0124
14291SOL    HW248710   9.048   5.456   4.604  0.6897 -0.9847  0.6519
14292SOL     OW48711   9.252   5.381   2.547 -0.6327  0.9221  0.2311
14292SOL    HW148712   9.170   5.343   2.515 -0.0121  0.8448 -1.3912
14292SOL    HW248713   9.225   5.441   2.617 -1.7948 -1.0988  1.6172
14293SOL     OW48714   5.330   6.290   5.311  0.5138 -0.2713  0.7247
14293SOL    HW148715   5.368   6.267   5.396  2.3004  0.0488  0.0667
14293SOL    HW248716   5.367   6.226   5.250  1.6803  1.2764 -0.2847
14294SOL     OW48717   0.635   2.648   1.404  0.0754  0.0494  0.3444
14294SOL    HW148718   0.648   2.650   1.499  0.9559 -0.1450  0.2412
14294SOL    HW248719   0.716   2.686   1.368 -0.8292  1.4754 -0.2986
14295SOL     OW48720   4.355   8.076   5.020  0.3085 -0.4045  0.1363
14295SOL    HW148721   4.411   8.151   5.040  2.3870 -2.1466  1.2958
14295SOL    HW248722   4.305   8.062   5.101 -1.8673  1.0707 -0.8537
14296SOL     OW48723   5.419   3.633   8.819 -0.3611 -0.2034 -0.2544
14296SOL    HW148724   5.435   3.710   8.764  0.7214 -0.3678 -0.1874
14296SOL    HW248725   5.434   3.664   8.909 -1.9458  0.0175 -0.0402
14297SOL     OW48726   6.500   7.831   6.637 -0.1737  0.1993 -0.6263
14297SOL    HW148727   6.525   7.909   6.588 -0.1991  0.6280  0.0358
14297SOL    HW248728   6.572   7.815   6.697 -0.7271  0.4490  0.1111
14298SOL     OW48729   4.951  10.685   2.739  0.4262 -0.0725 -0.3380
14298SOL    HW148730   4.967  10.704   2.646  0.9205 -2.2723 -0.7658
14298SOL    HW248731   4.943  10.590   2.742 -0.3114  0.0235  1.7909
14299SOL     OW48732   8.119   6.092   3.250 -0.1245 -0.0707  0.4186
14299SOL    HW148733   8.176   6.093   3.173  0.8354 -2.7388  0.9961
14299SOL    HW248734   8.160   6.029   3.310 -2.9366 -1.0751  1.4450
14300SOL     OW48735   4.648   0.575   2.938  0.4506  0.1397  0.0511
14300SOL    HW148736   4.674   0.649   2.883 -2.1452  1.1907  0.0892
14300SOL    HW248737   4.670   0.498   2.886 -1.1344  1.0746 -2.2031
14301SOL     OW48738   6.958   5.473   5.994 -0.0316  0.0221 -0.4949
14301SOL    HW148739   7.038   5.525   5.993  0.8389 -1.1937  0.9012
14301SOL    HW248740   6.989   5.382   5.991 -1.4640 -0.4677 -2.0555
14302SOL     OW48741   7.337   5.135   6.001 -0.0642 -0.2917 -0.3354
14302SOL    HW148742   7.332   5.041   6.018 -0.3271 -0.1300  0.5535
14302SOL    HW248743   7.402   5.144   5.932  1.3057 -0.9858  0.8265
14303SOL     OW48744   4.221   3.888   7.274  0.2333 -0.3990 -0.1315
14303SOL    HW148745   4.272   3.855   7.200 -0.5817 -2.9105  0.3409
14303SOL    HW248746   4.263   3.848   7.351 -0.6324 -0.0869  0.5140
14304SOL     OW48747   6.532   5.271   3.209 -0.1039 -0.0330 -0.1979
14304SOL    HW148748   6.603   5.297   3.149  0.7642  0.6473  1.0720
14304SOL    HW248749   6.560   5.186   3.243 -0.4225 -0.2545 -0.4901
14305SOL     OW48750   4.787   9.861   1.929  0.8036  0.7273  0.2304
14305SOL    HW148751   4.877   9.844   1.957  0.9644 -0.7424 -1.0563
14305SOL    HW248752   4.795   9.933   1.866  1.4533 -0.9867 -1.7413
14306SOL     OW48753   5.873   1.336   3.032 -0.2363  0.5536  0.2661
14306SOL    HW148754   5.845   1.249   3.006  0.0952  0.5882 -0.2320
14306SOL    HW248755   5.946   1.321   3.093 -2.6920  0.4055  3.3995
14307SOL     OW48756   8.837   2.583   0.564  0.1873  0.1576 -0.0100
14307SOL    HW148757   8.872   2.629   0.487  0.8759  2.3977  1.5392
14307SOL    HW248758   8.913   2.570   0.620 -0.3832 -1.0483  0.5173
14308SOL     OW48759   1.004   3.884   3.675 -0.1595 -0.0244  0.2552
14308SOL    HW148760   0.919   3.877   3.718 -1.0299  2.4384 -0.8675
14308SOL    HW248761   1.037   3.794   3.672 -1.4822 -0.7148  3.0527
14309SOL     OW48762   3.357   4.538   1.734 -0.5084  0.6153 -0.4892
14309SOL    HW148763   3.299   4.523   1.809 -0.1788 -0.0344 -0.3588
14309SOL    HW248764   3.300   4.576   1.667 -0.4962  2.7745  0.6214
14310SOL     OW48765   8.159   3.264   3.878  0.5318  0.1300 -0.2657
14310SOL    HW148766   8.135   3.343   3.927  1.2582 -0.3977  1.0062
14310SOL    HW248767   8.255   3.267   3.876  0.7000 -1.6660  1.5282
14311SOL     OW48768   9.358   9.782  10.708 -0.2772  0.6595  0.0399
14311SOL    HW148769   9.351   9.708  10.768  1.0682  0.9595  0.5973
14311SOL    HW248770   9.390   9.744  10.627 -1.1284  0.4030 -0.1834
14312SOL     OW48771   6.544   3.399   2.531 -0.0348 -0.3946 -0.5639
14312SOL    HW148772   6.486   3.474   2.515  0.1947  0.0612  0.6328
14312SOL    HW248773   6.628   3.438   2.552 -0.1949 -0.9266  1.2071
14313SOL     OW48774   3.111   8.827   9.169 -0.6641  0.1931 -0.0294
14313SOL    HW148775   3.144   8.889   9.234  1.0893  0.1674 -0.8355
14313SOL    HW248776   3.107   8.877   9.088  0.9624 -0.7367 -0.7357
14314SOL     OW48777   5.632   2.216   5.983  0.7341  0.1318  0.2432
14314SOL    HW148778   5.562   2.217   5.918  0.5027 -1.3598  0.4297
14314SOL    HW248779   5.588   2.190   6.064  1.4665 -0.6623  0.3990
14315SOL     OW48780   8.784   3.984   0.638  0.3464  0.0267 -0.0601
14315SOL    HW148781   8.726   4.057   0.615  0.5733 -0.0368 -0.8459
14315SOL    HW248782   8.851   4.024   0.693 -0.6981  0.0163  1.2929
14316SOL     OW48783   3.369   8.883   1.194 -0.1743 -0.3039 -0.5413
14316SOL    HW148784   3.415   8.901   1.112  0.3209 -1.1361 -0.4595
14316SOL    HW248785   3.287   8.932   1.187 -0.3655 -0.7579 -1.7478
14317SOL     OW48786   8.639   3.687   0.281  0.1586 -0.4718  0.3860
14317SOL    HW148787   8.603   3.650   0.362 -0.9413  0.9303  0.5816
14317SOL    HW248788   8.614   3.626   0.213  0.7795 -1.4873  1.0445
14318SOL     OW48789   6.349   1.029   5.769  0.2911 -0.2403  0.4957
14318SOL    HW148790   6.352   1.093   5.841 -0.2855 -0.7369  0.9750
14318SOL    HW248791   6.279   0.968   5.794  0.7206 -0.9673 -0.0288
14319SOL     OW48792   1.098  10.399   9.159 -0.1582 -0.1756 -0.2683
14319SOL    HW148793   1.108  10.488   9.125 -1.4217  0.1102  0.0337
14319SOL    HW248794   1.181  10.356   9.139  1.6894  1.9219  2.1720
14320SOL     OW48795   2.332   9.415   8.786 -0.1594  0.1509  0.0077
14320SOL    HW148796   2.301   9.354   8.720 -1.5427  0.5559  0.2407
14320SOL    HW248797   2.252   9.451   8.825  0.5975  1.9982 -0.0197
14321SOL     OW48798   5.548   3.603   6.664  0.0513 -0.5781  0.7323
14321SOL    HW148799   5.502   3.530   6.706 -0.3113 -0.0629  1.2462
14321SOL    HW248800   5.486   3.636   6.599  1.2097 -2.4201 -1.4719
14322SOL     OW48801   2.128   4.836   5.261  0.7200 -0.3593  0.2469
14322SOL    HW148802   2.166   4.793   5.185  0.4845  0.4080 -0.3121
14322SOL    HW248803   2.176   4.919   5.269 -0.5065  0.4222 -0.1992
14323SOL     OW48804   3.676   1.319   5.009 -0.6027  0.2305  0.1675
14323SOL    HW148805   3.585   1.349   5.004 -0.9672 -0.3715  2.2599
14323SOL    HW248806   3.670   1.227   5.032  0.5615 -0.5539 -2.2786
14324SOL     OW48807   5.846   1.246   2.459  0.1648 -0.1827 -0.1256
14324SOL    HW148808   5.778   1.276   2.399 -1.1826  0.2788  1.5558
14324SOL    HW248809   5.798   1.222   2.539  1.8506 -1.0969  0.6505
14325SOL     OW48810   9.262   7.919   5.025 -0.2024  0.1559 -0.3053
14325SOL    HW148811   9.250   7.883   4.937 -2.4715 -0.1822  0.0794
14325SOL    HW248812   9.322   7.858   5.068 -1.8108 -1.6814 -0.5406
14326SOL     OW48813   8.644   4.851   5.974  0.2219 -0.1110  0.0561
14326SOL    HW148814   8.567   4.808   5.938  0.0297  2.1907 -2.6219
14326SOL    HW248815   8.609   4.909   6.042 -0.2976  0.1067 -0.3893
14327SOL     OW48816   4.384  10.665   8.408  0.0814 -0.0142  0.1389
14327SOL    HW148817   4.382  10.636   8.500  0.7818  0.6389  0.3724
14327SOL    HW248818   4.407  10.757   8.413  0.8268 -0.1403 -0.7336
14328SOL     OW48819   1.399  10.235   1.027  0.1998 -0.7265  0.3631
14328SOL    HW148820   1.444  10.208   0.947  1.2118 -2.8196  1.5174
14328SOL    HW248821   1.468  10.273   1.081 -0.7506  2.0434 -0.2362
14329SOL     OW48822   5.382  10.247   9.424 -0.0157 -0.1330 -0.4154
14329SOL    HW148823   5.431  10.328   9.407 -0.1859  0.0251 -0.1678
14329SOL    HW248824   5.423  10.182   9.368 -0.2274  0.2516 -1.0288
14330SOL     OW48825   3.268   9.435   2.052  0.5387  1.1632  0.0751
14330SOL    HW148826   3.207   9.450   2.124 -0.8830  0.8122 -1.0158
14330SOL    HW248827   3.333   9.505   2.060  1.4996  0.1076  2.7568
14331SOL     OW48828   1.292   8.809   4.896 -0.0335 -0.4270  0.2578
14331SOL    HW148829   1.262   8.801   4.806  0.6729  0.3796 -0.0646
14331SOL    HW248830   1.385   8.831   4.888  0.2557 -1.2316  1.1951
14332SOL     OW48831   2.780   3.395   1.073  0.5814 -0.4280 -0.0790
14332SOL    HW148832   2.788   3.302   1.096 -1.2513  0.0101  2.9915
14332SOL    HW248833   2.687   3.414   1.084  0.6736  1.5161 -2.0344
14333SOL     OW48834   1.760   4.559   9.098 -0.6992 -0.5827 -0.4670
14333SOL    HW148835   1.724   4.554   9.186  1.2633 -1.6102  0.3330
14333SOL    HW248836   1.807   4.476   9.086  0.0045 -0.0072 -2.0511
14334SOL     OW48837   2.397   3.753   9.703  0.0057 -0.0471 -0.0545
14334SOL    HW148838   2.483   3.720   9.731 -0.5818 -2.5020 -0.8607
14334SOL    HW248839   2.350   3.770   9.785  0.5703 -0.6857  0.4205
14335SOL     OW48840   6.787   9.206   4.532  0.3603 -0.0598 -0.2832
14335SOL    HW148841   6.698   9.201   4.498  0.1095 -0.6389  0.4119
14335SOL    HW248842   6.777   9.243   4.620  0.4459 -2.6147  0.9068
14336SOL     OW48843   6.451   0.258   7.740  0.2741 -0.2251  0.2272
14336SOL    HW148844   6.485   0.346   7.756 -1.6200  0.6300 -0.1956
14336SOL    HW248845   6.470   0.210   7.821  2.3952  0.1558  0.0303
14337SOL     OW48846   1.136   2.516   7.253 -0.1949 -0.1461  0.9562
14337SOL    HW148847   1.166   2.595   7.299  0.0985  0.7713 -0.7184
14337SOL    HW248848   1.185   2.516   7.170 -1.5475 -1.0659  0.1122
14338SOL     OW48849  10.634   2.178   2.716 -0.0889 -0.0730 -0.6613
14338SOL    HW148850  10.578   2.248   2.683  1.1053  1.1646 -0.1466
14338SOL    HW248851  10.697   2.162   2.646  0.7570  0.6562 -0.0889
14339SOL     OW48852   2.428   3.594   3.121 -0.1163 -0.3036 -0.4748
14339SOL    HW148853   2.389   3.679   3.143 -0.2693 -0.5391  0.1916
14339SOL    HW248854   2.425   3.545   3.203  0.1310 -0.8928 -0.8161
14340SOL     OW48855   0.766   3.415   8.113  0.0495  0.5705  0.2754
14340SOL    HW148856   0.728   3.327   8.118 -0.0264  0.6459  1.4586
14340SOL    HW248857   0.691   3.474   8.119  0.2173  0.7117  1.0963
14341SOL     OW48858   9.225   8.183   3.382 -0.3817 -0.1900  0.4755
14341SOL    HW148859   9.182   8.109   3.339 -0.2140  0.1773 -0.3422
14341SOL    HW248860   9.186   8.260   3.342 -0.7834  0.1772  1.5558
14342SOL     OW48861   2.132   1.071   7.812 -0.0574  0.2800 -0.4159
14342SOL    HW148862   2.165   0.983   7.791 -1.6305 -0.3842 -0.2569
14342SOL    HW248863   2.163   1.126   7.740  0.0970 -0.6181 -1.0592
14343SOL     OW48864   5.430   7.429   0.893 -0.0671 -0.2515  0.3494
14343SOL    HW148865   5.488   7.353   0.884  0.1329 -0.1224  0.5445
14343SOL    HW248866   5.387   7.436   0.808  0.7172  0.0787 -0.0331
14344SOL     OW48867   5.155   0.704   7.780  0.5490 -0.1848  0.5372
14344SOL    HW148868   5.242   0.706   7.819  0.7481 -0.1390  0.0909
14344SOL    HW248869   5.170   0.719   7.686  0.0409  0.1106  0.4998
14345SOL     OW48870   7.751   0.687  10.062  0.2189 -0.2118  0.0791
14345SOL    HW148871   7.738   0.617   9.998 -0.5726  0.7441 -0.8480
14345SOL    HW248872   7.663   0.712  10.088  0.5300 -0.5953  1.5894
14346SOL     OW48873   0.951   1.627   0.960 -0.3612 -0.1393  0.1110
14346SOL    HW148874   0.857   1.609   0.962  0.0930 -2.7447  0.4427
14346SOL    HW248875   0.985   1.591   1.041  0.8691  1.4511  0.3605
14347SOL     OW48876   0.508   8.669   6.596  0.7287  0.4677 -0.2222
14347SOL    HW148877   0.425   8.622   6.603  0.5445  0.6980 -0.8019
14347SOL    HW248878   0.570   8.604   6.565  0.1829  0.8687 -2.3520
14348SOL     OW48879   5.339   3.674   4.441  0.5748 -0.4685  0.1593
14348SOL    HW148880   5.415   3.732   4.441  0.8712 -0.8585  0.0480
14348SOL    HW248881   5.356   3.611   4.512  0.7167 -1.0282 -0.3667
14349SOL     OW48882   8.620   1.503   1.922  0.4406  0.1151  0.0050
14349SOL    HW148883   8.688   1.571   1.917  1.6027 -1.0318 -0.4011
14349SOL    HW248884   8.638   1.457   2.004  0.5997 -0.6256 -0.4326
14350SOL     OW48885   1.132   5.083  10.172  0.0199  0.1983  0.3328
14350SOL    HW148886   1.151   5.172  10.143 -0.1769  1.1548  2.9037
14350SOL    HW248887   1.192   5.028  10.122  1.5196  1.9830  0.0683
14351SOL     OW48888   8.473   5.329   7.746 -0.2141  0.0633  0.0547
14351SOL    HW148889   8.484   5.257   7.807 -1.4980  0.2097  0.4983
14351SOL    HW248890   8.545   5.320   7.684  1.9551  0.6660  2.3098
14352SOL     OW48891   4.828   8.054   7.119  0.4008  0.4425  0.3016
14352SOL    HW148892   4.827   7.991   7.047 -0.9597  1.1988 -0.4028
14352SOL    HW248893   4.917   8.051   7.153  0.4348 -1.6679  0.1436
14353SOL     OW48894   8.270   8.454   6.816 -0.4710  0.3798 -0.2320
14353SOL    HW148895   8.284   8.359   6.815  2.2035  0.6843 -0.7437
14353SOL    HW248896   8.273   8.476   6.909  0.5647  0.1018 -0.1770
14354SOL     OW48897   4.148   4.805   4.538  0.2280  0.6355  0.4190
14354SOL    HW148898   4.171   4.716   4.563 -0.4412  0.5665  0.7915
14354SOL    HW248899   4.136   4.851   4.621 -0.9902  0.6597  0.2473
14355SOL     OW48900   0.423   5.743   3.802 -0.2402  0.2399 -0.3698
14355SOL    HW148901   0.330   5.745   3.825 -0.9432  2.6062 -2.8972
14355SOL    HW248902   0.432   5.667   3.744 -0.7182  0.3538 -0.5926
14356SOL     OW48903   3.261   6.528   3.125  0.3206  0.2079  0.5447
14356SOL    HW148904   3.277   6.603   3.067 -0.8548 -0.0597 -0.1592
14356SOL    HW248905   3.171   6.541   3.157 -0.5309 -1.7398 -0.8986
14357SOL     OW48906   8.426  10.256   5.661 -0.5175  0.2944 -0.7847
14357SOL    HW148907   8.373  10.293   5.590 -0.4940  1.2895 -0.3072
14357SOL    HW248908   8.516  10.278   5.639 -0.2707 -1.3036 -1.5382
14358SOL     OW48909  10.171   8.328   4.427  0.1237  0.0869 -0.6491
14358SOL    HW148910  10.137   8.243   4.455  0.1389  0.3301  0.1628
14358SOL    HW248911  10.266   8.322   4.439  0.0956  0.3181 -0.2721
14359SOL     OW48912   0.272   2.093   9.240  0.6023 -0.1817  0.5259
14359SOL    HW148913   0.261   2.187   9.227 -0.1950 -0.4660 -1.1305
14359SOL    HW248914   0.188   2.055   9.212  0.8248 -1.3683  1.3921
14360SOL     OW48915   1.509   4.331   6.407 -0.1646  0.4408  0.5358
14360SOL    HW148916   1.494   4.295   6.319  0.2255  1.8519 -0.1383
14360SOL    HW248917   1.532   4.255   6.460 -2.1667 -0.7178 -0.1390
14361SOL     OW48918   0.246   8.952   5.084 -0.0650 -0.5423  0.3658
14361SOL    HW148919   0.187   8.989   5.018  0.0157 -2.0284 -0.6102
14361SOL    HW248920   0.326   9.002   5.076 -1.3520  1.9883  2.1929
14362SOL     OW48921   1.528   2.234   4.053  0.5014  0.0262  0.4610
14362SOL    HW148922   1.621   2.215   4.040  0.6919  1.6954 -1.0975
14362SOL    HW248923   1.504   2.187   4.133  2.3291 -1.5428  0.1519
14363SOL     OW48924   1.092   3.526  10.494 -0.1153  0.1764  0.0487
14363SOL    HW148925   1.136   3.560  10.416 -0.5500 -0.7557 -0.6374
14363SOL    HW248926   1.144   3.450  10.520 -0.5631 -0.1559  0.0079
14364SOL     OW48927   7.674   7.702   9.520  1.0012  0.1940 -0.0608
14364SOL    HW148928   7.723   7.752   9.586  1.4297 -1.5409  1.0122
14364SOL    HW248929   7.737   7.688   9.449  0.8225  1.2769 -0.4609
14365SOL     OW48930   1.488   9.156   8.192 -0.1450 -0.3134 -0.1173
14365SOL    HW148931   1.402   9.199   8.192  0.2136  0.4057  0.3107
14365SOL    HW248932   1.483   9.095   8.118 -1.0754 -0.3908 -0.0140
14366SOL     OW48933   6.411   4.291  10.717  0.2613 -0.6515 -0.2937
14366SOL    HW148934   6.438   4.362  10.658 -2.2164  0.2728 -0.4396
14366SOL    HW248935   6.382   4.336  10.796 -1.5786 -1.4465 -0.4824
14367SOL     OW48936   6.487   0.330  10.264  0.0730  0.5383 -1.0199
14367SOL    HW148937   6.460   0.258  10.208  0.0377 -0.3132  0.0681
14367SOL    HW248938   6.405   0.374  10.288 -0.2962 -1.0678  0.9609
14368SOL     OW48939   2.618  10.644   6.298 -0.2022 -0.1038  0.0615
14368SOL    HW148940   2.661  10.721   6.261  0.7097 -0.6359 -0.0247
14368SOL    HW248941   2.604  10.586   6.223  1.1055 -0.9288  0.4101
14369SOL     OW48942   8.123   5.660   7.853  0.5871  0.3836  0.2163
14369SOL    HW148943   8.152   5.576   7.816 -0.4986  0.0140  0.1616
14369SOL    HW248944   8.080   5.637   7.935 -1.6664  0.5830 -0.8091
14370SOL     OW48945   7.851   0.003   8.204 -0.0256 -1.2259 -0.5588
14370SOL    HW148946   7.756   0.008   8.196 -0.2928 -1.5117  1.6460
14370SOL    HW248947   7.866  -0.037   8.290  2.0920 -1.7006 -1.0773
14371SOL     OW48948   3.611   4.414   7.271 -0.4200 -0.4837  0.1556
14371SOL    HW148949   3.519   4.391   7.284 -0.0517 -3.0143 -1.1098
14371SOL    HW248950   3.611   4.471   7.194 -1.0584  1.2776  1.3901
14372SOL     OW48951   4.063   6.681   3.767  0.2886  0.0705 -0.2329
14372SOL    HW148952   4.044   6.669   3.674  0.9571 -2.4116 -0.1201
14372SOL    HW248953   4.139   6.625   3.783 -0.3274 -0.2155  1.9572
14373SOL     OW48954   7.492   4.622   5.670 -0.6452  0.5940 -0.1686
14373SOL    HW148955   7.522   4.539   5.708 -2.0347 -0.4007 -1.1582
14373SOL    HW248956   7.458   4.671   5.745  1.7132  1.0316  0.7004
14374SOL     OW48957   0.579   5.855   9.276 -0.0459  0.1027 -0.3634
14374SOL    HW148958   0.546   5.855   9.187  0.7877  3.8883 -0.8252
14374SOL    HW248959   0.501   5.849   9.331 -0.9025  1.3895 -1.3884
14375SOL     OW48960   1.328   3.732   8.646  0.1411 -0.1633  0.3516
14375SOL    HW148961   1.317   3.818   8.604  0.7356 -1.0508 -1.7564
14375SOL    HW248962   1.261   3.730   8.714 -0.2068  1.7697  0.1416
14376SOL     OW48963   7.315   1.102   4.421 -0.6622  0.6560  0.3875
14376SOL    HW148964   7.411   1.103   4.418 -0.6846  0.0020 -1.6030
14376SOL    HW248965   7.291   1.195   4.430  0.1281  0.7198  2.4763
14377SOL     OW48966   2.997   9.359  10.589  0.0150  0.2162  0.3297
14377SOL    HW148967   2.971   9.332  10.677 -1.7981 -0.1406 -0.2690
14377SOL    HW248968   3.089   9.385  10.598 -0.3212  0.8635  2.4602
14378SOL     OW48969   1.230   7.758   5.328 -0.0172 -0.4475  0.2458
14378SOL    HW148970   1.186   7.804   5.255 -1.1625 -0.9093  0.6145
14378SOL    HW248971   1.269   7.828   5.380  0.3170 -0.0694 -0.4851
14379SOL     OW48972   4.349  10.631   6.582 -0.2396 -0.1885 -0.0267
14379SOL    HW148973   4.429  10.593   6.619 -0.7809  0.0665  1.4456
14379SOL    HW248974   4.330  10.706   6.637 -1.5498 -0.2978 -0.3021
14380SOL     OW48975   5.705   2.688   5.886  0.2052  0.5502 -0.3841
14380SOL    HW148976   5.701   2.690   5.790  0.3783 -0.7954 -0.4356
14380SOL    HW248977   5.651   2.762   5.914 -1.8446 -0.4407 -1.4799
14381SOL     OW48978   9.987   1.664   6.987 -0.0830 -0.3496  0.5069
14381SOL    HW148979   9.964   1.657   7.080 -0.0944  1.1754  0.6405
14381SOL    HW248980   9.903   1.661   6.941 -0.1311 -0.3619  0.5957
14382SOL     OW48981   5.879   6.649   9.633  0.1784 -0.1398 -0.1680
14382SOL    HW148982   5.953   6.655   9.573 -0.4179 -0.8341 -0.9818
14382SOL    HW248983   5.804   6.633   9.577 -0.3728 -0.9264  0.7774
14383SOL     OW48984  10.594   1.193   0.397  0.4992 -0.3094  0.3991
14383SOL    HW148985  10.508   1.165   0.366  0.1497 -0.3489  1.3592
14383SOL    HW248986  10.578   1.280   0.433  0.6696 -0.6866  1.4013
14384SOL     OW48987   4.102   8.197   5.763  0.3637 -0.8074  0.0684
14384SOL    HW148988   4.171   8.259   5.741  0.9904 -1.8971 -1.1105
14384SOL    HW248989   4.028   8.253   5.789  0.6139  0.4838 -1.7967
14385SOL     OW48990   8.987   2.506   8.043 -0.4524  0.4648  0.4461
14385SOL    HW148991   9.051   2.528   7.975 -0.2962 -0.8006  0.1420
14385SOL    HW248992   8.993   2.577   8.106  0.2544  1.0714 -0.2809
14386SOL     OW48993   3.035   3.694   6.635  0.3227  0.7112 -0.5711
14386SOL    HW148994   3.049   3.787   6.650  1.3553  0.1898  2.3273
14386SOL    HW248995   3.074   3.651   6.711 -0.5627 -2.0735 -1.5604
14387SOL     OW48996   5.727   8.865   6.622  0.4111  0.0089 -0.0667
14387SOL    HW148997   5.774   8.804   6.678 -2.0583 -0.8972  1.1875
14387SOL    HW248998   5.715   8.818   6.539  1.7200  0.2856 -0.4295
14388SOL     OW48999  10.502  10.587  10.524  0.0082  0.4392  0.0666
14388SOL    HW149000  10.501  10.586  10.619 -1.0379 -0.7640  0.0682
14388SOL    HW249001  10.429  10.531  10.498  1.0483 -0.3060 -1.4360
14389SOL     OW49002   6.148   2.269   9.006 -0.1781  0.0938  0.0039
14389SOL    HW149003   6.211   2.202   9.034  0.4848  0.7608  0.1552
14389SOL    HW249004   6.202   2.336   8.966 -0.6625  1.2149  1.1498
14390SOL     OW49005   7.475   9.386   0.608 -0.2179  0.2976  0.3011
14390SOL    HW149006   7.566   9.386   0.639 -0.5804  1.6294  1.4304
14390SOL    HW249007   7.475   9.446   0.534 -0.0291 -0.3578 -0.2467
14391SOL     OW49008   3.979   0.636   0.033  0.4082 -0.2035  0.5303
14391SOL    HW149009   4.004   0.639   0.125  0.1598  1.0206  0.5653
14391SOL    HW249010   3.887   0.607   0.034 -1.1007  3.9341  1.0271
14392SOL     OW49011  10.424   2.184   1.301  0.2536  0.0642 -0.3571
14392SOL    HW149012  10.446   2.259   1.246  1.0419  0.0872 -0.0296
14392SOL    HW249013  10.332   2.197   1.325  0.8050  1.8251  1.0647
14393SOL     OW49014   1.769   4.847  10.093  0.2281 -0.2264 -0.1997
14393SOL    HW149015   1.729   4.929  10.063 -1.4712 -1.4133 -1.4360
14393SOL    HW249016   1.707   4.813  10.158  1.7055  0.1841  1.4810
14394SOL     OW49017   1.476   1.499   1.877 -0.0404 -0.4897  0.2079
14394SOL    HW149018   1.464   1.544   1.960 -0.3239  1.6624 -0.9221
14394SOL    HW249019   1.551   1.441   1.891  0.5757  0.6108  1.6511
14395SOL     OW49020   1.794   1.477   6.738  0.0037  0.0135  0.2130
14395SOL    HW149021   1.869   1.464   6.680 -0.6194 -0.8525 -0.4126
14395SOL    HW249022   1.810   1.417   6.811  0.6949  0.9697  0.8667
14396SOL     OW49023   0.415   7.366   2.145  0.2184  0.1333  0.4375
14396SOL    HW149024   0.455   7.292   2.190 -0.7662 -0.9498 -0.4052
14396SOL    HW249025   0.350   7.326   2.087  0.9119  1.5235 -1.3764
14397SOL     OW49026   7.922   8.379   7.438 -0.3168 -0.8722  0.4242
14397SOL    HW149027   7.892   8.466   7.464  1.2091 -0.7349  1.8414
14397SOL    HW249028   7.972   8.347   7.512 -0.9797 -3.0609  0.0138
14398SOL     OW49029   5.661   2.497   3.167  0.4960 -0.2817 -0.7447
14398SOL    HW149030   5.695   2.572   3.217 -0.6383 -1.0743  1.3407
14398SOL    HW249031   5.627   2.437   3.234 -0.2178 -1.8711 -2.4513
14399SOL     OW49032   3.555   6.215   0.344 -0.4781  0.0614 -0.1294
14399SOL    HW149033   3.490   6.198   0.412 -0.6427  0.4102 -0.1944
14399SOL    HW249034   3.524   6.167   0.267 -0.7458  0.3587 -0.2078
14400SOL     OW49035   2.839   9.660   4.639  0.7610 -0.1946 -0.0136
14400SOL    HW149036   2.775   9.711   4.588  1.0589 -0.9973 -1.2340
14400SOL    HW249037   2.916   9.717   4.642  0.1449  0.6133  1.1284
14401SOL     OW49038   0.107   8.739   7.133  0.3167  0.3416  0.3509
14401SOL    HW149039   0.096   8.660   7.186 -0.2885  0.7081  0.7792
14401SOL    HW249040   0.067   8.716   7.049  0.9100 -0.0976  0.1811
14402SOL     OW49041   6.870   3.472   1.902 -0.1604 -0.1356  0.2899
14402SOL    HW149042   6.909   3.399   1.948 -1.6856 -1.0310  0.2412
14402SOL    HW249043   6.867   3.543   1.967 -1.3389 -1.0551  1.2972
14403SOL     OW49044   0.147   8.702   1.791  0.1422  0.8380  0.2406
14403SOL    HW149045   0.084   8.638   1.822 -1.3533  2.1806  0.0961
14403SOL    HW249046   0.105   8.743   1.715  1.9087  0.6068 -0.9168
14404SOL     OW49047   6.444   6.814   5.337  0.9066 -0.1582  0.5391
14404SOL    HW149048   6.488   6.738   5.298  1.7073 -0.3952  1.8796
14404SOL    HW249049   6.392   6.777   5.408 -0.7049  0.2535 -0.3627
14405SOL     OW49050   7.029   0.726   7.451  0.0808  0.3428 -0.0033
14405SOL    HW149051   7.013   0.791   7.520 -0.2453  0.8674 -0.5618
14405SOL    HW249052   7.008   0.642   7.492 -0.2412  0.6620  0.5025
14406SOL     OW49053   9.610   4.533   7.235 -0.3645  0.0430 -0.0791
14406SOL    HW149054   9.619   4.563   7.144 -2.3766  1.2103  0.0326
14406SOL    HW249055   9.691   4.560   7.277 -0.0937  1.0325 -1.1540
14407SOL     OW49056   2.537   3.961   3.564  0.0907 -0.2212 -0.1256
14407SOL    HW149057   2.562   4.026   3.498  0.4265  0.6097  0.7879
14407SOL    HW249058   2.472   3.906   3.520 -1.0362  1.4117 -0.6006
14408SOL     OW49059   7.608   5.055   4.583 -0.0277 -0.2895 -0.7954
14408SOL    HW149060   7.653   5.012   4.510 -0.2902 -2.1353  0.0695
14408SOL    HW249061   7.666   5.128   4.607  0.3674 -0.0446 -2.4186
14409SOL     OW49062   1.633   4.199   4.728  0.5730  0.6725  0.2821
14409SOL    HW149063   1.701   4.170   4.788  1.9987  2.5094 -0.3362
14409SOL    HW249064   1.573   4.251   4.782 -0.8424 -1.5192  0.9699
14410SOL     OW49065   7.959  10.383   6.102  0.0462 -0.1593 -0.2185
14410SOL    HW149066   8.046  10.414   6.079  1.0492 -2.5742  0.0579
14410SOL    HW249067   7.934  10.434   6.179  1.1117  0.6985 -0.4212
14411SOL     OW49068   4.717   1.746   6.299  0.0397  0.2210  0.0482
14411SOL    HW149069   4.691   1.831   6.335  3.0647  1.5970 -0.6593
14411SOL    HW249070   4.739   1.693   6.375  0.4351  0.9393  0.4455
14412SOL     OW49071  10.650   4.417   9.927 -0.2223 -0.2501 -0.0501
14412SOL    HW149072  10.702   4.341   9.899  0.2734  0.4736 -1.1620
14412SOL    HW249073  10.668   4.426  10.020 -0.9417 -1.9991  0.3041
14413SOL     OW49074  10.133   9.087   7.636 -0.3747 -0.1188 -0.7388
14413SOL    HW149075  10.116   9.180   7.618 -0.6955  0.7436  3.1270
14413SOL    HW249076  10.048   9.051   7.659  0.2902 -0.1116  2.1367
14414SOL     OW49077   8.330   7.429   5.065  0.0153  0.4823 -0.0347
14414SOL    HW149078   8.302   7.460   5.151  0.4642 -1.0667  0.6973
14414SOL    HW249079   8.348   7.509   5.015 -2.5848  1.4817  0.4831
14415SOL     OW49080   8.390   5.436   8.083  0.3715 -0.0529  0.0914
14415SOL    HW149081   8.296   5.418   8.074  0.2615  0.3511  0.4168
14415SOL    HW249082   8.426   5.417   7.996 -0.3359  1.7298 -0.6428
14416SOL     OW49083   4.636   4.152   5.409 -0.0553 -0.3193 -0.2931
14416SOL    HW149084   4.567   4.139   5.344 -0.1438  1.2525 -0.5554
14416SOL    HW249085   4.654   4.246   5.406 -0.8434  0.0381  2.7615
14417SOL     OW49086   4.156   8.782   0.964 -0.0970  0.3574 -0.0344
14417SOL    HW149087   4.244   8.761   0.931 -0.5443 -0.3922 -0.7764
14417SOL    HW249088   4.097   8.758   0.892 -0.8899  1.1724  0.3290
14418SOL     OW49089   5.958   4.207   3.988 -0.2717 -0.5290 -0.7698
14418SOL    HW149090   5.991   4.185   4.076  0.3920 -0.0843 -0.9012
14418SOL    HW249091   5.963   4.302   3.983  1.6063 -0.6427 -1.9996
14419SOL     OW49092   1.349   1.710   2.622 -0.4017  0.1971  0.1824
14419SOL    HW149093   1.311   1.797   2.635  2.3161  1.9794 -2.5469
14419SOL    HW249094   1.355   1.672   2.710 -0.5427  3.2791  1.6256
14420SOL     OW49095   8.581   5.338   0.905 -0.3645  0.2527  0.0003
14420SOL    HW149096   8.604   5.309   0.817  1.0718 -0.9245  0.7249
14420SOL    HW249097   8.486   5.353   0.901  0.0629  3.2846 -2.5567
14421SOL     OW49098   1.880  10.114   5.626  0.1867 -0.2762 -0.0208
14421SOL    HW149099   1.894  10.077   5.714 -1.2448 -2.2807 -0.5553
14421SOL    HW249100   1.794  10.156   5.632  0.2262 -0.1427 -0.3745
14422SOL     OW49101   9.120   3.727   9.949  0.7727  0.4214  0.2783
14422SOL    HW149102   9.167   3.782   9.887  0.7780 -2.7636 -2.8053
14422SOL    HW249103   9.151   3.638   9.932 -0.9234 -0.9369  3.3535
14423SOL     OW49104  10.178   4.279   5.273  0.6605 -0.3729 -0.3901
14423SOL    HW149105  10.201   4.187   5.259  2.4978 -0.1108  0.6014
14423SOL    HW249106  10.214   4.299   5.359 -2.0458  0.5728  0.6359
14424SOL     OW49107   3.468   9.267   3.554 -0.1320 -0.2180 -0.1368
14424SOL    HW149108   3.486   9.274   3.648 -0.8169  0.6353 -0.0588
14424SOL    HW249109   3.471   9.357   3.523 -2.2903 -0.2108 -0.4770
14425SOL     OW49110  10.105   3.424   7.906  0.3419  0.2295 -0.1691
14425SOL    HW149111  10.093   3.336   7.871 -2.2437 -0.4056  2.0337
14425SOL    HW249112  10.181   3.417   7.965  0.9583 -0.1560 -0.9908
14426SOL     OW49113   9.302   9.367   8.062  0.3127  0.3311  0.0968
14426SOL    HW149114   9.212   9.335   8.052  0.1309  0.8984 -0.1673
14426SOL    HW249115   9.340   9.312   8.130 -0.3487  0.3025  0.4540
14427SOL     OW49116   6.892   2.552   8.474 -0.3919 -0.4288 -0.7569
14427SOL    HW149117   6.879   2.486   8.406 -3.4069  0.6479 -1.3495
14427SOL    HW249118   6.818   2.540   8.534  1.0699 -0.0054  1.2443
14428SOL     OW49119   9.731   4.725   4.941 -0.4461 -0.0249  0.3150
14428SOL    HW149120   9.658   4.762   4.991 -0.7184  0.1670 -0.2205
14428SOL    HW249121   9.748   4.640   4.983 -0.7310  0.0929  0.6733
14429SOL     OW49122   7.003   0.437  10.575 -0.0128 -0.1271 -0.1479
14429SOL    HW149123   6.955   0.460  10.655 -0.6260  1.1343 -0.8470
14429SOL    HW249124   7.095   0.448  10.598 -0.2195  1.2862  0.0998
14430SOL     OW49125   5.158   5.477   2.614  0.6225  0.0799  0.1703
14430SOL    HW149126   5.065   5.495   2.606  0.7807  0.5677 -0.6222
14430SOL    HW249127   5.179   5.421   2.539  0.6105 -1.5721  1.3363
14431SOL     OW49128   5.419   8.024   9.255 -0.1227  0.4339  0.4032
14431SOL    HW149129   5.443   8.116   9.269  2.4313 -0.0863 -0.1928
14431SOL    HW249130   5.435   8.008   9.162  0.9379 -0.9929  0.7936
14432SOL     OW49131   7.164   7.015   5.435 -0.4533  0.0753  0.1563
14432SOL    HW149132   7.182   7.039   5.526  0.3527 -0.1527  0.0631
14432SOL    HW249133   7.171   7.097   5.387 -0.1054  0.0681  0.1907
14433SOL     OW49134   0.965   7.251   0.519  0.5422  0.0076 -0.5033
14433SOL    HW149135   1.005   7.325   0.473  2.2527 -0.2610  0.4657
14433SOL    HW249136   0.941   7.190   0.450 -1.3325  1.6212 -1.3694
14434SOL     OW49137   6.278   9.514   5.463 -0.5292 -0.2533 -1.3303
14434SOL    HW149138   6.263   9.422   5.486  0.7723 -0.0258  0.6725
14434SOL    HW249139   6.289   9.514   5.368  2.0720 -2.5948 -1.1456
14435SOL     OW49140   0.027   6.470   6.303  0.0492  0.6252 -0.0311
14435SOL    HW149141  -0.062   6.502   6.285 -0.2672  1.2463  2.2098
14435SOL    HW249142   0.048   6.508   6.389  2.9038  1.3443 -0.9541
14436SOL     OW49143   6.634   6.748   8.225  0.1272  0.0192 -0.0098
14436SOL    HW149144   6.686   6.823   8.196  0.3221 -1.0036 -2.5856
14436SOL    HW249145   6.544   6.781   8.227  0.2485  0.4115 -0.7781
14437SOL     OW49146   9.694   5.484   9.760 -0.2408  0.0270  0.3386
14437SOL    HW149147   9.615   5.510   9.807 -0.1645 -1.1174  1.1406
14437SOL    HW249148   9.714   5.559   9.703 -0.7012  1.1962  1.6617
14438SOL     OW49149   5.335   7.685   8.175  0.1675 -0.1193 -0.3552
14438SOL    HW149150   5.278   7.628   8.227  0.4893  0.3257  0.5139
14438SOL    HW249151   5.299   7.682   8.087  1.2802 -3.2030 -0.8110
14439SOL     OW49152   5.400   5.828   5.288  0.1311 -0.3319  0.1000
14439SOL    HW149153   5.330   5.774   5.324 -0.2063 -0.3597 -0.5767
14439SOL    HW249154   5.444   5.771   5.224 -1.6503  0.8256 -2.3137
14440SOL     OW49155   9.867   3.637   3.827 -0.0401  0.1802  0.5097
14440SOL    HW149156   9.947   3.672   3.866  1.3344  0.3044 -2.2214
14440SOL    HW249157   9.826   3.712   3.785 -0.3009 -0.3414 -0.1796
14441SOL     OW49158   7.523   4.813   0.418 -0.6936 -0.2977  0.5141
14441SOL    HW149159   7.476   4.807   0.501 -0.0703 -1.5939  0.7886
14441SOL    HW249160   7.454   4.820   0.352 -1.1936  2.3911  1.2034
14442SOL     OW49161   5.611   4.206   2.886 -0.8218 -0.2450  0.5987
14442SOL    HW149162   5.591   4.181   2.976 -1.5147  0.1871  0.5640
14442SOL    HW249163   5.577   4.294   2.876 -1.0908 -0.4301 -0.2052
14443SOL     OW49164   0.353   8.670   4.344  0.0620 -0.4063 -0.0596
14443SOL    HW149165   0.257   8.678   4.340  0.1361  2.2567  1.1859
14443SOL    HW249166   0.380   8.738   4.406  2.7435 -1.4861  0.0745
14444SOL     OW49167   1.952   3.216   8.601 -0.3357  0.0526  0.1399
14444SOL    HW149168   1.883   3.261   8.650 -0.0543 -0.8945  1.4885
14444SOL    HW249169   2.026   3.214   8.662  0.1097 -0.9802 -0.4164
14445SOL     OW49170   0.885   4.016  10.368 -0.1814  0.1128  0.2185
14445SOL    HW149171   0.832   4.002  10.289  0.3520  0.1687 -0.1569
14445SOL    HW249172   0.866   3.941  10.424 -1.4012  0.6208  0.5154
14446SOL     OW49173   9.817  10.268  10.692 -0.1365 -0.3254 -0.0738
14446SOL    HW149174   9.817  10.344  10.750 -1.3052 -0.4550  0.1167
14446SOL    HW249175   9.749  10.287  10.628 -2.0102 -2.1389  1.2545
14447SOL     OW49176   2.205   2.567   9.021 -0.2840 -0.1793  0.1721
14447SOL    HW149177   2.269   2.525   8.964 -0.3328  0.2244 -0.1902
14447SOL    HW249178   2.214   2.522   9.104 -0.7433 -1.2817 -0.3664
14448SOL     OW49179   1.485   9.277  10.097 -0.6756  0.4829  0.2000
14448SOL    HW149180   1.441   9.268  10.012 -1.3510 -1.6223  0.6914
14448SOL    HW249181   1.413   9.286  10.159 -0.1536  3.0491  0.5074
14449SOL     OW49182   7.846   4.362   5.659 -0.4818  0.3627 -0.1430
14449SOL    HW149183   7.844   4.344   5.565 -0.0980 -2.6188  0.3074
14449SOL    HW249184   7.888   4.447   5.667 -0.2183  0.5338 -2.6502
14450SOL     OW49185   5.492   3.165   8.529  0.2422  0.0867 -0.4955
14450SOL    HW149186   5.541   3.108   8.589 -0.0483  0.5707  0.2157
14450SOL    HW249187   5.416   3.193   8.579 -0.1760  0.2529 -1.2062
14451SOL     OW49188   8.085   6.720   6.317  0.8347  0.6707 -0.0119
14451SOL    HW149189   8.095   6.635   6.272  0.9244  1.0186 -0.6587
14451SOL    HW249190   8.012   6.706   6.377 -0.4916  0.7157 -1.5445
14452SOL     OW49191   2.125   6.029   7.824 -0.2545  0.0258  0.1480
14452SOL    HW149192   2.149   5.938   7.841  2.7479  0.4375 -1.2905
14452SOL    HW249193   2.120   6.036   7.729 -2.1348  1.0386  0.2670
14453SOL     OW49194   7.688   4.029   3.154  0.2147  0.1751  0.3156
14453SOL    HW149195   7.664   3.950   3.106  0.0839 -0.2021  0.9950
14453SOL    HW249196   7.784   4.030   3.151  0.1990  0.9633 -1.2332
14454SOL     OW49197   2.976   4.327   2.320 -0.4564  0.8479 -0.0316
14454SOL    HW149198   3.058   4.355   2.360 -1.0050  1.5491  0.6299
14454SOL    HW249199   2.968   4.235   2.345  0.9110  0.2822 -1.4663
14455SOL     OW49200   4.331   0.421   7.983 -0.1846  0.4331  0.0639
14455SOL    HW149201   4.345   0.339   8.030  0.4646  1.3286  1.5208
14455SOL    HW249202   4.416   0.466   7.988 -0.6778  1.4282 -0.2117
14456SOL     OW49203   7.809   6.430   7.180  0.2377  0.2388 -0.1623
14456SOL    HW149204   7.798   6.428   7.085 -0.3136 -0.4290 -0.0933
14456SOL    HW249205   7.736   6.483   7.212  1.6449  2.3687 -0.2414
14457SOL     OW49206   1.912   9.197   4.470  0.0359  0.0470  0.7006
14457SOL    HW149207   1.847   9.129   4.492 -0.8990  0.1891 -1.3379
14457SOL    HW249208   1.933   9.180   4.378  2.4244  0.4408  1.1249
14458SOL     OW49209   5.364   8.581   1.878  0.0310  0.2318 -0.1061
14458SOL    HW149210   5.383   8.596   1.970  1.1397 -0.6665 -0.1770
14458SOL    HW249211   5.444   8.608   1.832 -1.1517  2.5126 -1.0169
14459SOL     OW49212   2.900   8.105   3.834  0.0633  0.5866 -0.3927
14459SOL    HW149213   2.816   8.146   3.815  1.1352  1.9699 -2.4879
14459SOL    HW249214   2.965   8.162   3.791  2.0344 -0.6858  0.7535
14460SOL     OW49215  10.244   2.620   8.546  0.3662  0.0178 -0.1471
14460SOL    HW149216  10.278   2.653   8.463  0.9893  0.6337  0.3428
14460SOL    HW249217  10.301   2.659   8.613 -0.0153 -0.6085  0.5600
14461SOL     OW49218   2.248   8.756   9.963  0.3472 -0.3877 -0.0747
14461SOL    HW149219   2.244   8.671  10.008 -0.4833 -0.5864 -0.5119
14461SOL    HW249220   2.190   8.746   9.888  1.9701 -0.1766 -1.4182
14462SOL     OW49221   8.932  10.219   8.820 -0.2993 -0.2892  0.1288
14462SOL    HW149222   8.957  10.175   8.901 -0.1659 -0.9867 -0.2915
14462SOL    HW249223   9.015  10.238   8.776 -0.3460  0.4856  0.3489
14463SOL     OW49224   1.522   5.914   1.585 -0.3656 -0.6718  0.2213
14463SOL    HW149225   1.446   5.905   1.528  0.0002  1.2981 -0.6800
14463SOL    HW249226   1.593   5.872   1.536 -0.5704 -1.2189  0.3908
14464SOL     OW49227   1.006   9.692   4.143  0.1869 -0.0338  0.1462
14464SOL    HW149228   1.032   9.621   4.084 -0.5753 -0.2100  0.0133
14464SOL    HW249229   0.984   9.649   4.225 -2.2645 -0.2339 -0.5316
14465SOL     OW49230   4.108   7.190   0.318  0.0639 -0.2522 -0.8334
14465SOL    HW149231   4.147   7.149   0.241  0.2208 -1.6855 -0.0191
14465SOL    HW249232   4.017   7.161   0.318  0.5412 -1.9304  0.5668
14466SOL     OW49233   1.215   4.248   0.081  0.2921  0.4491  0.3884
14466SOL    HW149234   1.306   4.241   0.054  0.4089  0.9049  0.6586
14466SOL    HW249235   1.218   4.273   0.173 -0.1101 -1.1404  0.8746
14467SOL     OW49236   7.823   2.766   1.341  0.2290  0.0130 -0.5826
14467SOL    HW149237   7.899   2.788   1.395 -1.3782  1.2170  1.3165
14467SOL    HW249238   7.773   2.703   1.393 -0.9787  0.6139 -0.9777
14468SOL     OW49239   2.970   4.055   1.014  0.0692 -0.0823  0.1276
14468SOL    HW149240   2.985   3.966   0.981  2.0531 -0.9368  2.9596
14468SOL    HW249241   3.032   4.109   0.965  1.1084 -0.8469  0.5588
14469SOL     OW49242  10.630   7.588   5.882 -0.2629 -0.5582 -0.4225
14469SOL    HW149243  10.629   7.658   5.947 -1.4068 -0.0547 -0.9648
14469SOL    HW249244  10.639   7.633   5.798 -0.5818 -1.0877 -0.7477
14470SOL     OW49245   1.542   9.987   9.072 -0.6249 -0.2502 -0.0526
14470SOL    HW149246   1.545   9.908   9.019 -1.6050 -0.2707 -0.1009
14470SOL    HW249247   1.555   9.957   9.162 -1.1545 -0.4920 -0.0525
14471SOL     OW49248   8.202   5.859   2.997  0.3702  1.0327 -0.1262
14471SOL    HW149249   8.125   5.882   2.945  0.8481  0.9265 -0.8903
14471SOL    HW249250   8.166   5.832   3.081 -0.5761 -0.7989 -1.0681
14472SOL     OW49251   3.889   5.542   7.591 -0.3813  0.3923 -0.6572
14472SOL    HW149252   3.918   5.633   7.599 -1.3148  0.6642 -0.1589
14472SOL    HW249253   3.795   5.545   7.611 -0.7634 -0.4406 -2.1561
14473SOL     OW49254   2.440   6.373   1.141  0.1118  0.2009 -0.2194
14473SOL    HW149255   2.380   6.416   1.079  0.2459  1.3115  0.3897
14473SOL    HW249256   2.522   6.422   1.133  0.9274 -1.2378 -0.9649
14474SOL     OW49257   4.090   8.960   1.150  0.1234  0.7754 -0.3416
14474SOL    HW149258   4.129   9.036   1.108  2.1659  0.1481  0.3252
14474SOL    HW249259   4.115   8.886   1.094 -1.4067  0.4986 -0.7081
14475SOL     OW49260   1.283   4.084   7.843 -0.3044 -0.5836 -0.2071
14475SOL    HW149261   1.248   4.040   7.920 -1.5759 -0.2222 -0.5658
14475SOL    HW249262   1.366   4.123   7.873 -1.0828  0.0843  1.1516
14476SOL     OW49263   9.260  10.153   7.398  0.3279 -0.6743  0.0045
14476SOL    HW149264   9.341  10.159   7.347  0.9307  1.1190  1.1048
14476SOL    HW249265   9.191  10.144   7.333  1.2727 -0.7424 -1.0120
14477SOL     OW49266   9.358   2.673   1.181 -0.0198 -0.2866  0.0024
14477SOL    HW149267   9.378   2.759   1.142  0.1477  1.9061  4.3448
14477SOL    HW249268   9.444   2.634   1.197  0.0207 -0.0430  0.3931
14478SOL     OW49269  10.333   9.247   9.880  0.2330 -0.3539  0.0376
14478SOL    HW149270  10.338   9.317   9.945  0.7019 -0.0282 -0.3368
14478SOL    HW249271  10.317   9.168   9.931 -1.7104  0.1895  0.3597
14479SOL     OW49272   0.846   1.846   0.601  0.1587  0.0363  0.2524
14479SOL    HW149273   0.908   1.918   0.612  0.7457 -0.4947  0.4850
14479SOL    HW249274   0.879   1.777   0.659  1.1628 -1.4309 -1.9439
14480SOL     OW49275   3.400   5.774   7.952  0.5989  0.1642 -0.1666
14480SOL    HW149276   3.331   5.767   8.018 -0.5480  0.4355 -1.3064
14480SOL    HW249277   3.434   5.862   7.962 -0.5836  0.7212 -0.8848
14481SOL     OW49278   4.814   3.797   2.068 -0.0097  0.1216  0.2291
14481SOL    HW149279   4.808   3.852   2.146  0.1245 -2.1145  1.9035
14481SOL    HW249280   4.887   3.834   2.018  0.6766  0.9001  1.7520
14482SOL     OW49281   2.190   4.454  10.585  0.1903  0.0003  0.1788
14482SOL    HW149282   2.285   4.467  10.577  0.2335 -0.7399 -0.6430
14482SOL    HW249283   2.158   4.535  10.624  1.2394  0.0229  1.0477
14483SOL     OW49284   3.053   3.243   1.241 -0.0715 -0.9720 -0.3528
14483SOL    HW149285   3.071   3.152   1.264 -0.8254 -1.2669 -0.9021
14483SOL    HW249286   2.960   3.255   1.261 -0.2434 -0.6467 -1.3143
14484SOL     OW49287   9.349   4.354   4.828  0.4448 -0.0701 -0.6519
14484SOL    HW149288   9.402   4.328   4.903 -0.0407  0.8489  0.0388
14484SOL    HW249289   9.293   4.424   4.862 -1.0697 -0.8780 -1.4053
14485SOL     OW49290   9.274   1.860   7.572  0.3653 -0.1801 -0.0950
14485SOL    HW149291   9.227   1.776   7.568  0.4089 -0.1873 -0.4715
14485SOL    HW249292   9.250   1.896   7.657 -0.3383 -0.1752 -0.2866
14486SOL     OW49293   9.874   9.699   3.623 -0.0081 -0.1660  0.0310
14486SOL    HW149294   9.962   9.672   3.652  0.6088  1.4498 -0.2339
14486SOL    HW249295   9.843   9.755   3.694  0.0698  0.9783 -0.8086
14487SOL     OW49296   1.865   1.276   3.412 -0.1922 -1.0472 -0.1390
14487SOL    HW149297   1.843   1.184   3.394 -0.1703 -0.7890 -1.5919
14487SOL    HW249298   1.960   1.280   3.403 -0.2921 -0.6781 -1.1675
14488SOL     OW49299   7.241   6.777   5.906  0.2959  0.0143 -0.4717
14488SOL    HW149300   7.238   6.696   5.956 -2.2947  1.2356  1.6095
14488SOL    HW249301   7.188   6.759   5.828 -3.2683  0.5053  1.6135
14489SOL     OW49302   4.731   2.824   7.431  0.1433 -0.0818  0.2170
14489SOL    HW149303   4.676   2.855   7.359 -0.1645  0.8236  0.8211
14489SOL    HW249304   4.670   2.816   7.505  0.4748 -0.9059  0.4106
14490SOL     OW49305   5.728   9.965   3.798  0.2342  0.7099  0.4375
14490SOL    HW149306   5.689   9.892   3.847 -0.0431  0.6836  0.1753
14490SOL    HW249307   5.659   9.994   3.739  1.0335 -0.1971 -0.9876
14491SOL     OW49308   8.475   2.098   1.386  0.1726 -0.1377  0.3052
14491SOL    HW149309   8.455   2.129   1.298 -0.3334  0.1913  0.5338
14491SOL    HW249310   8.541   2.159   1.419 -0.7630  0.6567  0.7241
14492SOL     OW49311   3.552   2.766   1.244 -0.1672  0.2964 -0.6161
14492SOL    HW149312   3.510   2.852   1.245 -0.5725  0.0967 -0.3052
14492SOL    HW249313   3.569   2.746   1.336 -0.0289  0.0674 -0.6917
14493SOL     OW49314   5.744   6.744   4.062 -0.0764  0.2212  0.6561
14493SOL    HW149315   5.729   6.779   3.974  0.3122  1.7145  1.1687
14493SOL    HW249316   5.831   6.704   4.056 -0.0300  0.3569  0.3689
14494SOL     OW49317  10.233   4.121   6.738  0.0723 -0.2582 -0.1062
14494SOL    HW149318  10.297   4.122   6.667  1.1034 -0.0801  0.8017
14494SOL    HW249319  10.217   4.028   6.755 -0.2815 -0.3016 -0.6470
14495SOL     OW49320   9.928   0.468   8.220  0.1298 -0.5062  0.4601
14495SOL    HW149321   9.986   0.445   8.293  0.9143  2.9844  1.1258
14495SOL    HW249322   9.983   0.521   8.162 -1.3528 -0.5292 -1.0329
14496SOL     OW49323   3.496   9.612   4.963  0.1130 -0.6202 -0.3200
14496SOL    HW149324   3.411   9.654   4.950  0.4715  0.2180 -0.0720
14496SOL    HW249325   3.541   9.621   4.879  0.6519  0.6139  0.0743
14497SOL     OW49326   8.587   9.604   3.077 -0.7335 -0.8057  0.1554
14497SOL    HW149327   8.507   9.553   3.073 -1.3682  0.1944 -0.4387
14497SOL    HW249328   8.562   9.691   3.045  0.2654 -0.0690  1.2540
14498SOL     OW49329   2.027   0.459   1.316  0.2464  0.7828 -0.9507
14498SOL    HW149330   2.106   0.451   1.264 -0.8463  1.3289 -2.8066
14498SOL    HW249331   1.986   0.372   1.312  0.5749  0.5971 -0.2936
14499SOL     OW49332   7.351   8.327   2.601 -0.1190 -0.0472 -0.3302
14499SOL    HW149333   7.395   8.245   2.622 -1.4274 -0.7519 -0.2696
14499SOL    HW249334   7.355   8.378   2.682 -1.3019 -0.9905  0.3509
14500SOL     OW49335   7.561   2.796   6.388 -0.1619  0.0639  0.2082
14500SOL    HW149336   7.545   2.888   6.408 -0.9715 -0.3190  1.4202
14500SOL    HW249337   7.620   2.766   6.458 -1.0911 -0.6925  0.7045
14501SOL     OW49338   9.413   9.643   5.468 -0.3378  0.4820 -0.0233
14501SOL    HW149339   9.428   9.732   5.500  0.2873  0.4999 -0.3620
14501SOL    HW249340   9.451   9.642   5.380 -2.2122  0.4992 -0.8833
14502SOL     OW49341   9.328   2.007   1.865  0.0850 -0.0479 -0.6003
14502SOL    HW149342   9.261   2.069   1.834  0.7715  0.7417 -0.5311
14502SOL    HW249343   9.410   2.055   1.857  0.6704 -1.0547 -0.8108
14503SOL     OW49344   6.734   3.736   4.016 -0.7797 -0.2454 -0.5325
14503SOL    HW149345   6.741   3.812   4.074  0.5960 -0.9694  0.3044
14503SOL    HW249346   6.782   3.761   3.937  0.3559 -0.5024  0.0569
14504SOL     OW49347   6.212   7.293   1.077  0.3322 -0.2958 -0.2268
14504SOL    HW149348   6.202   7.202   1.048 -1.7186 -0.6699  1.3974
14504SOL    HW249349   6.173   7.345   1.006 -0.1957 -0.8220 -0.3285
14505SOL     OW49350   6.096   0.731   7.399  0.3261  0.4907  0.4566
14505SOL    HW149351   6.118   0.638   7.398  0.3902  0.5069  0.3758
14505SOL    HW249352   6.068   0.751   7.310  0.2220  0.5275  0.4975
14506SOL     OW49353   6.778   1.045   4.797 -0.5494  0.2536  0.7990
14506SOL    HW149354   6.779   0.996   4.715 -3.6637  2.3546 -0.6887
14506SOL    HW249355   6.860   1.095   4.796 -0.7638  0.6735 -1.4069
14507SOL     OW49356   7.412   7.290   1.687  0.3817 -0.1655  0.3892
14507SOL    HW149357   7.490   7.311   1.738  0.2435  0.2041  0.4535
14507SOL    HW249358   7.348   7.358   1.711  0.1213 -0.3269  0.1629
14508SOL     OW49359   4.978   8.757  10.367 -0.7016  0.4655 -0.2322
14508SOL    HW149360   4.921   8.724  10.297  2.1932 -2.0572 -1.6448
14508SOL    HW249361   5.036   8.819  10.324 -0.1475  0.3781  0.3764
14509SOL     OW49362   7.795   7.050   8.677  0.0423  0.2412  0.3804
14509SOL    HW149363   7.711   7.079   8.639  0.1247 -0.6943 -0.5958
14509SOL    HW249364   7.817   7.116   8.742 -0.7097  1.3106 -0.4187
14510SOL     OW49365   7.873   1.088   6.906  0.4908 -0.5620 -0.4187
14510SOL    HW149366   7.906   1.110   6.993 -1.8165 -0.0557  0.4074
14510SOL    HW249367   7.905   1.159   6.850  2.5148 -1.2182 -0.1788
14511SOL     OW49368   8.796  10.005   0.177 -0.6035  0.7252  0.0967
14511SOL    HW149369   8.708   9.975   0.155 -0.0404 -0.7694 -0.1914
14511SOL    HW249370   8.854   9.935   0.148  0.5833  1.0166  1.6020
14512SOL     OW49371   6.603   5.320   1.629  0.1184 -0.2729 -0.3493
14512SOL    HW149372   6.518   5.306   1.587 -0.8260  0.8193  1.0733
14512SOL    HW249373   6.637   5.232   1.645 -1.7626 -0.8345  0.9661
14513SOL     OW49374   4.709   4.996   8.476  0.1696 -0.0253  0.1816
14513SOL    HW149375   4.635   4.991   8.416  0.6216 -1.3764 -0.2944
14513SOL    HW249376   4.673   4.965   8.560  0.3712 -1.4338 -0.2380
14514SOL     OW49377   7.309   5.766   5.626  0.2540  0.2373  0.0066
14514SOL    HW149378   7.224   5.785   5.587 -0.4313 -2.4528  0.0149
14514SOL    HW249379   7.289   5.737   5.715  1.1078 -1.0059 -0.1830
14515SOL     OW49380   3.195   9.099   4.087  0.1794  0.2219 -0.1614
14515SOL    HW149381   3.151   9.014   4.088  2.5265 -1.1512 -1.7221
14515SOL    HW249382   3.256   9.095   4.161  1.7857 -0.4139 -1.4534
14516SOL     OW49383   6.719   4.062   8.217  0.7281 -0.4350 -0.3965
14516SOL    HW149384   6.769   4.130   8.262  0.5651 -0.2787 -0.4471
14516SOL    HW249385   6.742   4.071   8.125  1.4344 -1.0732 -0.2935
14517SOL     OW49386   9.545   6.171   1.472  0.3343  0.3249 -0.2546
14517SOL    HW149387   9.501   6.255   1.461  1.1795  0.6091 -1.6249
14517SOL    HW249388   9.628   6.192   1.513  0.0874  0.0117  0.4347
14518SOL     OW49389  10.096   1.197   2.161 -0.2267 -0.1394 -0.6053
14518SOL    HW149390  10.032   1.263   2.135  0.7848  0.7899 -0.7971
14518SOL    HW249391  10.142   1.175   2.081 -0.6142 -1.1782 -0.5625
14519SOL     OW49392   8.863   0.119   5.094 -0.5528 -0.0542  0.1102
14519SOL    HW149393   8.897   0.086   5.011 -3.0111 -2.3032 -0.1349
14519SOL    HW249394   8.845   0.041   5.146  0.4291  1.2733  2.6468
14520SOL     OW49395  10.032   1.053   8.214  0.2126  0.6215  0.8263
14520SOL    HW149396  10.030   0.958   8.226  0.2742  0.6870  1.4166
14520SOL    HW249397  10.110   1.069   8.161 -0.4676  0.2477 -0.3158
14521SOL     OW49398   5.975   6.905   4.967 -0.2232  0.0859  0.6961
14521SOL    HW149399   5.969   6.857   4.884  0.6402  0.6284  0.2990
14521SOL    HW249400   6.021   6.844   5.026 -0.4965 -0.1550  0.6641
14522SOL     OW49401   5.233   3.225   8.636  0.0539 -0.0559 -0.1245
14522SOL    HW149402   5.228   3.151   8.576  0.4675  0.0855 -0.3388
14522SOL    HW249403   5.178   3.199   8.710 -0.0300 -0.4578 -0.3210
14523SOL     OW49404   8.219   9.271  10.110 -0.1977  0.1830 -0.1944
14523SOL    HW149405   8.243   9.298  10.198 -0.4942 -0.1384 -0.0122
14523SOL    HW249406   8.275   9.323  10.052 -0.1261  0.5189  0.1763
14524SOL     OW49407   8.286   2.482   5.976 -0.0455  0.8004 -0.3223
14524SOL    HW149408   8.259   2.487   6.067  2.2204  1.3593  0.3869
14524SOL    HW249409   8.272   2.390   5.952  0.6449  0.2998  1.0618
14525SOL     OW49410   9.710   2.327   0.834  0.2022 -0.1690 -0.5178
14525SOL    HW149411   9.775   2.388   0.868  0.5686  0.2111 -1.8444
14525SOL    HW249412   9.638   2.332   0.896  0.9506  0.2865  0.3420
14526SOL     OW49413   9.668   9.687   2.567 -0.1972  0.0367 -0.0965
14526SOL    HW149414   9.581   9.651   2.587  0.1193 -1.6167 -1.4564
14526SOL    HW249415   9.667   9.703   2.473  0.9580  0.0260 -0.1317
14527SOL     OW49416  10.565   1.340   2.944 -0.6927 -0.2708  0.5010
14527SOL    HW149417  10.599   1.417   2.899 -2.3608  0.6821  0.7731
14527SOL    HW249418  10.577   1.269   2.881 -2.9438  1.0146 -1.6116
14528SOL     OW49419   1.144   1.027   3.418  0.2659  0.0923 -0.1089
14528SOL    HW149420   1.134   1.111   3.373 -0.3110  0.3880  0.5453
14528SOL    HW249421   1.235   1.026   3.446  0.4868  0.1432 -0.7994
14529SOL     OW49422   3.224   6.891   7.239  0.4732  0.1872  0.5021
14529SOL    HW149423   3.281   6.967   7.224  3.3829 -1.7292  0.9835
14529SOL    HW249424   3.282   6.825   7.276 -2.4000 -1.5944  2.1971
14530SOL     OW49425   7.764   4.673   4.126 -0.0116  0.2782  0.0441
14530SOL    HW149426   7.715   4.754   4.137  1.4634  1.1173  0.8780
14530SOL    HW249427   7.743   4.622   4.204 -3.2067 -1.5234 -1.7824
14531SOL     OW49428   4.169   4.540   4.558 -0.4783 -0.1714 -0.5662
14531SOL    HW149429   4.215   4.480   4.617 -1.6802 -0.7275 -0.1661
14531SOL    HW249430   4.092   4.491   4.529  1.6083 -1.2633 -5.2446
14532SOL     OW49431   2.250   1.735   1.806 -0.3838 -0.2855  0.0972
14532SOL    HW149432   2.176   1.747   1.747 -0.6256 -1.0712  0.2205
14532SOL    HW249433   2.277   1.823   1.830  0.5301  0.1209 -2.1595
14533SOL     OW49434   7.403   9.283   2.325 -0.2242  0.2395  0.0764
14533SOL    HW149435   7.467   9.313   2.389 -0.2118  1.7918 -0.5986
14533SOL    HW249436   7.323   9.332   2.346 -0.5403 -0.0461 -0.4126
14534SOL     OW49437  10.435   3.359   3.007 -0.2782  0.3775  0.5962
14534SOL    HW149438  10.438   3.408   2.925 -3.0879  1.2165  0.8920
14534SOL    HW249439  10.489   3.411   3.068 -1.0332  1.6909  0.1857
14535SOL     OW49440   8.044   7.965   2.254  0.0014 -0.1140  0.1548
14535SOL    HW149441   8.114   7.942   2.315  0.2232  0.5856  0.1731
14535SOL    HW249442   7.964   7.942   2.300  0.2388 -1.8808 -0.2707
14536SOL     OW49443   2.235   6.618   9.828 -0.3979 -0.0501  0.0873
14536SOL    HW149444   2.253   6.655   9.915  0.5387 -0.7997  0.2378
14536SOL    HW249445   2.195   6.533   9.846 -1.0834  0.1946 -0.2378
14537SOL     OW49446   4.555   9.274   0.151 -0.2757 -0.1660  0.0687
14537SOL    HW149447   4.546   9.367   0.128 -0.2478  0.0720  0.9674
14537SOL    HW249448   4.493   9.229   0.094 -0.4412  0.4251 -0.2353
14538SOL     OW49449   3.835   8.840   6.157 -0.5536 -0.0153 -0.2975
14538SOL    HW149450   3.769   8.788   6.203 -2.0034  2.3380  0.4582
14538SOL    HW249451   3.917   8.795   6.174 -1.5928 -1.4889  1.1286
14539SOL     OW49452   0.746   8.206   4.863 -0.0364  0.0220  0.0572
14539SOL    HW149453   0.713   8.228   4.776 -0.7201  0.6751  0.4691
14539SOL    HW249454   0.796   8.283   4.891  1.2571 -0.6739 -0.2579
14540SOL     OW49455   5.421   0.346   1.754 -0.1649 -0.1906 -0.0587
14540SOL    HW149456   5.415   0.286   1.680  0.5275  0.8405 -0.9796
14540SOL    HW249457   5.508   0.384   1.747 -1.0660  1.9465 -0.3384
14541SOL     OW49458   2.915   9.140  10.406 -1.0804 -0.1315 -0.1494
14541SOL    HW149459   2.925   9.201  10.479 -1.4658 -1.6583  1.2308
14541SOL    HW249460   2.832   9.096  10.422 -1.7421  0.2633 -2.1529
14542SOL     OW49461   6.066   5.500   3.145  0.3042 -0.1846 -0.3723
14542SOL    HW149462   6.005   5.535   3.081  1.6295 -1.3082 -2.3555
14542SOL    HW249463   6.042   5.407   3.154  0.5718 -0.2050  0.2408
14543SOL     OW49464   7.185   1.856   5.843  0.0341  0.0080 -0.2090
14543SOL    HW149465   7.163   1.937   5.889 -2.1991  1.0226 -2.7922
14543SOL    HW249466   7.280   1.847   5.854  0.0545  1.8443  1.8082
14544SOL     OW49467   3.489   9.809   6.039 -0.1185 -0.2392  0.5610
14544SOL    HW149468   3.466   9.885   5.984  1.0489 -0.1599  0.1502
14544SOL    HW249469   3.445   9.825   6.122 -0.2594  0.6710  0.3227
14545SOL     OW49470   1.423   1.304   6.477 -0.6605  0.0476  0.2511
14545SOL    HW149471   1.329   1.293   6.459 -0.5935  0.9235 -0.7551
14545SOL    HW249472   1.455   1.358   6.404  0.3727  0.8198  1.2346
14546SOL     OW49473   2.487   0.568   6.619  0.0595  0.2483 -0.2531
14546SOL    HW149474   2.510   0.481   6.588  0.8160 -0.4328  1.9871
14546SOL    HW249475   2.479   0.558   6.714 -3.0822  1.9116 -0.1908
14547SOL     OW49476   1.328   7.075  10.670 -0.4909  0.1338  0.2284
14547SOL    HW149477   1.374   7.097  10.750 -0.4652  0.9017  0.0099
14547SOL    HW249478   1.280   7.155  10.647  0.1434  0.2038 -0.9541
14548SOL     OW49479   5.138   7.738   3.407 -0.3516 -0.2695 -0.1685
14548SOL    HW149480   5.094   7.719   3.324 -0.9006 -1.1764  0.3291
14548SOL    HW249481   5.224   7.696   3.399 -0.1087  0.2816 -0.5619
14549SOL     OW49482   0.206   2.927   7.537 -0.1799 -0.3080 -0.7452
14549SOL    HW149483   0.131   2.986   7.548 -0.5866 -1.1472  1.2777
14549SOL    HW249484   0.278   2.986   7.514 -0.6027  1.0260  1.0774
14550SOL     OW49485   8.730   8.005   2.406  0.1914  0.0353  0.1015
14550SOL    HW149486   8.659   7.945   2.429  0.6531 -0.1497  1.1221
14550SOL    HW249487   8.731   8.069   2.477  1.1897 -0.1155  0.2431
14551SOL     OW49488   6.705   4.190   7.643  0.0979 -0.3846 -0.0868
14551SOL    HW149489   6.649   4.205   7.567  1.7026 -1.0604 -1.4727
14551SOL    HW249490   6.693   4.268   7.697  0.5873  1.2085 -2.1397
14552SOL     OW49491   0.885   5.018  10.186  0.2569 -0.4319  0.0336
14552SOL    HW149492   0.874   4.936  10.236 -0.2602  0.3249  1.2223
14552SOL    HW249493   0.978   5.022  10.166  0.7311 -0.1846  2.0449
14553SOL     OW49494   5.685  10.014   5.290 -0.1476 -0.5341 -0.4883
14553SOL    HW149495   5.739  10.083   5.329  0.3039 -1.6285  0.8871
14553SOL    HW249496   5.745   9.966   5.233  0.1223 -1.1823  0.3269
14554SOL     OW49497   2.963   5.006   1.852 -0.0059  0.5987 -0.1104
14554SOL    HW149498   2.944   4.978   1.941  0.5874  0.0764 -0.1437
14554SOL    HW249499   2.939   4.931   1.797  0.2869  0.6590 -0.3245
14555SOL     OW49500   9.329   1.549   4.312 -0.8364 -0.2705 -0.1579
14555SOL    HW149501   9.330   1.640   4.282  0.3677  0.5261  2.0941
14555SOL    HW249502   9.333   1.555   4.407  0.3301 -2.7002  0.0157
14556SOL     OW49503   8.985   8.000   4.012 -0.0831 -0.8226 -0.0011
14556SOL    HW149504   8.916   7.935   4.024 -0.6131 -0.2647  0.0930
14556SOL    HW249505   9.025   8.009   4.099 -0.5827 -0.4143  0.1981
14557SOL     OW49506   1.353  10.710   4.660  0.1438 -0.2604  0.3704
14557SOL    HW149507   1.278  10.768   4.663 -1.3614 -2.0999  0.5404
14557SOL    HW249508   1.341  10.652   4.736  3.0824  0.9101  1.8838
14558SOL     OW49509   2.738  10.468   8.415  0.2955  0.1442  0.1445
14558SOL    HW149510   2.742  10.421   8.332 -1.0827  1.5527 -0.7898
14558SOL    HW249511   2.754  10.402   8.482  0.6145 -1.1887 -1.2051
14559SOL     OW49512   3.633   8.272   3.857 -0.4973  0.9878  0.7270
14559SOL    HW149513   3.570   8.292   3.789  0.3125  1.5734  0.1222
14559SOL    HW249514   3.584   8.223   3.923 -0.7794 -1.6232 -1.2957
14560SOL     OW49515   2.341   4.103   0.071  0.0428  0.1205  0.4357
14560SOL    HW149516   2.357   4.011   0.090  1.1785 -0.2094 -1.8181
14560SOL    HW249517   2.400   4.151   0.130  0.2545 -0.6140  0.8317
14561SOL     OW49518   3.259   3.377   5.854  0.6556 -0.8952 -0.1788
14561SOL    HW149519   3.169   3.357   5.878  0.9775 -2.0516  0.1064
14561SOL    HW249520   3.287   3.442   5.919 -0.3582  0.4409 -1.0346
14562SOL     OW49521   4.175   1.788   5.277 -0.1067  0.1466  0.1507
14562SOL    HW149522   4.171   1.880   5.252 -0.2265  0.0658 -0.1300
14562SOL    HW249523   4.100   1.775   5.334 -0.6490 -0.0053 -0.5798
14563SOL     OW49524   4.183  10.098   3.499 -0.1882  0.2885  0.2061
14563SOL    HW149525   4.194  10.059   3.412  1.2309  0.6446  0.2013
14563SOL    HW249526   4.272  10.119   3.527 -0.6856  0.7831  1.4727
14564SOL     OW49527   4.498   0.886   3.059  0.3918  0.3937  0.0765
14564SOL    HW149528   4.440   0.825   3.105  1.4971 -0.5798  0.2492
14564SOL    HW249529   4.586   0.859   3.087  1.0626  0.2367 -2.0577
14565SOL     OW49530   3.089   6.159   5.833 -0.1747  0.7018  0.5393
14565SOL    HW149531   2.996   6.168   5.855 -0.6098 -1.8745  0.0599
14565SOL    HW249532   3.091   6.152   5.738  0.2820 -0.8765  0.6321
14566SOL     OW49533   4.392   3.136   4.655 -0.9677 -0.0507 -0.1836
14566SOL    HW149534   4.434   3.128   4.569 -0.0623 -0.3862  0.2769
14566SOL    HW249535   4.337   3.214   4.647  0.9936  1.4012 -0.3101
14567SOL     OW49536   7.061   3.023   6.423  0.1550  0.0877  0.3069
14567SOL    HW149537   7.113   2.944   6.408  1.8535  1.1777  0.2007
14567SOL    HW249538   7.000   3.026   6.349  0.3043 -0.9078  0.1220
14568SOL     OW49539  10.641   7.936  10.581 -0.2703 -0.7060 -0.5815
14568SOL    HW149540  10.648   7.872  10.652  0.8295  0.1532  0.1317
14568SOL    HW249541  10.695   7.901  10.511  1.2394 -0.0920  0.2171
14569SOL     OW49542  10.044   0.703   4.522 -0.0230  0.4721 -0.4719
14569SOL    HW149543   9.999   0.712   4.438  0.0087  1.7760 -0.3787
14569SOL    HW249544  10.099   0.626   4.512 -1.3027 -0.3991 -1.0376
14570SOL     OW49545   5.949   7.499   5.414  0.6534 -0.0094 -1.0047
14570SOL    HW149546   5.943   7.566   5.346 -2.3121 -0.2485 -1.1208
14570SOL    HW249547   5.914   7.541   5.493  1.5437 -0.5593 -0.2909
14571SOL     OW49548   0.572   2.229   2.930  0.1431  0.2878  0.0279
14571SOL    HW149549   0.615   2.314   2.934 -0.1354  0.4274  0.0546
14571SOL    HW249550   0.634   2.173   2.883  1.0212  0.0969  1.3631
14572SOL     OW49551   8.963   6.857   8.409 -0.5217  0.1017  0.0017
14572SOL    HW149552   8.957   6.763   8.390 -1.6942  0.5442 -2.0900
14572SOL    HW249553   9.054   6.869   8.437 -0.2084 -1.5808 -0.1512
14573SOL     OW49554   1.562   7.035   8.474  0.8090 -0.3432 -0.7935
14573SOL    HW149555   1.628   7.096   8.507  0.8314 -1.3898  1.1880
14573SOL    HW249556   1.505   7.090   8.419  1.7203  1.1250 -0.3221
14574SOL     OW49557   7.505   0.475   7.332  0.0792 -0.1867 -0.2752
14574SOL    HW149558   7.593   0.458   7.364  0.0493  0.6076  0.2689
14574SOL    HW249559   7.479   0.556   7.376  0.4257  1.5754 -3.0305
14575SOL     OW49560   4.653  10.262   3.693  0.6102  0.3781 -0.1842
14575SOL    HW149561   4.700  10.277   3.611  0.3442 -1.6921 -0.7763
14575SOL    HW249562   4.645  10.349   3.732 -0.4477  1.6745 -2.9897
14576SOL     OW49563   3.901   9.400   0.162  0.4260  0.6209  0.0590
14576SOL    HW149564   3.996   9.406   0.154  0.2826  4.0257 -0.6698
14576SOL    HW249565   3.868   9.407   0.072 -0.5220  2.3853  0.4997
14577SOL     OW49566   3.157   6.447   2.255  0.1494  0.3573 -0.4684
14577SOL    HW149567   3.114   6.531   2.240  0.9763  0.7759 -0.5390
14577SOL    HW249568   3.086   6.383   2.251 -0.4972  1.0513 -0.3679
14578SOL     OW49569   1.529   9.108   5.085  0.1906  0.7986 -0.6859
14578SOL    HW149570   1.523   9.156   5.167 -0.8211  0.6523 -0.6619
14578SOL    HW249571   1.620   9.079   5.081 -0.2230 -1.0916  1.4885
14579SOL     OW49572   8.018   2.605   2.257  0.6484  0.0472 -0.0032
14579SOL    HW149573   8.109   2.590   2.284  0.4507 -0.4837  0.3778
14579SOL    HW249574   8.018   2.583   2.164  0.8319 -0.3125  0.0780
14580SOL     OW49575   3.422   2.818   8.017  0.6367  0.2188 -0.5208
14580SOL    HW149576   3.443   2.725   8.008 -2.5625 -0.6202 -0.4203
14580SOL    HW249577   3.383   2.842   7.933  0.1510  1.0810 -0.0683
14581SOL     OW49578   6.062   7.915   2.880  0.0699 -0.1385  0.0071
14581SOL    HW149579   6.115   7.990   2.906  2.3672 -1.8161  0.4205
14581SOL    HW249580   6.012   7.894   2.959  0.7352 -0.0972  0.4488
14582SOL     OW49581   4.027   6.595  10.159  0.8515 -0.3116 -0.0903
14582SOL    HW149582   4.043   6.633  10.073 -0.8417 -0.7875 -0.6619
14582SOL    HW249583   4.088   6.640  10.218  1.6775  0.3824 -1.4401
14583SOL     OW49584   9.735   4.001   5.894 -0.1889  0.1613  0.2917
14583SOL    HW149585   9.771   3.912   5.888  0.7049  0.6171 -2.5259
14583SOL    HW249586   9.806   4.058   5.865 -0.9993  1.7502  1.3049
14584SOL     OW49587   6.196   1.002   3.702 -0.0951  0.0193 -0.1635
14584SOL    HW149588   6.119   0.961   3.663 -0.1922 -0.2641  0.3094
14584SOL    HW249589   6.268   0.982   3.642  0.0618 -1.7193  0.5303
14585SOL     OW49590   7.736   5.186   9.281  1.0800  0.1112 -1.1824
14585SOL    HW149591   7.774   5.263   9.324  0.5004 -1.1488  1.8479
14585SOL    HW249592   7.811   5.130   9.259  1.2920 -0.5327  1.0007
14586SOL     OW49593   2.769   8.818   2.676 -0.2729  0.3782 -0.5762
14586SOL    HW149594   2.832   8.812   2.605  1.0246  0.0772  0.5588
14586SOL    HW249595   2.733   8.729   2.685  0.4045  0.1421 -0.1302
14587SOL     OW49596   2.866   2.066   3.791 -0.1513  0.2277 -0.1187
14587SOL    HW149597   2.836   2.026   3.709  1.4637  0.7260 -0.9940
14587SOL    HW249598   2.950   2.106   3.769  0.9048 -0.6279  2.0658
14588SOL     OW49599   2.322   6.131   4.153 -0.0931 -0.0387 -0.3027
14588SOL    HW149600   2.323   6.068   4.082  0.9769 -0.4452  0.0559
14588SOL    HW249601   2.305   6.215   4.111 -0.3812 -0.4006 -0.9158
14589SOL     OW49602   8.599   5.416   3.621 -0.4178 -0.0169 -0.2065
14589SOL    HW149603   8.633   5.331   3.592  0.6444 -0.3161  1.7538
14589SOL    HW249604   8.636   5.479   3.558  1.2164 -0.7021  0.0095
14590SOL     OW49605   8.280   0.230   3.506  0.2614  0.4417  0.0087
14590SOL    HW149606   8.216   0.291   3.542 -0.6743 -0.1670 -0.6085
14590SOL    HW249607   8.231   0.174   3.447  1.2458 -0.4441 -0.0091
14591SOL     OW49608   1.259   8.937   1.561  0.3190  0.5385 -0.6926
14591SOL    HW149609   1.174   8.945   1.518  0.2984 -0.4850 -0.8499
14591SOL    HW249610   1.322   8.934   1.488  0.2615 -1.5211 -0.7014
14592SOL     OW49611   8.553  10.062   7.024 -0.2914 -0.2350  0.2826
14592SOL    HW149612   8.616   9.992   7.036 -1.5125 -1.3304  0.5590
14592SOL    HW249613   8.525  10.084   7.113 -0.2921  0.2431  0.1651
14593SOL     OW49614   7.151   4.287   6.656  0.4764  0.2239  0.0121
14593SOL    HW149615   7.213   4.217   6.679  0.0398 -0.2170 -0.1329
14593SOL    HW249616   7.081   4.242   6.609  1.0938  1.0220 -1.7733
14594SOL     OW49617   0.162   0.106   6.158 -0.0617  0.0601 -0.3864
14594SOL    HW149618   0.252   0.111   6.192 -0.5977 -0.9878  1.3510
14594SOL    HW249619   0.170   0.127   6.065  1.7573  1.5005  0.0224
14595SOL     OW49620   4.598   6.700   6.900 -0.4919 -0.6662 -0.2982
14595SOL    HW149621   4.651   6.632   6.859 -0.1365 -1.0184  0.7055
14595SOL    HW249622   4.584   6.765   6.832  0.8342 -0.7988 -0.7151
14596SOL     OW49623   1.489   4.110   2.808 -0.8756  0.5281 -0.0992
14596SOL    HW149624   1.577   4.077   2.790 -1.0626 -0.3380  0.4990
14596SOL    HW249625   1.432   4.059   2.751 -1.0516  0.6477 -0.0317
14597SOL     OW49626   4.855   7.549   9.795 -0.2648 -0.0036 -0.1714
14597SOL    HW149627   4.815   7.503   9.722  2.0278 -1.9242 -0.3087
14597SOL    HW249628   4.922   7.604   9.756 -0.2015  0.3080  0.3575
14598SOL     OW49629   5.232   5.166   7.518 -0.0370  0.4602 -0.7868
14598SOL    HW149630   5.270   5.159   7.605 -1.3230  0.5263 -0.1837
14598SOL    HW249631   5.298   5.212   7.465  1.1343 -0.4055 -0.1080
14599SOL     OW49632   7.470   1.264   3.378 -0.4275 -0.1776  0.0668
14599SOL    HW149633   7.484   1.255   3.472  2.4645 -1.4945 -0.3719
14599SOL    HW249634   7.516   1.345   3.355 -1.0643  0.1024 -0.2186
14600SOL     OW49635   2.759   9.206   5.263  0.3111 -0.2644 -0.9224
14600SOL    HW149636   2.724   9.117   5.266  1.4335 -0.6952  0.5400
14600SOL    HW249637   2.688   9.258   5.226 -1.5327 -1.2457  1.0211
14601SOL     OW49638   3.358   1.137   5.498  0.4811  0.1253 -0.0756
14601SOL    HW149639   3.401   1.051   5.503 -0.5836 -0.3437  1.3687
14601SOL    HW249640   3.303   1.131   5.420 -2.0464 -1.7399  1.6771
14602SOL     OW49641   7.673   3.557   5.418 -0.2152 -0.2818  0.0377
14602SOL    HW149642   7.710   3.493   5.479 -0.2698 -0.8304 -0.4957
14602SOL    HW249643   7.663   3.509   5.336 -0.5328  0.3324 -0.2900
14603SOL     OW49644   7.720   6.241   0.175 -0.1596 -0.1964 -0.4423
14603SOL    HW149645   7.686   6.204   0.094  2.0748 -0.2644 -1.4021
14603SOL    HW249646   7.654   6.218   0.241 -1.2341 -1.5638 -1.9152
14604SOL     OW49647   7.182   0.477   5.755 -0.3202  0.6338 -0.5367
14604SOL    HW149648   7.142   0.559   5.786  0.2430  0.8180 -0.2905
14604SOL    HW249649   7.247   0.504   5.691 -0.9713  0.2930 -1.3671
14605SOL     OW49650   2.056   9.232   1.316  0.1087  0.0293 -0.2858
14605SOL    HW149651   2.120   9.217   1.386 -0.9124 -0.8725  0.4891
14605SOL    HW249652   1.972   9.238   1.362 -0.6753 -1.3004 -1.4801
14606SOL     OW49653   6.078   9.267   7.465  0.9676  0.4705  1.0914
14606SOL    HW149654   5.987   9.259   7.434  1.9093 -2.8433 -1.4482
14606SOL    HW249655   6.117   9.333   7.407  1.1143 -1.1847 -0.8344
14607SOL     OW49656   6.511  10.145   7.897 -0.4085  0.0774 -0.2140
14607SOL    HW149657   6.562  10.140   7.816  0.6071  0.6256  0.3633
14607SOL    HW249658   6.529  10.062   7.942 -0.5183  0.0120 -0.2910
14608SOL     OW49659   9.485   0.806   8.761  0.3747 -0.1446 -0.3131
14608SOL    HW149660   9.440   0.890   8.750  0.4878 -0.2159 -1.4106
14608SOL    HW249661   9.424   0.753   8.811 -0.1803  0.2174 -0.5929
14609SOL     OW49662   4.100   6.764   3.214 -0.6464 -0.1093  0.4947
14609SOL    HW149663   4.192   6.752   3.190 -0.5048  1.2432  0.2792
14609SOL    HW249664   4.097   6.849   3.258 -1.8027 -0.0993  0.4440
14610SOL     OW49665   6.877   3.798   5.326 -0.1015  0.4367  0.0211
14610SOL    HW149666   6.827   3.827   5.250  0.6910 -0.3521 -0.8192
14610SOL    HW249667   6.889   3.704   5.312 -0.4102  0.1761  1.3992
14611SOL     OW49668   3.049   6.207   6.409  0.3563  0.0043 -0.4583
14611SOL    HW149669   3.013   6.148   6.343 -1.7097  1.1500 -0.4266
14611SOL    HW249670   2.994   6.194   6.486 -0.0105  1.7920 -0.3812
14612SOL     OW49671   7.987   0.916   5.476  0.0558 -0.5301  0.0450
14612SOL    HW149672   7.992   0.882   5.565 -0.5627  0.4587  0.4743
14612SOL    HW249673   7.952   0.843   5.425 -0.7993 -0.7038  0.8568
14613SOL     OW49674   9.494   1.612  10.162  0.1702  0.0799  0.2315
14613SOL    HW149675   9.423   1.567  10.115 -0.3367  0.5533  0.5264
14613SOL    HW249676   9.486   1.704  10.134 -0.3857  0.4500  1.5181
14614SOL     OW49677   1.307   8.232   5.093 -0.2332 -0.0456 -0.1792
14614SOL    HW149678   1.398   8.258   5.081  0.0294 -0.4668  0.7930
14614SOL    HW249679   1.256   8.308   5.065  0.3632 -0.2581 -1.9226
14615SOL     OW49680   7.356   0.213   1.966  0.0616 -0.5588  0.1552
14615SOL    HW149681   7.434   0.174   2.006  0.3205  0.0267  0.2337
14615SOL    HW249682   7.315   0.141   1.917  0.4545 -0.9571  0.4078
14616SOL     OW49683   1.931   6.523   5.716  0.1050  0.1508  0.5159
14616SOL    HW149684   1.975   6.544   5.634 -0.9098  0.8332  0.1218
14616SOL    HW249685   1.985   6.456   5.756 -0.3355 -1.6107 -1.6101
14617SOL     OW49686   7.390   2.711  10.179  0.3627  0.5283  0.6012
14617SOL    HW149687   7.313   2.696  10.234 -0.5851 -0.1371 -0.8416
14617SOL    HW249688   7.447   2.638  10.198 -0.1957  0.0106  0.3180
14618SOL     OW49689   2.192   0.664   8.810  0.1523 -0.0921  0.4553
14618SOL    HW149690   2.222   0.672   8.901  0.9355 -0.1083  0.2053
14618SOL    HW249691   2.269   0.635   8.762 -0.4660 -0.8707 -0.0863
14619SOL     OW49692   1.546   0.586   8.381  0.2122  0.2537 -0.2853
14619SOL    HW149693   1.491   0.656   8.416 -1.1548 -0.7069 -0.4487
14619SOL    HW249694   1.533   0.590   8.286  1.3243  0.7307 -0.4348
14620SOL     OW49695   9.558   1.419   8.008  0.2368 -1.1791  0.3423
14620SOL    HW149696   9.592   1.503   8.038 -1.2760 -0.1748 -0.5669
14620SOL    HW249697   9.624   1.386   7.947  1.0327 -0.8499  1.0267
14621SOL     OW49698   4.520   6.071   6.864  0.8159 -0.2259  0.2121
14621SOL    HW149699   4.457   6.079   6.935 -0.1051 -1.2881 -0.4431
14621SOL    HW249700   4.551   6.160   6.849 -0.4494  0.3179  0.6470
14622SOL     OW49701   9.527   1.129  10.007  0.1304  0.6493 -0.1718
14622SOL    HW149702   9.509   1.053  10.063 -1.8100  1.0583 -0.1694
14622SOL    HW249703   9.620   1.146  10.020  0.5979 -1.6260 -0.0591
14623SOL     OW49704  10.291   9.106   2.512  0.1338  0.1485  0.4110
14623SOL    HW149705  10.313   9.195   2.484  2.4964 -0.3293  0.5460
14623SOL    HW249706  10.213   9.083   2.461  0.9967  1.3608 -1.5711
14624SOL     OW49707  10.639   5.100   3.318 -0.8696 -0.3977  0.5686
14624SOL    HW149708  10.571   5.053   3.269 -1.3987 -1.0927  1.9470
14624SOL    HW249709  10.670   5.038   3.384  0.6395  0.1483  0.4146
14625SOL     OW49710   5.306   6.073  10.602  0.7252  0.6743 -0.3296
14625SOL    HW149711   5.322   5.997  10.546 -1.1017  1.6814 -2.3413
14625SOL    HW249712   5.378   6.071  10.665  0.4206 -3.0767  0.1633
14626SOL     OW49713   3.084  10.116   7.592  0.7455 -0.0266 -0.2892
14626SOL    HW149714   3.056  10.031   7.558 -1.7277 -0.3028  2.1097
14626SOL    HW249715   3.089  10.104   7.687  2.5258  1.9693 -0.0414
14627SOL     OW49716   1.940   4.038   4.767 -0.2544 -0.1677  0.0324
14627SOL    HW149717   1.977   3.952   4.746 -1.7041 -1.0364  0.8706
14627SOL    HW249718   1.971   4.095   4.697  0.2007 -1.5152 -0.9175
14628SOL     OW49719   8.967   4.964  10.320  0.1567 -0.0531  0.0462
14628SOL    HW149720   8.961   4.919  10.236  2.1317 -1.3218  0.5255
14628SOL    HW249721   9.042   5.022  10.311  0.6486 -0.5075  1.0389
14629SOL     OW49722   6.893   9.586   4.385 -0.2330 -0.5638 -0.0300
14629SOL    HW149723   6.869   9.653   4.322 -0.2731 -0.6362 -0.0921
14629SOL    HW249724   6.846   9.508   4.357  1.8119 -1.3499 -1.5043
14630SOL     OW49725   5.703   8.384   4.053  0.2142  0.0713 -0.2318
14630SOL    HW149726   5.645   8.313   4.081 -0.7394  0.3880 -1.3038
14630SOL    HW249727   5.787   8.365   4.096 -0.6457 -0.4346  1.3039
14631SOL     OW49728   2.583   6.650   0.585 -0.1948 -0.2565 -0.5492
14631SOL    HW149729   2.538   6.705   0.650  0.7648 -0.9735  0.7722
14631SOL    HW249730   2.581   6.562   0.624 -0.2550 -0.8464 -1.8592
14632SOL     OW49731   4.407  10.493   5.163  0.0962 -0.9536  0.3872
14632SOL    HW149732   4.465  10.498   5.087 -1.8123  0.3349 -1.0719
14632SOL    HW249733   4.455  10.539   5.232  1.7265 -1.8429 -0.0779
14633SOL     OW49734  10.707   2.501   6.243  0.3684 -0.1460  0.3309
14633SOL    HW149735  10.655   2.577   6.214  2.0316  1.2261  0.8127
14633SOL    HW249736  10.642   2.440   6.277 -0.9496  1.4962  0.8957
14634SOL     OW49737   4.037  10.256   3.270 -0.3124 -0.3712  0.2028
14634SOL    HW149738   3.987  10.197   3.326 -0.7707  0.5171  0.7348
14634SOL    HW249739   3.972  10.294   3.211  0.1030 -0.9801 -0.6806
14635SOL     OW49740   8.671   9.087   1.802  0.1095 -0.0685  0.3089
14635SOL    HW149741   8.751   9.136   1.820  0.8178 -1.0723 -0.0522
14635SOL    HW249742   8.601   9.143   1.835  0.9681  0.7340  0.8134
14636SOL     OW49743   8.970   5.973   1.414  0.4654  0.3475 -0.6337
14636SOL    HW149744   9.046   5.942   1.364  2.0154  2.7382  0.0869
14636SOL    HW249745   8.963   6.066   1.392 -1.2815  0.5536  0.5844
14637SOL     OW49746  10.155   5.314   1.174 -0.2047  0.4082  0.4479
14637SOL    HW149747  10.191   5.402   1.169  0.7985 -0.0129 -0.3337
14637SOL    HW249748  10.140   5.299   1.267  0.2235  1.1743  0.6483
14638SOL     OW49749   5.477   9.711   8.525  0.6719 -0.2951  0.0459
14638SOL    HW149750   5.421   9.634   8.529 -0.8662  0.7919  2.5147
14638SOL    HW249751   5.504   9.718   8.434 -0.3003 -2.9137 -0.5103
14639SOL     OW49752   4.544  10.032   0.963 -0.1739 -0.0362  0.1316
14639SOL    HW149753   4.507  10.106   1.011  1.4314 -0.2649  1.8215
14639SOL    HW249754   4.502   9.955   1.002 -0.6924 -0.1152 -0.5620
14640SOL     OW49755   2.429   5.744   8.456  0.6554  0.0985 -0.1186
14640SOL    HW149756   2.456   5.661   8.495 -1.6585 -0.6198  0.0861
14640SOL    HW249757   2.364   5.779   8.516  0.2246  1.1313 -1.1428
14641SOL     OW49758   7.110   0.916   8.777 -0.3165 -0.3068  0.2398
14641SOL    HW149759   7.084   0.895   8.687  0.4149 -0.4990  0.0718
14641SOL    HW249760   7.113   0.831   8.821  0.5383 -0.3508  0.1167
14642SOL     OW49761   3.857   1.814   3.249 -0.2427 -0.7328  0.2495
14642SOL    HW149762   3.804   1.810   3.169 -3.5194  0.0317  2.1926
14642SOL    HW249763   3.837   1.899   3.286  0.4811 -1.4210  2.3311
14643SOL     OW49764   7.852   2.093   7.921 -0.2350  0.2119  0.4675
14643SOL    HW149765   7.832   2.158   7.988 -0.9479  1.8083 -1.1914
14643SOL    HW249766   7.934   2.122   7.882 -0.5972  0.1895 -0.3451
14644SOL     OW49767   6.907   1.513   4.106  0.5649 -0.2804  1.1614
14644SOL    HW149768   6.962   1.437   4.089 -1.1363 -1.3366 -0.0591
14644SOL    HW249769   6.954   1.564   4.172  2.5577 -1.5124  0.7669
14645SOL     OW49770  10.664   8.245   0.491 -0.0341 -0.4721  0.3452
14645SOL    HW149771  10.580   8.214   0.524 -0.6814 -0.6067 -1.3261
14645SOL    HW249772  10.729   8.192   0.536 -1.0068 -2.8542 -0.9047
14646SOL     OW49773   1.012   9.054   3.908  0.5209 -0.2879 -0.5955
14646SOL    HW149774   0.997   9.121   3.975 -0.5756 -0.6554 -0.4477
14646SOL    HW249775   1.020   9.104   3.826 -0.5228  0.0271 -0.5203
14647SOL     OW49776   7.402   4.699   8.208 -0.7087 -0.0902 -0.0470
14647SOL    HW149777   7.485   4.736   8.180 -0.0354 -1.0592  0.6033
14647SOL    HW249778   7.422   4.651   8.288 -2.0536  0.3140  0.5640
14648SOL     OW49779   0.014   1.857   9.404  0.3279  0.8095 -0.2969
14648SOL    HW149780   0.017   1.898   9.317 -0.9182 -1.0912 -1.3003
14648SOL    HW249781  -0.073   1.877   9.438 -0.6456 -1.5227 -1.1675
14649SOL     OW49782   9.000   1.442  10.358 -0.5463  0.8284 -0.0218
14649SOL    HW149783   8.977   1.450  10.451  1.3531 -0.1253  0.5811
14649SOL    HW249784   8.946   1.369  10.327 -0.9070  0.8915  0.4364
14650SOL     OW49785   9.780   4.531   8.662 -0.0111  0.1144 -0.5450
14650SOL    HW149786   9.700   4.573   8.632 -1.4466 -0.3085  2.3303
14650SOL    HW249787   9.756   4.439   8.675  1.5553 -0.4802 -1.5888
14651SOL     OW49788   5.450   3.505   1.240  0.1527 -0.3522  0.1608
14651SOL    HW149789   5.464   3.555   1.161 -1.4100  1.4768  0.9852
14651SOL    HW249790   5.390   3.435   1.214  1.1516 -0.9355 -0.6556
14652SOL     OW49791   2.590   6.898   2.212  0.0665  0.2385 -0.4548
14652SOL    HW149792   2.605   6.858   2.126 -2.6463  1.2566 -1.4846
14652SOL    HW249793   2.554   6.827   2.265  2.2135 -0.5314  0.1097
14653SOL     OW49794   4.598   3.206   2.810  0.0006 -0.2870 -0.1912
14653SOL    HW149795   4.643   3.192   2.894  0.1044 -1.4138 -0.4103
14653SOL    HW249796   4.526   3.143   2.811 -0.8831  0.6996 -0.3442
14654SOL     OW49797   9.931   4.049   8.351  0.6855 -0.1019 -0.2329
14654SOL    HW149798   9.973   4.069   8.267 -0.9607  0.0238 -1.0639
14654SOL    HW249799   9.842   4.025   8.328  0.0290  0.4786  1.5360
14655SOL     OW49800   0.397   9.037   6.103  0.3446  0.3423  0.2235
14655SOL    HW149801   0.397   9.013   6.196 -0.5585  0.1814  0.1910
14655SOL    HW249802   0.467   8.984   6.065  0.1316 -0.2642  0.6490
14656SOL     OW49803   1.997   5.731   3.375 -0.3334  0.2946 -0.4438
14656SOL    HW149804   2.001   5.745   3.470 -1.2685 -1.0477 -0.1720
14656SOL    HW249805   1.968   5.640   3.366  2.4237 -0.5537 -2.0161
14657SOL     OW49806   0.455   2.923   5.430 -0.1887 -0.0408  0.2798
14657SOL    HW149807   0.385   2.942   5.493  0.2135  1.1815  0.3936
14657SOL    HW249808   0.439   2.833   5.402 -0.1848 -0.7552  2.3811
14658SOL     OW49809   3.357   7.888   3.985 -0.6049  0.4905  0.3162
14658SOL    HW149810   3.317   7.887   3.898  0.4737 -0.8867 -0.1860
14658SOL    HW249811   3.386   7.799   3.999  0.8986  1.1108  1.3279
14659SOL     OW49812   4.131   1.862   4.590  0.5547  0.4968 -0.1961
14659SOL    HW149813   4.164   1.925   4.653  0.4609  1.8339 -1.4135
14659SOL    HW249814   4.106   1.786   4.642  0.1465  1.6728  1.4007
14660SOL     OW49815   6.841  10.421   7.834  0.3896  0.3689 -0.0517
14660SOL    HW149816   6.933  10.448   7.824  0.8390 -0.4499  1.4809
14660SOL    HW249817   6.837  10.384   7.922 -1.0911 -0.9485 -0.6358
14661SOL     OW49818   3.468   0.423   8.451  0.5795 -0.1765  0.2637
14661SOL    HW149819   3.454   0.490   8.518 -0.3394 -0.6089  0.5253
14661SOL    HW249820   3.411   0.350   8.478 -0.2998 -0.1289 -1.3081
14662SOL     OW49821   0.033   2.390   3.531  0.6665 -0.7011  0.2525
14662SOL    HW149822   0.101   2.325   3.550  0.8259 -0.4364  0.5800
14662SOL    HW249823   0.026   2.389   3.435  0.1221 -1.7603  0.2852
14663SOL     OW49824   9.159   9.600   0.262  0.1383  0.2928  0.5121
14663SOL    HW149825   9.128   9.521   0.307 -0.3002 -0.1479 -0.5208
14663SOL    HW249826   9.255   9.595   0.268  0.2272 -1.3060 -1.0710
14664SOL     OW49827   6.685   6.427   7.701  0.4168 -0.3812 -0.1822
14664SOL    HW149828   6.679   6.520   7.678 -0.6929 -0.6398 -1.0291
14664SOL    HW249829   6.771   6.400   7.669 -0.0385 -0.0941 -1.7432
14665SOL     OW49830   4.479   8.273   5.131 -0.2753  0.5298 -0.1449
14665SOL    HW149831   4.395   8.302   5.167  0.7900  0.8468  2.2615
14665SOL    HW249832   4.545   8.326   5.175  1.4073 -1.9391  0.5682
14666SOL     OW49833   2.920   1.032   5.142 -0.2159 -0.1447 -0.1068
14666SOL    HW149834   2.902   0.938   5.143 -0.2322 -0.1391  0.3595
14666SOL    HW249835   2.982   1.046   5.213 -0.3178  0.2192 -0.0854
14667SOL     OW49836   5.576  10.021   8.421 -0.4302  0.5645 -0.6786
14667SOL    HW149837   5.608  10.066   8.343  0.9990  0.2527 -0.3043
14667SOL    HW249838   5.577  10.087   8.490  1.2807  0.1138 -0.2247
14668SOL     OW49839   2.844   5.341   5.320 -0.1514 -0.2250  0.0359
14668SOL    HW149840   2.911   5.361   5.255 -1.1969  1.4855 -0.5822
14668SOL    HW249841   2.761   5.352   5.274 -0.8971 -1.2422  1.0643
14669SOL     OW49842  10.669   2.541   2.432  0.5936  0.2207  0.5407
14669SOL    HW149843  10.760   2.515   2.418  0.1518 -0.2761 -1.7331
14669SOL    HW249844  10.654   2.613   2.371 -0.7819 -0.2937  0.2318
14670SOL     OW49845   0.035   7.074  10.116  1.0205  0.6400  0.0582
14670SOL    HW149846   0.078   7.030  10.189  0.5131 -0.7915 -0.4724
14670SOL    HW249847   0.100   7.072  10.045  2.2096  3.6305  0.9247
14671SOL     OW49848   9.543  10.284   8.766 -0.1391 -0.2194 -0.4969
14671SOL    HW149849   9.531  10.208   8.710  2.1397 -0.5759 -0.6005
14671SOL    HW249850   9.497  10.355   8.721 -1.2945 -1.2579 -0.9916
14672SOL     OW49851   3.008   8.365   6.769 -0.1422  0.1897  0.4490
14672SOL    HW149852   3.054   8.446   6.748  0.7195 -0.1746  0.9062
14672SOL    HW249853   3.044   8.338   6.853 -0.1110 -0.9021  0.0948
14673SOL     OW49854   4.332   0.432   4.319 -0.0877  0.0433  0.3134
14673SOL    HW149855   4.271   0.423   4.392 -0.0376 -0.5976  0.2861
14673SOL    HW249856   4.363   0.522   4.324 -1.5987  0.6134 -0.1351
14674SOL     OW49857   0.161   5.751  10.361 -0.0913  0.4260  0.9357
14674SOL    HW149858   0.198   5.780  10.444  0.0675  0.1626  0.9590
14674SOL    HW249859   0.232   5.760  10.298 -0.0953  0.2599  0.9068
14675SOL     OW49860  10.043   5.479   1.712  0.0977  0.9504  0.2011
14675SOL    HW149861   9.996   5.496   1.631  1.3443  0.3413 -0.6790
14675SOL    HW249862  10.098   5.556   1.725  2.1795 -0.1943 -1.2278
14676SOL     OW49863   6.868   4.190   0.261  0.8347 -0.3891 -0.2129
14676SOL    HW149864   6.802   4.233   0.206 -0.2332 -0.4263  0.9883
14676SOL    HW249865   6.866   4.238   0.344  0.5088 -1.9155  0.7154
14677SOL     OW49866   1.286   6.101   1.572  0.5554  0.6045 -0.0401
14677SOL    HW149867   1.352   6.048   1.617 -0.0493 -1.2142 -1.2301
14677SOL    HW249868   1.225   6.127   1.642  1.2603  0.3831  0.6752
14678SOL     OW49869   2.457   4.443   3.126  0.3463  0.0689  0.0888
14678SOL    HW149870   2.405   4.365   3.140 -1.9509  1.5153  0.0928
14678SOL    HW249871   2.519   4.420   3.056  1.0823 -2.2870  1.4137
14679SOL     OW49872   6.309   8.149   7.276 -0.0423 -0.0343 -0.4543
14679SOL    HW149873   6.240   8.120   7.217  0.3421  2.0847 -2.0545
14679SOL    HW249874   6.282   8.236   7.305  0.9265 -0.0638  0.6272
14680SOL     OW49875   6.038  10.308  10.038  0.6868  0.1716  0.2408
14680SOL    HW149876   5.958  10.361  10.044  0.9835  0.5568  0.9282
14680SOL    HW249877   6.008  10.224  10.005  0.0267  0.3959  0.2494
14681SOL     OW49878   1.060   1.095   9.077 -0.6996 -0.2909 -0.1334
14681SOL    HW149879   1.081   1.113   9.169 -3.2049  0.3555  0.3766
14681SOL    HW249880   1.063   1.000   9.069 -0.7925 -0.3724  0.7161
14682SOL     OW49881   9.715   4.343  10.476  0.0599  0.2103 -0.2815
14682SOL    HW149882   9.781   4.412  10.480 -0.4771  0.7059  0.4300
14682SOL    HW249883   9.701   4.318  10.567  0.7725 -1.3787 -0.5723
14683SOL     OW49884  10.219   1.545   2.244 -0.1081 -0.3547  0.2210
14683SOL    HW149885  10.247   1.462   2.283 -0.5327 -0.8226 -0.4542
14683SOL    HW249886  10.249   1.540   2.153 -0.3360  0.1339  0.1186
14684SOL     OW49887   0.462   0.333   7.906  0.2576 -0.5387 -0.4106
14684SOL    HW149888   0.471   0.282   7.987 -0.1679 -0.6935 -0.4618
14684SOL    HW249889   0.439   0.268   7.840  0.3508 -0.3722 -0.6066
14685SOL     OW49890   2.347   2.326   2.714  0.1786 -0.0999 -0.7147
14685SOL    HW149891   2.340   2.231   2.703 -3.0481  0.0347 -0.5018
14685SOL    HW249892   2.329   2.342   2.806 -1.0719  0.8296 -1.0951
14686SOL     OW49893  10.625   9.794   5.630  0.4444  0.2157  0.2378
14686SOL    HW149894  10.546   9.764   5.586  0.8922 -3.1587  1.3979
14686SOL    HW249895  10.692   9.795   5.561 -0.0872  0.7758 -0.2779
14687SOL     OW49896   4.239   4.538   0.417  0.2088  0.0838  0.1996
14687SOL    HW149897   4.301   4.533   0.490  0.1571 -1.4674  0.1782
14687SOL    HW249898   4.292   4.568   0.343  0.6115  0.1409  0.5065
14688SOL     OW49899   5.378   9.403   4.577 -0.6093 -0.7621  0.0911
14688SOL    HW149900   5.337   9.316   4.575 -1.2232 -0.4929  0.7991
14688SOL    HW249901   5.322   9.456   4.520 -0.6297 -0.6601  0.2068
14689SOL     OW49902   1.932   6.694   3.463 -0.1151  0.3790 -0.0082
14689SOL    HW149903   1.952   6.788   3.468  1.6448  0.2407 -2.4611
14689SOL    HW249904   2.000   6.653   3.517 -1.6247  0.5024  2.0929
14690SOL     OW49905   5.844   3.552   3.991  0.8336 -0.0813  0.0766
14690SOL    HW149906   5.849   3.616   4.062 -0.3031 -1.8736  1.9058
14690SOL    HW249907   5.935   3.528   3.973  1.1465 -1.1851  2.5877
14691SOL     OW49908   9.178   3.216   3.761  0.3926 -0.3161 -0.5633
14691SOL    HW149909   9.233   3.206   3.839  0.2889  0.3350 -0.4030
14691SOL    HW249910   9.218   3.288   3.712  2.1358 -2.4450 -2.5528
14692SOL     OW49911   5.494   4.687   5.241  0.1640  0.4490  0.0681
14692SOL    HW149912   5.419   4.701   5.299  0.6083 -0.0007  0.7659
14692SOL    HW249913   5.541   4.770   5.241 -0.6032  0.8991 -0.7828
14693SOL     OW49914   0.476   9.875   9.515  0.3996 -0.0203  0.2469
14693SOL    HW149915   0.398   9.886   9.570 -0.4296  0.4692 -0.9790
14693SOL    HW249916   0.524   9.803   9.556 -1.5662 -1.5021  0.1276
14694SOL     OW49917   2.527  10.182   4.329  0.2545  0.7144  0.7393
14694SOL    HW149918   2.484  10.131   4.398 -1.1988 -0.2735 -0.8153
14694SOL    HW249919   2.513  10.131   4.250  0.3266  2.6924 -0.6110
14695SOL     OW49920   3.456   3.263   2.079  0.1578 -0.4223 -0.1272
14695SOL    HW149921   3.470   3.209   2.157 -0.4176 -0.4072 -0.0108
14695SOL    HW249922   3.514   3.224   2.013 -0.2276 -1.1800 -0.0364
14696SOL     OW49923   6.183   3.597   8.592 -0.1865  0.1649 -0.2111
14696SOL    HW149924   6.216   3.678   8.631 -2.4117  1.1131 -0.1601
14696SOL    HW249925   6.152   3.545   8.667 -1.7425  0.7148 -0.4346
14697SOL     OW49926   9.831   5.232   8.796  0.6360 -0.4636  0.2851
14697SOL    HW149927   9.864   5.145   8.817 -1.0356 -1.2026  0.0462
14697SOL    HW249928   9.760   5.216   8.732 -0.8242  0.8927  1.4749
14698SOL     OW49929   6.983   4.210   9.422 -0.3728 -0.3935 -0.5608
14698SOL    HW149930   7.050   4.274   9.444 -1.0567  0.0806  0.1937
14698SOL    HW249931   7.024   4.125   9.439  0.1719 -0.1240 -0.5180
14699SOL     OW49932   1.991   0.398   4.286 -0.3340  0.7535  0.1148
14699SOL    HW149933   1.966   0.456   4.214 -0.1214  0.6417 -0.0512
14699SOL    HW249934   1.971   0.448   4.365  0.4097  1.2968 -0.0327
14700SOL     OW49935   0.866   3.377   2.178  0.6975 -0.2971 -0.0773
14700SOL    HW149936   0.913   3.438   2.121  1.2325 -0.7560 -0.1332
14700SOL    HW249937   0.851   3.300   2.124 -1.2325  0.2976 -0.4604
14701SOL     OW49938   7.165   0.664   5.505 -0.1128  0.5964 -0.2862
14701SOL    HW149939   7.183   0.689   5.415 -0.1056 -0.0356 -0.4642
14701SOL    HW249940   7.250   0.637   5.540 -0.4398 -0.9984 -0.6828
14702SOL     OW49941   0.531   2.039   7.830 -0.2389  0.3000 -0.2768
14702SOL    HW149942   0.551   2.127   7.800  0.7387  0.8220  1.7069
14702SOL    HW249943   0.613   1.991   7.820 -0.6257 -0.2435 -0.8660
14703SOL     OW49944   6.974   5.345   8.692  0.4692  0.0779 -0.2043
14703SOL    HW149945   6.962   5.365   8.600  0.9130  0.0817 -0.2648
14703SOL    HW249946   7.006   5.427   8.731  2.4421 -0.5056 -0.4818
14704SOL     OW49947   0.705   4.434   5.646  0.2473  0.4688 -0.1077
14704SOL    HW149948   0.639   4.492   5.683  0.7930 -0.3777  2.3640
14704SOL    HW249949   0.758   4.406   5.721  3.1102  0.6787 -1.8814
14705SOL     OW49950   7.741  10.311   7.643  0.1448 -0.1335 -0.3502
14705SOL    HW149951   7.829  10.348   7.641 -0.0117  0.2673  0.0653
14705SOL    HW249952   7.749  10.228   7.595  0.7297 -0.0730 -0.3678
14706SOL     OW49953   4.329   2.883   8.178  0.2463 -0.3134 -0.2485
14706SOL    HW149954   4.305   2.961   8.128 -0.2815 -1.1459 -1.3315
14706SOL    HW249955   4.276   2.889   8.258 -1.0941 -0.4188 -1.0979
14707SOL     OW49956   1.783   4.783   5.414 -0.1701  0.0810  0.4315
14707SOL    HW149957   1.786   4.818   5.325  1.5354  0.8468  0.7338
14707SOL    HW249958   1.842   4.841   5.464  1.7698 -2.3998  1.2438
14708SOL     OW49959   6.538   3.190   4.369 -0.3856 -0.3260 -0.1093
14708SOL    HW149960   6.598   3.181   4.443  1.3855  0.6413 -1.3483
14708SOL    HW249961   6.555   3.112   4.315  0.5576  0.4569 -0.9795
14709SOL     OW49962   5.723   6.113   9.742  0.0737 -0.0896 -0.0435
14709SOL    HW149963   5.734   6.186   9.803 -0.3992 -0.3775  0.3975
14709SOL    HW249964   5.761   6.144   9.660  2.7452 -0.5068  0.9485
14710SOL     OW49965   5.450   2.607   1.576  0.5675  0.4821  0.3503
14710SOL    HW149966   5.478   2.640   1.490 -0.9511  1.7195  0.2575
14710SOL    HW249967   5.459   2.512   1.570  1.5687  0.6278 -0.7731
14711SOL     OW49968   3.661   0.700   6.764  0.3967  0.5671 -0.4911
14711SOL    HW149969   3.586   0.651   6.798  0.9151  0.4124  0.4469
14711SOL    HW249970   3.669   0.669   6.673  2.6428 -3.6363  0.8675
14712SOL     OW49971   0.359  10.022   1.415 -0.1342  0.2421 -0.3548
14712SOL    HW149972   0.439  10.000   1.464 -0.1266  0.8919 -0.0656
14712SOL    HW249973   0.355   9.956   1.345  1.2418  0.8528 -1.0475
14713SOL     OW49974   0.676   3.584   9.291 -0.4691 -0.3175  0.4282
14713SOL    HW149975   0.621   3.507   9.304 -2.1126  0.4848 -1.3686
14713SOL    HW249976   0.672   3.631   9.375 -0.6245 -1.4246  1.0621
14714SOL     OW49977   1.336   8.935   6.888  0.0496 -0.1241 -0.0485
14714SOL    HW149978   1.355   8.918   6.796  1.6278 -0.2618  0.2802
14714SOL    HW249979   1.249   8.896   6.902 -0.0297 -0.4560 -1.3683
14715SOL     OW49980   0.113   6.571   5.417 -0.0888  0.0996  0.2640
14715SOL    HW149981   0.146   6.515   5.488 -1.7010 -2.1694 -0.6515
14715SOL    HW249982   0.177   6.641   5.410  2.1514 -1.6872  1.4406
14716SOL     OW49983   6.939   5.879   2.411 -0.7193  0.1879  0.3542
14716SOL    HW149984   6.975   5.895   2.498  0.8597  1.2232 -0.4384
14716SOL    HW249985   6.981   5.945   2.356 -1.6928 -0.4447 -1.1966
14717SOL     OW49986   4.191   1.669   9.621 -0.0778 -0.3779  0.7512
14717SOL    HW149987   4.157   1.756   9.643 -1.9895 -0.8438 -0.1130
14717SOL    HW249988   4.267   1.658   9.678 -0.4523  1.3995  1.6807
14718SOL     OW49989   1.181   9.382   0.342  0.1372  0.5401  0.5697
14718SOL    HW149990   1.230   9.325   0.282 -0.0878  0.6314  0.2980
14718SOL    HW249991   1.249   9.424   0.395  0.3482  0.5821  0.2705
14719SOL     OW49992   7.151  10.712   7.728 -0.0560 -0.1575 -0.6115
14719SOL    HW149993   7.218  10.780   7.741  0.0578 -0.4688  0.5506
14719SOL    HW249994   7.081  10.756   7.680 -0.6736  1.2583  1.4350
14720SOL     OW49995   6.974   5.757   1.601 -0.3250  0.0270  0.3963
14720SOL    HW149996   7.045   5.817   1.578  0.2528 -0.3579  1.1176
14720SOL    HW249997   6.894   5.808   1.586  0.0506  0.1842 -1.2503
14721SOL     OW49998   6.572   5.889   9.206  0.2488 -0.5807  0.4082
14721SOL    HW149999   6.649   5.877   9.150  0.3414 -1.5480  0.7339
14721SOL    HW250000   6.567   5.809   9.258 -0.0531  0.1293  1.5180
14722SOL     OW50001   3.850   3.317   1.827  0.0891  0.0100  0.3447
14722SOL    HW150002   3.933   3.318   1.876 -0.1497  1.2357  0.7629
14722SOL    HW250003   3.790   3.367   1.882 -0.3861  0.8016 -0.8712
14723SOL     OW50004   4.139   0.156   8.205  0.3486  0.4383  0.1690
14723SOL    HW150005   4.173   0.243   8.227  0.5237  0.3933  0.0747
14723SOL    HW250006   4.055   0.152   8.251  0.7383  0.3155  0.8832
14724SOL     OW50007   9.785   2.689   8.718 -0.7471  0.6863  0.2541
14724SOL    HW150008   9.802   2.599   8.690  1.9153  1.1441  0.1267
14724SOL    HW250009   9.711   2.717   8.664 -0.1394 -0.6917 -1.4066
14725SOL     OW50010   2.210   7.102  10.587 -0.4615  0.0405  0.5256
14725SOL    HW150011   2.162   7.130  10.509 -0.0985 -1.4359 -0.2649
14725SOL    HW250012   2.235   7.011  10.569  2.8251  0.7901  0.7953
14726SOL     OW50013   6.996   8.050   7.168 -0.1750 -0.1920  0.3682
14726SOL    HW150014   7.021   8.002   7.088 -0.5416  1.6760 -0.9429
14726SOL    HW250015   7.078   8.088   7.199  0.1106 -1.5936  1.3904
14727SOL     OW50016   6.748   2.076   0.219  0.8234  0.6027 -0.4981
14727SOL    HW150017   6.736   1.981   0.216  2.2697  0.4056 -0.7060
14727SOL    HW250018   6.660   2.111   0.207  0.2272 -0.7039 -0.2259
14728SOL     OW50019   4.891   1.935   2.616 -0.7005  0.2903  0.0560
14728SOL    HW150020   4.865   1.981   2.536 -1.7864 -0.5759 -0.1191
14728SOL    HW250021   4.982   1.962   2.631 -0.4712  0.4687 -1.4742
14729SOL     OW50022   5.108   1.567   1.436  0.0689  0.2693  0.1384
14729SOL    HW150023   5.064   1.600   1.513 -0.6467 -0.7894  0.2028
14729SOL    HW250024   5.179   1.629   1.420 -2.1486  2.7644 -0.7291
14730SOL     OW50025   0.154   1.646   0.753  0.0032 -0.3992  0.1955
14730SOL    HW150026   0.179   1.728   0.794 -0.2777 -0.6403  0.8601
14730SOL    HW250027   0.238   1.604   0.730  0.1467  0.4997 -1.0614
14731SOL     OW50028   2.254   2.844   5.057  0.0681  0.8419  1.1343
14731SOL    HW150029   2.202   2.872   4.981 -0.4697  1.6356  1.7846
14731SOL    HW250030   2.224   2.900   5.129  0.3626 -0.0935  2.0104
14732SOL     OW50031   9.328   4.527   6.283 -0.6136 -0.1667 -0.1524
14732SOL    HW150032   9.375   4.448   6.311 -0.8723  0.4671  2.3279
14732SOL    HW250033   9.356   4.541   6.193  1.3796 -1.6730  0.1609
14733SOL     OW50034   0.691   2.096   9.438 -0.1880  0.4114 -0.3759
14733SOL    HW150035   0.756   2.052   9.492 -1.6814 -0.4895  0.7323
14733SOL    HW250036   0.733   2.104   9.352  1.9016  1.1315  0.6555
14734SOL     OW50037   7.597   0.805   1.479  0.0756 -0.1536 -0.1831
14734SOL    HW150038   7.585   0.734   1.542  1.5981  1.6375  2.2949
14734SOL    HW250039   7.512   0.848   1.474 -0.1738 -0.5869  0.2844
14735SOL     OW50040   3.910   1.955   3.521 -0.0191  0.3681  0.2778
14735SOL    HW150041   3.932   1.862   3.529 -0.6725  0.1033 -0.7432
14735SOL    HW250042   3.974   2.000   3.577  1.0465 -0.6043 -0.1058
14736SOL     OW50043   2.794   9.268   9.625  0.4279  0.9206 -0.3555
14736SOL    HW150044   2.886   9.245   9.614  0.3311  0.2363  0.1756
14736SOL    HW250045   2.748   9.211   9.564  0.1614 -0.5849  1.1707
14737SOL     OW50046   7.887   8.987   8.695 -0.0914  0.3200  0.1991
14737SOL    HW150047   7.939   9.011   8.771 -0.1754  1.3740 -0.0547
14737SOL    HW250048   7.817   9.052   8.692  0.4880  0.9168 -1.3311
14738SOL     OW50049   8.893   9.170   8.608 -0.0454  0.2434 -0.0268
14738SOL    HW150050   8.968   9.201   8.659  1.8190 -1.5382 -1.4491
14738SOL    HW250051   8.912   9.199   8.518 -0.9081 -0.4711 -0.4527
14739SOL     OW50052   5.270   6.955   0.867 -0.0667  0.1967  0.3136
14739SOL    HW150053   5.205   7.006   0.916  0.7160  1.6876 -0.1181
14739SOL    HW250054   5.340   7.018   0.848  1.6761 -1.4371  1.0511
14740SOL     OW50055   9.113   8.927   6.653  0.1223  0.7096  0.1552
14740SOL    HW150056   9.040   8.914   6.592 -0.8611  0.5863  1.3153
14740SOL    HW250057   9.188   8.886   6.610 -1.1998 -2.1332  0.3231
14741SOL     OW50058   5.333   5.168   1.246 -0.3576 -0.5168  0.7426
14741SOL    HW150059   5.345   5.197   1.337 -0.0580 -1.3004  0.9545
14741SOL    HW250060   5.266   5.227   1.212 -0.4661 -0.2010  1.4689
14742SOL     OW50061   7.581   5.150   6.222  0.0843 -0.2424 -0.2412
14742SOL    HW150062   7.571   5.234   6.267 -0.0176  0.5848 -1.7472
14742SOL    HW250063   7.601   5.174   6.132 -0.2596 -1.8433 -0.7682
14743SOL     OW50064   7.973   0.281   8.152 -0.0922  0.1893 -0.1825
14743SOL    HW150065   8.064   0.277   8.180  0.3227  1.0629 -1.3374
14743SOL    HW250066   7.941   0.192   8.163  1.0531 -0.2493 -0.2301
14744SOL     OW50067   2.575   0.610   9.596  0.1105 -0.1851  0.0805
14744SOL    HW150068   2.557   0.521   9.564 -1.4372  0.0546  0.2106
14744SOL    HW250069   2.597   0.599   9.689 -4.2823 -0.1554  1.3130
14745SOL     OW50070   2.232   0.175   7.352 -0.0190 -0.1337 -0.0822
14745SOL    HW150071   2.308   0.125   7.321  0.3762  0.0996  0.4910
14745SOL    HW250072   2.158   0.140   7.302  0.0333 -2.1435  1.1521
14746SOL     OW50073   8.457   4.240   3.618 -0.4653  0.3089 -0.5329
14746SOL    HW150074   8.399   4.268   3.547 -0.9478  2.1223  0.5333
14746SOL    HW250075   8.412   4.265   3.698  0.0892 -1.6814  0.4524
14747SOL     OW50076   6.904   6.359   0.071  0.0449  0.2883  0.0607
14747SOL    HW150077   6.889   6.315  -0.013  0.4048 -0.7503  0.5174
14747SOL    HW250078   6.977   6.310   0.111 -0.2637  0.6257  1.0676
14748SOL     OW50079   0.318   7.680   2.149  0.3196 -0.0154  0.6632
14748SOL    HW150080   0.289   7.598   2.190  1.7044 -0.7567  0.2255
14748SOL    HW250081   0.412   7.669   2.137  0.4541  1.4542  0.1317
14749SOL     OW50082   1.411   5.593   3.640  0.2941 -0.6778 -0.0073
14749SOL    HW150083   1.367   5.625   3.719  0.1248 -0.2536 -0.2698
14749SOL    HW250084   1.369   5.641   3.569  1.9312  0.5764 -0.1788
14750SOL     OW50085   4.564   6.028   7.460  0.1517 -0.1490  1.2000
14750SOL    HW150086   4.636   6.075   7.502  0.3471 -0.7864  1.6003
14750SOL    HW250087   4.569   5.940   7.496 -0.8063 -0.2173  1.1883
14751SOL     OW50088   3.489   9.095   9.230 -0.2218  0.5197 -0.1822
14751SOL    HW150089   3.560   9.159   9.238 -0.6655  0.9440  0.5487
14751SOL    HW250090   3.409   9.149   9.223 -0.5338  0.0544 -0.2322
14752SOL     OW50091   9.715   8.722   0.990 -0.0823 -0.3268  0.3570
14752SOL    HW150092   9.668   8.695   1.069 -1.8940  0.1101 -0.5191
14752SOL    HW250093   9.787   8.659   0.983  0.1895 -0.3288  2.3718
14753SOL     OW50094   3.565   0.209   2.333  0.2270 -0.0060 -0.1355
14753SOL    HW150095   3.532   0.278   2.276  0.4150  0.5283  0.3975
14753SOL    HW250096   3.648   0.242   2.366 -0.7819  0.5926  2.0024
14754SOL     OW50097   0.123   0.494   1.728 -0.1768  0.1965  0.4101
14754SOL    HW150098   0.193   0.535   1.779 -0.3584 -0.6852  1.4052
14754SOL    HW250099   0.053   0.560   1.727 -0.0602  0.3431  1.0650
14755SOL     OW50100   7.201   2.973  10.500 -0.6213  0.3324 -0.3919
14755SOL    HW150101   7.107   2.956  10.510 -0.4131 -1.5951 -1.3140
14755SOL    HW250102   7.243   2.896  10.539  0.4969 -0.0595 -2.2639
14756SOL     OW50103   4.361   5.694   1.908  0.6582  0.3318  0.0186
14756SOL    HW150104   4.422   5.762   1.882  2.4082 -1.4350 -0.7412
14756SOL    HW250105   4.354   5.703   2.003 -0.3656  2.4802 -0.2122
14757SOL     OW50106   1.841   5.055   2.764 -0.0727 -0.2835  0.2753
14757SOL    HW150107   1.892   5.136   2.774 -0.2321  0.7077 -4.4970
14757SOL    HW250108   1.895   4.987   2.803  1.9734  1.5978  0.9149
14758SOL     OW50109   7.697   0.845   2.927  0.1846 -0.2199  0.2099
14758SOL    HW150110   7.711   0.873   2.837  3.2153 -0.6902  0.4036
14758SOL    HW250111   7.672   0.924   2.974  1.9726  0.8202 -0.4805
14759SOL     OW50112   6.331   4.697   1.610 -0.2701  0.4227  0.1512
14759SOL    HW150113   6.313   4.734   1.696  1.2156  0.3476  0.5161
14759SOL    HW250114   6.244   4.676   1.575 -0.8965  0.3637  1.6556
14760SOL     OW50115   5.035   7.445   9.408 -0.3625  0.0158 -0.3374
14760SOL    HW150116   5.111   7.479   9.362  0.2042  0.4805  0.9174
14760SOL    HW250117   5.039   7.350   9.394 -0.0578  0.1238 -1.0133
14761SOL     OW50118   3.258   2.917   5.803 -0.3822  0.4265 -0.0878
14761SOL    HW150119   3.316   2.979   5.759  1.0369 -0.6986  0.1072
14761SOL    HW250120   3.216   2.868   5.733 -0.1180  0.3872 -0.2188
14762SOL     OW50121   6.776   5.051   7.544  0.1087  0.1633 -0.1620
14762SOL    HW150122   6.703   5.114   7.551  1.2359  1.7333 -1.5792
14762SOL    HW250123   6.825   5.081   7.468  1.9177 -1.2196  0.4023
14763SOL     OW50124   4.974   4.800   1.364  0.3828 -0.3751  0.2617
14763SOL    HW150125   5.049   4.741   1.364  0.1628 -0.6630 -0.9511
14763SOL    HW250126   4.898   4.743   1.373  0.2287 -0.1773  0.2268
14764SOL     OW50127   3.705   0.372   6.613  0.3724  0.1545  0.4029
14764SOL    HW150128   3.616   0.367   6.648  0.3734 -0.9461  0.2745
14764SOL    HW250129   3.705   0.314   6.537  1.2256  0.0753  0.4512
14765SOL     OW50130   5.876   9.899   9.273 -0.2916  0.1380  0.3712
14765SOL    HW150131   5.917   9.862   9.351  1.0185  0.1398 -0.2896
14765SOL    HW250132   5.825   9.827   9.237  1.0463 -0.6191 -0.0826
14766SOL     OW50133   2.308   2.293   3.005 -0.0095 -0.1157  0.2234
14766SOL    HW150134   2.344   2.217   3.050  1.7864  1.1272  1.0052
14766SOL    HW250135   2.238   2.324   3.062  1.1669  0.4766  1.3944
14767SOL     OW50136   9.331  10.058   8.851 -0.1334  0.3950 -0.4318
14767SOL    HW150137   9.374   9.982   8.890 -0.9089  0.4773  0.6229
14767SOL    HW250138   9.354  10.053   8.758  1.2801 -0.1342 -0.0871
14768SOL     OW50139   2.512   9.489   9.251 -0.1456 -0.2686  0.1315
14768SOL    HW150140   2.584   9.510   9.310 -0.0101  1.4680 -0.5985
14768SOL    HW250141   2.434   9.488   9.307  0.4355 -2.6779  1.0234
14769SOL     OW50142   6.873   8.655   1.335 -0.2547  0.6126 -0.1879
14769SOL    HW150143   6.783   8.652   1.303 -0.8913  1.4275  1.4074
14769SOL    HW250144   6.884   8.572   1.382  0.6563 -0.5519 -2.3229
14770SOL     OW50145   1.529   3.132   1.531  0.5604 -0.0103 -0.5044
14770SOL    HW150146   1.442   3.141   1.570 -0.1210 -0.5938 -1.7976
14770SOL    HW250147   1.569   3.218   1.542 -0.6872  0.6695 -0.9843
14771SOL     OW50148   6.643   5.718   3.235 -0.0957  0.2791  0.5345
14771SOL    HW150149   6.728   5.675   3.229 -0.7384 -0.9038 -0.5791
14771SOL    HW250150   6.583   5.650   3.265 -0.5870  1.2207  1.7601
14772SOL     OW50151   8.382   8.915  10.578 -0.0248  0.0851  0.3191
14772SOL    HW150152   8.413   8.825  10.591  0.2054  0.2658  1.0377
14772SOL    HW250153   8.378   8.925  10.483 -0.9956 -1.0069  0.2245
14773SOL     OW50154   4.075   9.090  10.313 -0.5134 -0.3950  0.1307
14773SOL    HW150155   4.072   9.002  10.277 -1.8174  0.2769 -1.5067
14773SOL    HW250156   4.039   9.146  10.244  1.3956  1.5993  0.6319
14774SOL     OW50157   1.400   5.341   4.499  0.2017 -0.2462 -0.4107
14774SOL    HW150158   1.475   5.282   4.485  0.0781 -0.7918  1.0249
14774SOL    HW250159   1.334   5.309   4.438  0.6695 -0.6218 -0.7351
14775SOL     OW50160   0.945   0.523   3.004 -0.7851  0.2026  0.1711
14775SOL    HW150161   1.004   0.449   3.022  0.1680  0.7284 -0.6557
14775SOL    HW250162   1.002   0.600   3.007 -1.6114  0.8182  0.2384
14776SOL     OW50163   3.685   7.258   6.757 -0.6335 -0.0970  0.2270
14776SOL    HW150164   3.657   7.221   6.673  1.7157  0.2814 -0.8051
14776SOL    HW250165   3.775   7.227   6.767  0.1948  2.3745  1.0737
14777SOL     OW50166   7.011   4.594   1.848 -0.1221  0.2618 -0.4685
14777SOL    HW150167   7.000   4.664   1.783 -1.6548 -1.3374 -2.0272
14777SOL    HW250168   7.060   4.526   1.802 -1.4592 -1.0090 -0.0684
14778SOL     OW50169  10.446   2.795   7.646 -0.0890  0.1461  0.5442
14778SOL    HW150170  10.360   2.756   7.666  0.0281  0.7772  2.5270
14778SOL    HW250171  10.508   2.724   7.659 -0.2401 -0.1198 -0.1624
14779SOL     OW50172   3.697   7.807   6.852 -0.3105  0.0477  0.1192
14779SOL    HW150173   3.729   7.726   6.892 -1.2147  0.6518  2.2201
14779SOL    HW250174   3.628   7.778   6.792  0.9116 -0.8813 -0.8701
14780SOL     OW50175  10.113   5.873   9.920 -0.8073 -0.5938 -0.1260
14780SOL    HW150176  10.066   5.807   9.970 -0.6170  0.2526  1.2207
14780SOL    HW250177  10.045   5.919   9.870 -1.1982 -0.5136  0.4701
14781SOL     OW50178   9.180   5.749   4.538  0.1417 -0.2870 -0.2951
14781SOL    HW150179   9.264   5.705   4.542 -0.5586 -1.8271 -1.5625
14781SOL    HW250180   9.185   5.804   4.460 -0.0246 -0.3922 -0.3812
14782SOL     OW50181   7.108   3.092   1.379 -0.3902  0.2348 -0.3564
14782SOL    HW150182   7.188   3.065   1.332  0.1232 -0.8883  1.1174
14782SOL    HW250183   7.124   3.184   1.401  0.4659  0.0460 -0.1537
14783SOL     OW50184   2.400   3.292   8.850 -0.9334  0.2786 -0.3559
14783SOL    HW150185   2.313   3.294   8.811 -1.2004 -0.5700  0.1574
14783SOL    HW250186   2.386   3.319   8.941 -0.4977  1.1178 -0.5309
14784SOL     OW50187   4.681   1.527   1.111  0.2278  0.3871 -0.0524
14784SOL    HW150188   4.671   1.475   1.190 -0.0338 -1.7061 -1.3869
14784SOL    HW250189   4.649   1.614   1.135 -0.6730 -0.4338  1.8849
14785SOL     OW50190  10.276   2.263  10.148  0.0820 -0.3755 -0.6470
14785SOL    HW150191  10.216   2.335  10.128 -0.5773 -0.6563  0.2606
14785SOL    HW250192  10.233   2.214  10.217  1.4654 -0.4451  0.2098
14786SOL     OW50193   2.585  10.407   0.787  0.2072 -0.3709 -0.3051
14786SOL    HW150194   2.608  10.351   0.861 -0.4270  0.0609  0.2318
14786SOL    HW250195   2.662  10.463   0.775  0.9128 -1.4481 -0.9549
14787SOL     OW50196   6.640   1.815   0.254 -0.0175  1.0629 -0.8522
14787SOL    HW150197   6.546   1.828   0.245 -0.5685 -0.5407  1.6068
14787SOL    HW250198   6.655   1.812   0.349  2.3626  0.3146 -1.1800
14788SOL     OW50199   4.364   5.658   3.965 -0.8123  0.0955 -0.2729
14788SOL    HW150200   4.302   5.599   3.922 -1.4689  0.8933 -0.4305
14788SOL    HW250201   4.340   5.745   3.934  0.5545  0.3983 -0.5384
14789SOL     OW50202   1.040   5.074   1.740 -0.0966 -0.3307  0.3430
14789SOL    HW150203   0.947   5.074   1.763 -0.6761  0.0131 -1.7842
14789SOL    HW250204   1.041   5.080   1.645  2.1065 -1.5096  0.2292
14790SOL     OW50205   5.846   5.641   9.250  0.1169  0.6900 -0.7916
14790SOL    HW150206   5.932   5.629   9.290 -0.3745  0.9745  0.4105
14790SOL    HW250207   5.823   5.555   9.215  0.4116  0.3327 -0.1148
14791SOL     OW50208   5.641   3.667   2.543 -0.0680  0.1714  0.3702
14791SOL    HW150209   5.601   3.745   2.505 -0.9701 -0.6273 -0.3772
14791SOL    HW250210   5.615   3.669   2.635 -0.5969  0.4367  0.2206
14792SOL     OW50211   9.040   2.188   7.393  0.0361 -0.1914  0.0683
14792SOL    HW150212   9.023   2.180   7.487 -1.4033 -2.2007 -0.2802
14792SOL    HW250213   9.093   2.112   7.371 -0.3911 -0.2315 -0.8896
14793SOL     OW50214   9.921   6.214   8.894 -0.2124  0.0923 -0.4665
14793SOL    HW150215   9.922   6.133   8.944  0.5820 -1.4124 -2.7670
14793SOL    HW250216  10.005   6.216   8.850 -0.1532  2.2860 -0.3505
14794SOL     OW50217   9.880   3.405   3.675  0.2470 -0.0297 -0.5136
14794SOL    HW150218   9.898   3.497   3.695  1.6334 -0.3086 -0.3821
14794SOL    HW250219   9.911   3.357   3.751 -1.6454 -0.5550 -0.0070
14795SOL     OW50220   4.846   6.307   2.937  0.5239 -0.3648  0.3481
14795SOL    HW150221   4.869   6.270   2.852  0.5863 -0.3631  0.3647
14795SOL    HW250222   4.926   6.348   2.969 -0.1777  2.1630 -0.8645
14796SOL     OW50223   4.367   9.297   8.922  0.1051  0.4779 -0.0667
14796SOL    HW150224   4.407   9.356   8.985 -0.6375  0.7922  0.1249
14796SOL    HW250225   4.334   9.354   8.853  1.5868  0.0799 -1.1561
14797SOL     OW50226   6.530   3.910   3.771  0.0779 -0.0692 -0.2677
14797SOL    HW150227   6.511   3.915   3.678 -3.8484 -1.3535  0.2640
14797SOL    HW250228   6.546   3.817   3.787  0.9876  0.1776  0.3412
14798SOL     OW50229   4.627   9.617   9.177 -0.1816  0.2261 -0.4935
14798SOL    HW150230   4.634   9.626   9.272  0.5946  0.1129 -0.5353
14798SOL    HW250231   4.567   9.687   9.151 -0.2031  0.4152  0.0530
14799SOL     OW50232   0.498   6.146   1.376 -0.5808  0.1976 -0.1578
14799SOL    HW150233   0.457   6.132   1.290 -1.6773  1.5901  0.0966
14799SOL    HW250234   0.592   6.145   1.359 -0.6844 -1.9900 -0.9559
14800SOL     OW50235   2.464   8.190   5.549 -0.3613  0.8140 -0.3303
14800SOL    HW150236   2.481   8.098   5.533 -1.0478  0.3829  1.2123
14800SOL    HW250237   2.551   8.230   5.558 -0.0551  0.4134 -1.3899
14801SOL     OW50238   0.995   4.489   7.802  0.0254 -0.8608 -0.1807
14801SOL    HW150239   0.948   4.455   7.725 -1.6850 -0.6845  0.7338
14801SOL    HW250240   0.984   4.421   7.868 -0.9323  0.1661  0.7544
14802SOL     OW50241  10.577   0.997   9.307  0.1148 -0.5182  0.0434
14802SOL    HW150242  10.578   1.085   9.270  0.7681 -0.0090  1.2188
14802SOL    HW250243  10.641   0.949   9.254  1.1496  0.2387  0.5620
14803SOL     OW50244   9.410   2.546   7.310 -0.2396  0.3114  0.5819
14803SOL    HW150245   9.450   2.526   7.225  0.9242 -0.2470  1.2468
14803SOL    HW250246   9.331   2.596   7.287 -2.0487 -2.9557 -1.0878
14804SOL     OW50247   6.598   9.974   5.194  0.7825 -0.2094  0.1634
14804SOL    HW150248   6.524   9.920   5.168 -1.0530  2.2199 -0.1070
14804SOL    HW250249   6.673   9.940   5.145 -0.4301 -1.9647 -0.5232
14805SOL     OW50250   9.938   3.030   2.642  0.5473 -0.2157  0.5621
14805SOL    HW150251   9.961   2.943   2.674  1.8242 -0.0803  0.0521
14805SOL    HW250252  10.010   3.055   2.584 -0.2258  0.8204  0.0075
14806SOL     OW50253   0.540   7.770   3.431 -0.7301  0.0268 -0.2532
14806SOL    HW150254   0.558   7.847   3.376  1.1339 -0.6798 -0.6873
14806SOL    HW250255   0.552   7.802   3.521 -1.5435  0.6139 -0.3357
14807SOL     OW50256   6.605   4.060   5.523 -0.3484 -0.0469 -0.2515
14807SOL    HW150257   6.573   3.990   5.580 -1.6210 -1.4084 -2.4917
14807SOL    HW250258   6.700   4.048   5.522 -0.1378  0.6923  2.3055
14808SOL     OW50259   1.960   4.939   9.381  0.6599 -0.3625 -0.0197
14808SOL    HW150260   1.872   4.967   9.406  0.1627 -2.3713  0.6501
14808SOL    HW250261   2.015   4.963   9.456  0.3603 -0.6865  0.3037
14809SOL     OW50262   7.944   6.304  10.332 -0.1742  0.0139 -0.4863
14809SOL    HW150263   8.033   6.331  10.313 -0.4217 -0.2139 -2.0685
14809SOL    HW250264   7.913   6.262  10.252 -1.6730 -0.0132  0.0631
14810SOL     OW50265   8.127   2.078   5.274 -0.2334 -0.2184 -0.1905
14810SOL    HW150266   8.167   2.112   5.354  0.4219 -1.9534  0.2643
14810SOL    HW250267   8.081   2.153   5.237 -1.4897  0.3806  2.3809
14811SOL     OW50268   7.125   1.793   3.483 -0.2963 -0.5600  0.3518
14811SOL    HW150269   7.046   1.846   3.482 -0.0182 -0.1358 -0.7604
14811SOL    HW250270   7.197   1.856   3.473  0.1279 -1.0175  0.4327
14812SOL     OW50271   9.689   9.370   5.979  0.3325 -0.1098 -0.0089
14812SOL    HW150272   9.710   9.409   5.893  1.4964 -1.3602 -0.3396
14812SOL    HW250273   9.720   9.434   6.042  0.4685  0.3560 -0.5382
14813SOL     OW50274   7.704   6.428   6.919 -0.3157  0.2558  0.7535
14813SOL    HW150275   7.681   6.338   6.894  2.4304 -0.0314 -1.2439
14813SOL    HW250276   7.635   6.482   6.880 -0.4730 -0.8353 -0.5794
14814SOL     OW50277   8.300   7.836   6.596 -0.1498 -0.1722  0.2752
14814SOL    HW150278   8.226   7.837   6.536  0.2603 -0.6495 -0.2572
14814SOL    HW250279   8.319   7.743   6.608  0.1881 -0.0596  0.6268
14815SOL     OW50280  10.535   6.108   2.563  0.1286  0.2878  0.1932
14815SOL    HW150281  10.574   6.063   2.488 -1.4369 -1.4569  0.3405
14815SOL    HW250282  10.494   6.185   2.525 -0.9306 -0.7481 -0.8679
14816SOL     OW50283   8.182   1.240   6.384  0.1291  0.2968  0.2484
14816SOL    HW150284   8.187   1.287   6.467  0.6855 -0.4537  0.6514
14816SOL    HW250285   8.272   1.217   6.363 -0.1415 -0.8081  0.2040
14817SOL     OW50286   3.079   4.774   2.507 -0.1562  0.1945 -0.3095
14817SOL    HW150287   3.081   4.723   2.426 -1.0576 -2.0825  1.0022
14817SOL    HW250288   3.169   4.771   2.540  0.1802  1.0039 -1.1105
14818SOL     OW50289   8.577   7.790   9.672  0.1345 -0.4550 -0.2340
14818SOL    HW150290   8.593   7.820   9.762 -3.2618  1.3298 -0.0824
14818SOL    HW250291   8.608   7.862   9.617  0.6982 -0.8458 -0.4426
14819SOL     OW50292   5.530   7.598   8.483  0.3041  0.0093  0.5315
14819SOL    HW150293   5.526   7.555   8.568 -0.2987  1.9842  1.5835
14819SOL    HW250294   5.440   7.600   8.452  0.0892  1.5642  1.1275
14820SOL     OW50295   4.835   7.762   7.448 -0.0291  0.5280 -0.3067
14820SOL    HW150296   4.795   7.680   7.418 -1.5403  0.8339  0.8005
14820SOL    HW250297   4.928   7.740   7.459 -0.1014 -0.5717 -1.5984
14821SOL     OW50298   8.059   6.461   2.385  0.4379 -0.3885 -0.0057
14821SOL    HW150299   7.993   6.400   2.419 -1.1895  2.2586  1.8760
14821SOL    HW250300   8.115   6.480   2.460 -0.6153  2.2726  0.1919
14822SOL     OW50301   6.785   5.355   9.866 -0.3725 -0.6324  0.3922
14822SOL    HW150302   6.720   5.417   9.899 -0.9097 -1.0673  0.1880
14822SOL    HW250303   6.852   5.352   9.934 -1.9993 -2.3791  2.0656
14823SOL     OW50304   5.554   4.790   8.709  0.1888  0.1137  0.0173
14823SOL    HW150305   5.484   4.771   8.645  1.0505 -0.7567 -0.6977
14823SOL    HW250306   5.628   4.817   8.655  0.1740  1.9346  0.8153
14824SOL     OW50307   9.590   3.934   0.794 -0.1539  0.1882  0.3567
14824SOL    HW150308   9.549   3.947   0.708  0.9070  0.5478 -0.1134
14824SOL    HW250309   9.536   3.867   0.836 -2.7329  2.4043  0.8113
14825SOL     OW50310   1.672   2.035   6.134 -0.1529  0.3650  0.2744
14825SOL    HW150311   1.756   2.035   6.087 -0.0487 -0.2652  0.4508
14825SOL    HW250312   1.682   1.966   6.200 -1.5116 -1.0972 -0.9582
14826SOL     OW50313   6.858   8.220   7.482  0.6454  0.1461 -0.0662
14826SOL    HW150314   6.842   8.173   7.564  2.0443 -0.6991 -0.2479
14826SOL    HW250315   6.840   8.157   7.413  1.1656  0.2947 -0.3498
14827SOL     OW50316   8.449   7.891   6.821  1.0565 -0.4077  0.0221
14827SOL    HW150317   8.392   7.857   6.890  1.2846  0.4917  0.6787
14827SOL    HW250318   8.395   7.889   6.742  0.0441  0.5370  0.6493
14828SOL     OW50319   6.964   8.319   6.782 -0.0680 -0.2162 -0.3413
14828SOL    HW150320   6.999   8.403   6.813 -1.7575  1.2720 -2.1902
14828SOL    HW250321   7.033   8.282   6.728  2.1476 -1.9157  3.2614
14829SOL     OW50322   2.094   9.330   0.286 -0.4195  0.1204  0.8012
14829SOL    HW150323   2.030   9.272   0.328 -1.0584  0.8201  0.8138
14829SOL    HW250324   2.042   9.390   0.235  0.3080 -0.0554 -0.1742
14830SOL     OW50325   6.196   2.852   3.250  0.6782 -0.5284  0.2686
14830SOL    HW150326   6.182   2.876   3.342  0.9115  0.7513 -0.0221
14830SOL    HW250327   6.289   2.865   3.236  0.5928 -0.4629 -0.2302
14831SOL     OW50328   8.934   8.340   3.511  0.2789  0.1787  0.0565
14831SOL    HW150329   8.942   8.435   3.503  2.5314 -0.0665 -1.4779
14831SOL    HW250330   8.972   8.321   3.597  3.3461  0.4207 -1.1422
14832SOL     OW50331  10.600   7.859   9.445 -0.7608  0.0376  0.0123
14832SOL    HW150332  10.622   7.821   9.529  2.8949 -0.0431 -0.8346
14832SOL    HW250333  10.585   7.952   9.464 -0.3408 -0.0454  0.7819
14833SOL     OW50334  10.089  10.616   4.979 -0.1601 -0.0052 -0.4179
14833SOL    HW150335  10.014  10.631   4.920 -2.7863  0.3910  2.7469
14833SOL    HW250336  10.124  10.531   4.952 -0.1587  0.8631 -3.5102
14834SOL     OW50337   3.799   2.419   0.590 -0.0255  0.5787  0.4056
14834SOL    HW150338   3.737   2.484   0.560 -0.8485 -0.8909 -1.2876
14834SOL    HW250339   3.803   2.431   0.685 -3.9464 -0.0989  0.8228
14835SOL     OW50340   3.653   5.138   3.760 -0.0506  0.0743 -0.0207
14835SOL    HW150341   3.560   5.160   3.765 -0.1966 -0.3559 -0.7085
14835SOL    HW250342   3.657   5.045   3.783  0.2872  0.2386  0.6124
14836SOL     OW50343  10.382   5.053   2.767 -0.2292  0.2808 -0.2221
14836SOL    HW150344  10.370   5.129   2.825  1.1546  0.2014  0.2201
14836SOL    HW250345  10.334   4.982   2.810  0.0356  0.4498  0.3626
14837SOL     OW50346   8.941   9.458  10.160  0.1177 -0.0093  0.0533
14837SOL    HW150347   9.014   9.415  10.115  0.4731  1.1837 -0.5390
14837SOL    HW250348   8.969   9.464  10.251  0.4446 -0.2254 -0.0314
14838SOL     OW50349   3.676  10.474   6.987  0.0455  0.3376  0.2047
14838SOL    HW150350   3.705  10.400   7.041 -2.5328 -0.4011  0.7368
14838SOL    HW250351   3.637  10.433   6.910 -0.0440  1.2122 -0.2197
14839SOL     OW50352   4.343   8.603   1.227  0.3670 -0.1501  0.1819
14839SOL    HW150353   4.341   8.516   1.267 -0.7378 -0.5438 -0.6768
14839SOL    HW250354   4.294   8.593   1.145  0.4533  1.2154 -0.0605
14840SOL     OW50355  10.456   8.111  10.325 -0.1365 -0.4216 -0.2943
14840SOL    HW150356  10.498   8.025  10.334  0.6080  0.1751  3.9252
14840SOL    HW250357  10.365   8.096  10.349 -0.3102 -0.2337 -0.8312
14841SOL     OW50358   9.433   3.768   8.672  0.3593  0.0935 -0.5029
14841SOL    HW150359   9.426   3.684   8.628 -1.0106  0.9960 -2.1781
14841SOL    HW250360   9.444   3.831   8.601  1.3505  1.3331  0.7009
14842SOL     OW50361   2.398   7.255   8.747 -0.2350  0.4245  0.2399
14842SOL    HW150362   2.411   7.194   8.675 -0.0216 -0.6222  1.1284
14842SOL    HW250363   2.326   7.312   8.718 -0.6406 -0.4392 -0.5026
14843SOL     OW50364   2.624   4.776   4.872 -0.4260  0.3617  0.0268
14843SOL    HW150365   2.589   4.787   4.961 -0.4208 -0.3427  0.1288
14843SOL    HW250366   2.719   4.787   4.882 -0.4781  0.8342  0.0091
14844SOL     OW50367   9.904  10.193   4.027 -0.2662 -0.5356  0.0930
14844SOL    HW150368   9.972  10.140   3.985 -1.6137  0.4834 -3.7041
14844SOL    HW250369   9.826  10.138   4.024 -0.7795  0.2044 -0.2584
14845SOL     OW50370   2.175   7.056   0.971  0.1152 -0.4679  0.2847
14845SOL    HW150371   2.234   7.048   1.047 -1.0901 -1.3644  1.1717
14845SOL    HW250372   2.129   7.138   0.985 -1.7521 -1.6819  1.8182
14846SOL     OW50373   5.039   6.260   9.773 -0.4153 -0.0165 -0.2645
14846SOL    HW150374   5.046   6.187   9.835 -0.2581  0.4774  0.3164
14846SOL    HW250375   5.071   6.225   9.690  1.4402 -0.0913  0.4487
14847SOL     OW50376   3.654   2.037   9.152  0.5143 -0.4504  0.2138
14847SOL    HW150377   3.714   1.963   9.157 -1.7549 -2.4813 -0.3903
14847SOL    HW250378   3.576   2.002   9.109 -0.0462  2.7812 -1.8004
14848SOL     OW50379   7.801  10.628   1.763  0.6030 -0.0706 -0.0544
14848SOL    HW150380   7.811  10.594   1.674 -0.3621 -0.5823  0.0260
14848SOL    HW250381   7.716  10.595   1.792  1.0238 -0.1214  1.1584
14849SOL     OW50382   4.482   9.206   3.220 -0.3878  0.2375  0.4877
14849SOL    HW150383   4.480   9.233   3.312 -1.7476  2.3475 -0.0880
14849SOL    HW250384   4.429   9.126   3.217 -1.4591  0.8927  1.3547
14850SOL     OW50385  10.031   3.140   4.545  0.1641 -0.3274 -0.2556
14850SOL    HW150386  10.065   3.171   4.629 -2.3380  0.0313  0.7155
14850SOL    HW250387  10.062   3.050   4.538 -0.6243 -0.7960  1.7180
14851SOL     OW50388   8.591   5.050   4.758 -0.3066 -0.0170 -0.2859
14851SOL    HW150389   8.674   5.075   4.718  0.0316  1.1632  1.0627
14851SOL    HW250390   8.616   4.981   4.821 -0.4884 -0.2545 -0.4706
14852SOL     OW50391   4.105   9.718   7.681 -0.0995  0.3032  0.0090
14852SOL    HW150392   4.116   9.629   7.714 -0.5460  0.9252  2.0087
14852SOL    HW250393   4.103   9.709   7.586 -1.3488 -1.9645  0.1820
14853SOL     OW50394   4.334   3.798   7.062  0.1091 -0.1190 -0.0313
14853SOL    HW150395   4.328   3.727   6.998 -0.5352  1.3170 -1.6487
14853SOL    HW250396   4.426   3.798   7.089  0.2467 -1.1615 -0.4647
14854SOL     OW50397   9.538   1.438   2.384 -0.8920  0.2383 -0.6235
14854SOL    HW150398   9.536   1.470   2.475 -1.1200 -1.0936 -0.1360
14854SOL    HW250399   9.631   1.423   2.366 -0.9620 -1.0945  0.0022
14855SOL     OW50400   6.496   1.597   5.104 -0.5986  0.2265  0.4171
14855SOL    HW150401   6.457   1.525   5.055  0.0995 -0.1957  0.4674
14855SOL    HW250402   6.500   1.669   5.042  0.5951 -0.4057 -0.2719
14856SOL     OW50403  10.285   3.300   7.068 -0.2429 -0.6477  0.9047
14856SOL    HW150404  10.237   3.222   7.095 -1.8797 -0.4576 -1.1910
14856SOL    HW250405  10.334   3.273   6.990  0.5723 -0.0310  1.1860
14857SOL     OW50406   9.342   6.129  10.175  0.3922  0.2678  0.5805
14857SOL    HW150407   9.330   6.054  10.234  1.8701  0.9227  1.8090
14857SOL    HW250408   9.261   6.179  10.184 -0.4304 -0.9240  0.0896
14858SOL     OW50409   6.283   5.123   2.102  0.1618 -0.1168 -0.1403
14858SOL    HW150410   6.255   5.076   2.181  0.6645  0.1866  0.2208
14858SOL    HW250411   6.219   5.193   2.091 -0.4877 -0.7542 -0.5775
14859SOL     OW50412   7.213  10.031   4.732 -0.2777  0.4655 -0.1623
14859SOL    HW150413   7.297   9.986   4.739 -1.1593 -1.0112  3.6395
14859SOL    HW250414   7.159   9.973   4.679  0.5346  0.5566 -1.1309
14860SOL     OW50415   7.557   6.171   9.926 -0.1634  0.1084  0.0925
14860SOL    HW150416   7.508   6.091   9.908  0.3056  0.0129 -0.8244
14860SOL    HW250417   7.645   6.153   9.893  0.4940  0.3021  1.6428
14861SOL     OW50418   2.846   1.269   7.724  0.4084 -0.0842  0.0380
14861SOL    HW150419   2.838   1.246   7.631 -1.4906 -0.9875  0.3729
14861SOL    HW250420   2.928   1.229   7.752  0.2908 -1.0421 -0.9255
14862SOL     OW50421   0.823   7.760   8.944  0.3970  0.7901 -0.0433
14862SOL    HW150422   0.854   7.837   8.898 -0.7235  0.4911 -1.3671
14862SOL    HW250423   0.901   7.707   8.959  0.6146 -0.0136 -3.3777
14863SOL     OW50424   4.348   0.479   6.352 -0.1582  0.3854  0.0415
14863SOL    HW150425   4.402   0.493   6.430  1.1375 -1.0715 -0.5439
14863SOL    HW250426   4.405   0.433   6.291 -1.0589  1.7021 -1.8960
14864SOL     OW50427   9.794   8.595   3.258  0.4016  0.1839 -0.1700
14864SOL    HW150428   9.783   8.646   3.178 -1.0154 -0.3605 -0.3551
14864SOL    HW250429   9.856   8.526   3.235 -1.7703 -1.4332 -1.5815
14865SOL     OW50430   7.461   1.538  10.303  0.1685  0.2949 -0.2272
14865SOL    HW150431   7.446   1.600  10.375 -0.6520 -1.1196  0.8546
14865SOL    HW250432   7.441   1.589  10.224 -1.0043  1.2699  0.6587
14866SOL     OW50433   7.373   2.333   7.708 -0.1085 -0.3210 -0.0645
14866SOL    HW150434   7.358   2.296   7.621  1.1265 -1.0654  0.0128
14866SOL    HW250435   7.446   2.282   7.743  0.7233  1.2623  0.6294
14867SOL     OW50436  10.249   7.989   2.924  0.2634  0.0705 -0.0718
14867SOL    HW150437  10.287   8.015   3.008  1.1349  2.0374 -1.0112
14867SOL    HW250438  10.206   8.068   2.892  0.5564 -0.4287 -1.8090
14868SOL     OW50439  10.031   4.698   7.158 -0.5147 -0.1215 -0.2111
14868SOL    HW150440  10.014   4.705   7.064 -0.9846 -2.1887 -0.3185
14868SOL    HW250441  10.121   4.730   7.169 -0.8331  1.1550 -1.1836
14869SOL     OW50442  10.507   3.420   9.045  0.4084 -0.1566 -0.9084
14869SOL    HW150443  10.536   3.494   9.098 -1.9260 -0.5111  1.0409
14869SOL    HW250444  10.581   3.360   9.045  0.7891  0.2375  1.2970
14870SOL     OW50445   4.917   5.628   9.138  0.0590  0.2488  0.5308
14870SOL    HW150446   5.002   5.634   9.096  0.1874 -0.0137  0.7489
14870SOL    HW250447   4.854   5.650   9.070  0.1695 -1.5359 -0.1882
14871SOL     OW50448   1.573   9.515   2.386  0.0613  0.3535 -0.3699
14871SOL    HW150449   1.608   9.541   2.471 -3.1596  2.9188  0.4023
14871SOL    HW250450   1.607   9.581   2.325  0.0097  0.2781 -0.4818
14872SOL     OW50451   0.196   1.961   4.036  0.4364 -0.1908  0.6219
14872SOL    HW150452   0.236   1.879   4.008  0.0012 -0.3817  0.5564
14872SOL    HW250453   0.123   1.974   3.976 -0.5388 -0.6321  1.6625
14873SOL     OW50454   6.641   9.148   9.703  0.2757 -0.8321  0.0489
14873SOL    HW150455   6.669   9.098   9.627  0.1023 -1.7990  0.6045
14873SOL    HW250456   6.562   9.194   9.675  0.5879 -0.6517 -0.5470
14874SOL     OW50457   4.427   5.406   0.905 -0.0625  0.1553  0.0318
14874SOL    HW150458   4.421   5.454   0.822  1.7519  0.0719 -0.1948
14874SOL    HW250459   4.446   5.473   0.970  0.7591 -0.0293 -0.0052
14875SOL     OW50460   6.951   0.740   4.521 -0.6173 -0.1661  0.4761
14875SOL    HW150461   6.912   0.693   4.447  0.2646 -1.6178  0.8824
14875SOL    HW250462   6.987   0.820   4.483  0.7044 -1.3408 -0.9057
14876SOL     OW50463   7.239   9.954   1.127  0.3438  0.2306 -0.1876
14876SOL    HW150464   7.198   9.925   1.046  0.4701 -1.3092  0.2568
14876SOL    HW250465   7.231  10.049   1.126 -0.5473  0.1647 -1.5175
14877SOL     OW50466   5.920   1.355   4.042 -0.0919 -0.3408 -0.1408
14877SOL    HW150467   6.013   1.343   4.024 -0.1540  0.8283 -1.4408
14877SOL    HW250468   5.882   1.268   4.028  0.4848 -0.3550 -1.9536
14878SOL     OW50469   3.800   7.314   9.988 -0.0934 -0.2100 -0.4878
14878SOL    HW150470   3.797   7.223  10.017  0.9396  0.2554  1.2153
14878SOL    HW250471   3.774   7.364  10.065 -0.9048  0.9468 -1.4741
14879SOL     OW50472   0.696   7.524   3.403 -0.2239  0.6835 -0.0687
14879SOL    HW150473   0.776   7.551   3.449  0.0840 -0.4102  0.0795
14879SOL    HW250474   0.633   7.593   3.422 -0.0173  0.4220  1.7816
14880SOL     OW50475   3.319   3.704  10.204 -0.1449 -0.0719  0.0178
14880SOL    HW150476   3.365   3.720  10.286 -0.1229  1.1343 -0.2207
14880SOL    HW250477   3.296   3.611  10.208  1.9101 -0.6203  0.3500
14881SOL     OW50478   4.578   9.543   5.088 -0.2938 -0.1984  1.0003
14881SOL    HW150479   4.664   9.585   5.099  0.7186 -0.2814 -4.0501
14881SOL    HW250480   4.584   9.463   5.140  2.9369 -0.4320  0.5041
14882SOL     OW50481   3.258   7.814   0.300 -0.1855 -0.3062  0.0914
14882SOL    HW150482   3.305   7.749   0.248  0.1676  0.0244 -0.0056
14882SOL    HW250483   3.306   7.895   0.286  1.4103 -0.6527  2.7872
14883SOL     OW50484   2.038   1.079   8.377 -0.4817 -0.5365 -0.6307
14883SOL    HW150485   1.988   1.002   8.352  0.9320 -1.6152 -0.2495
14883SOL    HW250486   2.080   1.055   8.459 -2.6660  1.8627  1.3662
14884SOL     OW50487   2.285   4.226   1.614 -0.4229 -0.5454  0.6587
14884SOL    HW150488   2.258   4.141   1.647 -0.2901 -0.2551  1.5346
14884SOL    HW250489   2.246   4.232   1.527 -0.1661 -1.6323  0.4578
14885SOL     OW50490   5.771   7.545   8.815  0.0343  0.0257  0.3963
14885SOL    HW150491   5.841   7.490   8.850  0.7006  0.8052  0.3167
14885SOL    HW250492   5.692   7.492   8.824  0.4082 -0.3388  1.7742
14886SOL     OW50493   2.078   2.459   1.822 -0.1259 -0.7222 -0.3756
14886SOL    HW150494   2.049   2.376   1.784 -1.0457 -0.3780 -0.4471
14886SOL    HW250495   1.997   2.507   1.840  0.4058  0.3158 -0.6707
14887SOL     OW50496  10.606   0.148  10.352  0.1761  0.3865  1.0605
14887SOL    HW150497  10.575   0.074  10.300  2.0587  0.1694  0.1777
14887SOL    HW250498  10.531   0.207  10.356 -0.8877 -0.8782  0.5189
14888SOL     OW50499   8.158   3.543   5.020  0.1860  0.0969 -0.1984
14888SOL    HW150500   8.128   3.578   5.104  1.6392 -0.9118  0.7954
14888SOL    HW250501   8.208   3.614   4.980 -2.7304  1.5509 -1.5580
14889SOL     OW50502   7.735   5.812   1.652  0.2192  0.4589  0.4900
14889SOL    HW150503   7.768   5.727   1.623 -1.7961  0.3801 -1.8822
14889SOL    HW250504   7.762   5.873   1.584 -0.7036  1.1964  0.7592
14890SOL     OW50505   4.499   7.473   7.685  0.2120  0.1129 -0.3065
14890SOL    HW150506   4.580   7.491   7.637 -0.6432  2.0602 -1.1404
14890SOL    HW250507   4.470   7.388   7.653  0.5641  0.5906 -1.9989
14891SOL     OW50508   7.036   4.176   5.423  0.1004  0.4245  0.1887
14891SOL    HW150509   7.019   4.218   5.339  1.7979  0.5502 -0.1265
14891SOL    HW250510   7.104   4.111   5.404 -0.4341 -0.4764  1.2184
14892SOL     OW50511  10.475   9.502   3.830 -0.1961  0.6690 -0.2105
14892SOL    HW150512  10.385   9.492   3.860  0.4371 -0.3297  1.4287
14892SOL    HW250513  10.510   9.574   3.882  0.0742  0.8140 -0.5862
14893SOL     OW50514   8.087   9.226   7.151  0.1182 -0.0832  0.4353
14893SOL    HW150515   8.058   9.162   7.216 -2.6942  1.1649  0.5388
14893SOL    HW250516   8.033   9.207   7.073 -0.8960  2.1644  0.5208
14894SOL     OW50517   7.650  10.080   2.841 -0.1077  0.3824 -0.3613
14894SOL    HW150518   7.727  10.051   2.794  0.0877  0.3279 -0.0112
14894SOL    HW250519   7.579  10.023   2.810 -0.2541  1.1575 -1.5108
14895SOL     OW50520   5.134   3.932   8.520  0.1234  0.3337 -0.0541
14895SOL    HW150521   5.220   3.961   8.490  0.6102 -0.8724  0.1211
14895SOL    HW250522   5.115   3.853   8.469 -0.4703  0.0789  0.5322
14896SOL     OW50523   9.813  10.461   5.913 -0.4232  0.0321  0.3676
14896SOL    HW150524   9.895  10.449   5.866 -0.1615 -0.0608  0.8360
14896SOL    HW250525   9.839  10.466   6.005 -1.0811 -1.4570  0.6592
14897SOL     OW50526   6.064   3.830   4.021  0.6091  0.3504  0.1402
14897SOL    HW150527   6.124   3.870   4.084  1.6895 -0.4005 -0.3892
14897SOL    HW250528   6.118   3.811   3.945  0.3836 -2.8584  0.6471
14898SOL     OW50529   8.164  10.047   5.057  0.3413  0.8670 -0.0356
14898SOL    HW150530   8.103  10.122   5.058  0.7514  1.2018  0.3648
14898SOL    HW250531   8.159  10.012   5.146 -0.7811 -0.3672 -0.5436
14899SOL     OW50532   2.699  10.623   7.029  0.3129  0.5447  0.3896
14899SOL    HW150533   2.701  10.529   7.045  2.8999  0.5672  0.6902
14899SOL    HW250534   2.652  10.633   6.946 -1.7297 -0.7794  1.3113
14900SOL     OW50535   4.634   0.519   5.469 -0.1826 -0.2782 -0.2038
14900SOL    HW150536   4.596   0.433   5.483 -1.1888  0.1969  0.0920
14900SOL    HW250537   4.727   0.508   5.488  0.0002 -1.6482 -1.6840
14901SOL     OW50538   6.811   0.587   5.184  0.4406 -0.0586 -0.3508
14901SOL    HW150539   6.787   0.597   5.276 -0.4069  1.3691 -0.6956
14901SOL    HW250540   6.738   0.626   5.136  0.6313 -1.2574 -1.6499
14902SOL     OW50541   0.194   1.817   1.251  0.4246  0.1904  0.0467
14902SOL    HW150542   0.265   1.753   1.245 -0.1964 -0.3948 -1.9509
14902SOL    HW250543   0.136   1.782   1.319  1.8600  0.5296  1.4970
14903SOL     OW50544   5.609   6.862   0.802  0.0526  0.3568  0.2862
14903SOL    HW150545   5.640   6.911   0.726  1.8560 -1.0158  0.0785
14903SOL    HW250546   5.667   6.889   0.873  1.6875 -2.0006 -0.0298
14904SOL     OW50547   6.634  10.314   9.728 -0.3046 -0.8768 -0.1284
14904SOL    HW150548   6.576  10.276   9.662 -0.4652 -1.0116  0.0878
14904SOL    HW250549   6.672  10.390   9.685 -1.0069 -0.5101 -0.1177
14905SOL     OW50550   6.764   7.540   5.398  0.4809 -0.1633  0.3460
14905SOL    HW150551   6.826   7.476   5.435  2.4674  1.1080 -0.5782
14905SOL    HW250552   6.729   7.585   5.475  0.5460 -1.0372  0.9081
14906SOL     OW50553   7.954   1.272  10.521  0.1863  0.1795 -0.1924
14906SOL    HW150554   8.026   1.255  10.582  0.9201  0.8468 -0.8358
14906SOL    HW250555   7.970   1.211  10.449  0.0602  0.2695 -0.2963
14907SOL     OW50556  10.436   1.602   3.312  0.0153  0.2583 -0.0500
14907SOL    HW150557  10.517   1.598   3.260 -0.4572 -0.9415 -0.7172
14907SOL    HW250558  10.399   1.514   3.306 -1.1210  0.6753  0.6161
14908SOL     OW50559   2.077   9.667  10.087  0.6852 -0.6383 -0.0527
14908SOL    HW150560   2.011   9.726  10.123 -0.8361 -2.1296 -0.2494
14908SOL    HW250561   2.086   9.598  10.153 -1.7161 -3.1132 -2.0802
14909SOL     OW50562   4.203   9.088   5.161 -0.1110 -0.3788  0.3261
14909SOL    HW150563   4.239   9.113   5.076 -3.2219  0.2514 -0.9578
14909SOL    HW250564   4.162   9.003   5.146  0.3417 -0.8353  1.5506
14910SOL     OW50565   6.933   7.272   9.800  0.2291 -0.3656 -0.4174
14910SOL    HW150566   6.961   7.319   9.722 -0.4600  0.8444  0.0419
14910SOL    HW250567   6.890   7.194   9.767  1.0590 -0.5085 -1.2053
14911SOL     OW50568   5.299   7.754   9.994 -0.3206  0.3697  1.1119
14911SOL    HW150569   5.345   7.707   9.924  0.5259 -1.3841  2.7791
14911SOL    HW250570   5.255   7.826   9.948  0.4915 -0.4789 -1.1729
14912SOL     OW50571   6.488   2.736  10.486 -0.0673  0.0161  0.4690
14912SOL    HW150572   6.466   2.828  10.501  1.4273  0.1637  2.0367
14912SOL    HW250573   6.563   2.739  10.426 -0.0852 -0.1928  0.4373
14913SOL     OW50574   6.210   3.075   4.480  0.1759 -0.5867  0.2113
14913SOL    HW150575   6.238   3.084   4.570  1.6579  0.3454 -0.3164
14913SOL    HW250576   6.128   3.026   4.485  0.1255 -0.3600  2.0599
14914SOL     OW50577   7.387   0.535   5.355  0.7297 -0.0143  0.0768
14914SOL    HW150578   7.399   0.628   5.337 -0.3201 -0.0809 -1.0993
14914SOL    HW250579   7.385   0.493   5.269  0.2819 -1.0049  0.5399
14915SOL     OW50580   2.394   7.316   1.508  0.0322  0.6003  0.2498
14915SOL    HW150581   2.365   7.308   1.418  0.7759  0.3448  0.0270
14915SOL    HW250582   2.383   7.229   1.546 -0.7700  0.8276  0.5679
14916SOL     OW50583   7.387   5.181   3.164  0.2897  0.1750 -0.3176
14916SOL    HW150584   7.328   5.252   3.140  1.0577  0.5453 -1.2063
14916SOL    HW250585   7.331   5.104   3.171 -0.1249  0.2162 -2.5437
14917SOL     OW50586   5.725   7.631   2.647 -0.3657  0.3642 -0.4321
14917SOL    HW150587   5.673   7.573   2.591  1.9364 -0.2851 -2.0355
14917SOL    HW250588   5.814   7.596   2.642  0.1134  0.6763  3.1772
14918SOL     OW50589   0.948   4.983   3.914  0.1241 -0.3580 -0.3344
14918SOL    HW150590   0.988   5.008   3.998  0.9521 -2.0228 -0.1793
14918SOL    HW250591   1.004   5.023   3.848  0.4753 -0.4469 -0.0962
14919SOL     OW50592   3.052   9.553   4.003  0.4412  0.1430  0.1453
14919SOL    HW150593   3.014   9.556   3.915  2.0993 -2.9675 -0.8537
14919SOL    HW250594   2.976   9.557   4.062 -0.8216  0.9443 -1.4347
14920SOL     OW50595   8.015   2.706   0.899 -0.0276 -0.9453  0.0656
14920SOL    HW150596   8.100   2.735   0.866 -0.7085  1.4884  0.2868
14920SOL    HW250597   8.029   2.691   0.993  0.0928 -0.2244  0.1660
14921SOL     OW50598   4.372   8.223   8.537 -0.1982  0.0980  0.1761
14921SOL    HW150599   4.337   8.258   8.619  0.3882  1.8199 -0.2647
14921SOL    HW250600   4.439   8.160   8.565  0.0951  0.7606  1.0336
14922SOL     OW50601   0.686   0.353  10.219  0.5673 -0.3889  0.0685
14922SOL    HW150602   0.759   0.330  10.276 -0.7753 -2.3482  1.1045
14922SOL    HW250603   0.610   0.354  10.276 -0.3464  1.0089 -1.0983
14923SOL     OW50604  10.286   4.792   5.812 -0.3749  0.0283  0.0228
14923SOL    HW150605  10.368   4.776   5.764 -1.0164 -1.6659 -0.5708
14923SOL    HW250606  10.314   4.837   5.892  1.1055 -0.2193 -0.3209
14924SOL     OW50607   1.283   1.299   8.024 -0.7232 -0.2532 -0.3838
14924SOL    HW150608   1.299   1.390   7.999 -0.4678 -0.3984 -0.7694
14924SOL    HW250609   1.368   1.256   8.011 -0.7519 -0.4716  0.1308
14925SOL     OW50610   1.748   4.329   7.468  0.1858  0.5914 -0.3017
14925SOL    HW150611   1.692   4.269   7.518 -0.1971  0.6070 -0.7094
14925SOL    HW250612   1.837   4.297   7.484  0.2725  1.7374  1.9733
14926SOL     OW50613   2.120   1.357   5.383 -0.4370 -0.4631  0.5559
14926SOL    HW150614   2.070   1.327   5.459 -0.9957 -0.3754  0.2348
14926SOL    HW250615   2.072   1.322   5.308 -0.6633  0.5688  0.2053
14927SOL     OW50616   6.510   8.770  10.561 -0.0112 -0.1942 -0.1266
14927SOL    HW150617   6.533   8.764  10.653 -0.5950 -0.8552 -0.0161
14927SOL    HW250618   6.416   8.751  10.558  0.4871 -2.9581 -1.1335
14928SOL     OW50619   1.137   1.236   6.517 -0.6295  0.2596  0.4670
14928SOL    HW150620   1.124   1.311   6.576 -0.9481 -0.1061  0.8722
14928SOL    HW250621   1.075   1.170   6.549  0.0505 -0.3868  0.4747
14929SOL     OW50622   4.986   3.195   2.736 -0.0736 -0.3871  0.3523
14929SOL    HW150623   4.944   3.182   2.652  1.1562 -0.0746 -0.3344
14929SOL    HW250624   4.915   3.215   2.796 -0.9668 -0.6553 -0.5982
14930SOL     OW50625   1.279   0.853   9.332 -0.1535  0.2609 -0.2102
14930SOL    HW150626   1.211   0.862   9.398  0.5114 -0.9572  0.6731
14930SOL    HW250627   1.315   0.941   9.321 -1.5884  0.8452 -0.4178
14931SOL     OW50628   7.429   7.113   6.252  0.1785 -0.2720  0.5055
14931SOL    HW150629   7.392   7.026   6.235 -2.1081  0.0074  3.1886
14931SOL    HW250630   7.354   7.172   6.244  1.5274  1.3961 -0.4711
14932SOL     OW50631   0.664   3.693   2.733 -0.3839 -0.0355  0.6245
14932SOL    HW150632   0.659   3.613   2.681  1.9543  0.3031 -0.2476
14932SOL    HW250633   0.649   3.665   2.823  1.7945 -1.7661  0.5453
14933SOL     OW50634   1.172  10.235   0.244  0.8035 -0.3269  0.0011
14933SOL    HW150635   1.114  10.168   0.280  2.0784 -0.6372  1.5946
14933SOL    HW250636   1.260  10.205   0.268  1.5148  1.0030 -0.8449
14934SOL     OW50637   6.756   0.319   7.376  0.2286 -0.3011 -0.7233
14934SOL    HW150638   6.740   0.226   7.390  1.0517 -0.5019 -1.0566
14934SOL    HW250639   6.797   0.349   7.457 -1.4807  0.1464  0.0144
14935SOL     OW50640  10.314   2.174   4.530 -0.4130  0.2312 -0.5176
14935SOL    HW150641  10.356   2.110   4.587 -1.7643 -0.5032 -0.2857
14935SOL    HW250642  10.340   2.259   4.565  0.7358 -0.1898 -0.3144
14936SOL     OW50643   8.708   7.752   6.902 -0.6175 -0.2774  0.3142
14936SOL    HW150644   8.648   7.783   6.834  0.0204 -0.3752 -0.3197
14936SOL    HW250645   8.706   7.656   6.893 -0.9983 -0.3242  0.8552
14937SOL     OW50646   3.653   3.949   2.714  0.7692  0.8940 -0.0790
14937SOL    HW150647   3.613   3.947   2.801  2.7689  0.2669  0.8662
14937SOL    HW250648   3.725   4.012   2.722 -0.2487  2.4031 -1.8941
14938SOL     OW50649   3.701  10.089   8.656 -0.6247 -0.0985 -0.0225
14938SOL    HW150650   3.768  10.158   8.660 -0.2268 -0.5279  1.0591
14938SOL    HW250651   3.713  10.049   8.570  0.4023 -0.0555  0.0896
14939SOL     OW50652   6.171   6.606   6.228 -0.1833  0.4687 -0.4438
14939SOL    HW150653   6.238   6.555   6.181  0.5212  1.2622 -0.3267
14939SOL    HW250654   6.187   6.696   6.200 -0.4743  0.8040  0.4687
14940SOL     OW50655   1.066   8.422   9.162  0.4755  0.7887 -0.5895
14940SOL    HW150656   1.098   8.433   9.072 -1.2522  1.6504 -1.1355
14940SOL    HW250657   1.017   8.340   9.159 -1.4832  1.9274 -1.0535
14941SOL     OW50658   6.447   7.186   9.294  0.5767  0.5514 -0.2389
14941SOL    HW150659   6.441   7.161   9.202  1.1924  1.2417 -0.4788
14941SOL    HW250660   6.540   7.178   9.314  0.2689 -0.9445  0.7306
14942SOL     OW50661   9.176   3.658   2.713 -0.2661 -0.5913 -0.4674
14942SOL    HW150662   9.263   3.681   2.679  1.2894 -1.3046  2.6475
14942SOL    HW250663   9.131   3.618   2.639  1.7416  0.5428 -2.4127
14943SOL     OW50664   8.644   6.218   0.076  0.1617 -0.0987 -0.3053
14943SOL    HW150665   8.693   6.265   0.009 -0.7899  3.0911  1.0582
14943SOL    HW250666   8.636   6.280   0.148 -1.2178 -2.4151  1.6887
14944SOL     OW50667   1.317   0.425  10.224  0.0447 -0.2702 -0.4494
14944SOL    HW150668   1.301   0.344  10.273  2.0301  0.1802  1.0455
14944SOL    HW250669   1.344   0.488  10.290  1.2421  0.8368 -1.9438
14945SOL     OW50670   0.517   2.933   2.251 -0.0557  0.1010 -0.0137
14945SOL    HW150671   0.549   2.873   2.184 -0.4150 -0.6722  0.4923
14945SOL    HW250672   0.594   2.955   2.303  0.7950  2.7677 -2.1732
14946SOL     OW50673   9.886   9.311   7.167 -0.5332 -0.0969 -0.1984
14946SOL    HW150674   9.941   9.383   7.198 -0.5605  1.0622 -2.5988
14946SOL    HW250675   9.945   9.258   7.113 -1.3766  0.4080 -1.6877
14947SOL     OW50676   0.252   1.277   5.712 -0.5052  0.8151  0.3938
14947SOL    HW150677   0.216   1.340   5.775  0.0350 -0.7877  2.4520
14947SOL    HW250678   0.175   1.240   5.668 -0.7868  3.3415 -1.3805
14948SOL     OW50679   6.252   1.082   2.559  0.1433 -0.6102 -0.3833
14948SOL    HW150680   6.201   1.139   2.501  1.2037  0.4491 -0.3034
14948SOL    HW250681   6.186   1.043   2.617 -0.6002  0.7591 -0.2502
14949SOL     OW50682   5.270   3.904   3.352 -0.4562 -0.1058 -0.0385
14949SOL    HW150683   5.219   3.967   3.300  0.1475  1.9503  1.7055
14949SOL    HW250684   5.247   3.925   3.442  0.3221 -1.9821  0.6265
14950SOL     OW50685   9.165   4.276   5.929  0.5265  0.2771 -0.0226
14950SOL    HW150686   9.202   4.221   5.860 -2.7275 -1.5072 -0.5773
14950SOL    HW250687   9.197   4.236   6.010  1.6709  0.2832 -0.4509
14951SOL     OW50688   2.409   2.406   9.823  0.1756 -0.6372 -0.1680
14951SOL    HW150689   2.358   2.361   9.891 -0.8152 -1.9955 -1.7331
14951SOL    HW250690   2.379   2.366   9.741  0.5348  1.7121 -1.5110
14952SOL     OW50691   0.749   9.952   4.135  0.0887  0.4677 -0.2344
14952SOL    HW150692   0.822   9.941   4.074 -0.4861 -2.0786 -0.5758
14952SOL    HW250693   0.789   9.944   4.222  0.2869 -0.5604 -0.4115
14953SOL     OW50694  10.203   9.627   0.283 -0.2647 -0.1066 -0.0038
14953SOL    HW150695  10.154   9.707   0.299  0.6728  1.0558 -2.4602
14953SOL    HW250696  10.136   9.561   0.263 -0.9273  1.0993 -1.9304
14954SOL     OW50697   7.058   5.696   7.637  0.4145  0.0047  0.0063
14954SOL    HW150698   7.133   5.752   7.620  0.0451  0.9165  1.2361
14954SOL    HW250699   7.023   5.675   7.550  2.2389 -0.6896 -0.5929
14955SOL     OW50700   5.923   5.443   1.646  0.0842  0.4485 -0.0905
14955SOL    HW150701   5.857   5.398   1.593  0.3447  0.8002 -0.7259
14955SOL    HW250702   5.875   5.473   1.724 -0.3933  0.2773 -0.3174
14956SOL     OW50703   3.909   7.850   0.868  0.1271  0.7415  0.6795
14956SOL    HW150704   3.922   7.755   0.861  0.6777  0.6120  2.7746
14956SOL    HW250705   3.815   7.862   0.853  0.5096  0.3225 -2.9104
14957SOL     OW50706   1.453   5.039  10.077 -0.0087 -0.0336  0.4100
14957SOL    HW150707   1.481   5.105  10.141 -1.0369  0.8392 -0.0093
14957SOL    HW250708   1.468   5.081   9.992 -0.4041 -0.4506  0.1316
14958SOL     OW50709  10.292   6.675  10.568 -0.3327  0.3679  0.2164
14958SOL    HW150710  10.379   6.639  10.552 -0.4652 -0.2038  0.7562
14958SOL    HW250711  10.254   6.686  10.480  0.1011  0.1714  0.0038
14959SOL     OW50712   2.110   3.883   3.669 -0.1008  0.4894  0.1766
14959SOL    HW150713   2.064   3.800   3.656  1.2572 -0.1535 -0.8411
14959SOL    HW250714   2.165   3.868   3.746  3.4297 -1.2409 -2.3601
14960SOL     OW50715   0.027   8.718   9.178 -0.0790  0.1637 -0.2096
14960SOL    HW150716   0.121   8.728   9.166 -0.0555 -0.5585 -0.7108
14960SOL    HW250717   0.017   8.635   9.225 -0.3435  1.5443  2.3033
14961SOL     OW50718   2.904   6.776   9.561 -0.3891  0.5194 -0.4208
14961SOL    HW150719   2.981   6.810   9.515  0.4654  1.1583  1.3896
14961SOL    HW250720   2.887   6.840   9.630 -3.2143  0.9568 -1.3648
14962SOL     OW50721   0.703   8.118   4.131 -0.0660  0.1868  0.4168
14962SOL    HW150722   0.687   8.185   4.065  0.4317  0.6342  0.7373
14962SOL    HW250723   0.730   8.041   4.082  1.9240  0.9878  0.1480
14963SOL     OW50724   1.142   0.034   8.742  0.3803  0.1904  0.1309
14963SOL    HW150725   1.092   0.102   8.696 -2.0790 -0.6257  1.4185
14963SOL    HW250726   1.232   0.067   8.743 -0.0485  1.6884 -2.4221
14964SOL     OW50727  10.636   6.013   5.748 -0.3827 -0.5635 -0.7220
14964SOL    HW150728  10.728   5.987   5.745 -0.3718 -0.9038  1.0292
14964SOL    HW250729  10.591   5.949   5.693  0.2847 -1.2149 -0.5247
14965SOL     OW50730   3.103   9.707   0.770  0.0395 -0.2216 -0.1668
14965SOL    HW150731   3.090   9.793   0.810 -1.6509 -1.2260  1.5715
14965SOL    HW250732   3.100   9.724   0.676 -0.2052  1.6093  0.1346
14966SOL     OW50733   7.995  10.442   2.715 -0.0335 -0.4699  0.9518
14966SOL    HW150734   8.054  10.508   2.680 -0.6950  0.1743  1.0323
14966SOL    HW250735   8.051  10.387   2.771  0.2697  0.8350  1.9691
14967SOL     OW50736   1.163  10.161   3.655  0.0264  0.2138  0.2843
14967SOL    HW150737   1.186  10.251   3.629 -0.8710 -0.0603 -1.6533
14967SOL    HW250738   1.138  10.169   3.747 -0.8617  2.1305 -0.0594
14968SOL     OW50739   8.541   9.431   5.998  0.3054 -0.1912  0.2474
14968SOL    HW150740   8.486   9.432   6.077 -0.0242  1.2502  0.0339
14968SOL    HW250741   8.541   9.339   5.970  0.7129 -0.8080  2.0958
14969SOL     OW50742   8.536  10.234   5.379 -0.0217  0.5657 -0.4374
14969SOL    HW150743   8.457  10.277   5.412  0.5249  2.0143 -0.9331
14969SOL    HW250744   8.526  10.235   5.284  0.4304  0.4243 -0.4907
14970SOL     OW50745   6.750   8.827   5.507  0.0727  0.0583 -0.4514
14970SOL    HW150746   6.837   8.832   5.546  0.4176 -1.7006 -0.9034
14970SOL    HW250747   6.751   8.747   5.454 -2.0493 -0.4504  0.1466
14971SOL     OW50748  10.637   4.552   8.279  0.4690 -0.0322  0.4412
14971SOL    HW150749  10.565   4.600   8.318  0.2581  0.9679 -1.0974
14971SOL    HW250750  10.699   4.537   8.351 -0.4276  0.7032  1.3808
14972SOL     OW50751   1.475  10.451  10.278  0.1834 -0.5119 -0.0583
14972SOL    HW150752   1.547  10.397  10.310  0.7461  0.5522  0.5139
14972SOL    HW250753   1.517  10.521  10.229 -0.5271 -0.5118 -0.6758
14973SOL     OW50754   1.935   0.212   5.045  0.6065  0.0488  0.4077
14973SOL    HW150755   1.944   0.131   4.994  0.5448 -0.7416  1.6308
14973SOL    HW250756   1.897   0.184   5.128  0.0234  1.4258  0.6308
14974SOL     OW50757   8.025   2.173   2.749 -0.1528 -0.4840 -0.8969
14974SOL    HW150758   8.095   2.239   2.745 -0.0812 -0.5752 -1.1567
14974SOL    HW250759   7.955   2.211   2.696 -0.8711  0.2782  0.5437
14975SOL     OW50760   8.425   2.524   5.707  0.1332  0.1296 -0.2817
14975SOL    HW150761   8.417   2.542   5.614 -1.5369  1.3916  0.0542
14975SOL    HW250762   8.357   2.459   5.725  1.0336 -0.7788 -0.0838
14976SOL     OW50763   6.605   8.599   1.286 -0.1938 -0.2563 -0.6175
14976SOL    HW150764   6.515   8.631   1.292 -0.1330  0.4303 -2.5839
14976SOL    HW250765   6.600   8.508   1.314 -1.6481 -0.4468 -1.3867
14977SOL     OW50766   5.285   9.717   3.241 -0.0851  0.5335  0.1358
14977SOL    HW150767   5.314   9.792   3.190  0.2739  0.3525  0.0733
14977SOL    HW250768   5.194   9.703   3.213  0.6510 -0.7226 -1.8711
14978SOL     OW50769   4.469   2.475  10.197 -0.0636  0.0586 -0.5161
14978SOL    HW150770   4.515   2.428  10.267 -0.2905 -0.0674 -0.4515
14978SOL    HW250771   4.503   2.565  10.202 -1.8081  0.7081  1.3500
14979SOL     OW50772   1.001  10.720   3.679 -0.2355 -0.5532  0.0711
14979SOL    HW150773   0.996  10.756   3.767 -0.9794 -0.8873  0.1646
14979SOL    HW250774   0.956  10.636   3.684  0.8049 -1.1569 -0.3356
14980SOL     OW50775   0.267   0.022   1.144 -0.6596  0.0728  0.2931
14980SOL    HW150776   0.270   0.116   1.160  0.3390  0.1005  0.0219
14980SOL    HW250777   0.266  -0.018   1.231 -1.0208  0.3265  0.4078
14981SOL     OW50778   4.673   8.185  10.597  0.5107  0.0957  0.2871
14981SOL    HW150779   4.595   8.151  10.553  1.5863 -1.1845 -0.7121
14981SOL    HW250780   4.690   8.123  10.668  0.8966  0.1017  0.2006
14982SOL     OW50781   7.049   2.963   6.149 -0.2389  0.6227  0.1715
14982SOL    HW150782   7.074   2.907   6.222  1.9135 -0.4017 -1.2279
14982SOL    HW250783   7.108   2.937   6.078 -0.4592  3.3370 -1.1374
14983SOL     OW50784   6.344   4.929   9.196  0.2789  0.5141 -0.0369
14983SOL    HW150785   6.428   4.925   9.150  0.9485  0.8472  1.1268
14983SOL    HW250786   6.297   4.851   9.166  1.6815 -0.6001  0.5543
14984SOL     OW50787   6.571   0.573   6.731 -0.4156 -0.2047 -0.0280
14984SOL    HW150788   6.615   0.504   6.682  0.7520  1.1152 -0.9151
14984SOL    HW250789   6.586   0.551   6.823  0.3549 -0.8699 -0.3052
14985SOL     OW50790   4.996   9.624   7.496  0.2490 -0.0350 -0.2184
14985SOL    HW150791   5.018   9.543   7.449  0.0575  0.4201 -1.1156
14985SOL    HW250792   5.044   9.618   7.578 -0.0695 -1.2491 -0.0925
14986SOL     OW50793   3.112   1.287   0.465  0.7825  0.3936 -0.2687
14986SOL    HW150794   3.058   1.330   0.531  1.0391  0.0250  0.1844
14986SOL    HW250795   3.056   1.282   0.388  0.8653  1.8575 -0.4512
14987SOL     OW50796   0.378   6.969  10.153  0.4760 -0.1259 -0.3804
14987SOL    HW150797   0.324   6.954  10.076 -0.3123 -1.5448  0.4246
14987SOL    HW250798   0.465   6.987  10.118  0.3873 -1.8541 -1.5950
14988SOL     OW50799   7.628   7.173  10.126 -0.4014  0.4649  0.6419
14988SOL    HW150800   7.582   7.174  10.210  0.2253 -0.2078  1.0147
14988SOL    HW250801   7.564   7.141  10.063 -0.5128 -0.2361  1.1050
14989SOL     OW50802   6.117   0.254   1.994  0.6771  0.0481  0.5163
14989SOL    HW150803   6.192   0.196   2.008 -0.7830 -1.8269  1.1176
14989SOL    HW250804   6.103   0.298   2.078  1.3714  0.7708  0.2620
14990SOL     OW50805   4.576   9.420   7.941  0.3460 -0.2442  0.1537
14990SOL    HW150806   4.483   9.443   7.935  0.9279  2.0624 -1.3357
14990SOL    HW250807   4.592   9.367   7.863  0.5358  0.5756 -0.3871
14991SOL     OW50808   3.877   3.199   1.594  0.2131 -0.3545  0.3840
14991SOL    HW150809   3.854   3.276   1.543 -1.0844 -0.9867 -0.0248
14991SOL    HW250810   3.853   3.222   1.684 -0.6024 -0.4370  0.1929
14992SOL     OW50811  10.193   4.571   6.108 -0.3671  0.3293  0.1880
14992SOL    HW150812  10.283   4.548   6.132 -0.0301  0.8770 -0.5422
14992SOL    HW250813  10.151   4.588   6.192 -0.0693 -0.8681  0.6129
14993SOL     OW50814   1.445   8.722   0.121 -0.0646  0.3228  0.5701
14993SOL    HW150815   1.386   8.776   0.174  0.9956 -1.1795  3.4833
14993SOL    HW250816   1.392   8.647   0.094 -0.4371  0.7807  0.0036
14994SOL     OW50817   5.395   7.208   0.397 -0.0243  0.0145 -0.4545
14994SOL    HW150818   5.360   7.221   0.309 -0.3413  0.7214 -0.2298
14994SOL    HW250819   5.318   7.192   0.452  0.1643 -0.3385 -0.2887
14995SOL     OW50820   5.563   3.371   7.745  0.1506  0.3814  0.4813
14995SOL    HW150821   5.644   3.402   7.703  0.3013 -0.4077  0.1744
14995SOL    HW250822   5.590   3.293   7.794 -0.3555  0.3308  0.6855
14996SOL     OW50823   0.650   7.284   1.102 -0.1137  0.0853 -0.3628
14996SOL    HW150824   0.708   7.347   1.145  0.1267 -0.9375  0.8859
14996SOL    HW250825   0.663   7.299   1.009  0.9202  0.9901 -0.0925
14997SOL     OW50826   2.704   2.245   3.481 -0.7281  0.3420  0.0939
14997SOL    HW150827   2.653   2.297   3.543  0.5003 -0.0225  1.4544
14997SOL    HW250828   2.777   2.301   3.456  1.5119 -1.0913  2.7882
14998SOL     OW50829   0.894   1.167  10.582 -0.2590  0.0361 -0.7593
14998SOL    HW150830   0.870   1.255  10.554 -0.2931 -0.0664 -1.0527
14998SOL    HW250831   0.814   1.116  10.570 -0.0778 -0.1622 -1.1270
14999SOL     OW50832   6.439   2.486   3.543 -0.3379 -0.0859 -0.4411
14999SOL    HW150833   6.469   2.464   3.632 -0.0440 -1.0849 -0.7710
14999SOL    HW250834   6.346   2.463   3.543 -0.5601  0.7884 -0.1219
15000SOL     OW50835   3.610  10.656   1.367  0.2680 -0.2999 -0.5674
15000SOL    HW150836   3.579  10.649   1.277 -1.2053  0.0270 -0.1112
15000SOL    HW250837   3.664  10.578   1.380  0.8632 -0.1304 -1.8450
15001SOL     OW50838   6.413   2.647   1.022 -0.2834  0.0844  0.5772
15001SOL    HW150839   6.333   2.677   0.979 -0.5758  0.4631  1.3579
15001SOL    HW250840   6.472   2.624   0.950 -0.5310  1.2813 -0.0415
15002SOL     OW50841   4.365   8.321   0.658  0.5514 -0.0277  0.6735
15002SOL    HW150842   4.379   8.367   0.741  1.0873  1.6092 -0.2649
15002SOL    HW250843   4.278   8.284   0.665  0.3940  0.5080  1.7851
15003SOL     OW50844   3.055   4.837   9.473 -0.5587 -0.4974 -0.3082
15003SOL    HW150845   3.057   4.747   9.507 -0.9445  0.0509  1.2549
15003SOL    HW250846   2.971   4.843   9.427 -1.0772 -0.5846  0.6170
15004SOL     OW50847   1.775   7.109   3.649 -0.5866  0.2129 -0.1787
15004SOL    HW150848   1.695   7.156   3.626 -1.3769  0.0499  1.9868
15004SOL    HW250849   1.828   7.174   3.696  0.1624  0.0579 -0.7797
15005SOL     OW50850   8.711   5.024   7.104 -0.3819  0.6894 -0.1951
15005SOL    HW150851   8.785   4.980   7.062 -2.2707 -3.2932  0.1689
15005SOL    HW250852   8.697   5.102   7.050  3.3055  1.0532 -0.9093
15006SOL     OW50853  10.154   1.225   2.588 -0.0263  0.5095  0.5301
15006SOL    HW150854  10.196   1.186   2.664  0.3337  0.6301  0.3991
15006SOL    HW250855  10.157   1.320   2.605 -0.5016  0.5069  0.6481
15007SOL     OW50856   6.659   6.497   6.474 -0.1549  0.3652 -0.0708
15007SOL    HW150857   6.596   6.455   6.415 -0.0246 -1.3395  0.9322
15007SOL    HW250858   6.698   6.424   6.522  1.4535  1.5212  0.4508
15008SOL     OW50859   6.475   6.299   7.515 -0.1534  0.1865  0.2713
15008SOL    HW150860   6.420   6.377   7.512  0.3678  0.5220 -1.4819
15008SOL    HW250861   6.556   6.329   7.558 -0.2722  0.3873  0.3563
15009SOL     OW50862  10.280   1.091   8.134  0.0218  0.2603 -0.0163
15009SOL    HW150863  10.310   1.171   8.090 -1.3163  0.6545 -0.2736
15009SOL    HW250864  10.360   1.047   8.161  0.8345  0.9539 -1.1903
15010SOL     OW50865   0.767  10.192   2.016 -0.3601 -0.3359 -0.0342
15010SOL    HW150866   0.683  10.146   2.022 -0.2832 -0.3120  2.4380
15010SOL    HW250867   0.828  10.128   1.980 -1.5494 -0.0885 -2.6733
15011SOL     OW50868   2.404   5.301   8.102 -0.7700 -0.3472 -0.2696
15011SOL    HW150869   2.443   5.239   8.041 -0.4602 -1.0364  0.5974
15011SOL    HW250870   2.425   5.387   8.066  1.3741 -0.6863  0.0245
15012SOL     OW50871   5.813   0.286   6.127 -0.2777  0.1328  0.4824
15012SOL    HW150872   5.834   0.221   6.060 -3.4232 -0.4469 -0.1100
15012SOL    HW250873   5.797   0.367   6.078  0.7821  0.6350  0.9310
15013SOL     OW50874   6.154   2.737   8.160  0.4057 -0.0403  0.2381
15013SOL    HW150875   6.191   2.807   8.215  1.5359 -0.6754  0.3121
15013SOL    HW250876   6.060   2.754   8.161  0.5736  0.9838  0.9525
15014SOL     OW50877   0.892   0.194   7.448  0.6824 -0.6019 -0.0041
15014SOL    HW150878   0.822   0.244   7.407 -0.1799 -0.7492  1.2321
15014SOL    HW250879   0.877   0.104   7.418  2.9105 -0.0926 -3.1589
15015SOL     OW50880   9.049   9.003   4.624 -0.2417 -0.2516 -0.0105
15015SOL    HW150881   9.070   9.089   4.587 -0.3020 -0.1317  0.2353
15015SOL    HW250882   9.068   8.942   4.553 -1.6225  0.0847 -0.7218
15016SOL     OW50883   1.899   5.325   1.451 -0.5443  0.1376 -0.5102
15016SOL    HW150884   1.852   5.407   1.462 -2.5342 -0.6363 -2.4510
15016SOL    HW250885   1.867   5.269   1.523  0.2193  0.7697  0.3410
15017SOL     OW50886   7.188   6.336   8.401  0.1989 -0.7715  0.0081
15017SOL    HW150887   7.209   6.372   8.487  1.8154  0.0001 -0.6685
15017SOL    HW250888   7.199   6.242   8.410  2.4481 -0.5393  0.1410
15018SOL     OW50889   7.747   1.469   3.089  0.2229 -0.5163  0.0112
15018SOL    HW150890   7.690   1.515   3.150  1.2455 -0.7334  1.1834
15018SOL    HW250891   7.695   1.396   3.056 -1.3464  1.2810 -1.6936
15019SOL     OW50892   0.785   1.139  10.284  0.2603  0.4645 -0.1181
15019SOL    HW150893   0.764   1.067  10.344  0.7311  0.5057  0.0947
15019SOL    HW250894   0.707   1.195  10.285 -0.0524  0.0378 -0.1717
15020SOL     OW50895   3.265   2.528   0.672 -0.5044  0.2917 -0.2737
15020SOL    HW150896   3.311   2.578   0.741  2.6448 -1.2670 -1.0336
15020SOL    HW250897   3.274   2.437   0.699 -0.6216 -0.2429 -1.9596
15021SOL     OW50898   5.891   9.058  10.459 -0.0877 -0.2489  0.2021
15021SOL    HW150899   5.971   9.046  10.407  0.9600  0.7578  1.5104
15021SOL    HW250900   5.885   8.978  10.511  1.6142  0.7323  2.0391
15022SOL     OW50901   2.502   0.867   3.083 -0.4548  0.1770  0.2123
15022SOL    HW150902   2.549   0.802   3.134 -0.1405  0.3184  0.1056
15022SOL    HW250903   2.432   0.818   3.039 -0.2752 -0.0714  0.2016
15023SOL     OW50904   9.960   8.557   1.202  0.0024  0.5966  0.7652
15023SOL    HW150905   9.959   8.503   1.281 -1.7668  0.3916  0.6287
15023SOL    HW250906   9.911   8.506   1.137 -0.4286  1.7145  0.1918
15024SOL     OW50907   7.240   3.969   6.415  0.5115 -0.1351 -0.0674
15024SOL    HW150908   7.190   3.952   6.494 -0.0572 -0.5752 -0.5190
15024SOL    HW250909   7.182   4.021   6.360  1.3408  1.2359  0.2868
15025SOL     OW50910   0.615   4.410   0.845  0.5255  0.0625  0.0364
15025SOL    HW150911   0.534   4.445   0.807  0.2184  1.1942  1.6313
15025SOL    HW250912   0.588   4.372   0.928  1.8826  2.2892  1.5889
15026SOL     OW50913   7.017   7.211   0.740 -0.3430 -0.1175  0.1561
15026SOL    HW150914   6.974   7.290   0.773  0.1823 -0.1684  0.9752
15026SOL    HW250915   7.106   7.215   0.775  0.6984  0.5255 -2.3583
15027SOL     OW50916   8.234   9.569  10.417 -0.3963  0.0168 -0.2291
15027SOL    HW150917   8.303   9.581  10.482 -1.9819 -0.7736  1.7169
15027SOL    HW250918   8.251   9.636  10.351  1.2876  0.8695  0.9928
15028SOL     OW50919   6.496   8.673   7.587  0.1317  0.0348  0.2755
15028SOL    HW150920   6.583   8.708   7.606  1.0680 -1.0896 -1.5969
15028SOL    HW250921   6.487   8.682   7.492 -0.1913 -3.2859 -0.1223
15029SOL     OW50922   8.440   1.657   3.985 -0.0762  0.0345  0.0178
15029SOL    HW150923   8.402   1.622   4.065  0.9509  1.0590  1.0012
15029SOL    HW250924   8.372   1.645   3.918 -1.9697  1.4006  1.5940
15030SOL     OW50925   6.302   7.131   1.463 -0.0923  0.2300 -0.2688
15030SOL    HW150926   6.241   7.190   1.419 -1.0520  0.3743  1.1548
15030SOL    HW250927   6.261   7.044   1.454 -0.7039  0.3678  0.9381
15031SOL     OW50928   9.334   8.341   3.067 -0.3180 -0.2364 -0.2640
15031SOL    HW150929   9.381   8.281   3.124 -0.8654 -1.1374 -0.7393
15031SOL    HW250930   9.315   8.417   3.123  0.9832 -0.1922  0.1485
15032SOL     OW50931   0.570   1.404  10.006  0.3551  0.2539 -0.0815
15032SOL    HW150932   0.572   1.498  10.023 -1.9681  0.3392 -0.0648
15032SOL    HW250933   0.568   1.364  10.092  2.1381  0.0868 -0.0615
15033SOL     OW50934   0.817   2.236   6.455  0.4675 -0.0345  0.0364
15033SOL    HW150935   0.909   2.215   6.469  0.3636 -0.3396  0.2714
15033SOL    HW250936   0.817   2.294   6.378  0.8382 -0.1591 -0.0603
15034SOL     OW50937   3.119   1.791   3.228 -0.2028 -0.3240 -0.0889
15034SOL    HW150938   3.203   1.809   3.186  0.0570  0.1321  0.6117
15034SOL    HW250939   3.112   1.696   3.227  0.6037 -0.3950  0.3902
15035SOL     OW50940   7.809   8.516   2.481  0.0092  0.1606 -0.1250
15035SOL    HW150941   7.745   8.521   2.410  1.0658 -1.9878 -1.3416
15035SOL    HW250942   7.860   8.597   2.473 -1.5817  1.2133 -0.0469
15036SOL     OW50943   2.976   4.284   9.565  0.4388  0.3933 -0.1470
15036SOL    HW150944   2.955   4.194   9.591  1.7572  0.0472 -0.1865
15036SOL    HW250945   2.905   4.337   9.601 -0.9034 -0.7740 -1.0021
15037SOL     OW50946   8.202   1.993   4.826  0.2457  0.0231  0.3942
15037SOL    HW150947   8.176   1.945   4.747 -1.3861  0.5099  0.5931
15037SOL    HW250948   8.283   2.038   4.801 -0.0039 -0.1772 -0.8511
15038SOL     OW50949   7.426   8.538   3.749 -0.0763 -0.3277  0.3962
15038SOL    HW150950   7.476   8.471   3.796  2.1422 -0.3264 -1.7530
15038SOL    HW250951   7.470   8.545   3.664 -2.0665  1.7685 -0.5622
15039SOL     OW50952   1.086   8.902   1.304  0.6813  0.1358  0.3819
15039SOL    HW150953   1.160   8.844   1.287 -0.0877 -0.3293 -1.7085
15039SOL    HW250954   1.022   8.878   1.237 -1.0522  1.0589  1.6508
15040SOL     OW50955   1.578   8.550  10.596 -0.1559 -0.4672 -0.3629
15040SOL    HW150956   1.654   8.538  10.653  0.7699 -0.6972 -1.6012
15040SOL    HW250957   1.595   8.633  10.551 -1.8681  0.7829  1.1177
15041SOL     OW50958   6.587   1.609   7.469 -0.0032 -0.5219  0.3846
15041SOL    HW150959   6.528   1.669   7.424 -0.0097 -0.6833  0.1773
15041SOL    HW250960   6.673   1.651   7.464 -0.1215 -0.2159  0.8147
15042SOL     OW50961   5.708   5.551   2.939  0.7115  0.2084  0.2923
15042SOL    HW150962   5.793   5.595   2.933  0.4175  0.7800  0.3020
15042SOL    HW250963   5.700   5.527   3.031  0.7662  0.3405  0.3318
15043SOL     OW50964   5.230   1.181   6.982  0.0214 -0.7607  0.4265
15043SOL    HW150965   5.314   1.227   6.985 -0.6903  0.5533  1.5190
15043SOL    HW250966   5.220   1.156   6.890  0.8082  0.6241 -0.0762
15044SOL     OW50967   4.980   8.590   4.885  0.3954  0.3075  0.0122
15044SOL    HW150968   4.921   8.519   4.860 -1.9761  0.9556  3.1489
15044SOL    HW250969   4.927   8.669   4.881  2.3744  1.6829 -1.2805
15045SOL     OW50970   4.253   1.069   9.780  0.3334 -0.1730 -0.0854
15045SOL    HW150971   4.308   1.138   9.743  1.8162 -1.4340 -0.3250
15045SOL    HW250972   4.313   1.013   9.829 -1.1738 -0.0357  2.0900
15046SOL     OW50973   6.088   1.448   1.167  0.2181 -0.2884  0.3550
15046SOL    HW150974   6.124   1.361   1.153  0.0021 -0.0366 -2.2101
15046SOL    HW250975   5.994   1.438   1.156 -0.3350 -0.3366  3.8377
15047SOL     OW50976   2.018   5.365   8.752  0.2446 -0.0371  0.1784
15047SOL    HW150977   1.957   5.298   8.784  0.6846 -0.7015 -0.3608
15047SOL    HW250978   2.080   5.318   8.697  0.1985  0.9078 -0.7235
15048SOL     OW50979   5.668   6.730   9.391 -0.2643 -0.2993 -0.0527
15048SOL    HW150980   5.691   6.638   9.380 -0.5304 -0.5179  1.1062
15048SOL    HW250981   5.593   6.744   9.333  0.5197 -0.4889 -1.1434
15049SOL     OW50982   2.696   9.711   8.217 -0.0870  0.0974 -0.3169
15049SOL    HW150983   2.692   9.805   8.200  1.9334  0.4393  0.7341
15049SOL    HW250984   2.736   9.674   8.138  0.6942  0.3916 -0.0738
15050SOL     OW50985   0.404   5.561  10.417 -0.9519  0.4276 -0.0634
15050SOL    HW150986   0.376   5.607  10.496  0.4724 -1.7910  1.8729
15050SOL    HW250987   0.499   5.558  10.423 -0.2862  4.0744 -4.2752
15051SOL     OW50988   3.918  10.198   8.162  0.0256  0.0356 -0.1739
15051SOL    HW150989   3.889  10.253   8.090  0.6641  1.1806  0.4206
15051SOL    HW250990   3.953  10.120   8.119  1.0568  1.0064 -1.1575
15052SOL     OW50991   9.047   1.578   1.256  0.4424  0.1193 -0.2807
15052SOL    HW150992   8.981   1.641   1.227  0.6853  0.8307  0.6735
15052SOL    HW250993   9.001   1.493   1.256 -0.3541  0.5414  0.0135
15053SOL     OW50994   6.000   7.361  10.618  0.2929  0.1425 -0.0819
15053SOL    HW150995   6.053   7.440  10.628  2.1066 -0.7971 -1.6482
15053SOL    HW250996   6.064   7.292  10.600 -1.4002 -1.3000 -0.8102
15054SOL     OW50997   6.810   1.764   7.424  0.9828 -0.6731  0.1402
15054SOL    HW150998   6.834   1.840   7.371 -0.4515 -1.5898 -2.0223
15054SOL    HW250999   6.857   1.691   7.384 -0.1960 -1.4095  0.0295
15055SOL     OW51000  10.249   9.643   6.054 -0.3280 -0.0294 -0.3786
15055SOL    HW151001  10.320   9.580   6.064  0.9380  1.5482  1.2185
15055SOL    HW251002  10.208   9.647   6.141 -0.9632  0.7088 -0.6992
15056SOL     OW51003   9.929  10.162   4.549 -0.4109 -0.4781 -0.0879
15056SOL    HW151004   9.883  10.084   4.517  0.3212 -1.4875  1.2205
15056SOL    HW251005   9.897  10.174   4.638  0.0146  0.3168 -0.0288
15057SOL     OW51006   8.222   5.229   8.654 -0.1877  0.1545 -0.2512
15057SOL    HW151007   8.188   5.140   8.655  0.4397 -0.1232 -1.4466
15057SOL    HW251008   8.208   5.260   8.564  1.3753  0.5268 -0.4000
15058SOL     OW51009   4.103   8.769   9.744  0.5044  0.0551 -0.2015
15058SOL    HW151010   4.137   8.720   9.670 -1.8215 -4.6146  1.4625
15058SOL    HW251011   4.154   8.737   9.819 -0.0626  1.4617  0.8238
15059SOL     OW51012   9.796   0.365   5.504  0.2277  0.4985 -0.6153
15059SOL    HW151013   9.867   0.312   5.540  0.1698 -0.8231 -2.3581
15059SOL    HW251014   9.785   0.334   5.414 -2.3203  0.9094 -0.5240
15060SOL     OW51015   7.849   7.643   1.318 -0.2229  0.0986  0.0237
15060SOL    HW151016   7.879   7.553   1.333  0.7772  0.6160  1.2605
15060SOL    HW251017   7.769   7.651   1.371  0.7736  0.5100  1.5299
15061SOL     OW51018   3.559   3.896   5.963 -0.3058 -0.2527  0.3832
15061SOL    HW151019   3.528   3.919   5.875 -1.6953 -0.3610  0.8095
15061SOL    HW251020   3.483   3.911   6.019  0.5615 -0.1882  1.5723
15062SOL     OW51021   6.078   2.021   8.003 -0.2908  0.3178  0.5343
15062SOL    HW151022   5.985   2.026   7.984 -0.2859 -2.7021 -0.8269
15062SOL    HW251023   6.090   1.933   8.039  2.3434 -0.2220 -1.4207
15063SOL     OW51024   1.922  10.555   6.763 -0.8167  0.1627  0.8963
15063SOL    HW151025   1.945  10.577   6.673  1.6684 -0.4847  1.2956
15063SOL    HW251026   1.990  10.597   6.816  0.9349 -3.7032  2.0442
15064SOL     OW51027   4.718   9.907   4.442  0.7200  0.1764 -0.6659
15064SOL    HW151028   4.731   9.817   4.473 -0.5502  1.1407  3.2810
15064SOL    HW251029   4.805   9.946   4.446  0.7606 -0.0056  1.0635
15065SOL     OW51030   4.851   6.484   7.355  0.3889 -0.3698 -0.3881
15065SOL    HW151031   4.757   6.505   7.351 -0.2854 -2.7370  0.7730
15065SOL    HW251032   4.887   6.519   7.274 -1.4694  0.7477 -0.7951
15066SOL     OW51033   7.071   8.830   3.311  0.8060 -0.3140  0.3088
15066SOL    HW151034   7.060   8.920   3.344  0.1124 -0.2446 -0.0749
15066SOL    HW251035   7.147   8.796   3.357  1.5663  0.7493 -0.1377
15067SOL     OW51036   9.048   6.881   1.783 -0.2007  0.1724  0.0791
15067SOL    HW151037   9.088   6.951   1.834  0.6005 -1.0153  1.1184
15067SOL    HW251038   8.982   6.926   1.729  0.2662  1.7071  0.7319
15068SOL     OW51039   7.630   1.714   9.833 -0.1454 -0.1147 -0.1609
15068SOL    HW151040   7.557   1.691   9.775 -1.5285 -0.7125  1.7228
15068SOL    HW251041   7.592   1.776   9.896 -0.0859 -2.9736  2.9718
15069SOL     OW51042   3.401   5.814   3.016 -0.6955 -0.4721  0.5473
15069SOL    HW151043   3.330   5.781   2.960  0.6956  0.5248 -1.9984
15069SOL    HW251044   3.382   5.908   3.024 -0.6163 -0.5242  1.4034
15070SOL     OW51045   5.949   1.604  10.420  0.4768 -0.4136 -0.2241
15070SOL    HW151046   6.040   1.584  10.441 -0.2695 -2.6702  1.2813
15070SOL    HW251047   5.931   1.555  10.340  0.7326  0.5574 -0.8922
15071SOL     OW51048   4.259   2.434  10.434 -0.3970 -0.7050  0.4266
15071SOL    HW151049   4.275   2.528  10.428  0.2907 -0.8294  0.2044
15071SOL    HW251050   4.274   2.413  10.526 -2.3369 -0.2962  0.8687
15072SOL     OW51051   3.084   8.626   3.439  0.1980 -0.0056  0.1479
15072SOL    HW151052   3.095   8.720   3.454  1.2247 -0.1636  0.4466
15072SOL    HW251053   3.016   8.621   3.371  1.8700  1.0656 -1.7298
15073SOL     OW51054   3.604   1.475   8.833 -0.1460 -0.3946  0.7362
15073SOL    HW151055   3.539   1.442   8.895 -0.7467 -0.7558 -0.0697
15073SOL    HW251056   3.609   1.569   8.851 -1.1266 -0.3078  0.5981
15074SOL     OW51057   4.943   9.003   5.138 -0.0273  0.2292  0.5121
15074SOL    HW151058   4.984   8.917   5.148 -1.5185 -0.5209  0.3290
15074SOL    HW251059   4.948   9.042   5.226 -0.2430 -0.4476  0.8285
15075SOL     OW51060   2.982   3.427   3.370  0.6541  0.2951  0.4203
15075SOL    HW151061   2.890   3.408   3.351  0.5888  0.3893  0.6437
15075SOL    HW251062   3.005   3.498   3.310  0.9733 -0.6461 -0.6125
15076SOL     OW51063   7.374   4.072   2.111 -0.3405  0.0238  0.1324
15076SOL    HW151064   7.374   4.074   2.015 -0.3750  1.2856  0.1434
15076SOL    HW251065   7.463   4.043   2.134 -0.9890 -2.5195 -0.2614
15077SOL     OW51066   8.629   3.983   3.012  0.3571 -0.0228 -0.2817
15077SOL    HW151067   8.546   3.936   3.016  0.9011 -1.0263 -0.4808
15077SOL    HW251068   8.627   4.028   2.928  0.3838 -0.7783 -0.6963
15078SOL     OW51069   2.752   4.619   4.480  0.3166 -0.2100  0.7416
15078SOL    HW151070   2.841   4.646   4.503  0.2050 -1.0425  2.2716
15078SOL    HW251071   2.755   4.608   4.385  1.9101 -0.4316  0.7823
15079SOL     OW51072   8.366   3.030   6.158 -0.5915  0.2150  0.2845
15079SOL    HW151073   8.364   2.966   6.229  0.1470 -1.1407 -0.8625
15079SOL    HW251074   8.339   2.981   6.080  0.6593  1.1022 -0.7573
15080SOL     OW51075   1.224   3.200   3.796  0.6431  0.2844 -0.4508
15080SOL    HW151076   1.228   3.120   3.744  1.7308  0.3962 -0.5736
15080SOL    HW251077   1.131   3.216   3.808  0.3988 -0.7470 -0.8105
15081SOL     OW51078   2.405   8.545   5.969  0.6039  0.4862 -0.3512
15081SOL    HW151079   2.483   8.579   5.926 -0.3282  0.8537 -1.8014
15081SOL    HW251080   2.359   8.495   5.902 -0.1974 -0.0975  0.5915
15082SOL     OW51081   1.692   3.378   1.670 -0.1489  0.0986 -0.2710
15082SOL    HW151082   1.709   3.407   1.580 -3.2172 -0.0834 -1.0166
15082SOL    HW251083   1.616   3.430   1.698  1.0485  0.5526  2.4856
15083SOL     OW51084   6.465   0.430   4.687 -0.4285 -0.4180  0.1840
15083SOL    HW151085   6.503   0.497   4.630  0.3224 -0.4924  0.5953
15083SOL    HW251086   6.493   0.347   4.649 -1.4386 -0.5143 -0.3805
15084SOL     OW51087   3.021   4.233   7.003 -0.5606  0.1069  0.1094
15084SOL    HW151088   3.043   4.263   7.091  0.1416 -1.1175  0.3783
15084SOL    HW251089   2.935   4.271   6.985 -0.8710  0.0921  1.4624
15085SOL     OW51090   6.690   6.488   5.014 -0.0298 -0.1791 -0.2511
15085SOL    HW151091   6.662   6.400   5.038  1.3226 -0.8821 -1.0990
15085SOL    HW251092   6.627   6.517   4.948  0.2642 -1.0670 -0.9442
15086SOL     OW51093   5.357   3.562   5.704  0.4550 -0.1488  0.0576
15086SOL    HW151094   5.408   3.525   5.633  0.8960  1.8574 -0.7417
15086SOL    HW251095   5.274   3.515   5.701  0.8172 -0.7491 -1.1743
15087SOL     OW51096   6.580   9.581   3.414  0.8541 -0.3043  0.3193
15087SOL    HW151097   6.654   9.555   3.468  1.6946 -0.2621 -0.7780
15087SOL    HW251098   6.597   9.541   3.329  1.2157  2.1927 -0.8706
15088SOL     OW51099   7.168   2.220   1.150  0.5031 -0.0262 -0.7471
15088SOL    HW151100   7.227   2.295   1.149  1.2387 -0.5800  0.1423
15088SOL    HW251101   7.226   2.144   1.151 -0.2234 -0.5809 -0.1515
15089SOL     OW51102   8.822   0.973   0.451  0.4455 -0.4967  0.1554
15089SOL    HW151103   8.865   0.902   0.498 -0.4797 -0.0652  1.7403
15089SOL    HW251104   8.743   0.992   0.503 -0.0954  0.6903 -1.0364
15090SOL     OW51105   3.150   1.599   3.982  0.0153 -0.5232 -0.0255
15090SOL    HW151106   3.106   1.671   4.028 -0.9039 -1.0349 -0.1043
15090SOL    HW251107   3.224   1.642   3.938  1.2088 -0.0645  2.2584
15091SOL     OW51108   0.380   0.262   4.390  0.5387  0.1953 -0.4437
15091SOL    HW151109   0.406   0.171   4.380 -0.7949 -0.1155 -1.1744
15091SOL    HW251110   0.456   0.312   4.359  0.3926 -0.6921 -2.3443
15092SOL     OW51111   6.050   4.442  10.315  0.7689  0.1467 -0.6264
15092SOL    HW151112   6.127   4.384  10.315  0.7567  0.0819  1.0611
15092SOL    HW251113   5.986   4.396  10.261  1.5584 -0.2705 -1.2482
15093SOL     OW51114   1.076   2.163  10.204  0.5047  0.1267  0.1151
15093SOL    HW151115   1.055   2.116  10.123 -0.8976  1.5687 -0.4060
15093SOL    HW251116   1.009   2.135  10.266 -0.2392  1.2523 -0.1485
15094SOL     OW51117   4.857   8.084   0.409 -0.0099 -0.2181 -0.3671
15094SOL    HW151118   4.851   7.996   0.445 -0.9399  0.3275  0.8855
15094SOL    HW251119   4.818   8.140   0.476 -0.4988  1.0062 -1.6284
15095SOL     OW51120   2.614   9.655   3.661 -0.1521 -0.1382 -0.0365
15095SOL    HW151121   2.583   9.578   3.707  1.1188  0.1473  1.3435
15095SOL    HW251122   2.670   9.621   3.591 -0.1528 -0.4778  0.1268
15096SOL     OW51123   2.123   2.021   1.165 -0.5800 -0.4195 -0.1462
15096SOL    HW151124   2.072   1.958   1.114 -0.2522 -1.3125  0.5985
15096SOL    HW251125   2.068   2.040   1.241 -0.0624 -0.9627  0.3789
15097SOL     OW51126   8.510   6.146   1.608 -0.1802  0.0528  0.1289
15097SOL    HW151127   8.534   6.056   1.629  3.7657  0.4979 -1.6993
15097SOL    HW251128   8.480   6.142   1.517 -1.5068  0.4072  0.5357
15098SOL     OW51129   6.573   2.020   5.089  0.6080  0.5136  0.0586
15098SOL    HW151130   6.634   1.949   5.066  1.0135  0.8515  0.0828
15098SOL    HW251131   6.587   2.034   5.182  0.1867  0.3073  0.1558
15099SOL     OW51132   7.766   4.951  10.591 -0.7134  0.1510  0.2759
15099SOL    HW151133   7.776   4.871  10.541  0.0172 -1.1398  2.3589
15099SOL    HW251134   7.821   4.939  10.669  0.6775  3.3173 -0.0408
15100SOL     OW51135   3.897   1.554   1.141 -0.2650 -0.3359  0.2927
15100SOL    HW151136   3.837   1.620   1.107 -0.6630 -0.2977  1.0592
15100SOL    HW251137   3.922   1.586   1.228 -0.8332 -1.4119  0.8784
15101SOL     OW51138   7.873   6.980   2.731 -0.1482  0.3787 -0.2143
15101SOL    HW151139   7.851   6.923   2.657 -0.3071 -1.0152  0.8674
15101SOL    HW251140   7.863   7.069   2.697 -1.2489 -0.2329 -1.5704
15102SOL     OW51141   4.540   2.755   7.953 -0.6330 -0.0731  0.3844
15102SOL    HW151142   4.527   2.662   7.932 -2.8152  0.3552 -0.3842
15102SOL    HW251143   4.625   2.776   7.915 -0.7708 -1.4006 -0.7306
15103SOL     OW51144   5.344  10.294   5.968  0.3966 -0.5481 -0.2158
15103SOL    HW151145   5.257  10.288   5.929  0.8970 -1.3731 -1.2396
15103SOL    HW251146   5.379  10.378   5.937  0.3077 -0.6245 -0.5239
15104SOL     OW51147   9.180   6.463   3.074  0.1557 -0.2514 -0.6083
15104SOL    HW151148   9.106   6.444   3.132  1.2437  0.8316  1.2386
15104SOL    HW251149   9.164   6.552   3.042  0.7415  0.0793 -0.0122
15105SOL     OW51150   8.090   4.184   4.807 -0.4663 -0.1189  0.1645
15105SOL    HW151151   8.094   4.165   4.713  1.2732  2.0470 -0.2717
15105SOL    HW251152   7.996   4.182   4.827 -0.9576  0.3687 -1.8390
15106SOL     OW51153   4.210   8.431   0.948 -0.3281 -0.6725 -0.6837
15106SOL    HW151154   4.303   8.452   0.939  0.0644 -1.9076  0.2770
15106SOL    HW251155   4.176   8.434   0.858  0.9531 -1.5571 -1.2236
15107SOL     OW51156   4.910   6.091   8.881  0.1038  0.5721 -0.1060
15107SOL    HW151157   4.956   6.087   8.797  0.0337  1.9300 -0.2328
15107SOL    HW251158   4.963   6.037   8.940  0.0629 -0.5437 -1.0445
15108SOL     OW51159   5.117   2.800   9.898  0.5681  0.2228  0.1091
15108SOL    HW151160   5.212   2.789   9.891  0.4248 -1.5475  0.5352
15108SOL    HW251161   5.096   2.774   9.987 -0.4090 -0.2056 -0.2302
15109SOL     OW51162   6.024   7.793   0.783  0.0006  0.0941  0.0120
15109SOL    HW151163   5.990   7.765   0.868  1.6405  0.4647  0.8241
15109SOL    HW251164   6.102   7.739   0.770  1.1316  1.6938 -0.1086
15110SOL     OW51165   5.618   5.364   6.295  0.3953 -0.5623 -0.1657
15110SOL    HW151166   5.672   5.405   6.227  0.5556 -0.2273  0.1582
15110SOL    HW251167   5.571   5.438   6.335 -0.0908 -0.8180 -0.2594
15111SOL     OW51168   2.624   8.316   0.319  0.2885 -0.4219 -0.6127
15111SOL    HW151169   2.638   8.244   0.258 -0.3079 -1.1592  0.0950
15111SOL    HW251170   2.632   8.276   0.406  0.9233  0.5702 -0.1992
15112SOL     OW51171   8.189   7.868   0.593 -0.3309 -0.2202  0.7559
15112SOL    HW151172   8.172   7.945   0.538  0.5245 -0.0630  0.6881
15112SOL    HW251173   8.244   7.812   0.539 -0.9545 -0.8926  0.8071
15113SOL     OW51174   2.379   1.492   2.815 -0.2322  0.0278 -0.1652
15113SOL    HW151175   2.456   1.548   2.806  1.5675 -2.4506 -1.4275
15113SOL    HW251176   2.333   1.526   2.892  1.8919  1.8666  0.3819
15114SOL     OW51177   0.297   2.493   1.532 -0.0335 -0.1912  0.3088
15114SOL    HW151178   0.258   2.476   1.618  1.4952 -0.3224  1.0116
15114SOL    HW251179   0.378   2.441   1.531 -0.4157 -0.8177 -1.5404
15115SOL     OW51180   3.793   1.451   4.348 -0.2641  0.6618 -0.3893
15115SOL    HW151181   3.821   1.383   4.286  1.4703  0.6168  0.3696
15115SOL    HW251182   3.746   1.404   4.416  1.3798  0.0857  0.4043
15116SOL     OW51183   0.318   0.827   3.809  0.1121 -0.2646 -0.0073
15116SOL    HW151184   0.392   0.875   3.773 -0.2709  0.2117 -0.1657
15116SOL    HW251185   0.286   0.774   3.735 -0.3983  0.3768 -0.2489
15117SOL     OW51186   7.270  10.094   0.165 -0.2469 -0.2547 -0.7699
15117SOL    HW151187   7.364  10.088   0.145  0.1448  1.8513  0.1261
15117SOL    HW251188   7.246  10.006   0.193  1.6091 -0.7383 -0.5574
15118SOL     OW51189   6.864   6.806   5.793 -0.1496 -0.1328  0.4746
15118SOL    HW151190   6.901   6.856   5.866  0.8900 -0.0700 -0.0778
15118SOL    HW251191   6.919   6.828   5.718  0.8909 -2.6919  0.3703
15119SOL     OW51192   7.120   9.161   2.123 -0.2499  0.2588 -0.2703
15119SOL    HW151193   7.120   9.123   2.211 -0.9841 -0.1597 -0.4416
15119SOL    HW251194   7.061   9.236   2.130 -2.1459 -1.0812 -0.9185
15120SOL     OW51195   2.809   9.570   0.016 -0.2530 -0.1640 -0.2033
15120SOL    HW151196   2.826   9.501   0.080 -0.0999 -0.2719 -0.3593
15120SOL    HW251197   2.830   9.651   0.062 -3.2434  0.0630  1.0081
15121SOL     OW51198   2.217   7.321   2.972  0.1336 -0.5721 -0.3654
15121SOL    HW151199   2.289   7.350   2.916  0.8281 -1.7067 -0.0915
15121SOL    HW251200   2.168   7.259   2.918 -1.3390  1.0275 -0.9488
15122SOL     OW51201   8.324   7.272  10.571  0.2899 -0.3873 -0.2269
15122SOL    HW151202   8.343   7.288  10.663 -0.7398 -1.7151  0.2533
15122SOL    HW251203   8.370   7.190  10.551  2.0167  0.8013 -1.4410
15123SOL     OW51204   7.923   8.801   8.992  0.4862 -0.2704 -0.1683
15123SOL    HW151205   7.958   8.884   9.025  0.6114 -0.1331 -0.6421
15123SOL    HW251206   7.975   8.783   8.914  0.1760 -0.5830 -0.3022
15124SOL     OW51207   7.238   4.973  10.629  0.4166 -0.4742  0.2075
15124SOL    HW151208   7.281   4.908  10.685  0.7127 -0.9537 -0.5625
15124SOL    HW251209   7.154   4.934  10.607  0.7327 -0.7523 -0.5287
15125SOL     OW51210  10.408   8.973   5.967 -0.1012  0.6248  0.3858
15125SOL    HW151211  10.409   8.879   5.985  0.5620  0.4276 -0.6100
15125SOL    HW251212  10.319   8.991   5.939  0.1170  0.0227 -0.7411
15126SOL     OW51213   2.194   7.396   6.186  0.2558  0.0253  0.0601
15126SOL    HW151214   2.240   7.364   6.109  0.4578  1.2197 -0.3310
15126SOL    HW251215   2.263   7.411   6.251  0.2693  0.5954 -0.0881
15127SOL     OW51216   6.158   1.817   2.392  0.4062 -0.8383 -0.6236
15127SOL    HW151217   6.205   1.746   2.434  0.2198 -0.3539  0.4407
15127SOL    HW251218   6.210   1.838   2.314  2.4694  0.2789  0.9671
15128SOL     OW51219   3.319  10.553   4.353  0.1523  0.3839 -0.2883
15128SOL    HW151220   3.391  10.518   4.405  0.7140  3.4137  1.1449
15128SOL    HW251221   3.257  10.588   4.417 -1.7638 -0.4818 -1.5563
15129SOL     OW51222   0.786   9.444   4.765 -0.3273 -0.4583  0.4360
15129SOL    HW151223   0.733   9.416   4.839 -1.1706  0.3642  0.1603
15129SOL    HW251224   0.733   9.422   4.688 -0.2421  0.3069  0.1568
15130SOL     OW51225   1.918   9.719   3.764  0.0760 -0.2714 -0.3989
15130SOL    HW151226   1.981   9.735   3.694  0.2280 -0.6096 -0.3424
15130SOL    HW251227   1.912   9.802   3.810  0.1494 -0.1122 -0.6728
15131SOL     OW51228   4.512   3.885   8.479 -0.2948 -0.0122  0.2068
15131SOL    HW151229   4.593   3.844   8.447 -0.0352  0.6677 -0.0448
15131SOL    HW251230   4.521   3.885   8.574 -0.5172 -0.9539  0.2361
15132SOL     OW51231  10.573  10.121   0.700  0.0718 -0.3114  0.7143
15132SOL    HW151232  10.561  10.100   0.793  1.1636  0.2778  0.9970
15132SOL    HW251233  10.500  10.179   0.680 -1.3834 -2.0704  0.6339
15133SOL     OW51234   6.870  10.485   9.668 -0.4366  0.6476  0.1782
15133SOL    HW151235   6.936  10.438   9.719 -0.3058  0.4113 -0.2025
15133SOL    HW251236   6.874  10.444   9.582 -1.1403  0.5710  0.1748
15134SOL     OW51237   0.504   1.912   8.177 -0.2368  0.0185 -0.1301
15134SOL    HW151238   0.492   1.996   8.134  1.6385  1.3460  1.7442
15134SOL    HW251239   0.531   1.853   8.106 -0.6235  1.2122 -1.3238
15135SOL     OW51240   0.104   6.591   2.065  0.0591  0.0209  0.2840
15135SOL    HW151241   0.122   6.684   2.079 -0.4912 -0.2805  3.5940
15135SOL    HW251242   0.009   6.586   2.058  0.1444 -0.2230 -1.0024
15136SOL     OW51243   1.496   9.628   1.886 -0.0422 -0.4538 -0.6052
15136SOL    HW151244   1.459   9.571   1.953 -0.6335  1.8601  1.1618
15136SOL    HW251245   1.425   9.638   1.822 -0.2384 -1.0054 -0.4794
15137SOL     OW51246   0.090  10.374   3.762 -0.2984  0.0468  0.0714
15137SOL    HW151247   0.110  10.444   3.701 -1.1196  0.6864  0.5137
15137SOL    HW251248  -0.005  10.376   3.771 -0.0960  1.6830  3.2936
15138SOL     OW51249   7.443   7.369   5.252 -0.2023  0.0033  0.2489
15138SOL    HW151250   7.467   7.276   5.257  0.1301  0.0599 -0.1919
15138SOL    HW251251   7.380   7.373   5.180  1.3795  0.4173 -1.1881
15139SOL     OW51252   6.625   6.012   4.810 -0.8220  0.0392 -0.0917
15139SOL    HW151253   6.627   5.918   4.797  0.8421  0.0902 -0.3931
15139SOL    HW251254   6.627   6.049   4.722 -2.8751  0.3977 -0.0439
15140SOL     OW51255   1.555   3.900   6.639 -0.2872  0.2999  0.2888
15140SOL    HW151256   1.461   3.887   6.641 -0.1763 -0.4616  0.5850
15140SOL    HW251257   1.587   3.841   6.571  0.1415 -0.5922  1.2301
15141SOL     OW51258   5.257   4.608   1.819  0.0011  0.1966 -0.0206
15141SOL    HW151259   5.174   4.562   1.830  0.7105 -1.4084 -1.0454
15141SOL    HW251260   5.319   4.541   1.789  1.9170  1.1296  1.5692
15142SOL     OW51261   6.836   9.730   8.117  0.3145  0.3716 -0.9249
15142SOL    HW151262   6.792   9.664   8.171 -1.0458  2.0417  0.1273
15142SOL    HW251263   6.912   9.756   8.168 -0.1638  0.8984 -0.4608
15143SOL     OW51264   9.462   0.039   6.345 -0.3446 -0.3548  0.5261
15143SOL    HW151265   9.546  -0.007   6.340  0.2945  0.8429 -0.0962
15143SOL    HW251266   9.426   0.035   6.256  1.3535  3.2186 -0.5106
15144SOL     OW51267   0.309   2.881   2.717 -0.2791  0.2087 -0.1355
15144SOL    HW151268   0.313   2.793   2.679  0.6208 -0.4672  1.4228
15144SOL    HW251269   0.228   2.881   2.768 -0.2418  0.2546 -0.0766
15145SOL     OW51270   9.139   8.291   6.680  0.2945 -0.7638 -0.1971
15145SOL    HW151271   9.084   8.233   6.733 -0.8749  0.0412 -0.4950
15145SOL    HW251272   9.088   8.308   6.602  0.3467  1.1200  0.1333
15146SOL     OW51273   3.839   1.639   9.917 -0.2018 -0.2220 -0.0444
15146SOL    HW151274   3.832   1.561   9.972  0.8371 -0.3256 -0.0348
15146SOL    HW251275   3.930   1.668   9.928  0.1944 -0.5389 -2.0807
15147SOL     OW51276   7.469   1.580   4.971  0.1072  0.0835 -0.4228
15147SOL    HW151277   7.554   1.547   4.941  0.4381 -0.2597  0.8107
15147SOL    HW251278   7.406   1.515   4.941  0.4916 -0.5311  0.0605
15148SOL     OW51279   7.147  10.222   6.249  0.2399  0.1821 -0.4382
15148SOL    HW151280   7.147  10.159   6.322  0.1525 -0.5814 -1.0865
15148SOL    HW251281   7.063  10.208   6.206  0.8525 -0.3167 -1.4888
15149SOL     OW51282   4.959  10.535   1.248 -0.0920 -0.0728  0.5772
15149SOL    HW151283   5.003  10.574   1.172 -2.3531 -0.5315 -1.0736
15149SOL    HW251284   4.913  10.608   1.289  0.6169  0.0553  1.1703
15150SOL     OW51285  10.369   7.989   7.772 -0.0267  0.1142  0.0380
15150SOL    HW151286  10.464   7.992   7.782  0.0142 -0.8199  0.0325
15150SOL    HW251287  10.355   7.967   7.680 -0.2479  0.1960  0.0514
15151SOL     OW51288  10.417   4.265   6.095 -0.0967  0.0881  0.4400
15151SOL    HW151289  10.322   4.272   6.109 -0.6904 -1.7868 -2.0679
15151SOL    HW251290  10.435   4.324   6.022  0.4659 -0.3446  0.2231
15152SOL     OW51291   8.794   3.523   2.299 -0.0842  0.1144  0.0069
15152SOL    HW151292   8.831   3.435   2.289 -3.4807 -1.4075 -0.6263
15152SOL    HW251293   8.705   3.508   2.330 -0.4740  3.4343  0.8667
15153SOL     OW51294   1.966   3.753   2.083  0.6478  0.3672  0.2566
15153SOL    HW151295   2.007   3.789   2.004 -0.5524  0.6917 -0.2484
15153SOL    HW251296   1.947   3.662   2.060 -0.0386  0.5637  0.0225
15154SOL     OW51297   3.881   0.247   7.419 -0.1060 -0.1359 -0.7220
15154SOL    HW151298   3.934   0.248   7.339  0.7671 -0.0071 -0.1575
15154SOL    HW251299   3.791   0.238   7.388  0.1578  0.5492 -1.7568
15155SOL     OW51300   6.613   1.817   5.483 -0.3950 -0.9034 -0.0254
15155SOL    HW151301   6.652   1.856   5.561 -0.7260 -1.1477  0.2685
15155SOL    HW251302   6.551   1.752   5.518  1.8291 -3.4127 -0.4870
15156SOL     OW51303   4.772   7.206   2.760  0.4848 -0.5430 -0.3170
15156SOL    HW151304   4.721   7.262   2.701 -1.4751 -0.7186  1.0959
15156SOL    HW251305   4.728   7.215   2.845  1.7851 -2.1054  0.5802
15157SOL     OW51306   2.060   1.225   6.721 -0.2805 -0.4074 -0.4296
15157SOL    HW151307   1.973   1.189   6.702 -0.2672 -1.0351  0.6484
15157SOL    HW251308   2.121   1.159   6.688 -0.2040 -0.0447 -1.0318
15158SOL     OW51309   4.372   6.749   5.793  0.3726  0.5441 -0.1294
15158SOL    HW151310   4.320   6.732   5.871 -0.2353 -0.0937 -0.6544
15158SOL    HW251311   4.400   6.663   5.764  3.4728  0.9636  1.2524
15159SOL     OW51312   1.099   7.868   5.856 -0.1226  0.0745 -0.3268
15159SOL    HW151313   1.016   7.829   5.830  0.1770 -0.9633  0.1797
15159SOL    HW251314   1.133   7.809   5.924  1.3269  0.0964 -0.9803
15160SOL     OW51315   1.119   0.921   5.835 -0.2475  0.1807  0.2831
15160SOL    HW151316   1.164   0.836   5.836  0.8110  0.7137  1.5875
15160SOL    HW251317   1.133   0.954   5.746  0.3016 -0.5249  0.0936
15161SOL     OW51318   9.296   8.966   9.623 -0.2979  0.2955 -0.2179
15161SOL    HW151319   9.250   8.899   9.572 -0.1330 -0.4796  0.6197
15161SOL    HW251320   9.289   9.046   9.571 -1.5371 -0.0968 -0.6792
15162SOL     OW51321   0.640   2.494   2.011 -0.0785 -0.0302  0.0396
15162SOL    HW151322   0.732   2.509   1.992 -0.5030  1.0361 -1.2845
15162SOL    HW251323   0.628   2.400   2.001  1.1930 -0.4230  1.8412
15163SOL     OW51324   6.676   8.912  10.093  0.4784  0.6819  0.1731
15163SOL    HW151325   6.667   8.914  10.188 -0.9435  1.1398  0.0478
15163SOL    HW251326   6.623   8.837  10.065  1.7998 -0.1650 -0.2072
15164SOL     OW51327   2.130   5.781   7.297 -0.6028 -0.1699 -0.2008
15164SOL    HW151328   2.069   5.722   7.342  1.5732 -2.8947 -0.5235
15164SOL    HW251329   2.108   5.773   7.204  0.5350 -1.6720 -0.3847
15165SOL     OW51330   2.156   1.181   0.991 -0.9102 -0.2698  0.5218
15165SOL    HW151331   2.107   1.175   0.909 -0.7197 -0.3185  0.4090
15165SOL    HW251332   2.244   1.149   0.968 -1.0287 -0.8861  0.8906
15166SOL     OW51333   6.663   2.714   4.971  0.2746 -0.1874 -0.5049
15166SOL    HW151334   6.665   2.630   5.018  0.3937 -0.1782 -0.4923
15166SOL    HW251335   6.656   2.689   4.879  2.3415 -0.2773 -0.6850
15167SOL     OW51336   2.734   4.505   5.863  0.6546  0.1103 -0.2070
15167SOL    HW151337   2.650   4.513   5.818  1.7728  1.0275 -2.2613
15167SOL    HW251338   2.730   4.419   5.906 -0.3995 -0.9925 -2.3530
15168SOL     OW51339   6.396   5.144   9.704  0.8284 -0.3409 -0.4969
15168SOL    HW151340   6.485   5.173   9.686  1.1718 -1.6362 -0.9321
15168SOL    HW251341   6.403   5.097   9.787  0.5368 -0.4271 -0.5210
15169SOL     OW51342   5.700   3.239   7.936  0.3060  0.1540  0.2942
15169SOL    HW151343   5.770   3.175   7.921 -1.4420 -1.8289  0.0787
15169SOL    HW251344   5.725   3.282   8.018  1.3776 -1.1042  0.6748
15170SOL     OW51345   1.550   4.356   8.663  0.2300  0.5650  0.0526
15170SOL    HW151346   1.598   4.366   8.581 -0.1016  1.5742 -0.0301
15170SOL    HW251347   1.595   4.285   8.708  1.0582  0.6864 -0.5567
15171SOL     OW51348   6.198   4.604   7.495  0.3444  0.1724  0.1934
15171SOL    HW151349   6.106   4.627   7.481  0.6497  0.7293 -1.1226
15171SOL    HW251350   6.217   4.539   7.427  1.2415  1.0339 -0.4204
15172SOL     OW51351   3.564   1.059   8.902  0.1945 -0.4079  0.0179
15172SOL    HW151352   3.502   1.110   8.850  0.9766  0.0966 -0.4271
15172SOL    HW251353   3.514   1.034   8.980 -0.6352 -0.1974 -0.4344
15173SOL     OW51354   3.406   6.498   4.417  0.1750  0.0154  0.2132
15173SOL    HW151355   3.418   6.502   4.322 -2.5997  0.9819 -0.1824
15173SOL    HW251356   3.395   6.589   4.443 -1.1616 -0.3858  1.1335
15174SOL     OW51357   8.303   7.731   3.795 -0.4059 -0.5947  0.9449
15174SOL    HW151358   8.282   7.651   3.843  0.7554 -2.3411 -1.2620
15174SOL    HW251359   8.227   7.788   3.807 -2.0727 -2.7496  1.1088
15175SOL     OW51360   4.422   5.335   6.519 -0.1529  0.0172 -0.3601
15175SOL    HW151361   4.515   5.353   6.530 -0.1171 -0.5730  0.4171
15175SOL    HW251362   4.389   5.409   6.469  0.2158  1.6154  1.6135
15176SOL     OW51363   0.264   0.369   6.412  0.0968  0.0785  0.0181
15176SOL    HW151364   0.328   0.427   6.452  0.5283 -1.1902  1.2492
15176SOL    HW251365   0.312   0.325   6.342 -0.2788  1.2796 -1.0360
15177SOL     OW51366   1.959  10.344   6.932 -0.0636 -0.2085  0.3285
15177SOL    HW151367   1.936  10.412   6.869 -0.1225 -0.8703 -0.3875
15177SOL    HW251368   2.027  10.383   6.987  0.0878  0.3372 -0.2377
15178SOL     OW51369   7.251   3.149   2.793  0.1896 -0.1042  0.6176
15178SOL    HW151370   7.294   3.150   2.879  0.1760 -0.1861  0.6253
15178SOL    HW251371   7.294   3.219   2.744  1.0908 -0.8706  0.2610
15179SOL     OW51372   9.943   1.902   6.701 -0.3216  0.3597  0.2189
15179SOL    HW151373  10.027   1.901   6.655 -0.2885 -0.2717  0.2729
15179SOL    HW251374   9.905   1.816   6.681 -1.4238  1.0157 -0.6639
15180SOL     OW51375   6.917   1.591   6.351  0.3424  0.0741  0.6442
15180SOL    HW151376   6.958   1.605   6.436  2.2855  0.5653 -0.2938
15180SOL    HW251377   6.919   1.677   6.309 -2.1817  0.2208  0.7128
15181SOL     OW51378   2.558   7.513   1.954  0.3109  0.2603 -0.0864
15181SOL    HW151379   2.523   7.446   2.012 -0.4410  0.6476 -0.0721
15181SOL    HW251380   2.606   7.573   2.011 -0.9750  1.0026  0.2605
15182SOL     OW51381   8.047   9.817   2.130  0.1264  0.6326 -0.3479
15182SOL    HW151382   7.967   9.870   2.129  0.0803  0.6756 -3.1615
15182SOL    HW251383   8.095   9.844   2.052  2.5279  0.0032  0.8127
15183SOL     OW51384   2.539   8.811   4.221 -0.2407  0.1159  0.1026
15183SOL    HW151385   2.538   8.720   4.253 -0.3582 -0.4816 -1.4725
15183SOL    HW251386   2.631   8.829   4.204 -0.2807  0.0394 -0.2101
15184SOL     OW51387   5.639   6.453   8.602  0.3806 -0.4491  0.6277
15184SOL    HW151388   5.677   6.427   8.685 -0.0266  2.2018  1.7538
15184SOL    HW251389   5.664   6.545   8.591 -2.6979  0.4193 -0.2564
15185SOL     OW51390   5.358   1.419   2.037  0.0936 -0.2137  0.1915
15185SOL    HW151391   5.311   1.393   1.958  2.3644 -3.7307 -0.2103
15185SOL    HW251392   5.308   1.381   2.109 -0.2719  0.3096  0.2249
15186SOL     OW51393   5.176   8.764   6.454  0.6891  0.2413 -0.8968
15186SOL    HW151394   5.235   8.730   6.386  0.0603 -0.1475 -1.2621
15186SOL    HW251395   5.089   8.753   6.417  0.3194 -0.2063  0.0861
15187SOL     OW51396   2.736   8.100   5.317  0.6709  0.4976 -0.1961
15187SOL    HW151397   2.732   8.021   5.262 -0.2874  0.7966 -0.5764
15187SOL    HW251398   2.704   8.070   5.403 -0.2694  0.5853 -0.4994
15188SOL     OW51399   4.506   0.980   8.804 -0.1774  0.1064 -0.4125
15188SOL    HW151400   4.580   0.943   8.853 -0.6791 -0.4131 -0.0314
15188SOL    HW251401   4.429   0.951   8.852 -0.6398  0.4773 -0.9213
15189SOL     OW51402   6.937   4.581   8.633 -0.5411  0.3607 -0.1252
15189SOL    HW151403   6.943   4.568   8.727  0.3339  2.0159  0.0862
15189SOL    HW251404   7.028   4.575   8.602 -0.8605 -0.5929 -0.9480
15190SOL     OW51405  10.630   6.580   9.200 -0.0457  0.0814 -0.4620
15190SOL    HW151406  10.661   6.491   9.184  0.7128  0.4300 -0.9969
15190SOL    HW251407  10.710   6.631   9.213 -0.5032  0.5475  0.6084
15191SOL     OW51408   0.987   4.968   8.020 -0.0409  0.2296  0.4715
15191SOL    HW151409   0.906   4.930   7.987 -0.6432  0.5721  1.5107
15191SOL    HW251410   0.971   4.981   8.114  1.1556  0.4566  0.6583
15192SOL     OW51411   5.677   9.683   3.344 -0.2353  0.0392 -0.4287
15192SOL    HW151412   5.684   9.608   3.286 -2.6678 -1.6386  1.2823
15192SOL    HW251413   5.630   9.650   3.421  1.3764  2.5297  1.8139
15193SOL     OW51414   1.819   1.746   6.026 -0.1807 -0.1956  0.5287
15193SOL    HW151415   1.902   1.749   6.075  0.5877  1.2715 -0.7653
15193SOL    HW251416   1.753   1.778   6.088  0.4962  0.1231  1.1023
15194SOL     OW51417   0.284  10.268   1.339 -0.0506 -0.1429  0.4384
15194SOL    HW151418   0.328  10.274   1.254 -1.8231 -1.8179 -0.6939
15194SOL    HW251419   0.307  10.181   1.372 -0.3893 -0.0027  1.0739
15195SOL     OW51420   3.171   3.473   9.641 -0.4144  0.4309 -0.1509
15195SOL    HW151421   3.125   3.444   9.562  2.5445  0.4176 -2.0697
15195SOL    HW251422   3.186   3.566   9.626  1.2221  0.1824 -0.2708
15196SOL     OW51423   0.102   1.257   9.054 -0.0053 -0.4733  0.7352
15196SOL    HW151424   0.167   1.269   9.122  0.1222 -0.6583  0.6460
15196SOL    HW251425   0.018   1.275   9.097 -0.1779 -2.9825  1.6016
15197SOL     OW51426   0.621  10.678   4.404  0.4224  0.5597 -0.6417
15197SOL    HW151427   0.661  10.625   4.335  1.6537  0.2942  0.2361
15197SOL    HW251428   0.678  10.665   4.480 -0.2380  1.7697  0.0933
15198SOL     OW51429   3.724   8.031   8.183 -0.5571 -0.1838  0.2038
15198SOL    HW151430   3.809   8.070   8.206  0.0695 -0.0366 -2.1822
15198SOL    HW251431   3.728   7.942   8.217 -0.1597  0.3438  1.6186
15199SOL     OW51432   2.028   4.463   0.700 -0.0514  0.5926 -0.0568
15199SOL    HW151433   1.969   4.390   0.717 -1.0009  1.5022  0.6947
15199SOL    HW251434   1.970   4.536   0.680  0.8936  1.0380 -1.3375
15200SOL     OW51435   2.851   4.912   1.570  0.2469  0.1577  0.0391
15200SOL    HW151436   2.922   4.878   1.624  0.4669 -1.2342 -1.0735
15200SOL    HW251437   2.845   4.851   1.496 -0.6435  1.4829 -1.0424
15201SOL     OW51438   1.281   4.684   4.445  0.1256  0.1621  0.2031
15201SOL    HW151439   1.247   4.769   4.418 -1.1614 -0.5844 -0.5936
15201SOL    HW251440   1.298   4.694   4.539 -0.2100  1.2202  0.1623
15202SOL     OW51441   0.656  10.016   0.774  0.3557  0.4803 -0.2400
15202SOL    HW151442   0.658  10.038   0.867  0.8710 -0.1124 -0.1001
15202SOL    HW251443   0.577  10.057   0.741  0.1319  0.6406  0.4786
15203SOL     OW51444   1.206   4.102   5.853  0.4904  0.0751  0.4281
15203SOL    HW151445   1.156   4.026   5.882 -0.5079  0.9616  1.1062
15203SOL    HW251446   1.289   4.097   5.901  0.6009 -0.7710  0.1695
15204SOL     OW51447   5.745   8.590   4.436  0.4481  0.2460 -0.1692
15204SOL    HW151448   5.795   8.555   4.361 -2.4945  0.7431 -2.5531
15204SOL    HW251449   5.739   8.684   4.419 -0.7271  0.2805  0.3899
15205SOL     OW51450   7.695   7.504   0.488 -0.1661 -0.5591  0.0230
15205SOL    HW151451   7.741   7.587   0.500 -1.0671 -0.1304  0.6706
15205SOL    HW251452   7.703   7.460   0.573 -2.0602  0.1272  0.6106
15206SOL     OW51453   2.799   2.195  10.245  0.3205 -0.3004 -0.4943
15206SOL    HW151454   2.737   2.141  10.295 -0.5271  1.3848  0.3923
15206SOL    HW251455   2.745   2.237  10.178 -0.2118  3.1011  1.7871
15207SOL     OW51456   8.510   6.304   4.212  0.0353  0.0472 -0.1981
15207SOL    HW151457   8.486   6.214   4.232  1.8458 -0.3955  0.1377
15207SOL    HW251458   8.459   6.326   4.134 -0.6567 -1.1567 -0.1036
15208SOL     OW51459   0.802   8.801   3.024 -0.1131  0.2686  0.0092
15208SOL    HW151460   0.749   8.735   2.979 -0.0920  0.3843 -0.1866
15208SOL    HW251461   0.804   8.875   2.964  3.1420 -0.9418 -1.5755
15209SOL     OW51462   2.686   8.174   9.682 -0.1913 -0.3407 -0.1589
15209SOL    HW151463   2.662   8.260   9.650  0.7764 -0.3001 -0.8366
15209SOL    HW251464   2.774   8.159   9.647 -0.9963 -2.3344 -1.5450
15210SOL     OW51465   1.883   6.150   2.154  1.1684 -0.5477 -0.2723
15210SOL    HW151466   1.797   6.108   2.159  1.0203 -0.3283 -0.9718
15210SOL    HW251467   1.874   6.229   2.207  1.9444 -2.1797  2.5062
15211SOL     OW51468   2.841   2.144   7.396 -0.3057  0.4749 -0.2733
15211SOL    HW151469   2.777   2.179   7.334 -0.9938 -1.2023 -0.5711
15211SOL    HW251470   2.819   2.187   7.479 -0.4866  1.4439 -0.7987
15212SOL     OW51471   8.138   0.714   4.631  0.0074  0.2372  0.4391
15212SOL    HW151472   8.197   0.740   4.702  0.8652  1.7237 -0.7613
15212SOL    HW251473   8.193   0.661   4.573  0.0093  1.0481 -0.3252
15213SOL     OW51474   7.990   0.700   9.188 -0.3028  0.3871 -0.1892
15213SOL    HW151475   7.976   0.705   9.094  2.0669  1.7727 -0.5451
15213SOL    HW251476   8.069   0.647   9.198 -0.3831  0.4612  1.0073
15214SOL     OW51477   9.927   2.336   8.335 -0.4849  0.9116 -0.7231
15214SOL    HW151478   9.948   2.414   8.387 -1.7953  0.0293  1.2345
15214SOL    HW251479   9.880   2.279   8.395 -1.0770 -0.6789 -2.5951
15215SOL     OW51480   4.060   1.092  10.578  0.2001 -0.2225  0.0185
15215SOL    HW151481   4.130   1.030  10.556 -0.4759 -1.0174  0.0775
15215SOL    HW251482   3.995   1.081  10.509 -1.0367 -1.3224  1.3142
15216SOL     OW51483   6.251   6.049   1.880  0.3712 -0.1569 -0.3858
15216SOL    HW151484   6.331   6.042   1.931  0.2203  0.1696 -0.1020
15216SOL    HW251485   6.279   6.089   1.797  0.2794  1.3160  0.2670
15217SOL     OW51486   4.251   9.212   4.734  0.1629 -0.3365  0.0399
15217SOL    HW151487   4.313   9.158   4.684  0.2294  0.4684 -0.7572
15217SOL    HW251488   4.181   9.233   4.672  0.9957  1.9471 -0.2167
15218SOL     OW51489   4.462   9.770   1.866  0.1656 -0.0403 -0.5315
15218SOL    HW151490   4.437   9.759   1.958  1.2995 -2.3104 -0.4275
15218SOL    HW251491   4.468   9.865   1.854 -0.0278  0.3073  1.7387
15219SOL     OW51492   8.320   5.582   1.822 -0.1600 -0.4425 -0.0051
15219SOL    HW151493   8.327   5.675   1.840 -0.7276 -0.4796  0.4712
15219SOL    HW251494   8.374   5.540   1.889  1.3507 -0.4048 -1.1609
15220SOL     OW51495   0.189   7.875   2.007 -0.6642  0.1730 -0.4179
15220SOL    HW151496   0.225   7.798   2.053 -2.7000 -0.3763  0.3974
15220SOL    HW251497   0.264   7.933   1.996  0.4208 -0.7515  1.4239
15221SOL     OW51498   7.053   6.059   3.320 -0.2661 -0.3127 -0.9053
15221SOL    HW151499   7.043   6.153   3.334  1.7901 -0.3213  1.0689
15221SOL    HW251500   7.028   6.019   3.403 -0.1254 -1.4558 -1.3895
15222SOL     OW51501   0.853   8.499   4.094  0.3426  0.3714  0.0485
15222SOL    HW151502   0.817   8.587   4.105  1.9647  0.9333  1.1445
15222SOL    HW251503   0.819   8.450   4.169 -0.4065  0.1052 -0.4584
15223SOL     OW51504   8.887   2.513   3.100 -0.0429 -0.1959  0.3231
15223SOL    HW151505   8.928   2.590   3.060 -1.5003 -0.5865 -2.0835
15223SOL    HW251506   8.959   2.451   3.110  0.5413  0.2103 -1.0318
15224SOL     OW51507   4.997   4.076   1.271  0.5043  0.2559  0.2710
15224SOL    HW151508   4.979   4.044   1.360 -0.2846 -0.3568 -0.0991
15224SOL    HW251509   5.050   4.006   1.231  0.6255  0.4064  0.1685
15225SOL     OW51510  10.234   9.334   8.033  0.0502 -0.0666  0.0422
15225SOL    HW151511  10.160   9.302   7.982 -0.2894  0.7732  0.0032
15225SOL    HW251512  10.303   9.347   7.968  0.7475 -2.2329  0.2548
15226SOL     OW51513   1.777   4.262   6.669  0.3376  0.0644  0.4434
15226SOL    HW151514   1.714   4.190   6.673  1.0703 -0.6041  0.1406
15226SOL    HW251515   1.727   4.338   6.698 -0.2632 -0.6772  1.4416
15227SOL     OW51516  10.127   4.824   5.140 -0.3473 -0.6066  0.3370
15227SOL    HW151517  10.092   4.740   5.170  1.4013 -1.1347  1.0505
15227SOL    HW251518  10.170   4.861   5.217 -1.3529  1.1238  0.1114
15228SOL     OW51519   5.880   3.837   1.977 -0.5095 -0.2727  0.1616
15228SOL    HW151520   5.939   3.875   2.042 -1.0470  0.5141  0.2083
15228SOL    HW251521   5.827   3.774   2.026 -1.7996  1.2543  0.7934
15229SOL     OW51522   0.923   2.705   8.107  0.3412  0.3833 -0.2656
15229SOL    HW151523   0.955   2.659   8.029  1.7115  1.5553 -0.4246
15229SOL    HW251524   0.974   2.669   8.179  1.5483  1.7113 -0.4140
15230SOL     OW51525   4.855   1.999   1.206 -0.3272  0.6008  0.8077
15230SOL    HW151526   4.792   2.004   1.277 -0.7906  1.4116  0.3508
15230SOL    HW251527   4.896   2.085   1.203  0.5394  0.1992  0.8540
15231SOL     OW51528   4.641   8.909   3.033 -0.1430 -0.3646  0.5049
15231SOL    HW151529   4.565   8.876   3.081 -2.4830  0.1277 -2.5586
15231SOL    HW251530   4.680   8.832   2.993 -1.1986 -0.3018 -0.7155
15232SOL     OW51531   5.817   1.522   4.287 -0.4222  0.1991 -0.1645
15232SOL    HW151532   5.828   1.481   4.201 -0.2039 -0.6074  0.2413
15232SOL    HW251533   5.734   1.568   4.281 -1.3648 -1.4240 -0.2044
15233SOL     OW51534   5.186   3.482   0.909  0.5149  0.4973  0.0492
15233SOL    HW151535   5.258   3.432   0.872  0.8487  1.8273 -1.1562
15233SOL    HW251536   5.228   3.557   0.951  0.0989 -0.5997  2.6254
15234SOL     OW51537   0.493   9.814   0.992 -0.1246 -0.3256 -0.3857
15234SOL    HW151538   0.495   9.900   1.034 -1.1737 -0.0148 -0.9166
15234SOL    HW251539   0.584   9.795   0.968  0.2976  0.0524  0.8824
15235SOL     OW51540   5.722   8.386   1.531  0.4454  0.0413  0.1378
15235SOL    HW151541   5.784   8.342   1.472 -1.0784 -1.9677 -0.1014
15235SOL    HW251542   5.756   8.368   1.619  0.1808 -1.1864  0.0148
15236SOL     OW51543  10.403  10.447   9.488  0.2193 -0.1016 -0.4025
15236SOL    HW151544  10.383  10.539   9.474 -0.4281 -0.1159  0.3755
15236SOL    HW251545  10.378  10.430   9.578  1.5997 -0.7110 -0.1079
15237SOL     OW51546   9.206  10.093   6.780 -0.6057 -0.0496  0.3364
15237SOL    HW151547   9.246  10.075   6.865 -0.1276 -0.1587  0.0913
15237SOL    HW251548   9.230  10.184   6.761  1.8873 -0.9012 -1.0541
15238SOL     OW51549   3.607   6.988   7.853  0.0844  0.1273  0.1075
15238SOL    HW151550   3.671   7.051   7.886  0.6388 -0.6145  0.4731
15238SOL    HW251551   3.538   6.988   7.919  0.2547  0.0862  0.2879
15239SOL     OW51552  10.325   9.364   6.795 -0.4550 -0.2142 -0.0164
15239SOL    HW151553  10.348   9.408   6.713 -1.7823  0.5546 -0.0026
15239SOL    HW251554  10.378   9.284   6.795 -0.4013 -0.2123 -1.5976
15240SOL     OW51555   7.265   6.144   6.195  0.0906 -0.0181 -0.2937
15240SOL    HW151556   7.325   6.081   6.156 -1.4958 -1.6950 -0.1701
15240SOL    HW251557   7.285   6.226   6.151  0.5530 -1.1423 -2.3121
15241SOL     OW51558   0.589   3.552   1.396  0.1345 -0.1657 -0.5620
15241SOL    HW151559   0.496   3.531   1.405  0.4243 -1.0752  0.5441
15241SOL    HW251560   0.594   3.645   1.421 -0.7261  0.4517 -2.5271
15242SOL     OW51561   4.283   9.681   6.535 -0.6741 -0.2039 -0.3253
15242SOL    HW151562   4.261   9.746   6.468  0.6041 -0.9867 -1.5548
15242SOL    HW251563   4.204   9.626   6.541 -1.0896  0.3519 -0.6034
15243SOL     OW51564   5.298   3.998   9.541 -0.5398  0.3354 -0.2312
15243SOL    HW151565   5.368   3.945   9.579 -1.3897 -0.5689  0.1203
15243SOL    HW251566   5.343   4.058   9.482  0.8256  1.6271  1.9670
15244SOL     OW51567   8.946   0.661   3.507  0.2437  0.4094 -0.5446
15244SOL    HW151568   8.973   0.583   3.554  1.5346  0.6844 -0.7881
15244SOL    HW251569   8.945   0.635   3.415 -0.7737  0.2909 -0.5122
15245SOL     OW51570   7.666   1.539   0.921  0.1738 -0.4682  0.3653
15245SOL    HW151571   7.571   1.550   0.908 -0.2897 -2.9799  1.0984
15245SOL    HW251572   7.676   1.531   1.015  1.2893  0.8009  0.3741
15246SOL     OW51573   6.967   4.929   5.191 -0.4320  0.0058  0.8193
15246SOL    HW151574   6.876   4.901   5.183 -0.1882 -0.5292 -0.3050
15246SOL    HW251575   7.016   4.848   5.204 -0.0942  0.2681  1.1807
15247SOL     OW51576   3.378   5.947   6.320  0.0666  0.1460  0.0465
15247SOL    HW151577   3.354   5.860   6.353 -0.1366  0.4780  0.7954
15247SOL    HW251578   3.374   6.003   6.397 -0.7801  1.0209 -0.6068
15248SOL     OW51579   0.783   0.241   5.031  0.2937 -0.4367 -0.6562
15248SOL    HW151580   0.861   0.285   5.066  1.1165 -0.8499 -1.9076
15248SOL    HW251581   0.787   0.257   4.937 -0.1579 -1.9670 -0.9658
15249SOL     OW51582   0.465   4.165   6.231 -0.1002  0.0702 -0.3838
15249SOL    HW151583   0.377   4.203   6.227  0.0016  0.2820 -0.6928
15249SOL    HW251584   0.474   4.116   6.150  0.4393  0.8918 -0.8391
15250SOL     OW51585   8.882   9.681   5.671 -0.3541 -0.7350 -0.0664
15250SOL    HW151586   8.852   9.603   5.718  1.4154 -0.5203  1.6014
15250SOL    HW251587   8.913   9.648   5.587 -0.7181 -1.6529  0.1421
15251SOL     OW51588   7.721   8.018   3.464  0.1427 -0.5536 -0.0706
15251SOL    HW151589   7.626   8.020   3.455  0.0008 -1.8859  0.7949
15251SOL    HW251590   7.744   8.102   3.503 -0.6984 -0.3013 -0.1066
15252SOL     OW51591   9.726   3.130   2.773  0.3645  0.7700 -0.1647
15252SOL    HW151592   9.802   3.088   2.734 -2.0055 -2.5517 -1.6555
15252SOL    HW251593   9.672   3.058   2.805 -2.0546  2.9701  1.1001
15253SOL     OW51594   1.686   2.854  10.353 -0.1970  0.1332 -0.5358
15253SOL    HW151595   1.746   2.780  10.365 -1.1982 -0.8937 -1.5512
15253SOL    HW251596   1.732   2.929  10.389  1.0218 -0.9179  0.1696
15254SOL     OW51597   8.093   0.537   1.902 -0.3300  0.0686  0.4064
15254SOL    HW151598   8.129   0.601   1.840  0.2721  1.3377  2.0050
15254SOL    HW251599   8.093   0.582   1.986 -2.0163 -1.2880  1.1843
15255SOL     OW51600   3.513   5.954   8.998 -0.0952  0.4675  0.4241
15255SOL    HW151601   3.534   5.988   8.911 -1.1219  0.2421  0.0788
15255SOL    HW251602   3.480   6.029   9.047 -2.4990  0.0237 -0.3828
15256SOL     OW51603   2.221   2.834   9.058  0.2050  0.0970 -0.0486
15256SOL    HW151604   2.213   2.744   9.028  0.1425  0.2258 -0.4202
15256SOL    HW251605   2.310   2.839   9.094 -0.0986 -0.3551  0.8145
15257SOL     OW51606   8.024   0.560   1.337 -0.3032 -0.4693 -0.1170
15257SOL    HW151607   8.060   0.574   1.249 -2.0747 -1.7288 -1.1009
15257SOL    HW251608   7.934   0.593   1.331 -0.0658  0.6442  1.6481
15258SOL     OW51609   8.241   3.878   3.166  0.1785  0.4365  0.8801
15258SOL    HW151610   8.257   3.970   3.145 -2.9932  0.7026 -1.0413
15258SOL    HW251611   8.303   3.830   3.111  0.5797  1.4092  0.4544
15259SOL     OW51612   4.864   6.876   7.117  0.0917 -0.4917  0.0280
15259SOL    HW151613   4.846   6.928   7.195  1.1555  0.1760 -0.1529
15259SOL    HW251614   4.812   6.918   7.048  1.5078  0.8440 -0.2863
15260SOL     OW51615   5.402   7.364   7.029  0.0335  0.4114 -0.0642
15260SOL    HW151616   5.438   7.293   7.083  0.5439  0.9692  0.3388
15260SOL    HW251617   5.425   7.444   7.076 -0.2899  0.8637 -0.6644
15261SOL     OW51618   5.471   5.520   8.625 -0.2338  0.3333  0.3239
15261SOL    HW151619   5.512   5.440   8.658 -0.8018 -0.9803 -1.9369
15261SOL    HW251620   5.395   5.489   8.576  0.4182  2.1039 -1.9876
15262SOL     OW51621   8.695   1.565   2.904 -0.4733 -0.5779  0.5776
15262SOL    HW151622   8.617   1.610   2.936  0.1244  0.4971  0.5844
15262SOL    HW251623   8.666   1.476   2.885 -1.6668 -0.2291  0.6975
15263SOL     OW51624   9.009   0.463   4.605 -0.0311  0.4033 -0.1282
15263SOL    HW151625   8.988   0.376   4.572 -0.5315  0.0330  1.1486
15263SOL    HW251626   9.059   0.448   4.685 -1.1387  1.2803  0.7567
15264SOL     OW51627   7.386   0.107   9.666  0.1026  0.1396  0.0329
15264SOL    HW151628   7.360   0.113   9.758 -0.0411  0.0562 -0.0011
15264SOL    HW251629   7.479   0.128   9.666 -0.2869  2.0132 -0.0354
15265SOL     OW51630   8.047   0.353   4.816  0.0967 -0.2862 -0.0074
15265SOL    HW151631   8.103   0.334   4.741 -0.0387 -1.4958  0.1758
15265SOL    HW251632   8.045   0.449   4.822  1.7410 -0.2109 -0.3042
15266SOL     OW51633   2.214   8.081   4.109  0.2059  0.4481  0.1027
15266SOL    HW151634   2.206   8.117   4.021 -1.6950  2.0744  0.8582
15266SOL    HW251635   2.308   8.082   4.127  0.4823  1.8993 -1.2117
15267SOL     OW51636   4.924   1.464   9.942  0.4066 -0.0778  0.5782
15267SOL    HW151637   4.889   1.401   9.880 -0.7838  1.7518 -0.6838
15267SOL    HW251638   5.018   1.445   9.944  0.5852  0.1535 -2.2111
15268SOL     OW51639   0.048  10.592  10.430 -0.2595  0.2809  0.3442
15268SOL    HW151640   0.116  10.643  10.474  1.5521 -1.6876 -0.0337
15268SOL    HW251641  -0.032  10.610  10.481  0.3878  2.9650  0.5616
15269SOL     OW51642   2.669   5.364   5.086  0.2682  0.2630  0.2897
15269SOL    HW151643   2.613   5.287   5.076  0.8002 -0.4925  2.6128
15269SOL    HW251644   2.649   5.418   5.009 -2.6199 -0.6026  0.2958
15270SOL     OW51645   8.845   6.325   0.511 -0.1614  0.2915 -0.3061
15270SOL    HW151646   8.883   6.243   0.480  0.0888  0.5606 -0.7195
15270SOL    HW251647   8.916   6.366   0.561  0.3421  1.1258 -1.6721
15271SOL     OW51648   1.816   1.211   3.745  0.3466  0.5155 -0.5996
15271SOL    HW151649   1.896   1.172   3.781  1.4870  0.7045 -2.7656
15271SOL    HW251650   1.804   1.166   3.661 -0.5532  2.0773 -1.3404
15272SOL     OW51651   4.950   1.729   6.544 -0.2108 -0.2714 -0.5575
15272SOL    HW151652   4.880   1.728   6.609 -1.6934  0.9968 -2.0518
15272SOL    HW251653   5.014   1.791   6.579  0.1383 -1.3326  0.7535
15273SOL     OW51654   2.345   6.372   3.572  0.3269  0.7091  0.0759
15273SOL    HW151655   2.432   6.358   3.609 -0.4185 -0.8837  1.3123
15273SOL    HW251656   2.290   6.306   3.614 -1.9189  2.8876  0.7718
15274SOL     OW51657   0.545   6.456   1.022 -0.4312  0.0335 -0.0980
15274SOL    HW151658   0.626   6.489   1.060 -0.7800  0.8467 -0.0346
15274SOL    HW251659   0.477   6.482   1.084 -1.1330  2.2384 -1.6399
15275SOL     OW51660   6.790   1.040   5.061  0.2798  0.2917  1.0170
15275SOL    HW151661   6.793   1.020   4.968  2.2852  1.0801  0.8576
15275SOL    HW251662   6.793   0.954   5.104  2.1141 -0.0247  0.3390
15276SOL     OW51663   3.579   7.786   5.855 -0.3160  0.2186 -0.1660
15276SOL    HW151664   3.602   7.738   5.934  0.4320  3.5492  1.8697
15276SOL    HW251665   3.628   7.743   5.785 -1.0038 -2.8550  1.0931
15277SOL     OW51666   4.122   5.525  10.717 -0.4054 -0.4024 -0.6376
15277SOL    HW151667   4.182   5.451  10.717  0.2131  0.0547  0.7255
15277SOL    HW251668   4.133   5.564  10.804 -2.2912  0.0142 -0.5454
15278SOL     OW51669   0.867   6.176   8.919  0.1754 -0.3973 -0.1284
15278SOL    HW151670   0.877   6.175   8.824  1.8406  0.6789 -0.0003
15278SOL    HW251671   0.941   6.228   8.950  0.8070 -2.3456  1.8955
15279SOL     OW51672   8.012   2.654  10.199 -0.7481 -0.3106 -0.0037
15279SOL    HW151673   8.075   2.632  10.130 -0.1951 -1.3840  0.8102
15279SOL    HW251674   7.929   2.662  10.154 -0.0211  1.3644 -1.1471
15280SOL     OW51675   7.733   1.606   0.528 -0.1301 -0.2936 -0.2040
15280SOL    HW151676   7.651   1.579   0.569  0.5394 -0.6765  0.9286
15280SOL    HW251677   7.792   1.531   0.540  1.5527  1.3001  2.3709
15281SOL     OW51678   1.524   9.649   4.520 -0.0689  0.1994  0.5407
15281SOL    HW151679   1.603   9.601   4.544 -0.8675  0.1344  3.3563
15281SOL    HW251680   1.484   9.596   4.451  1.0557 -1.0974  0.8366
15282SOL     OW51681   0.823   8.667   1.364  0.1545 -0.0512 -0.3619
15282SOL    HW151682   0.815   8.760   1.387 -0.1971 -0.7482  2.8935
15282SOL    HW251683   0.732   8.635   1.361  0.2804 -0.3380 -1.2400
15283SOL     OW51684   9.234   3.565   4.294 -0.3664  0.2005 -0.2423
15283SOL    HW151685   9.207   3.547   4.384  2.2332 -0.0531  0.5786
15283SOL    HW251686   9.262   3.656   4.295 -2.2297  0.8290 -1.3640
15284SOL     OW51687   7.198   4.131   3.342 -0.0026  0.6873 -0.2985
15284SOL    HW151688   7.228   4.219   3.364 -0.8215  1.0044 -0.4117
15284SOL    HW251689   7.266   4.073   3.374 -0.1848  1.2711  1.1983
15285SOL     OW51690   3.665   9.290   1.061  0.2972  0.3244 -0.2709
15285SOL    HW151691   3.643   9.370   1.012 -0.6685  0.3110  0.1296
15285SOL    HW251692   3.583   9.262   1.099  0.5020 -1.2211 -0.8995
15286SOL     OW51693  10.228   8.118  10.464  0.0010  0.3716 -0.2607
15286SOL    HW151694  10.135   8.121  10.486 -0.1805  0.5533 -1.0200
15286SOL    HW251695  10.260   8.037  10.503 -0.1639  0.9589  1.1545
15287SOL     OW51696  10.221   6.188   2.225 -0.1701 -0.1910  0.0286
15287SOL    HW151697  10.132   6.200   2.192 -0.7827 -1.3262  1.1642
15287SOL    HW251698  10.276   6.190   2.147 -1.1118  1.1374 -0.6347
15288SOL     OW51699   9.376   3.050   9.836  0.5231 -0.2572 -0.0820
15288SOL    HW151700   9.332   3.109   9.896 -2.1319 -0.9531 -1.1597
15288SOL    HW251701   9.431   2.995   9.891 -0.9739 -0.1637  1.5852
15289SOL     OW51702   5.467   6.190   0.097  0.1814 -0.4755  0.4571
15289SOL    HW151703   5.551   6.198   0.052 -0.5013 -0.5837 -0.8679
15289SOL    HW251704   5.444   6.097   0.089 -2.0701  0.2238 -3.0123
15290SOL     OW51705   1.920   5.606   7.369 -0.2295 -0.3549  0.5476
15290SOL    HW151706   1.843   5.662   7.377 -0.4881 -0.7210  0.6469
15290SOL    HW251707   1.885   5.519   7.351  0.2026 -0.1925 -1.3156
15291SOL     OW51708   9.697   8.652   0.621  0.4321  0.1466 -0.3168
15291SOL    HW151709   9.767   8.710   0.652 -0.3387  1.0350 -0.2014
15291SOL    HW251710   9.653   8.702   0.552 -0.9006  0.1259  0.4962
15292SOL     OW51711   5.047   5.544   6.162  0.4577  0.3320 -0.5894
15292SOL    HW151712   5.058   5.452   6.185 -0.1817  0.0067 -1.5536
15292SOL    HW251713   4.953   5.560   6.169  0.7618  1.6757  2.2848
15293SOL     OW51714   8.266   0.067   1.233 -0.5356 -0.0077  0.2019
15293SOL    HW151715   8.311   0.006   1.174 -1.2949  0.5056 -0.9415
15293SOL    HW251716   8.189   0.095   1.185  0.7272  3.3677 -0.1450
15294SOL     OW51717  10.078   9.213  10.481 -0.5948  0.5490 -0.0861
15294SOL    HW151718  10.131   9.284  10.518  0.6100 -0.3302 -0.1074
15294SOL    HW251719  10.003   9.207  10.541  0.2545  0.5704  1.0194
15295SOL     OW51720   5.221   0.810   5.254  0.0555  0.1075 -0.4560
15295SOL    HW151721   5.174   0.849   5.180  0.5795  0.1934 -0.7542
15295SOL    HW251722   5.300   0.863   5.262  0.1812 -0.1317 -0.0647
15296SOL     OW51723   6.997   6.716   8.900  0.2668  0.1344  0.4858
15296SOL    HW151724   7.056   6.752   8.967  1.7788 -0.6944 -0.3382
15296SOL    HW251725   7.010   6.622   8.905 -0.9195 -0.0582  0.1865
15297SOL     OW51726   7.346   0.951   1.426 -0.1639  0.1371  0.5008
15297SOL    HW151727   7.251   0.941   1.434  0.0812 -0.8460  3.2458
15297SOL    HW251728   7.367   1.028   1.479  0.6246  0.0688  0.3057
15298SOL     OW51729   5.276   3.362   7.756  0.0441  0.7057 -0.0855
15298SOL    HW151730   5.372   3.355   7.760  0.1299  1.1261 -1.0421
15298SOL    HW251731   5.245   3.277   7.786  0.8211 -0.6979 -2.8430
15299SOL     OW51732   2.022  10.142   6.345  0.2199  0.2529 -0.1998
15299SOL    HW151733   2.115  10.161   6.334  0.5062 -0.8639  0.1930
15299SOL    HW251734   2.017  10.046   6.347 -1.0752  0.2738 -1.3572
15300SOL     OW51735   9.082   3.465   8.400 -0.8597 -0.6017  0.4840
15300SOL    HW151736   9.063   3.542   8.453 -1.0764  0.0378 -0.4863
15300SOL    HW251737   9.001   3.415   8.399 -0.2099 -1.7977  2.5866
15301SOL     OW51738   5.815   5.495   0.680 -0.4632 -0.4328  0.4787
15301SOL    HW151739   5.758   5.441   0.736 -3.2121  0.8720 -0.8443
15301SOL    HW251740   5.782   5.481   0.591 -1.2891  3.2262  0.0443
15302SOL     OW51741   3.276   9.408   5.813 -0.0652  0.0366 -0.2249
15302SOL    HW151742   3.265   9.459   5.733 -0.9240  2.8842  1.5692
15302SOL    HW251743   3.358   9.440   5.851  0.8156 -1.9372 -0.3310
15303SOL     OW51744   7.898   5.535   2.672  0.2258  0.3034 -0.2892
15303SOL    HW151745   7.932   5.447   2.686 -0.6671  0.3261  2.8224
15303SOL    HW251746   7.813   5.535   2.716  0.1095  2.6660 -0.3789
15304SOL     OW51747   9.178   2.016   2.639  0.6295  0.1729  0.5474
15304SOL    HW151748   9.109   1.958   2.672  1.7718 -1.0599  0.8580
15304SOL    HW251749   9.132   2.078   2.582 -0.5634 -1.5898 -0.5060
15305SOL     OW51750   2.602   3.477   0.670  0.0293  0.2852  0.3850
15305SOL    HW151751   2.616   3.559   0.719  0.6737 -0.2769  1.1615
15305SOL    HW251752   2.671   3.419   0.701 -1.1042 -0.9398  0.6679
15306SOL     OW51753   1.959  10.659   6.513 -0.0943 -0.5589  0.0043
15306SOL    HW151754   2.012  10.709   6.451  1.0429 -0.0772  1.3051
15306SOL    HW251755   1.914  10.594   6.459 -1.3772  1.6181 -1.7130
15307SOL     OW51756   0.390   8.754   7.719  0.3657  0.4493  0.1053
15307SOL    HW151757   0.340   8.713   7.648  1.9462  0.4791 -1.1118
15307SOL    HW251758   0.347   8.726   7.799 -2.0196  1.1173 -0.8756
15308SOL     OW51759  10.354   7.503   9.311 -0.6639  0.4982 -0.1418
15308SOL    HW151760  10.417   7.568   9.342 -1.5039  1.6509 -0.7650
15308SOL    HW251761  10.269   7.536   9.340 -0.9138 -1.9354  2.2487
15309SOL     OW51762   9.685   1.407   9.868  1.0869 -0.7708 -0.3447
15309SOL    HW151763   9.623   1.344   9.831  0.1053 -0.3031  0.4641
15309SOL    HW251764   9.709   1.370   9.952 -1.8640  1.2689  1.5982
15310SOL     OW51765  10.221   8.340   9.484 -0.2141 -0.1142 -0.3880
15310SOL    HW151766  10.227   8.245   9.488 -0.0846 -0.0909 -0.0510
15310SOL    HW251767  10.306   8.368   9.450  0.0484 -0.0654  0.3027
15311SOL     OW51768  10.356  10.093   6.269 -0.0450  0.4463  0.0959
15311SOL    HW151769  10.366  10.022   6.206 -0.9684 -1.0492  1.5320
15311SOL    HW251770  10.262  10.107   6.274  0.1549  4.2292 -2.6232
15312SOL     OW51771   0.537   4.045  10.055 -0.4091 -0.1486 -0.3220
15312SOL    HW151772   0.491   4.059   9.973  0.2638  0.2911 -0.6305
15312SOL    HW251773   0.516   3.954  10.079  1.2264 -1.0779 -2.1516
15313SOL     OW51774   3.435   8.096   6.255 -0.6804  0.6334  0.6371
15313SOL    HW151775   3.477   8.021   6.297 -0.8434  1.0652  1.5811
15313SOL    HW251776   3.506   8.159   6.242 -0.9816  1.3178  2.1311
15314SOL     OW51777   9.307   2.268   8.055 -0.5638  0.0448  0.6375
15314SOL    HW151778   9.401   2.247   8.053 -0.6907 -0.5145 -1.1633
15314SOL    HW251779   9.300   2.341   8.115  1.0580  0.1969  0.6872
15315SOL     OW51780   5.360  10.273   2.051 -0.1168 -0.3938  0.0072
15315SOL    HW151781   5.396  10.333   1.985  1.5252 -0.7010  0.5606
15315SOL    HW251782   5.338  10.329   2.125  3.0551 -0.5144  1.2217
15316SOL     OW51783   7.687   5.668   0.016 -0.5948 -0.2250  0.0267
15316SOL    HW151784   7.617   5.696   0.075 -1.1617 -1.1890 -0.1721
15316SOL    HW251785   7.732   5.598   0.064 -0.7936 -0.7247 -0.5127
15317SOL     OW51786   1.211   6.164   9.228 -0.7014 -0.2177 -0.0437
15317SOL    HW151787   1.305   6.147   9.231 -0.6854 -0.0346  1.6790
15317SOL    HW251788   1.173   6.082   9.197 -0.0196 -0.5470 -0.0307
15318SOL     OW51789   6.619   3.665   3.023  0.2182 -0.2899  0.5749
15318SOL    HW151790   6.558   3.631   3.088  0.3883  0.1971  0.9909
15318SOL    HW251791   6.701   3.618   3.040  0.3926  0.1710  1.0097
15319SOL     OW51792   6.496   0.392   8.353  0.2520  0.1673  0.2780
15319SOL    HW151793   6.560   0.356   8.291 -0.7425 -1.4645  0.1563
15319SOL    HW251794   6.480   0.481   8.322  3.4757  1.1893  1.1170
15320SOL     OW51795   1.743   8.516   1.236 -0.6945  0.0049 -0.0840
15320SOL    HW151796   1.808   8.530   1.168 -1.1108  1.0748 -0.2856
15320SOL    HW251797   1.790   8.532   1.318 -0.7342  0.9696 -0.2371
15321SOL     OW51798   7.563  10.313   6.425  0.2217  0.5340 -0.1983
15321SOL    HW151799   7.655  10.313   6.451  0.4685  1.0296 -1.0461
15321SOL    HW251800   7.550  10.398   6.383 -0.9701  1.0382  1.0992
15322SOL     OW51801   6.682   5.482   4.745 -0.5641  0.0735 -0.0223
15322SOL    HW151802   6.592   5.472   4.714 -0.8403  2.1076 -0.0188
15322SOL    HW251803   6.733   5.422   4.690 -1.8434 -0.7385 -0.3660
15323SOL     OW51804  10.252   5.831   5.498 -0.5137  0.1308  0.4596
15323SOL    HW151805  10.338   5.825   5.539 -0.3630 -0.4524  0.0630
15323SOL    HW251806  10.252   5.915   5.453  0.2079 -0.2928 -0.3491
15324SOL     OW51807   4.563   9.539   3.306  0.0052  0.0804  0.1959
15324SOL    HW151808   4.609   9.468   3.260 -1.2512 -0.3715 -0.4112
15324SOL    HW251809   4.583   9.618   3.256  0.3122 -0.0701  0.0814
15325SOL     OW51810   1.025   4.613   3.453 -0.0531 -0.7043 -0.2974
15325SOL    HW151811   1.040   4.523   3.423  1.6239 -0.8416  0.8129
15325SOL    HW251812   0.967   4.604   3.528 -1.3082 -0.6693 -1.2253
15326SOL     OW51813   2.470  10.347   1.074 -0.2621 -0.1369 -0.0380
15326SOL    HW151814   2.503  10.434   1.099 -0.7153  0.2398 -0.7281
15326SOL    HW251815   2.530  10.286   1.117 -0.5958  0.4934  1.3878
15327SOL     OW51816   3.839   2.156   8.185 -0.4889  0.1541 -0.6269
15327SOL    HW151817   3.880   2.230   8.230 -0.6168 -1.3703  2.2960
15327SOL    HW251818   3.901   2.133   8.116  1.5254  0.5628  0.9424
15328SOL     OW51819   0.185   2.682   0.874  0.0519 -0.5012  0.0286
15328SOL    HW151820   0.154   2.601   0.835  1.2601  0.1480 -2.4739
15328SOL    HW251821   0.247   2.654   0.941 -0.6938 -1.6403  0.2734
15329SOL     OW51822   3.753   6.036   8.119 -0.4917 -0.4995 -0.0741
15329SOL    HW151823   3.792   5.950   8.131  1.3768  0.4781  1.4903
15329SOL    HW251824   3.723   6.061   8.206 -0.8866  0.4795 -0.4754
15330SOL     OW51825   1.276   0.986   6.794 -0.2126  0.1280  0.1435
15330SOL    HW151826   1.270   1.003   6.888 -0.8549  0.9947 -0.0419
15330SOL    HW251827   1.188   0.959   6.768  0.2291 -1.2294 -0.0209
15331SOL     OW51828   7.308   6.283   1.320  0.2750  0.8682 -0.2099
15331SOL    HW151829   7.311   6.356   1.258  0.1074  1.6824  0.7247
15331SOL    HW251830   7.324   6.323   1.405  1.7284 -0.4072  0.1562
15332SOL     OW51831   3.672   0.149   9.646 -0.3605 -0.2727 -0.3042
15332SOL    HW151832   3.736   0.190   9.704 -0.8948  0.7451 -0.3957
15332SOL    HW251833   3.718   0.075   9.607 -0.4144 -1.8987  2.4746
15333SOL     OW51834   9.254   1.945   3.960  0.2351 -0.1217  0.4686
15333SOL    HW151835   9.175   1.968   3.911 -0.7817  0.8543  2.4809
15333SOL    HW251836   9.258   1.849   3.954 -2.3355 -0.4202  2.0553
15334SOL     OW51837   2.523   8.230   6.051  0.9572 -0.0970 -0.1950
15334SOL    HW151838   2.475   8.176   6.114  0.9560 -1.8172 -1.5890
15334SOL    HW251839   2.458   8.254   5.985  1.2601  0.5096 -0.2847
15335SOL     OW51840   9.250   9.098   2.090  0.0377  0.4387  0.0163
15335SOL    HW151841   9.258   9.030   2.157 -0.0644 -0.2747 -0.6754
15335SOL    HW251842   9.178   9.153   2.120 -0.3400 -0.1708  0.2328
15336SOL     OW51843   3.634   7.932   0.075  0.0137 -0.1309  0.1566
15336SOL    HW151844   3.677   7.927  -0.011  0.3994 -1.9408  0.4291
15336SOL    HW251845   3.541   7.919   0.056  0.1699 -1.1471  0.0717
15337SOL     OW51846   6.666   7.386   8.537  0.2133 -0.1560  0.2332
15337SOL    HW151847   6.667   7.446   8.611 -0.3372 -1.9408  1.7673
15337SOL    HW251848   6.703   7.304   8.571 -1.8604 -1.6459 -0.8505
15338SOL     OW51849   3.604   0.890   1.970  0.6770 -0.0407  0.4109
15338SOL    HW151850   3.654   0.877   1.890 -0.5261 -1.0970 -0.2132
15338SOL    HW251851   3.621   0.980   1.995  0.7151  0.4677 -1.3105
15339SOL     OW51852   8.826   2.922   3.316  0.3684 -0.0298  0.0966
15339SOL    HW151853   8.865   2.956   3.235  1.8323 -0.1502  0.7087
15339SOL    HW251854   8.893   2.938   3.382 -0.8424  0.1619  1.3224
15340SOL     OW51855   0.169   0.923   6.639 -0.1938 -0.0078 -0.3460
15340SOL    HW151856   0.086   0.917   6.685 -0.1890 -1.2333 -0.4628
15340SOL    HW251857   0.166   1.008   6.594 -1.1588  0.1788  0.0571
15341SOL     OW51858   2.177   8.041   3.452 -0.3028 -0.6009  0.1881
15341SOL    HW151859   2.195   8.129   3.422  3.5340 -1.2552  0.1333
15341SOL    HW251860   2.188   7.986   3.375  0.4887 -1.4035  0.8527
15342SOL     OW51861   5.506   0.607   5.101  0.6298  0.4381 -0.1865
15342SOL    HW151862   5.433   0.546   5.108  0.2456  0.8907 -0.2375
15342SOL    HW251863   5.515   0.623   5.007  2.1391 -1.2238 -0.3829
15343SOL     OW51864  10.681   2.009   7.522  0.6456  0.2553 -0.3761
15343SOL    HW151865  10.773   1.986   7.534  1.3034  2.0882 -1.4320
15343SOL    HW251866  10.671   2.092   7.570  0.1042  1.1204 -1.9169
15344SOL     OW51867   8.751  10.217   0.026  0.5870  0.3911  0.6288
15344SOL    HW151868   8.744  10.195  -0.067 -0.0187 -2.1372  1.2059
15344SOL    HW251869   8.794  10.142   0.066  0.8653  1.4386  2.4104
15345SOL     OW51870   8.816   1.605   8.193 -0.3787  0.7502 -0.0903
15345SOL    HW151871   8.899   1.567   8.164 -0.7852 -0.3985  0.2184
15345SOL    HW251872   8.766   1.617   8.112  0.6905  3.0347 -0.4856
15346SOL     OW51873   3.235   2.460   0.075 -0.2612  0.2995 -0.4044
15346SOL    HW151874   3.215   2.392   0.011 -1.0618  0.5876 -0.4615
15346SOL    HW251875   3.299   2.516   0.030  0.8243 -0.6977 -0.1626
15347SOL     OW51876   1.316   0.370   1.911 -0.4268  0.1111 -0.0671
15347SOL    HW151877   1.228   0.406   1.904  0.2198  2.0164  0.7560
15347SOL    HW251878   1.373   0.442   1.883  0.9182 -0.6771  0.5478
15348SOL     OW51879   4.602   5.464   2.236 -0.4778  0.1516  0.0855
15348SOL    HW151880   4.559   5.382   2.261 -1.5914  1.0303  1.1677
15348SOL    HW251881   4.603   5.516   2.316 -0.8199  1.6426 -0.8425
15349SOL     OW51882   8.718   8.758   9.940 -0.2868  0.6904 -0.7967
15349SOL    HW151883   8.636   8.803   9.920 -0.3394 -0.0500 -2.3670
15349SOL    HW251884   8.729   8.769  10.035 -2.9209 -0.3927 -0.2852
15350SOL     OW51885   1.364   0.809   2.726 -0.1088  0.0844  0.5591
15350SOL    HW151886   1.271   0.826   2.713 -0.0849  0.0894  0.3968
15350SOL    HW251887   1.384   0.849   2.811  0.2672  2.1027 -0.4249
15351SOL     OW51888   7.682   5.563   7.513 -0.0229 -0.3048 -0.3884
15351SOL    HW151889   7.634   5.485   7.542 -0.4838 -0.6040 -1.8714
15351SOL    HW251890   7.659   5.572   7.421  0.4732  1.2764 -0.3816
15352SOL     OW51891   7.943   9.307   2.949 -0.1688  0.3126 -0.2256
15352SOL    HW151892   7.851   9.325   2.970 -0.4961 -1.6607  0.1941
15352SOL    HW251893   7.940   9.274   2.859  0.5187  2.9333 -1.3016
15353SOL     OW51894   0.657   5.151   1.324  0.1301 -0.1341  0.9633
15353SOL    HW151895   0.609   5.185   1.248  2.2840  2.2971  0.5721
15353SOL    HW251896   0.604   5.177   1.400 -1.8794 -2.3114  0.4601
15354SOL     OW51897   2.624   7.894  10.303 -0.1779  0.6323 -0.1530
15354SOL    HW151898   2.529   7.896  10.288 -0.0507  3.2693 -1.0777
15354SOL    HW251899   2.647   7.801  10.297 -2.2972  0.1418 -2.6043
15355SOL     OW51900   4.254   6.098  10.567  0.0362 -0.1829 -0.2166
15355SOL    HW151901   4.295   6.020  10.530 -1.0242 -0.9050  0.1049
15355SOL    HW251902   4.189   6.065  10.629  0.0741  0.9668  0.4711
15356SOL     OW51903   6.542   3.733   0.312  0.1020 -0.0575  0.4722
15356SOL    HW151904   6.597   3.656   0.321 -0.7833 -0.6386  0.9745
15356SOL    HW251905   6.602   3.802   0.283  1.0538 -0.7153  0.8441
15357SOL     OW51906   4.356   6.096   1.922  0.4044  0.2549  0.0727
15357SOL    HW151907   4.279   6.110   1.978 -0.7837 -2.3715 -0.7427
15357SOL    HW251908   4.323   6.102   1.833  1.1237 -0.8327 -0.2941
15358SOL     OW51909   4.743   4.262   7.554 -0.8609  0.3317  0.0768
15358SOL    HW151910   4.751   4.355   7.578  2.8057 -0.4576  2.8658
15358SOL    HW251911   4.671   4.230   7.606 -1.3688  1.3497  0.0260
15359SOL     OW51912   4.931   2.792   4.487  0.0361 -0.2591 -0.6073
15359SOL    HW151913   4.896   2.880   4.501 -0.6240 -0.6381  0.1958
15359SOL    HW251914   4.996   2.803   4.417 -0.3961  0.7709 -0.8657
15360SOL     OW51915   8.004   5.297   7.508 -0.1803 -0.0794 -0.4001
15360SOL    HW151916   8.063   5.370   7.529  1.0372 -1.2234  0.2986
15360SOL    HW251917   7.916   5.335   7.516  0.4224  1.3432 -0.1807
15361SOL     OW51918   8.848   5.858   9.664  0.1542 -0.1485 -0.2897
15361SOL    HW151919   8.844   5.810   9.747  2.8437  0.7654  0.4697
15361SOL    HW251920   8.760   5.894   9.653 -0.4782 -0.9055  1.7918
15362SOL     OW51921   2.704   2.115   4.497 -0.2334 -0.3144 -0.3604
15362SOL    HW151922   2.779   2.068   4.532  0.6941  2.1540  1.2646
15362SOL    HW251923   2.636   2.103   4.564  0.1271  0.8907  0.2401
15363SOL     OW51924   4.690   1.996   5.337  0.4434  0.1478 -0.0165
15363SOL    HW151925   4.731   2.082   5.321  1.5537 -0.2247  0.6854
15363SOL    HW251926   4.758   1.933   5.314 -0.7083 -0.6042 -1.4984
15364SOL     OW51927   0.048   6.055   8.634  0.2642  0.0621 -0.1921
15364SOL    HW151928  -0.018   6.007   8.584  0.4315 -1.7704  1.2326
15364SOL    HW251929   0.120   6.068   8.573 -0.8678  0.9546 -1.3953
15365SOL     OW51930  10.155   4.262   6.131 -0.2562 -0.0364 -0.6756
15365SOL    HW151931  10.109   4.189   6.172  0.0855 -0.1639 -0.5224
15365SOL    HW251932  10.094   4.336   6.139 -0.0639  0.0238  0.3417
15366SOL     OW51933   9.080   0.503   5.607 -0.2379  0.0371 -0.1404
15366SOL    HW151934   9.085   0.520   5.701 -1.2689 -1.2384  0.1643
15366SOL    HW251935   9.084   0.590   5.567  1.6686  0.5313  0.9744
15367SOL     OW51936   4.525   0.286   2.653 -0.1984 -0.8362  1.1293
15367SOL    HW151937   4.491   0.321   2.735  0.6192  0.8978  0.7868
15367SOL    HW251938   4.615   0.319   2.649  0.0655 -1.6367 -0.0506
15368SOL     OW51939   1.402   5.367  10.213 -0.8772 -0.2572  0.9992
15368SOL    HW151940   1.402   5.413  10.297 -1.8668 -0.7771  1.3058
15368SOL    HW251941   1.454   5.287  10.230 -2.0056 -0.9174  1.4613
15369SOL     OW51942   6.000   5.743   3.974  0.0509 -0.2248 -0.3825
15369SOL    HW151943   6.057   5.727   3.899 -0.2972  2.5912 -1.3749
15369SOL    HW251944   5.968   5.656   3.998  2.6407 -1.5942 -1.4415
15370SOL     OW51945   4.345   1.499   7.843 -0.5313  0.0301  0.1082
15370SOL    HW151946   4.421   1.552   7.819 -1.6043  0.7986 -1.8915
15370SOL    HW251947   4.349   1.424   7.784 -1.8948  0.6798 -0.8983
15371SOL     OW51948   9.850   6.048   0.681 -0.1779  0.2167  0.0909
15371SOL    HW151949   9.853   6.020   0.590  0.3093 -0.1348  0.2087
15371SOL    HW251950   9.839   5.966   0.731 -0.3523  0.3971  0.3502
15372SOL     OW51951   4.718   1.095   3.115  0.4064  0.7215  0.2474
15372SOL    HW151952   4.713   1.004   3.087  1.0871  0.2957  1.4202
15372SOL    HW251953   4.752   1.142   3.039 -1.9266  0.4058 -1.0992
15373SOL     OW51954   9.116   2.674   4.519 -0.8069 -0.9838  0.3778
15373SOL    HW151955   9.055   2.717   4.460  0.6966 -0.9634 -1.2590
15373SOL    HW251956   9.195   2.728   4.516 -0.2121 -1.7613  1.3115
15374SOL     OW51957   9.156   1.360   0.695  0.1121  0.7004 -0.2422
15374SOL    HW151958   9.102   1.429   0.656 -1.6195  0.4445  1.5146
15374SOL    HW251959   9.126   1.279   0.652 -0.3741  0.6566  0.1628
15375SOL     OW51960   0.161   0.902   9.511 -0.4007 -0.0771  0.4949
15375SOL    HW151961   0.209   0.820   9.522 -0.0522  0.0483 -0.0683
15375SOL    HW251962   0.210   0.950   9.445 -1.0003  0.2864  0.3077
15376SOL     OW51963   6.990   0.193  10.389 -0.2772  0.4618 -0.0631
15376SOL    HW151964   6.979   0.265  10.452 -0.7336  0.2821  0.0638
15376SOL    HW251965   7.083   0.170  10.395 -0.5921 -0.5631  1.6713
15377SOL     OW51966   5.030   3.306   3.098 -0.2603 -0.3595 -0.3905
15377SOL    HW151967   5.055   3.364   3.026 -1.2346 -0.9266 -1.2140
15377SOL    HW251968   5.087   3.230   3.087 -0.0636 -0.2322 -0.2578
15378SOL     OW51969   4.834   6.941   8.110  0.1478 -0.0602  0.4192
15378SOL    HW151970   4.860   6.977   8.025 -0.3986  0.7314  0.5741
15378SOL    HW251971   4.864   7.005   8.174  1.2920 -1.0554  0.9064
15379SOL     OW51972   7.057   1.464   7.660  0.0452 -0.1987  0.4193
15379SOL    HW151973   7.027   1.554   7.678  0.3069  0.4985 -2.2568
15379SOL    HW251974   7.141   1.475   7.616  0.8205 -1.8655  1.3938
15380SOL     OW51975  10.627   8.563   8.639  0.0847  0.0191 -0.3401
15380SOL    HW151976  10.571   8.500   8.684  0.4797 -0.3612 -0.3850
15380SOL    HW251977  10.716   8.529   8.648  0.3494  0.7505 -0.0504
15381SOL     OW51978   8.056   1.131  10.167  0.1026 -0.2572  0.6468
15381SOL    HW151979   8.015   1.050  10.138  1.1310 -0.9170  0.9997
15381SOL    HW251980   8.103   1.107  10.247 -1.8835  1.2958  2.3963
15382SOL     OW51981  10.206  10.301   1.838  0.0497 -0.4142 -0.4666
15382SOL    HW151982  10.287  10.352   1.835 -0.0119 -0.2906 -0.0894
15382SOL    HW251983  10.144  10.349   1.784  0.4370 -0.8865 -1.3537
15383SOL     OW51984   5.372   7.226  10.051 -0.2711 -0.5591  0.1751
15383SOL    HW151985   5.370   7.147   9.998  1.2137 -0.7119  0.3006
15383SOL    HW251986   5.283   7.261  10.046 -1.0160 -2.3450  0.2975
15384SOL     OW51987   5.720   9.102   2.112  0.0401 -0.3026  0.0947
15384SOL    HW151988   5.707   9.195   2.096 -0.3894 -0.4625 -0.5167
15384SOL    HW251989   5.784   9.098   2.183  0.9647  0.4514 -0.6701
15385SOL     OW51990   3.428   5.704   9.414 -0.3666 -0.0699 -0.0320
15385SOL    HW151991   3.362   5.646   9.376 -1.0597  2.3425 -2.9332
15385SOL    HW251992   3.381   5.784   9.435  1.1535  0.7629  0.3517
15386SOL     OW51993   1.701   3.855   4.786 -0.3316  0.0596 -0.2346
15386SOL    HW151994   1.767   3.923   4.773  2.1894 -2.0187  0.9562
15386SOL    HW251995   1.634   3.898   4.839 -0.2075  2.3422 -1.7792
15387SOL     OW51996   1.771  10.093   7.266 -0.1183 -0.1888  0.4795
15387SOL    HW151997   1.768  10.179   7.225 -0.9518 -0.4896 -0.1036
15387SOL    HW251998   1.863  10.067   7.262 -0.0554  0.1567 -0.4297
15388SOL     OW51999   2.615   1.045   7.895 -0.3777  0.4163 -0.1713
15388SOL    HW152000   2.545   1.075   7.953  1.3491  1.2937  1.5463
15388SOL    HW252001   2.695   1.075   7.936  1.1439 -1.7570 -1.3385
15389SOL     OW52002  10.579  10.625   9.229  0.2201 -0.4918 -0.1948
15389SOL    HW152003  10.613  10.686   9.295 -1.1122 -0.9007  0.9134
15389SOL    HW252004  10.639  10.551   9.232  0.4532 -0.2926  0.2088
15390SOL     OW52005   9.568   4.076   2.060 -0.0182  0.2354  0.3907
15390SOL    HW152006   9.650   4.107   2.099  0.6406 -1.4119  0.4174
15390SOL    HW252007   9.504   4.143   2.082  0.8893  0.5927  2.1494
15391SOL     OW52008   1.454   4.683   6.120  0.0922  0.2589  0.3882
15391SOL    HW152009   1.396   4.705   6.047 -0.3501  1.2104  1.0075
15391SOL    HW252010   1.469   4.766   6.164  1.8808  0.0116  0.2959
15392SOL     OW52011   1.792   8.010   1.404 -0.2627  0.4832 -0.3037
15392SOL    HW152012   1.822   7.932   1.450  1.1257  0.9552 -0.3654
15392SOL    HW252013   1.857   8.023   1.335 -0.2793  1.8976 -0.0681
15393SOL     OW52014   8.785   0.830   1.050  0.0607 -0.0784  0.0972
15393SOL    HW152015   8.806   0.890   1.121 -0.8806 -0.8687  1.0785
15393SOL    HW252016   8.795   0.882   0.970 -0.4539  1.2972  0.9026
15394SOL     OW52017   1.916   9.710   0.519 -0.3880  0.4097 -0.0266
15394SOL    HW152018   1.858   9.762   0.464 -0.0952 -0.6988 -1.4890
15394SOL    HW252019   1.869   9.628   0.533  0.0899  0.1741  0.2435
15395SOL     OW52020   3.661   8.864  10.411 -1.0809 -0.3479  0.1607
15395SOL    HW152021   3.580   8.913  10.424 -0.3242  0.7651  0.9058
15395SOL    HW252022   3.729   8.919  10.450  0.4703  0.1067 -2.8447
15396SOL     OW52023   0.170   8.632   3.342 -0.4113 -0.0552 -0.0255
15396SOL    HW152024   0.251   8.613   3.389  0.4505  1.2966 -0.8847
15396SOL    HW252025   0.148   8.550   3.299  0.7971 -0.3305 -0.1726
15397SOL     OW52026   3.615  10.432   2.577 -0.1762 -0.1616 -0.0196
15397SOL    HW152027   3.606  10.401   2.667  0.0653  1.4475  0.5881
15397SOL    HW252028   3.531  10.474   2.558  0.8056  2.3106  0.6361
15398SOL     OW52029   9.032   7.383   3.516  0.0087  0.4005  0.1556
15398SOL    HW152030   9.117   7.403   3.557 -0.2748  0.5068  0.6939
15398SOL    HW252031   9.047   7.299   3.472  0.5866  0.7439 -0.3225
15399SOL     OW52032   9.590   9.648  10.187 -0.0577  0.1543  0.2931
15399SOL    HW152033   9.515   9.589  10.184 -0.2973  0.4955 -0.7329
15399SOL    HW252034   9.659   9.597  10.230 -0.5271 -0.5647  0.2079
15400SOL     OW52035   8.245   5.425   3.556 -0.3302  0.4134  0.2984
15400SOL    HW152036   8.236   5.462   3.469  0.5567 -0.5532 -0.2267
15400SOL    HW252037   8.158   5.435   3.596 -0.9691  0.1670 -0.9813
15401SOL     OW52038   8.477   0.386   6.035 -0.3921  0.0701 -0.3565
15401SOL    HW152039   8.513   0.465   5.994 -0.3638 -0.2803 -1.0019
15401SOL    HW252040   8.539   0.367   6.106 -0.0911  0.3087 -0.5505
15402SOL     OW52041   4.579   4.038   8.912 -0.2693 -0.1061  0.2480
15402SOL    HW152042   4.641   4.015   8.981 -1.0460 -0.6874  0.7740
15402SOL    HW252043   4.573   3.959   8.858 -0.7642 -0.1626  0.3768
15403SOL     OW52044   3.083  10.489   1.376 -0.9127  0.2552  0.0456
15403SOL    HW152045   3.113  10.406   1.338 -2.8645 -0.0319 -0.9746
15403SOL    HW252046   2.996  10.503   1.339 -0.5179  2.9596 -0.0904
15404SOL     OW52047   7.150   2.838   3.762 -0.2382  0.2101 -0.2118
15404SOL    HW152048   7.097   2.788   3.700 -0.1833  0.0273 -0.1133
15404SOL    HW252049   7.236   2.844   3.720  0.2643 -1.2690  0.5205
15405SOL     OW52050   1.924   1.638   4.604 -0.0862  0.6607 -0.1447
15405SOL    HW152051   2.006   1.591   4.622 -0.5655  0.2804  1.1376
15405SOL    HW252052   1.874   1.631   4.685 -1.7267  0.2282 -1.1418
15406SOL     OW52053   3.756   9.412   5.574 -0.1753  0.5791 -0.0576
15406SOL    HW152054   3.801   9.445   5.652  2.0748 -0.7965 -0.6929
15406SOL    HW252055   3.812   9.438   5.501  0.5826 -2.6065 -0.7596
15407SOL     OW52056   7.045   7.986   9.669  0.1691  0.4579  0.0312
15407SOL    HW152057   7.108   7.940   9.725  0.1986  0.7445  0.2362
15407SOL    HW252058   6.976   7.922   9.653  0.9727 -0.1836 -0.9882
15408SOL     OW52059   8.599   8.838   8.765  0.0053 -0.9685  0.1658
15408SOL    HW152060   8.660   8.805   8.831  0.4977 -0.3977  0.0052
15408SOL    HW252061   8.654   8.889   8.705 -0.0417 -3.1161 -1.8906
15409SOL     OW52062   0.410   0.098   3.210 -0.1598 -0.0998  0.0810
15409SOL    HW152063   0.323   0.127   3.182 -0.4576 -0.7620  0.3227
15409SOL    HW252064   0.434   0.028   3.149  0.1494 -0.0153  0.0999
15410SOL     OW52065   6.482   1.079   3.744  0.4014 -0.5456  0.5335
15410SOL    HW152066   6.456   1.137   3.816  0.4853 -1.5565  1.4212
15410SOL    HW252067   6.482   0.991   3.784 -0.8384 -1.3074 -1.0499
15411SOL     OW52068   7.349   7.464   3.796  0.1966  0.3227 -0.2401
15411SOL    HW152069   7.260   7.460   3.761 -0.4290  1.0889  1.1713
15411SOL    HW252070   7.370   7.373   3.819  0.9294 -0.3418 -3.1611
15412SOL     OW52071   0.856   8.485   9.368 -0.1604  0.3120 -0.1342
15412SOL    HW152072   0.923   8.426   9.334  0.3832  0.9153 -0.1425
15412SOL    HW252073   0.814   8.436   9.438  0.1129 -0.1751 -0.3067
15413SOL     OW52074   3.640  10.694   3.856 -0.4290  0.1457  0.0213
15413SOL    HW152075   3.604  10.766   3.908  0.5710  0.3815  0.4124
15413SOL    HW252076   3.654  10.623   3.918 -0.3978 -0.0070 -0.1564
15414SOL     OW52077   3.558   8.341  10.323 -0.5809 -0.5494  0.3586
15414SOL    HW152078   3.609   8.344  10.405 -0.0619  0.2818  0.0198
15414SOL    HW252079   3.601   8.274  10.271  0.0693  0.0235  0.1468
15415SOL     OW52080   7.917   7.943   6.778 -0.4183  0.3712  0.6227
15415SOL    HW152081   8.005   7.936   6.814 -0.4286 -0.4115  0.5019
15415SOL    HW252082   7.907   7.866   6.722 -1.3605  0.1723  1.0430
15416SOL     OW52083   2.808  10.056   1.461 -0.0340  0.0531  0.2166
15416SOL    HW152084   2.821  10.023   1.372 -0.2728  1.4531 -0.3673
15416SOL    HW252085   2.863  10.000   1.516 -0.1809 -1.0761 -0.7561
15417SOL     OW52086   6.360  10.084   9.181  0.3708  0.5320 -0.0483
15417SOL    HW152087   6.430  10.090   9.116  0.1212  0.7510 -0.2999
15417SOL    HW252088   6.369   9.996   9.218 -0.0742  0.0492 -1.0557
15418SOL     OW52089   4.760   3.007   3.380  0.3827 -0.1370 -0.0715
15418SOL    HW152090   4.776   2.917   3.407  1.9271  0.4677  1.1786
15418SOL    HW252091   4.694   3.000   3.311  0.2273 -2.1803  0.2242
15419SOL     OW52092   3.979   9.997   5.438  0.2512 -0.2382 -0.0305
15419SOL    HW152093   4.069   9.969   5.456  0.2578 -0.0399  0.2476
15419SOL    HW252094   3.958   9.957   5.353 -0.0795 -1.9022  0.7875
15420SOL     OW52095   7.063   1.205   5.741  0.1356  0.1797 -0.3512
15420SOL    HW152096   7.021   1.220   5.656 -0.1760 -3.0261 -0.9192
15420SOL    HW252097   6.997   1.158   5.792  0.7686  0.9451  1.2273
15421SOL     OW52098   0.068   3.278  10.076  0.1205  0.0160 -0.4710
15421SOL    HW152099   0.044   3.195  10.035 -1.0596  0.5082 -0.8290
15421SOL    HW252100   0.032   3.273  10.165 -1.0062  0.5675 -0.8599
15422SOL     OW52101   0.414   0.645   5.182  0.5854  0.0520  0.2570
15422SOL    HW152102   0.366   0.612   5.258  0.2335 -0.0585 -0.0127
15422SOL    HW252103   0.504   0.657   5.214  0.2471  0.8556  0.9359
15423SOL     OW52104   5.365   1.391   6.755  0.2670 -0.7591  0.6190
15423SOL    HW152105   5.431   1.324   6.774 -0.3132 -1.2533  0.8999
15423SOL    HW252106   5.377   1.456   6.823  0.8002 -0.5936  0.3761
15424SOL     OW52107   0.496   3.905   6.356  0.3506  0.2348  0.0770
15424SOL    HW152108   0.506   3.983   6.302 -2.0423  1.7150  1.5662
15424SOL    HW252109   0.542   3.837   6.308  1.1174  2.1625 -2.1488
15425SOL     OW52110   4.768   6.931   5.713 -0.4393  0.1922  0.1875
15425SOL    HW152111   4.728   6.993   5.775 -0.4370 -0.0791  0.4647
15425SOL    HW252112   4.861   6.934   5.733 -0.1759  1.4976 -1.0635
15426SOL     OW52113   7.533   7.124   8.586 -0.4774 -0.8273 -0.7178
15426SOL    HW152114   7.552   7.218   8.581  0.8945 -0.7848  2.6822
15426SOL    HW252115   7.451   7.118   8.633  1.1091 -1.2504  2.2155
15427SOL     OW52116   2.118   4.065   9.820 -0.1195  0.3797 -0.3638
15427SOL    HW152117   2.089   4.056   9.911  0.4793 -1.3415 -0.3033
15427SOL    HW252118   2.138   4.158   9.810 -0.2297  0.6060  1.2631
15428SOL     OW52119   4.443   6.173   4.039 -0.2569  0.0771  0.8134
15428SOL    HW152120   4.365   6.227   4.030 -0.2377  0.1313  0.9685
15428SOL    HW252121   4.514   6.226   4.001 -0.1994  0.2511  1.1536
15429SOL     OW52122   1.854   3.069  10.292  0.4092  0.0573 -0.1124
15429SOL    HW152123   1.832   3.089  10.201 -0.5302 -2.0428 -0.3901
15429SOL    HW252124   1.948   3.055  10.291  0.0931 -2.5803 -1.3776
15430SOL     OW52125   3.046   8.692   0.561  0.0495  0.0210 -0.4404
15430SOL    HW152126   3.084   8.611   0.527 -0.6690 -0.4496 -0.1234
15430SOL    HW252127   2.952   8.679   0.554 -0.1635 -0.3007  2.1976
15431SOL     OW52128   2.701   0.807   1.991 -0.4898 -1.1514 -0.4225
15431SOL    HW152129   2.608   0.788   1.992 -0.4102 -1.5452  0.0535
15431SOL    HW252130   2.731   0.784   2.079  0.1373 -1.4516 -0.7072
15432SOL     OW52131   4.325   1.261   7.664 -0.5748 -0.0112  0.1010
15432SOL    HW152132   4.347   1.175   7.700  0.2491 -0.8013 -2.1313
15432SOL    HW252133   4.231   1.255   7.643 -1.4163  0.9053  3.0734
15433SOL     OW52134   9.469   0.757   4.629  0.3116  0.1733  0.4186
15433SOL    HW152135   9.460   0.706   4.549  0.4369  2.4433 -1.1322
15433SOL    HW252136   9.562   0.748   4.653  0.4544  0.1174 -0.1445
15434SOL     OW52137   9.210   0.690   0.097  1.0903  0.5380  0.1495
15434SOL    HW152138   9.205   0.611   0.151  1.2506  0.7237  0.4381
15434SOL    HW252139   9.302   0.715   0.099  1.0303  0.7660  0.1093
15435SOL     OW52140   5.300   3.077   1.775 -0.1017 -0.1768  0.0054
15435SOL    HW152141   5.377   3.128   1.799  0.2416 -0.6728 -0.0244
15435SOL    HW252142   5.243   3.083   1.852  1.3016 -2.3525  1.3303
15436SOL     OW52143   7.104   7.521   8.116  0.4307  0.1810 -0.0714
15436SOL    HW152144   7.092   7.466   8.194 -0.8242 -0.5258 -0.7297
15436SOL    HW252145   7.021   7.568   8.107  0.3119 -0.2383 -1.3418
15437SOL     OW52146   0.700  10.051   9.550 -0.4993  0.1924  0.2322
15437SOL    HW152147   0.681  10.142   9.525 -0.4408  0.2270  0.3169
15437SOL    HW252148   0.623  10.002   9.519  0.3262 -0.0448 -1.6182
15438SOL     OW52149   6.295   0.199   8.497  0.0869  0.0306 -0.3746
15438SOL    HW152150   6.342   0.259   8.440  0.9630 -1.4295 -1.2628
15438SOL    HW252151   6.280   0.248   8.578  1.6633  1.0982 -0.6924
15439SOL     OW52152   6.224   6.063   0.114 -0.4558 -0.0552 -0.1891
15439SOL    HW152153   6.306   6.103   0.083  0.1935  0.1243  1.6228
15439SOL    HW252154   6.236   5.969   0.100 -1.5273  0.1735 -3.4175
15440SOL     OW52155   6.943   2.019   8.706  0.2105  0.1101 -0.4118
15440SOL    HW152156   7.023   2.037   8.756  0.1594 -0.3827 -0.1525
15440SOL    HW252157   6.970   2.028   8.615  0.1932  1.4826 -0.3024
15441SOL     OW52158  10.189   4.698   8.327 -0.4744 -0.3759 -0.0203
15441SOL    HW152159  10.197   4.739   8.241  0.4029  0.5116  0.4689
15441SOL    HW252160  10.159   4.609   8.309 -1.3411  0.1319 -1.1729
15442SOL     OW52161  10.213   9.598   8.600  0.4324 -0.2652  0.4416
15442SOL    HW152162  10.234   9.638   8.516 -1.4688 -2.1591 -1.0241
15442SOL    HW252163  10.296   9.561   8.631  0.9913 -0.2245 -0.9619
15443SOL     OW52164   8.730   9.381   3.649 -0.0563 -0.9471 -0.2350
15443SOL    HW152165   8.687   9.433   3.581  0.0884 -0.8490 -0.2518
15443SOL    HW252166   8.678   9.395   3.727  1.3668  1.2361  0.4238
15444SOL     OW52167   5.053   6.950   2.927  0.3343  0.6061 -0.0142
15444SOL    HW152168   5.125   6.966   2.866  0.3581  0.6407  0.0230
15444SOL    HW252169   5.063   6.858   2.952  0.3121  0.5859 -0.0791
15445SOL     OW52170   5.289   1.863   1.086  0.1725 -0.0690 -0.7117
15445SOL    HW152171   5.295   1.915   1.166 -0.3733 -0.4047 -0.4524
15445SOL    HW252172   5.228   1.792   1.107  1.8169 -1.5318 -0.6821
15446SOL     OW52173   5.243   3.615   0.038  0.5902 -0.8213  0.3070
15446SOL    HW152174   5.181   3.546   0.017  0.6742 -0.5147 -1.0517
15446SOL    HW252175   5.321   3.569   0.069  0.1196 -1.2587  0.8518
15447SOL     OW52176   9.347   7.125   2.197  0.4855  0.1668 -0.1253
15447SOL    HW152177   9.257   7.155   2.184 -0.3246 -1.8763  0.2333
15447SOL    HW252178   9.371   7.157   2.284 -1.0550 -1.6638  1.0720
15448SOL     OW52179   3.462   0.757   8.286 -0.1765  0.1876 -0.4430
15448SOL    HW152180   3.472   0.787   8.195  2.2658 -1.0046 -0.6609
15448SOL    HW252181   3.462   0.662   8.279 -0.3396  0.0908  0.7939
15449SOL     OW52182   7.915   8.498   2.078  0.4733  0.3883  0.8204
15449SOL    HW152183   7.945   8.413   2.111  1.9966  0.1218 -1.0308
15449SOL    HW252184   7.824   8.483   2.054  0.9616 -1.0671 -0.3179
15450SOL     OW52185   1.238   8.626   1.217 -0.1392  0.0834  0.0837
15450SOL    HW152186   1.152   8.584   1.207 -0.1754  0.2157 -0.1897
15450SOL    HW252187   1.274   8.627   1.128  1.5135 -2.8264  0.5717
15451SOL     OW52188   8.822   1.008   7.069  0.0846 -0.4589  0.3244
15451SOL    HW152189   8.763   1.083   7.063  2.0201  1.1276  0.2970
15451SOL    HW252190   8.838   0.982   6.979  1.8562  1.1525  0.1215
15452SOL     OW52191   6.305   3.955   4.180 -0.5571 -0.0235  1.0698
15452SOL    HW152192   6.326   4.037   4.227  2.0353 -0.1698  0.2740
15452SOL    HW252193   6.318   3.976   4.088 -0.2510 -1.2300  0.8251
15453SOL     OW52194   2.763   1.772   4.170  0.4797  0.2269 -0.5465
15453SOL    HW152195   2.730   1.683   4.161  0.1865  0.1808  0.8133
15453SOL    HW252196   2.811   1.772   4.253  0.6668  1.2841 -0.6400
15454SOL     OW52197   8.272   7.247   6.142  0.2525 -0.3724 -0.2617
15454SOL    HW152198   8.265   7.339   6.115  1.2745 -0.4716 -0.9301
15454SOL    HW252199   8.182   7.214   6.138 -0.1442  0.6230  0.0881
15455SOL     OW52200   3.855   2.030   2.754 -0.2510 -0.4940  0.3686
15455SOL    HW152201   3.819   2.117   2.737 -0.1039 -0.6131 -0.6233
15455SOL    HW252202   3.918   2.016   2.683  0.9027 -0.7645  1.3952
15456SOL     OW52203   5.000   7.099   1.873 -0.5030 -0.9134 -0.0722
15456SOL    HW152204   4.939   7.121   1.803  1.0990  0.6894 -1.0652
15456SOL    HW252205   5.085   7.131   1.842  0.6815 -2.1375  1.6724
15457SOL     OW52206   6.837   1.005   4.296 -0.3067  0.2242 -0.4442
15457SOL    HW152207   6.919   0.975   4.335 -0.1577 -1.4761 -1.9113
15457SOL    HW252208   6.865   1.062   4.224 -0.4696  0.8411 -0.0210
15458SOL     OW52209   0.381   6.780   0.006 -0.3852  0.1341 -0.3058
15458SOL    HW152210   0.406   6.808   0.094 -1.2628 -1.1902  0.3848
15458SOL    HW252211   0.357   6.688   0.016 -3.0162  0.6379 -1.4236
15459SOL     OW52212   6.214   4.078   2.554  0.0927  0.2874  0.1883
15459SOL    HW152213   6.289   4.119   2.511  0.5133  0.7330  1.3021
15459SOL    HW252214   6.142   4.088   2.492  1.1087 -0.8147 -1.2345
15460SOL     OW52215   8.720   2.074   0.364 -0.2601  0.0183 -0.1487
15460SOL    HW152216   8.764   2.124   0.432 -0.8979  0.3103  0.0565
15460SOL    HW252217   8.775   1.997   0.351 -0.2045 -0.1075  0.7846
15461SOL     OW52218   5.574   9.364   9.685 -0.5649  0.1981 -0.2621
15461SOL    HW152219   5.627   9.412   9.749 -1.3234 -1.6399  1.8758
15461SOL    HW252220   5.504   9.425   9.662 -0.2993  0.8876  0.6813
15462SOL     OW52221   7.311   7.177   6.621  0.2325 -0.1570  0.1676
15462SOL    HW152222   7.355   7.092   6.616  1.4938  0.4257  1.0803
15462SOL    HW252223   7.250   7.168   6.694  0.1635 -0.3601  0.0872
15463SOL     OW52224   5.729   8.029   9.952 -0.0251  0.2807  0.3450
15463SOL    HW152225   5.655   8.035  10.012 -0.8334 -0.9524 -0.4955
15463SOL    HW252226   5.773   7.948   9.976  0.9992  0.9329  0.7468
15464SOL     OW52227   7.783   7.370   1.541  0.1943 -0.3652 -0.1107
15464SOL    HW152228   7.800   7.451   1.589  0.8021  0.0404 -0.9779
15464SOL    HW252229   7.832   7.380   1.459 -0.0290 -1.4517 -0.3939
15465SOL     OW52230   3.282   9.374   4.011  0.1052  0.3190  0.2689
15465SOL    HW152231   3.192   9.406   4.006  0.3789  0.9348 -1.1229
15465SOL    HW252232   3.273   9.279   4.021 -0.6944  0.4963  1.4604
15466SOL     OW52233   0.065   3.532   0.457  0.4725  0.6514  0.1923
15466SOL    HW152234   0.136   3.467   0.461  0.7967  1.0588  1.3704
15466SOL    HW252235   0.088   3.596   0.524 -1.7736  0.0168  1.6858
15467SOL     OW52236   1.289   1.713   5.317  0.3510 -0.4279  0.6937
15467SOL    HW152237   1.223   1.748   5.257  0.3622 -0.8619  0.4181
15467SOL    HW252238   1.300   1.780   5.383  0.0786 -0.0897  0.3991
15468SOL     OW52239   0.101   4.495  10.713 -0.2672 -0.5992  0.6368
15468SOL    HW152240   0.127   4.550  10.787 -1.6462  0.6200  0.2636
15468SOL    HW252241   0.126   4.546  10.636 -1.1610 -0.6705  0.2862
15469SOL     OW52242   7.826   0.230  10.413 -0.5207 -0.5856  0.5250
15469SOL    HW152243   7.859   0.282  10.340 -0.3848 -0.6588  0.5350
15469SOL    HW252244   7.809   0.294  10.482  1.1251 -0.7194  1.0900
15470SOL     OW52245   2.311   1.379   4.585 -0.6218  0.1410 -0.0110
15470SOL    HW152246   2.386   1.369   4.644 -2.4983 -0.4969  2.4197
15470SOL    HW252247   2.291   1.290   4.556  0.2049  0.4314 -1.6433
15471SOL     OW52248   4.898   8.896   6.624 -0.4951 -0.0306 -0.8549
15471SOL    HW152249   4.815   8.857   6.653  0.2218 -1.4593 -0.6437
15471SOL    HW252250   4.926   8.840   6.551  0.7563 -0.1496 -0.2955
15472SOL     OW52251   1.294   7.968   2.615  0.6622 -0.4685 -0.1875
15472SOL    HW152252   1.384   7.939   2.606  0.7426 -0.4292  0.4422
15472SOL    HW252253   1.300   8.052   2.661  0.3723  0.0734 -1.1149
15473SOL     OW52254   9.876   7.921   1.907 -0.6905 -0.3927  0.3083
15473SOL    HW152255   9.844   7.843   1.861 -0.5143  0.6143 -1.6744
15473SOL    HW252256   9.969   7.905   1.920 -0.1133  0.3268 -2.2127
15474SOL     OW52257   8.657   7.903  10.137 -0.6939 -0.8727  0.3380
15474SOL    HW152258   8.693   7.958  10.206  0.0396 -0.2944 -0.4859
15474SOL    HW252259   8.669   7.813  10.169  1.0151 -0.6812  0.3252
15475SOL     OW52260   8.998   2.253   0.791 -0.3502 -0.6169 -0.4881
15475SOL    HW152261   9.028   2.174   0.836 -0.0945  1.7376  4.0231
15475SOL    HW252262   9.077   2.289   0.750  0.4015 -0.7602  0.7868
15476SOL     OW52263   7.141   1.152   7.314  0.1294  0.2429  0.4534
15476SOL    HW152264   7.153   1.057   7.306  1.7962  0.4267  0.4073
15476SOL    HW252265   7.208   1.189   7.257  1.1041  1.4426  2.2815
15477SOL     OW52266   4.385   2.774   9.840 -0.8545 -0.0153 -0.3776
15477SOL    HW152267   4.468   2.818   9.855 -1.0606  1.0147 -2.0181
15477SOL    HW252268   4.397   2.687   9.878  0.9031  0.1738 -0.4119
15478SOL     OW52269   3.693   6.834   6.682  0.6191 -0.4691  0.1856
15478SOL    HW152270   3.738   6.898   6.627  0.2854 -0.6357 -0.2880
15478SOL    HW252271   3.755   6.762   6.692  0.1453 -1.1079 -1.2198
15479SOL     OW52272   5.926   9.217   8.993 -0.1833  0.1581 -0.3118
15479SOL    HW152273   5.941   9.288   8.930 -0.4415  0.1808 -0.3470
15479SOL    HW252274   5.839   9.183   8.971  0.4473 -0.9929 -1.0927
15480SOL     OW52275   7.269   0.703   5.913  0.3446 -0.8492  0.3684
15480SOL    HW152276   7.313   0.742   5.989 -3.1336  0.1422  2.0780
15480SOL    HW252277   7.209   0.771   5.883 -0.9998 -2.5350 -0.9355
15481SOL     OW52278   7.721   1.066   1.501  0.2442 -0.3477 -0.1025
15481SOL    HW152279   7.686   0.977   1.499  0.9383 -0.6380  0.1304
15481SOL    HW252280   7.651   1.118   1.541  0.6808 -1.2218  1.9806
15482SOL     OW52281   3.447   1.470  10.273 -0.1260  0.0999  0.2481
15482SOL    HW152282   3.478   1.407  10.208 -0.8616 -0.7612  0.7019
15482SOL    HW252283   3.515   1.537  10.277  0.6317 -0.6224 -0.3155
15483SOL     OW52284   6.402   6.012   9.018 -0.3007 -0.0089 -0.4233
15483SOL    HW152285   6.458   6.085   9.045 -0.6769 -0.6186  2.2834
15483SOL    HW252286   6.422   5.942   9.081 -3.8984 -0.3241  0.5614
15484SOL     OW52287   0.488   9.695   8.542  0.2479  0.2420 -0.5221
15484SOL    HW152288   0.581   9.672   8.547  0.5464  1.2670 -1.1241
15484SOL    HW252289   0.480   9.772   8.598 -0.6396 -0.9312  1.0534
15485SOL     OW52290  10.604   0.902  10.447 -0.5419 -0.2808 -0.4580
15485SOL    HW152291  10.535   0.952  10.490 -1.6181 -0.2307 -2.1691
15485SOL    HW252292  10.566   0.874  10.364  2.1645  1.5987 -2.5181
15486SOL     OW52293   4.830   3.362   8.697  0.4806  0.1582  0.0404
15486SOL    HW152294   4.889   3.387   8.768 -0.8932 -2.5957  2.3258
15486SOL    HW252295   4.871   3.286   8.656 -0.7102 -0.8912  0.7202
15487SOL     OW52296   7.221   6.953   7.750 -0.5312  0.1239 -0.5374
15487SOL    HW152297   7.235   6.885   7.816 -3.0889  0.0026  0.0028
15487SOL    HW252298   7.285   7.020   7.770 -0.0100 -0.7613  0.8860
15488SOL     OW52299   9.136   8.911   0.500  0.0708 -0.2610 -0.0055
15488SOL    HW152300   9.126   8.972   0.427 -1.0126  0.9433  1.0996
15488SOL    HW252301   9.230   8.914   0.521 -0.0263  1.4255  0.3331
15489SOL     OW52302   6.827   7.345   6.537 -0.5176  0.1419  0.0620
15489SOL    HW152303   6.829   7.303   6.451 -0.1541 -0.7098  0.4714
15489SOL    HW252304   6.779   7.427   6.523 -1.2752 -0.4224 -0.7569
15490SOL     OW52305   5.967   7.357   5.057 -0.6917  0.3683  0.1030
15490SOL    HW152306   5.913   7.429   5.092  0.1985  0.8641  0.5048
15490SOL    HW252307   5.915   7.320   4.986 -0.4242  2.6248 -1.3712
15491SOL     OW52308   0.424   0.130   8.089  0.0080 -0.1370 -0.3036
15491SOL    HW152309   0.511   0.124   8.128  0.2013 -0.4363 -0.7666
15491SOL    HW252310   0.364   0.097   8.156  0.0916  1.3235  0.5258
15492SOL     OW52311   4.115   1.772   6.136 -0.3661 -0.2397  0.1041
15492SOL    HW152312   4.136   1.698   6.193 -2.2112  0.5585  1.9929
15492SOL    HW252313   4.188   1.832   6.146  0.1798 -0.9101  0.1857
15493SOL     OW52314   4.520   6.710   4.008 -0.1241 -0.4501 -0.4489
15493SOL    HW152315   4.468   6.791   4.002 -0.7672 -0.6416  1.5616
15493SOL    HW252316   4.610   6.739   3.999 -0.4499  0.1466 -2.1595
15494SOL     OW52317   5.173   2.599   4.219 -0.2662 -0.7059 -0.4949
15494SOL    HW152318   5.258   2.567   4.188  0.8353  1.4072  0.1445
15494SOL    HW252319   5.190   2.689   4.246 -2.1980 -0.9632  1.8844
15495SOL     OW52320  10.644   2.083   5.949 -0.2224 -0.7148 -0.1420
15495SOL    HW152321  10.682   2.007   5.993  0.4183 -0.8421 -0.8892
15495SOL    HW252322  10.603   2.046   5.870 -1.1348 -0.4620  0.2059
15496SOL     OW52323   0.612   2.555   2.295  0.1055  0.3003  0.3065
15496SOL    HW152324   0.701   2.529   2.319  0.3077  0.0095 -0.7128
15496SOL    HW252325   0.608   2.542   2.200 -0.8599  0.8118  0.2670
15497SOL     OW52326   3.536   6.582  10.659 -0.7086  0.2710  0.0273
15497SOL    HW152327   3.570   6.642  10.726 -0.1736  0.4462 -0.3980
15497SOL    HW252328   3.467   6.533  10.704 -0.4098  0.4436  0.6842
15498SOL     OW52329   3.153   5.329   5.232 -0.0902  0.4062  1.1668
15498SOL    HW152330   3.199   5.405   5.198 -1.5273  2.0417  2.6898
15498SOL    HW252331   3.175   5.326   5.325  0.1440 -1.2238  1.0966
15499SOL     OW52332   5.742   6.555   7.841 -0.1001 -0.3360  0.6174
15499SOL    HW152333   5.735   6.580   7.748  0.6277  1.8163  1.0767
15499SOL    HW252334   5.828   6.514   7.848  0.2148  0.2790  0.4716
15500SOL     OW52335  10.362   1.684   7.751 -0.5365 -0.2617 -0.2169
15500SOL    HW152336  10.387   1.776   7.761 -0.3109 -0.6162  4.1269
15500SOL    HW252337  10.434   1.645   7.702  0.4955  1.3936 -0.0866
15501SOL     OW52338   5.912  10.055   9.930  0.4484  0.3913  0.1450
15501SOL    HW152339   5.871  10.109   9.861  0.9548  0.1475 -0.3525
15501SOL    HW252340   5.878   9.967   9.914 -2.0732  0.8414  2.2388
15502SOL     OW52341   9.219   9.822   7.504  0.0921  0.1564  0.7037
15502SOL    HW152342   9.186   9.802   7.416 -1.5553  1.5239  0.9650
15502SOL    HW252343   9.220   9.918   7.507  0.2427  0.1254  2.1441
15503SOL     OW52344   2.193   1.615   0.670  0.5287  0.3053  0.7437
15503SOL    HW152345   2.161   1.693   0.625 -2.1233 -0.6477  0.8007
15503SOL    HW252346   2.281   1.602   0.635  1.4228  3.7416  1.3751
15504SOL     OW52347   0.695  10.094   6.259  0.8136  0.4733  0.2917
15504SOL    HW152348   0.764  10.105   6.193 -0.8858 -0.6023 -1.8042
15504SOL    HW252349   0.734  10.037   6.325  2.2759  0.7677 -0.2742
15505SOL     OW52350   3.123   6.760   5.401  0.1882 -0.2528 -0.1573
15505SOL    HW152351   3.202   6.709   5.385  0.8499  0.9714 -0.9585
15505SOL    HW252352   3.128   6.832   5.339 -3.0557 -1.7193 -2.3755
15506SOL     OW52353   2.513   3.692   8.953  0.6520  0.2500 -0.0572
15506SOL    HW152354   2.531   3.645   9.034  1.5708 -1.3443 -1.1503
15506SOL    HW252355   2.437   3.746   8.974 -0.7980 -2.0801  1.1376
15507SOL     OW52356   8.305   2.196   3.913  0.6972 -0.3368 -0.4435
15507SOL    HW152357   8.265   2.149   3.839  0.8172 -1.5739  0.2514
15507SOL    HW252358   8.262   2.159   3.990  0.9045  0.6152  0.1409
15508SOL     OW52359   3.237   2.857   4.996 -0.2043 -0.4195  0.6510
15508SOL    HW152360   3.192   2.937   5.025 -0.6821  0.3181 -1.8658
15508SOL    HW252361   3.330   2.876   5.007 -0.3609 -0.4552  2.2563
15509SOL     OW52362   8.132   8.888   9.742 -0.3727 -0.1716  0.7077
15509SOL    HW152363   8.037   8.877   9.729 -0.0558 -1.9176 -0.5710
15509SOL    HW252364   8.156   8.819   9.803  0.6057 -2.4616 -2.0165
15510SOL     OW52365   6.172   0.782   1.069  0.3512  0.1323  0.1007
15510SOL    HW152366   6.118   0.852   1.106  1.2019 -0.0945  1.8865
15510SOL    HW252367   6.119   0.745   0.998 -2.0823 -0.3947  2.0508
15511SOL     OW52368   3.577   9.462   7.317 -0.0907  0.2499  0.4275
15511SOL    HW152369   3.531   9.537   7.278  0.1528  0.9888  1.5383
15511SOL    HW252370   3.597   9.489   7.406  1.7290 -0.4058  0.2631
15512SOL     OW52371   6.986   2.538   4.286  0.7030  0.1094  0.4004
15512SOL    HW152372   6.982   2.455   4.334 -0.3991  0.5731  1.1515
15512SOL    HW252373   7.027   2.515   4.202 -2.4725 -1.9297 -0.8068
15513SOL     OW52374   2.873   4.918   8.219  0.2522 -0.9166 -0.6007
15513SOL    HW152375   2.836   4.986   8.163 -0.4413 -1.5182 -0.8906
15513SOL    HW252376   2.956   4.895   8.177  0.9855  0.4392  0.0506
15514SOL     OW52377   3.623   8.844   7.521  0.0592  0.1468 -0.0387
15514SOL    HW152378   3.538   8.799   7.518 -0.7275  1.3965  1.7552
15514SOL    HW252379   3.613   8.918   7.461 -0.1226  0.2668  0.1355
15515SOL     OW52380   8.712   5.374   3.055  0.2198 -0.3871 -0.6247
15515SOL    HW152381   8.661   5.301   3.021 -0.4373 -0.4062  0.3611
15515SOL    HW252382   8.802   5.340   3.060 -0.0269 -1.0352 -0.4534
15516SOL     OW52383   0.311   6.826   4.301  0.0576 -0.4345 -0.2102
15516SOL    HW152384   0.219   6.802   4.315  0.1612 -0.1893  0.9645
15516SOL    HW252385   0.323   6.907   4.349  0.3172  0.8273 -2.2592
15517SOL     OW52386   9.820   4.974   8.476  0.2668  0.5499  0.4440
15517SOL    HW152387   9.829   4.925   8.394 -1.5369  1.6553 -0.4812
15517SOL    HW252388   9.874   5.051   8.464 -1.3709  1.6242 -0.5326
15518SOL     OW52389   3.330   1.849   7.441 -0.7116  0.1037  0.1778
15518SOL    HW152390   3.236   1.836   7.450 -0.6739  0.8660  2.1950
15518SOL    HW252391   3.369   1.791   7.506  0.0993  1.2244  0.7232
15519SOL     OW52392   0.809   8.065   6.133  0.7066 -0.1537 -0.4204
15519SOL    HW152393   0.884   8.086   6.188 -0.5959  0.8206  1.0515
15519SOL    HW252394   0.846   8.053   6.045  2.5431  0.4767  0.2336
15520SOL     OW52395   5.229   8.588   4.811  0.6510  0.3107  0.1778
15520SOL    HW152396   5.141   8.619   4.835  0.6927 -0.7093  1.7847
15520SOL    HW252397   5.217   8.495   4.793  1.4756  0.0509  0.9053
15521SOL     OW52398   8.103   5.072   4.978 -0.0819  0.6693  0.5258
15521SOL    HW152399   8.169   5.077   4.908  0.7288 -2.4568  0.9194
15521SOL    HW252400   8.148   5.106   5.056  0.9781 -0.9035  0.6588
15522SOL     OW52401   7.955   9.047   2.482 -0.4032 -0.3126 -0.1908
15522SOL    HW152402   7.931   9.136   2.509 -0.9355 -0.4019 -0.3558
15522SOL    HW252403   8.042   9.056   2.444  0.8084 -0.3108  2.3558
15523SOL     OW52404   7.261   1.555   2.237 -0.5869  0.9754 -0.4018
15523SOL    HW152405   7.199   1.627   2.246 -1.7843 -0.2552  2.7283
15523SOL    HW252406   7.213   1.478   2.267  1.8285 -0.3904  0.2585
15524SOL     OW52407   7.174   9.370   5.106 -0.1465  0.2128  0.2363
15524SOL    HW152408   7.115   9.375   5.181  0.8032 -0.3276  1.0527
15524SOL    HW252409   7.119   9.343   5.033 -1.5444  2.8017  0.2013
15525SOL     OW52410   2.368   0.641   8.405  0.2394  0.5438 -0.2583
15525SOL    HW152411   2.333   0.728   8.386 -0.7379  0.4226  0.8525
15525SOL    HW252412   2.380   0.640   8.500 -1.0608 -0.9671 -0.0543
15526SOL     OW52413   1.746   2.137   7.155 -0.1273 -0.1539 -0.1076
15526SOL    HW152414   1.671   2.182   7.117  0.0966  0.1046 -0.2403
15526SOL    HW252415   1.745   2.050   7.115 -2.2216 -1.3207  2.1698
15527SOL     OW52416   7.396   4.449   8.450  0.4068 -0.1994  0.0594
15527SOL    HW152417   7.362   4.444   8.361 -1.2912  1.8258  0.5130
15527SOL    HW252418   7.372   4.365   8.490 -2.5318  0.3929 -0.2281
15528SOL     OW52419   5.342   2.342   1.046 -0.1953 -0.3525  0.6694
15528SOL    HW152420   5.304   2.409   1.104  0.5446 -0.3850  1.2178
15528SOL    HW252421   5.269   2.309   0.996 -1.0031 -0.8320  2.1045
15529SOL     OW52422   2.848  10.049   9.764  0.4740  0.1607 -0.1770
15529SOL    HW152423   2.865   9.998   9.843 -0.0877 -0.7912 -0.6490
15529SOL    HW252424   2.888   9.999   9.693 -0.6466  0.0195 -0.7412
15530SOL     OW52425   3.892   2.703   1.344 -0.0318 -1.1047 -0.7573
15530SOL    HW152426   3.971   2.662   1.309 -0.0180 -1.0285 -0.8165
15530SOL    HW252427   3.821   2.646   1.315  0.1780 -2.4180  1.1768
15531SOL     OW52428   5.410   0.220   8.416 -0.2156  0.0393 -0.3522
15531SOL    HW152429   5.381   0.241   8.327 -3.2309 -0.9266  0.2725
15531SOL    HW252430   5.336   0.244   8.472  0.3740 -2.1414  1.5367
15532SOL     OW52431   8.222   8.570   0.492  0.0009 -0.3013 -0.0749
15532SOL    HW152432   8.142   8.564   0.439 -0.3596  0.0557  0.4286
15532SOL    HW252433   8.290   8.595   0.429 -0.2581 -0.7065 -0.5264
15533SOL     OW52434   9.303  10.437   1.397 -0.0623  0.4552  0.0248
15533SOL    HW152435   9.369  10.484   1.346 -2.1263  1.4984 -1.8684
15533SOL    HW252436   9.327  10.454   1.488  2.0148  1.1219 -0.5831
15534SOL     OW52437   5.535   8.197   7.007 -0.2585 -0.0462 -0.0955
15534SOL    HW152438   5.591   8.184   7.084 -0.3471  2.8639  0.5906
15534SOL    HW252439   5.489   8.280   7.025 -1.5147 -0.1142 -2.5809
15535SOL     OW52440   7.835   3.204   2.549  0.5466  0.0047 -0.1558
15535SOL    HW152441   7.757   3.254   2.526  0.7376  0.1712 -0.4411
15535SOL    HW252442   7.801   3.121   2.581  0.1799  0.6139  1.1194
15536SOL     OW52443   1.728   1.898  10.311 -0.2556 -0.6444 -0.5457
15536SOL    HW152444   1.752   1.964  10.376 -0.8351 -1.3908  0.4421
15536SOL    HW252445   1.713   1.949  10.230  0.6978  0.2626 -0.1772
15537SOL     OW52446   1.913   4.393   0.422 -0.1404  0.1011 -0.9313
15537SOL    HW152447   1.909   4.299   0.440 -1.4660 -0.1572 -2.4104
15537SOL    HW252448   2.001   4.419   0.451 -0.5587 -1.0847  1.6825
15538SOL     OW52449   2.409   6.450  10.468 -0.4410 -0.4748  0.4727
15538SOL    HW152450   2.348   6.437  10.541 -0.3832 -1.3012  0.3831
15538SOL    HW252451   2.491   6.476  10.509 -0.7881  0.4408  0.6073
15539SOL     OW52452   0.445   0.530   3.826 -0.4387 -0.1599 -0.1316
15539SOL    HW152453   0.473   0.438   3.824  0.2180 -0.0998  2.4570
15539SOL    HW252454   0.351   0.525   3.845 -0.1921 -0.3496  1.1771
15540SOL     OW52455   1.973   5.657   8.454  0.0073  0.3238  0.6921
15540SOL    HW152456   1.976   5.564   8.475  0.5569  0.4535  1.1856
15540SOL    HW252457   1.954   5.659   8.360  0.6297 -0.3002  0.5440
15541SOL     OW52458   3.820  10.192   9.266 -0.0712  0.5381 -0.4091
15541SOL    HW152459   3.742  10.246   9.277  0.0239  0.8007 -0.9933
15541SOL    HW252460   3.890  10.242   9.309 -0.4188 -0.2309  1.1541
15542SOL     OW52461   6.947   3.776   1.115  0.2166  0.0985 -0.7322
15542SOL    HW152462   6.979   3.841   1.053  0.0625  0.3565 -0.5451
15542SOL    HW252463   6.882   3.823   1.168  1.2722  0.2435  0.4652
15543SOL     OW52464   4.709   5.363   4.174 -0.4781 -0.6490 -0.0587
15543SOL    HW152465   4.791   5.412   4.179  0.1776 -1.5730 -1.3638
15543SOL    HW252466   4.650   5.419   4.123 -0.4142 -0.3241  0.2211
15544SOL     OW52467   8.511   7.434   7.971  0.0488  0.2262 -0.5196
15544SOL    HW152468   8.528   7.495   8.042 -0.1753  0.4751 -0.6767
15544SOL    HW252469   8.598   7.411   7.937  0.1112  1.0986 -0.9922
15545SOL     OW52470   6.153   6.684   7.699  0.4488  0.5030 -0.5128
15545SOL    HW152471   6.108   6.737   7.633 -0.0125  1.9609  0.9063
15545SOL    HW252472   6.101   6.604   7.705 -0.8291  1.3120 -0.3356
15546SOL     OW52473   5.504   6.518   3.921 -0.0661 -0.4445  0.1415
15546SOL    HW152474   5.534   6.597   3.967 -1.4358 -0.3034  0.8421
15546SOL    HW252475   5.492   6.454   3.991 -0.8491 -0.6625 -0.1916
15547SOL     OW52476   9.286   3.267  10.013  0.6462 -0.1170  0.5352
15547SOL    HW152477   9.327   3.232  10.093  0.8924  1.0046  0.9203
15547SOL    HW252478   9.229   3.338  10.045  0.3178 -0.0294 -0.2365
15548SOL     OW52479   6.116   6.977   1.347  0.1116 -0.0247 -0.2626
15548SOL    HW152480   6.078   6.983   1.435  0.0481  0.1647 -0.3009
15548SOL    HW252481   6.062   6.911   1.303  1.2290 -1.4090  0.3739
15549SOL     OW52482   5.278   1.628   8.639  0.4405 -0.7283 -0.6407
15549SOL    HW152483   5.193   1.600   8.607  0.0409 -2.5235  1.7284
15549SOL    HW252484   5.316   1.550   8.679  2.4610  0.4475 -0.1021
15550SOL     OW52485   0.581   4.291   8.167  0.4273  0.3530 -0.3994
15550SOL    HW152486   0.667   4.315   8.202 -0.0385  1.0320  0.3121
15550SOL    HW252487   0.522   4.359   8.198 -0.3203  0.0722 -1.1488
15551SOL     OW52488  10.167   2.754   7.655 -0.0836 -0.2645  0.1310
15551SOL    HW152489  10.079   2.791   7.657 -0.8629 -1.9939 -0.0492
15551SOL    HW252490  10.153   2.660   7.641  1.8403 -0.3824 -1.4685
15552SOL     OW52491   9.669   5.129  10.636  0.0638 -0.2799 -0.2084
15552SOL    HW152492   9.743   5.077  10.667 -1.9823 -2.7601  0.9127
15552SOL    HW252493   9.622   5.153  10.716  0.3404  2.5274 -0.7779
15553SOL     OW52494   5.356   2.190   4.163 -0.2874 -0.3325  0.4806
15553SOL    HW152495   5.445   2.163   4.141 -1.3785 -2.6172 -1.5987
15553SOL    HW252496   5.321   2.224   4.081 -1.6623 -0.4223  1.0123
15554SOL     OW52497   0.117   1.070  10.381 -0.5728 -0.8690 -0.6332
15554SOL    HW152498   0.155   1.071  10.468  0.6864  0.8383 -1.1510
15554SOL    HW252499   0.053   0.999  10.383 -0.0972 -1.2845  1.4569
15555SOL     OW52500   3.340   3.877   5.003  0.1640 -0.5501  0.4539
15555SOL    HW152501   3.335   3.871   4.908  0.8272 -3.0437  0.5109
15555SOL    HW252502   3.401   3.949   5.019 -0.5678  0.4359 -0.9487
15556SOL     OW52503   7.776   6.616   3.579  0.2373  0.5873 -1.0261
15556SOL    HW152504   7.705   6.552   3.588 -1.4664  2.0608 -2.9466
15556SOL    HW252505   7.815   6.596   3.494 -1.0634  2.6795 -2.2000
15557SOL     OW52506   7.767   3.848   1.797  0.2240 -0.2132 -0.0557
15557SOL    HW152507   7.772   3.944   1.791 -1.2970  0.1878  2.9880
15557SOL    HW252508   7.850   3.823   1.837  0.1255 -0.0094  0.2811
15558SOL     OW52509   8.769   0.159   8.041 -0.3303  0.5344 -0.4275
15558SOL    HW152510   8.837   0.143   8.105 -1.3196  0.0242  0.5208
15558SOL    HW252511   8.763   0.255   8.035 -0.0775  0.5806  0.0679
15559SOL     OW52512   4.860   5.939   8.023 -0.4389  0.4136  0.0046
15559SOL    HW152513   4.791   6.002   8.047 -0.3620 -0.2813  2.2536
15559SOL    HW252514   4.900   5.977   7.944 -2.0924  1.8347 -0.2166
15560SOL     OW52515   3.956   7.216   5.991  0.4190  0.0553 -0.2974
15560SOL    HW152516   4.003   7.266   6.058  1.6862 -3.0324  1.3003
15560SOL    HW252517   3.864   7.221   6.017  0.6127  0.8807  0.2638
15561SOL     OW52518   0.187   9.218   2.866 -0.0189  0.1922  0.3045
15561SOL    HW152519   0.244   9.231   2.942 -0.5345  1.6785  0.4646
15561SOL    HW252520   0.207   9.292   2.809  1.2133 -1.4954 -1.6042
15562SOL     OW52521   2.750   6.479   1.980  0.2330 -0.0846 -0.0887
15562SOL    HW152522   2.659   6.499   2.002 -0.3593  1.0304 -3.0116
15562SOL    HW252523   2.801   6.531   2.041 -1.1687  1.0117  0.2206
15563SOL     OW52524   8.911   7.694   2.630  0.7341  0.2046 -0.4276
15563SOL    HW152525   9.001   7.677   2.656  1.0572  1.0864 -0.9246
15563SOL    HW252526   8.918   7.759   2.560 -0.2080 -0.7537 -1.4441
15564SOL     OW52527   5.600   6.629   0.372 -0.0014  0.2712 -0.2034
15564SOL    HW152528   5.660   6.635   0.446 -1.0472  1.3086  0.5860
15564SOL    HW252529   5.560   6.716   0.366 -1.1777 -0.2934 -0.9276
15565SOL     OW52530   5.336   4.528   6.881 -0.2758  0.2914  0.1434
15565SOL    HW152531   5.418   4.494   6.917  0.0263  0.0183 -0.7803
15565SOL    HW252532   5.324   4.613   6.924  0.8490  0.6403 -0.2054
15566SOL     OW52533   7.546   9.157   3.180 -0.1666 -0.1456 -0.3566
15566SOL    HW152534   7.618   9.218   3.164 -0.6140  0.8233  1.1067
15566SOL    HW252535   7.469   9.214   3.191 -0.5179 -0.9082  1.4680
15567SOL     OW52536  10.149   7.965   1.952  0.1502 -0.0870  0.1984
15567SOL    HW152537  10.232   7.954   1.905 -0.4509 -1.4638 -0.5941
15567SOL    HW252538  10.174   8.008   2.034  1.7682 -1.2854  0.3818
15568SOL     OW52539   9.836   5.887   2.676  0.6031  0.0892 -0.1395
15568SOL    HW152540   9.793   5.888   2.591  1.0491 -0.4189 -0.3746
15568SOL    HW252541   9.896   5.962   2.673  0.3074  0.3295 -0.1052
15569SOL     OW52542   8.991   6.234   0.272  0.2817  0.1671  0.1261
15569SOL    HW152543   8.951   6.156   0.234 -1.0331  0.8634  0.0010
15569SOL    HW252544   8.950   6.307   0.225 -0.4670  1.0095  1.9872
15570SOL     OW52545   9.682   9.633   0.347 -0.4630  0.4849  0.3225
15570SOL    HW152546   9.643   9.674   0.424  0.3380  1.0086  0.4581
15570SOL    HW252547   9.702   9.706   0.289 -1.0488  0.0937 -0.3837
15571SOL     OW52548  10.067   2.000   4.559 -0.1458  0.0837 -0.2330
15571SOL    HW152549  10.059   1.920   4.610 -2.3871  1.4558  1.8115
15571SOL    HW252550  10.123   2.057   4.611 -0.5760  0.7025 -0.4286
15572SOL     OW52551   6.033   3.358  10.666  0.2287 -0.9844  0.6757
15572SOL    HW152552   5.979   3.315  10.599  0.6531 -2.9513  1.5373
15572SOL    HW252553   6.035   3.296  10.739  1.1100  0.4110  1.8982
15573SOL     OW52554   2.117   5.646   0.572  0.5793 -0.0666  0.0571
15573SOL    HW152555   2.097   5.729   0.528  1.7576 -0.3398 -1.0662
15573SOL    HW252556   2.097   5.579   0.507  0.7805 -0.5922  0.5290
15574SOL     OW52557   0.625  10.686   2.841  0.1524  0.1099  0.2067
15574SOL    HW152558   0.638  10.615   2.778 -0.4977  0.3696 -0.2315
15574SOL    HW252559   0.557  10.653   2.900  1.2724 -0.4331  1.2531
15575SOL     OW52560   5.184   9.524   2.262  0.6473 -0.3385 -0.5770
15575SOL    HW152561   5.098   9.500   2.230 -0.0268 -0.7776  1.3991
15575SOL    HW252562   5.239   9.447   2.247  0.1031 -0.8748  0.1058
15576SOL     OW52563   7.619   3.380   7.283  0.0524  0.0839  0.0282
15576SOL    HW152564   7.581   3.336   7.359  0.8499 -0.6802  0.0051
15576SOL    HW252565   7.698   3.330   7.264 -2.0545 -2.2754 -3.7388
15577SOL     OW52566   2.721   3.370   9.698  0.8697 -0.0282  0.9142
15577SOL    HW152567   2.809   3.388   9.730  1.2844 -0.6603  0.1563
15577SOL    HW252568   2.710   3.432   9.625  0.4692  0.4256  1.3490
15578SOL     OW52569   0.642   0.090   8.206 -0.3727 -0.0885  0.1913
15578SOL    HW152570   0.709   0.151   8.236  0.7989 -0.1970 -2.0271
15578SOL    HW252571   0.676   0.003   8.229  0.2407 -0.1379 -0.8449
15579SOL     OW52572   4.076   1.589   1.908 -0.0994 -0.9539  0.1319
15579SOL    HW152573   4.057   1.626   1.995 -0.3047 -0.2837 -0.1877
15579SOL    HW252574   4.027   1.507   1.906 -0.8045 -0.5494  0.3283
15580SOL     OW52575   2.331   2.910   2.313  1.1143 -0.5645  0.4635
15580SOL    HW152576   2.375   2.991   2.339  1.2306 -0.1113 -1.0492
15580SOL    HW252577   2.400   2.857   2.272  0.4646 -0.1614 -1.2389
15581SOL     OW52578   4.534   3.744   6.291 -0.6246  0.0062  0.6034
15581SOL    HW152579   4.517   3.828   6.249  2.7524  1.0783  1.0448
15581SOL    HW252580   4.555   3.685   6.219 -2.3297 -0.2990  0.3361
15582SOL     OW52581   8.609   7.092   2.671  0.0284 -0.5351  0.2461
15582SOL    HW152582   8.671   7.138   2.728  0.7528 -0.2469 -0.7440
15582SOL    HW252583   8.650   7.095   2.584 -1.3642 -0.3613 -0.4312
15583SOL     OW52584   0.175   8.398   5.494 -0.2374  0.0958 -0.7614
15583SOL    HW152585   0.230   8.375   5.419  0.9211  0.3788 -0.0187
15583SOL    HW252586   0.204   8.340   5.564  1.5498  2.4728  0.6432
15584SOL     OW52587   8.790   9.008   6.006 -0.8668  0.1538  0.1186
15584SOL    HW152588   8.816   9.082   6.061  1.3489 -0.1566 -0.4055
15584SOL    HW252589   8.873   8.971   5.975 -1.9922 -1.0198 -1.6675
15585SOL     OW52590   9.329   2.076  10.278 -0.6504 -0.0821 -0.3739
15585SOL    HW152591   9.317   2.152  10.335  0.0945 -0.4780  0.3357
15585SOL    HW252592   9.423   2.056  10.284 -0.7708 -0.8384 -0.8242
15586SOL     OW52593   2.966   4.512   0.735  0.4885 -0.3895  0.5545
15586SOL    HW152594   3.038   4.506   0.672  0.6705  2.3148  0.4037
15586SOL    HW252595   2.888   4.492   0.684  0.6963  1.1973 -0.4361
15587SOL     OW52596   0.256  10.613   5.628  0.2969 -0.8255 -0.0952
15587SOL    HW152597   0.180  10.555   5.617  1.6364 -2.4300 -1.4010
15587SOL    HW252598   0.273  10.613   5.722 -1.2141 -0.5349  0.2111
15588SOL     OW52599   5.504   2.314   8.730  0.0564  0.0576  0.1518
15588SOL    HW152600   5.569   2.255   8.769  0.1180 -1.1274 -1.6238
15588SOL    HW252601   5.427   2.260   8.719  0.0593  0.3250 -1.3769
15589SOL     OW52602   5.754   4.800   0.106  0.0675 -0.2061  0.4070
15589SOL    HW152603   5.781   4.728   0.049  1.5493  0.7901 -0.2330
15589SOL    HW252604   5.679   4.839   0.061  1.4963  0.8582 -1.2319
15590SOL     OW52605   2.958   0.146   4.176  0.5352 -0.3296  0.6581
15590SOL    HW152606   3.046   0.154   4.140  0.0873 -1.2290 -0.7193
15590SOL    HW252607   2.928   0.237   4.185  1.2179 -0.0394  0.1501
15591SOL     OW52608   5.562   5.626   5.477 -0.3634  1.1110  0.3895
15591SOL    HW152609   5.598   5.701   5.431 -1.7845  1.3027 -0.4718
15591SOL    HW252610   5.490   5.596   5.422 -0.3122 -0.4202  1.0953
15592SOL     OW52611   2.525   0.328   9.539  0.3301  0.2443 -0.0866
15592SOL    HW152612   2.510   0.275   9.618  0.4815  1.1654  0.5713
15592SOL    HW252613   2.606   0.291   9.502  0.0828 -0.4085 -0.0004
15593SOL     OW52614   4.969   2.196   3.352 -0.0019 -0.5084  0.0019
15593SOL    HW152615   5.030   2.225   3.284 -1.2935  0.6252 -0.7047
15593SOL    HW252616   4.935   2.113   3.319  1.0584 -1.1197  0.3709
15594SOL     OW52617   4.675   7.844   4.737 -0.5093 -0.1605 -0.6910
15594SOL    HW152618   4.709   7.910   4.797 -0.4054 -0.8473  0.0193
15594SOL    HW252619   4.598   7.809   4.782  0.3780 -1.6756 -0.2949
15595SOL     OW52620   6.444   3.542   8.802 -0.3100  0.5267 -0.1316
15595SOL    HW152621   6.433   3.479   8.873 -1.7363 -0.0966 -0.8615
15595SOL    HW252622   6.406   3.499   8.726  0.5069  1.4868 -1.1139
15596SOL     OW52623   8.360   4.171   3.307  0.4270  0.0464 -0.6614
15596SOL    HW152624   8.447   4.158   3.344  0.6872  0.5886 -1.0579
15596SOL    HW252625   8.341   4.263   3.322 -1.5537 -0.7260  2.4792
15597SOL     OW52626   8.710  10.179   0.376  0.2405  0.3757 -0.1786
15597SOL    HW152627   8.760  10.128   0.313  0.4771  2.2693 -1.6333
15597SOL    HW252628   8.619  10.170   0.349 -0.2629 -2.4154  1.9887
15598SOL     OW52629   8.297   0.553  10.579  0.2770 -0.2421 -0.7988
15598SOL    HW152630   8.352   0.507  10.642  0.5666  1.1879  0.0227
15598SOL    HW252631   8.208   0.539  10.611  0.5149  2.1996  1.2187
15599SOL     OW52632   6.219   3.129   2.179  0.2944 -0.3740 -0.7690
15599SOL    HW152633   6.301   3.080   2.173 -0.6293 -2.1356  0.1082
15599SOL    HW252634   6.231   3.188   2.253  0.7265 -0.7448 -0.5377
15600SOL     OW52635   6.555   8.808   3.087 -0.2397 -0.8068 -0.0041
15600SOL    HW152636   6.535   8.779   3.176  0.5256  0.7335  0.7244
15600SOL    HW252637   6.609   8.738   3.050  2.0090 -0.1953  1.8721
15601SOL     OW52638   3.632   7.720  10.318  0.2130 -0.2638  0.1764
15601SOL    HW152639   3.706   7.683  10.270  0.0730 -0.3980  0.0581
15601SOL    HW252640   3.664   7.733  10.407  0.2687 -0.6676  0.2168
15602SOL     OW52641   0.015   1.972   3.846 -0.2181 -0.2522 -0.0821
15602SOL    HW152642  -0.054   2.024   3.806  0.2105  0.5018  0.1298
15602SOL    HW252643   0.037   1.906   3.781 -1.8232 -1.1524  0.2348
15603SOL     OW52644   6.536   2.311   0.802  0.3270 -0.3777 -0.3052
15603SOL    HW152645   6.441   2.305   0.809  0.0916 -0.0051 -2.4615
15603SOL    HW252646   6.568   2.230   0.841 -0.8820 -0.6985  0.0710
15604SOL     OW52647   4.242   2.721   7.901 -0.0449  0.2182 -0.0267
15604SOL    HW152648   4.320   2.758   7.942 -0.7024  1.1928  0.3729
15604SOL    HW252649   4.257   2.626   7.902  0.3616  0.2750  1.6336
15605SOL     OW52650   2.518   9.097  10.683 -0.8474  0.3868  0.6332
15605SOL    HW152651   2.569   9.017  10.696  0.0976  0.9265  0.3753
15605SOL    HW252652   2.498   9.127  10.772  1.0795  1.2619  0.8209
15606SOL     OW52653   4.588   5.199   9.421 -0.2316  0.0802 -0.4880
15606SOL    HW152654   4.508   5.203   9.369 -1.3197 -0.6160  1.0703
15606SOL    HW252655   4.594   5.108   9.450  0.9412  0.2026 -0.2962
15607SOL     OW52656   0.303   7.277   2.882 -0.8146  0.1477 -1.1379
15607SOL    HW152657   0.305   7.283   2.786  2.6017  2.4067 -1.0823
15607SOL    HW252658   0.263   7.359   2.910  0.5494  0.6838 -0.6697
15608SOL     OW52659   1.484   0.828   4.789  0.4509 -0.0361 -0.5853
15608SOL    HW152660   1.531   0.746   4.774 -1.2642 -0.9908 -0.9737
15608SOL    HW252661   1.456   0.824   4.881  2.0010  1.0376 -0.0197
15609SOL     OW52662   7.158   1.126  10.559  0.4788 -0.1624 -0.2601
15609SOL    HW152663   7.076   1.085  10.530  1.1609 -0.4349 -1.8803
15609SOL    HW252664   7.218   1.114  10.486  0.7768  3.6331 -0.8212
15610SOL     OW52665   3.717   7.050   8.243 -0.1082 -0.1634  0.3692
15610SOL    HW152666   3.702   7.129   8.191 -1.6448 -0.9573 -0.4527
15610SOL    HW252667   3.776   6.997   8.190 -0.2212 -0.1942  0.2759
15611SOL     OW52668   0.210   5.038   6.781  0.3667 -0.6231  0.6037
15611SOL    HW152669   0.305   5.051   6.777  0.2771 -0.0899  0.0252
15611SOL    HW252670   0.189   5.044   6.874  1.2021 -3.0538  1.0254
15612SOL     OW52671   4.956   7.126   2.582 -0.3360  0.1427  0.3691
15612SOL    HW152672   4.921   7.133   2.493  1.6038 -0.0980 -0.4467
15612SOL    HW252673   4.884   7.157   2.637 -1.5977  0.2909 -1.2594
15613SOL     OW52674   8.436   9.407  10.624 -0.1546 -0.2591  0.2668
15613SOL    HW152675   8.442   9.501  10.608  0.5904 -0.1865  0.9169
15613SOL    HW252676   8.442   9.398  10.719 -1.0926 -0.9111  0.2792
15614SOL     OW52677   5.834   5.149   1.280 -0.7148  0.0974  0.5165
15614SOL    HW152678   5.820   5.148   1.375  0.3302  0.5111  0.6889
15614SOL    HW252679   5.824   5.057   1.253  1.6212 -0.5235  1.4725
15615SOL     OW52680   0.115   9.547  10.331  0.0918 -0.2190 -0.2182
15615SOL    HW152681   0.179   9.604  10.372  1.7110 -1.2145 -1.2435
15615SOL    HW252682   0.049   9.532  10.399  0.6546  1.2351  0.7004
15616SOL     OW52683   9.586   4.372   4.718  0.0192  0.0480 -0.1509
15616SOL    HW152684   9.497   4.364   4.750  0.5486  0.3753  1.4699
15616SOL    HW252685   9.586   4.453   4.666 -0.8245 -0.4388 -0.9418
15617SOL     OW52686   6.604   6.084   4.537 -0.3265 -0.2372 -0.2815
15617SOL    HW152687   6.649   6.027   4.475  0.8610  0.7423 -0.3695
15617SOL    HW252688   6.636   6.172   4.516 -0.1915  0.1696  1.4524
15618SOL     OW52689   4.993   8.170   4.554 -0.1240 -0.1124 -0.0615
15618SOL    HW152690   5.022   8.209   4.471 -1.0885  0.5796 -0.0986
15618SOL    HW252691   4.899   8.155   4.541 -0.8231  2.1983  1.7076
15619SOL     OW52692   5.209   3.801   7.836 -0.1740 -0.5334 -0.0524
15619SOL    HW152693   5.216   3.782   7.743  0.2438  0.7237 -0.2842
15619SOL    HW252694   5.201   3.896   7.842  1.3915 -0.4390  1.2818
15620SOL     OW52695   0.851   4.088   0.078 -0.1771  0.0593  0.4127
15620SOL    HW152696   0.811   4.153   0.019  0.0149 -1.5064 -1.5317
15620SOL    HW252697   0.777   4.048   0.123 -0.2879  1.7393  1.8774
15621SOL     OW52698   3.123   1.512   3.241 -0.1888 -0.5669  0.1321
15621SOL    HW152699   3.038   1.474   3.218  0.4523 -1.4836 -0.8352
15621SOL    HW252700   3.179   1.492   3.166 -0.0397  3.2278 -1.0087
15622SOL     OW52701   2.615   0.990   4.795 -0.0260 -0.6605  0.5427
15622SOL    HW152702   2.679   0.946   4.738  1.2694  0.3861  1.1409
15622SOL    HW252703   2.610   0.934   4.873  1.3352  0.0133  1.1424
15623SOL     OW52704   3.687   5.001   5.101  0.0595  0.1740 -0.1031
15623SOL    HW152705   3.627   5.048   5.159 -1.4751 -2.9303  1.0523
15623SOL    HW252706   3.632   4.971   5.028  0.6261 -0.9911 -0.0777
15624SOL     OW52707  10.138  10.525   6.099  0.2132  0.3213 -0.0313
15624SOL    HW152708  10.164  10.570   6.179  1.9565 -0.8971  0.1271
15624SOL    HW252709  10.099  10.594   6.045 -1.3299  1.1222  1.9396
15625SOL     OW52710  10.178   2.667   3.646  0.4904 -0.1242  0.3389
15625SOL    HW152711  10.145   2.618   3.722  0.4326  2.6882  2.2963
15625SOL    HW252712  10.100   2.699   3.602  0.5163  0.6477  0.8317
15626SOL     OW52713   4.205   8.976   1.592  0.1693 -0.0514  0.0109
15626SOL    HW152714   4.115   9.011   1.594 -0.2351 -0.7723 -2.5631
15626SOL    HW252715   4.202   8.904   1.529  2.6352  0.0999 -0.3811
15627SOL     OW52716   2.013   8.306  10.282  0.2919  0.0205  0.0965
15627SOL    HW152717   1.938   8.294  10.224  0.3303 -2.4300  0.4294
15627SOL    HW252718   1.974   8.320  10.368  0.2368  1.1003 -0.0955
15628SOL     OW52719   4.483   5.052   2.690 -0.9630  0.4549 -0.5412
15628SOL    HW152720   4.402   5.031   2.737 -0.3232 -0.8915  0.0002
15628SOL    HW252721   4.481   4.996   2.612 -0.1507 -0.2199 -0.0854
15629SOL     OW52722   7.480   7.784   7.285 -0.1652  0.6237  0.1332
15629SOL    HW152723   7.419   7.805   7.356 -0.2898  0.0991  0.1903
15629SOL    HW252724   7.566   7.808   7.319 -0.3602  1.6687 -0.0648
15630SOL     OW52725   7.043  10.316   8.301  0.4629  0.4102 -0.3037
15630SOL    HW152726   7.083  10.397   8.331  2.1435 -0.5264  0.0692
15630SOL    HW252727   7.039  10.260   8.379 -0.5029  0.0385 -0.5980
15631SOL     OW52728   1.392   8.173   0.239 -1.2696  0.6671 -0.4603
15631SOL    HW152729   1.415   8.215   0.321  2.5609 -1.8864  0.0035
15631SOL    HW252730   1.422   8.234   0.171 -1.0643  1.1651  0.0785
15632SOL     OW52731   4.369   3.463   5.502  0.3050  0.0640  0.2091
15632SOL    HW152732   4.343   3.386   5.553 -1.2682 -0.7762 -1.7424
15632SOL    HW252733   4.325   3.453   5.418  1.2158  2.3927 -0.6440
15633SOL     OW52734   2.174   0.668   2.584 -0.1900  0.1747 -0.4897
15633SOL    HW152735   2.085   0.678   2.618 -0.5487  1.7057 -1.7744
15633SOL    HW252736   2.216   0.752   2.600  0.1096  0.4279 -2.3720
15634SOL     OW52737  10.655   4.788   7.780 -0.2171 -0.1825  0.5379
15634SOL    HW152738  10.733   4.840   7.758  0.0494  0.1452  2.1261
15634SOL    HW252739  10.674   4.701   7.746  0.8586 -0.1107  0.9272
15635SOL     OW52740   0.393  10.497   8.123 -0.2346 -0.8431  0.3908
15635SOL    HW152741   0.337  10.531   8.054  0.3368  1.5701  1.0246
15635SOL    HW252742   0.479  10.491   8.082  0.0803  0.4812  0.8059
15636SOL     OW52743   2.852   9.123   8.977  0.1573 -0.2377 -0.5726
15636SOL    HW152744   2.947   9.124   8.973  0.2006 -0.7325  0.2458
15636SOL    HW252745   2.831   9.114   9.070 -0.6868 -0.7748 -0.8035
15637SOL     OW52746   9.204   3.878   9.734  0.1078  0.4668  0.1687
15637SOL    HW152747   9.298   3.861   9.724 -0.0285  0.2769 -0.9963
15637SOL    HW252748   9.182   3.937   9.662 -0.6057  0.8029  0.6439
15638SOL     OW52749   8.147   8.845   2.281 -0.7671  0.3995 -0.7677
15638SOL    HW152750   8.173   8.868   2.192  2.5738 -2.4813 -0.7456
15638SOL    HW252751   8.192   8.911   2.335 -0.0438  0.2011 -1.1069
15639SOL     OW52752   3.754   5.338   1.890  0.2881  0.1270  0.3441
15639SOL    HW152753   3.815   5.307   1.823 -0.0265  0.8579 -0.2987
15639SOL    HW252754   3.771   5.432   1.896 -1.8956  0.6825 -1.0660
15640SOL     OW52755   9.024   1.208   5.959 -0.5263 -0.0717  0.3483
15640SOL    HW152756   9.114   1.237   5.945 -1.0323  1.4812  0.0922
15640SOL    HW252757   9.003   1.157   5.882 -0.3004  0.7257 -0.2562
15641SOL     OW52758   4.844   6.980   4.691 -0.5864  0.1161  0.0710
15641SOL    HW152759   4.777   7.048   4.678 -1.6022 -1.0300 -1.0702
15641SOL    HW252760   4.821   6.912   4.627  1.5675 -0.4192 -0.1948
15642SOL     OW52761   2.657   9.521   2.277  0.6911  0.2707  0.6305
15642SOL    HW152762   2.710   9.584   2.324  2.5481 -1.0773  0.4457
15642SOL    HW252763   2.597   9.486   2.343  1.0438  0.7524  1.2118
15643SOL     OW52764   6.797   7.844   8.741 -0.4704 -0.5377 -0.3349
15643SOL    HW152765   6.757   7.908   8.682 -0.1531  0.7556  0.8121
15643SOL    HW252766   6.755   7.859   8.826  0.2251 -1.2730  0.1560
15644SOL     OW52767   8.320   7.409   4.334 -0.0197  0.0377 -0.2608
15644SOL    HW152768   8.375   7.426   4.258 -0.1815  0.7501 -0.2254
15644SOL    HW252769   8.297   7.496   4.366 -0.7892 -0.2568 -0.0058
15645SOL     OW52770   3.915   0.252   2.732 -0.0587  0.5387 -0.8936
15645SOL    HW152771   4.006   0.225   2.746 -1.1513 -2.5948  1.2521
15645SOL    HW252772   3.913   0.343   2.764  1.9576  0.0925  0.7926
15646SOL     OW52773   6.108   4.412  10.689 -1.0291  0.0506  0.0283
15646SOL    HW152774   6.156   4.495  10.684 -1.5592  0.3542 -0.1746
15646SOL    HW252775   6.175   4.346  10.709 -0.8109  0.7437  1.7920
15647SOL     OW52776   1.881   6.667   8.192  0.0121  0.1865  0.2227
15647SOL    HW152777   1.902   6.646   8.101  0.6021  0.2868  0.3321
15647SOL    HW252778   1.945   6.619   8.243  0.7038  1.3963  0.5216
15648SOL     OW52779   3.292   9.021   6.989  0.4699  0.0862  0.4038
15648SOL    HW152780   3.365   9.043   7.047 -0.0557 -1.7854  1.8828
15648SOL    HW252781   3.253   9.105   6.966  2.2962  1.0424  0.6147
15649SOL     OW52782   0.147   0.650   1.311  0.2420 -0.0882 -0.2698
15649SOL    HW152783   0.166   0.734   1.353  0.8671 -0.5015  0.2975
15649SOL    HW252784   0.056   0.656   1.284  0.0671  0.5011  0.4297
15650SOL     OW52785   5.953   2.741   2.871  0.1536  0.5660 -0.0837
15650SOL    HW152786   6.042   2.708   2.874 -0.1691 -0.3609 -0.2763
15650SOL    HW252787   5.900   2.671   2.909 -0.8827 -0.3946 -3.0087
15651SOL     OW52788   9.776   3.889   5.404 -0.3606  0.0712 -0.4287
15651SOL    HW152789   9.684   3.907   5.384 -1.0250 -1.3204  1.1520
15651SOL    HW252790   9.787   3.796   5.386  0.4335 -0.0076  0.3895
15652SOL     OW52791  10.697   1.789   0.989 -0.3533  0.1373 -0.0404
15652SOL    HW152792  10.761   1.831   1.048 -1.4651  1.3329  0.3612
15652SOL    HW252793  10.612   1.809   1.028 -1.0100 -1.1976 -0.7145
15653SOL     OW52794   6.871   8.484   3.260 -0.1607  0.1811 -0.3750
15653SOL    HW152795   6.961   8.468   3.288 -0.6490 -1.0748  0.5651
15653SOL    HW252796   6.879   8.549   3.189  1.2297  2.3643  1.6461
15654SOL     OW52797   6.573   1.772   2.159  0.2599  0.1170  0.0523
15654SOL    HW152798   6.500   1.817   2.202 -0.2081  0.0778 -0.6807
15654SOL    HW252799   6.537   1.688   2.131  0.8484 -0.2981  0.4924
15655SOL     OW52800   9.579  10.430  10.231 -0.2515 -0.3081 -0.1782
15655SOL    HW152801   9.574  10.392  10.143  0.5721 -2.0279  0.4738
15655SOL    HW252802   9.488  10.450  10.254 -0.3951  1.0615 -1.7669
15656SOL     OW52803   2.942   0.212   4.584 -0.0839 -0.0668 -0.2711
15656SOL    HW152804   2.922   0.129   4.541  0.4999 -0.0592 -0.5737
15656SOL    HW252805   3.021   0.243   4.540  0.4252  0.0340  0.6835
15657SOL     OW52806   2.758   3.415   2.143  0.0220 -0.4701 -0.6777
15657SOL    HW152807   2.707   3.445   2.219 -0.2501 -1.2065 -0.5670
15657SOL    HW252808   2.820   3.351   2.178  2.0208  1.3962 -0.5694
15658SOL     OW52809   0.112   4.020   0.379 -0.3456  0.4197  0.2383
15658SOL    HW152810   0.068   3.950   0.332 -0.5178  0.8061 -0.1892
15658SOL    HW252811   0.125   4.089   0.313  1.4343  0.0903  0.2063
15659SOL     OW52812   3.543   6.579   0.510 -0.1436 -0.1989  0.0675
15659SOL    HW152813   3.626   6.572   0.556 -0.4540  0.6955  0.7981
15659SOL    HW252814   3.558   6.533   0.427  1.3435  0.6557 -0.1827
15660SOL     OW52815   9.807   7.822   3.172 -0.6097 -0.6716 -0.0764
15660SOL    HW152816   9.837   7.741   3.214 -1.0005 -0.5815  0.3892
15660SOL    HW252817   9.886   7.875   3.164 -0.4132 -0.9547 -0.0460
15661SOL     OW52818   3.707  10.226   7.315  0.5231  0.3964  0.8819
15661SOL    HW152819   3.744  10.187   7.237 -1.4741  0.7964 -0.3408
15661SOL    HW252820   3.771  10.292   7.342  0.7899  1.0099 -1.0796
15662SOL     OW52821   7.031   2.695   2.547 -0.3399  0.4236  0.0591
15662SOL    HW152822   6.940   2.667   2.552 -0.0692 -0.5093 -0.0292
15662SOL    HW252823   7.053   2.691   2.454  0.0494 -0.2503  0.1694
15663SOL     OW52824   2.499   2.070   7.582 -0.0050  0.1767  0.4742
15663SOL    HW152825   2.459   2.017   7.512 -0.6530  0.1323  0.8722
15663SOL    HW252826   2.552   2.008   7.632 -1.7092 -0.3916  1.6706
15664SOL     OW52827   3.275   5.267   7.544 -0.2227 -0.2612 -0.4359
15664SOL    HW152828   3.364   5.278   7.509 -0.2139  1.4686  0.0166
15664SOL    HW252829   3.218   5.280   7.469 -0.1449  1.5815 -0.2325
15665SOL     OW52830   3.807   2.437   6.705  0.1454  0.2057  0.3768
15665SOL    HW152831   3.871   2.393   6.649  1.1264 -0.8101  2.2313
15665SOL    HW252832   3.845   2.522   6.724  0.9188 -0.3446  1.3641
15666SOL     OW52833   1.531   1.096   0.833 -0.2004  0.2378  0.8972
15666SOL    HW152834   1.558   1.043   0.907  1.6678  0.2440  0.2802
15666SOL    HW252835   1.509   1.033   0.764  2.0680  0.1771  0.1470
15667SOL     OW52836   4.703   2.123   8.115 -0.4076  0.0741  0.2791
15667SOL    HW152837   4.638   2.157   8.176  0.4940  0.7690  0.8772
15667SOL    HW252838   4.785   2.166   8.140  0.1422 -0.2251 -0.9192
15668SOL     OW52839   9.382   5.346   4.671 -0.1892 -0.3231  0.3984
15668SOL    HW152840   9.363   5.425   4.621 -0.4636 -0.1883  0.7112
15668SOL    HW252841   9.363   5.370   4.762  1.5435 -0.1506  0.7454
15669SOL     OW52842   4.920  10.308   0.841  0.3275 -0.1139 -0.3506
15669SOL    HW152843   4.890  10.231   0.890  0.1247 -0.2570 -0.6995
15669SOL    HW252844   4.848  10.327   0.780  1.5890 -1.4442 -2.3518
15670SOL     OW52845   4.364   7.068   8.992 -0.6345 -0.2537  0.1722
15670SOL    HW152846   4.455   7.097   8.986 -0.3214 -1.0411  0.9112
15670SOL    HW252847   4.333   7.067   8.901 -0.1726  0.8066 -0.0158
15671SOL     OW52848   3.263   1.739  10.152  0.3442 -0.0614 -0.7690
15671SOL    HW152849   3.279   1.761  10.060  1.6241  0.4196 -0.4616
15671SOL    HW252850   3.306   1.810  10.200 -2.3172  1.0130  0.2120
15672SOL     OW52851   5.807   5.365   9.243 -0.2398  0.4166  0.1243
15672SOL    HW152852   5.741   5.345   9.177  0.4062  0.2713 -0.4999
15672SOL    HW252853   5.846   5.280   9.265  0.7711  0.6668 -0.6430
15673SOL     OW52854   7.980   9.821  10.488 -0.2928  0.0664 -0.3201
15673SOL    HW152855   7.925   9.886  10.533 -0.3251 -0.1013 -0.1191
15673SOL    HW252856   7.983   9.747  10.547  0.8317  0.3806  0.0401
15674SOL     OW52857   5.677   7.192   8.068  0.6448 -0.6990 -0.3671
15674SOL    HW152858   5.629   7.251   8.126 -0.0993 -1.3182 -0.3401
15674SOL    HW252859   5.664   7.105   8.106  1.1894 -0.9628 -0.7683
15675SOL     OW52860   2.802   3.371   1.864  0.0724  0.2747  0.2453
15675SOL    HW152861   2.794   3.376   1.959 -0.5687 -1.9832  0.3568
15675SOL    HW252862   2.716   3.344   1.833  0.8451 -1.2395 -0.7447
15676SOL     OW52863   9.671   4.142   0.290 -0.0276 -0.1264  0.0218
15676SOL    HW152864   9.735   4.070   0.290  2.4388  1.8862 -1.3211
15676SOL    HW252865   9.608   4.118   0.222  1.5111 -0.4659 -1.3547
15677SOL     OW52866   3.205   2.321   2.596  0.3743  0.0367 -0.0487
15677SOL    HW152867   3.124   2.298   2.642  0.4300 -2.5244 -1.0875
15677SOL    HW252868   3.244   2.390   2.650 -0.4555 -1.5401  2.7790
15678SOL     OW52869   7.957   7.017   7.438 -0.3262 -0.8789 -1.1268
15678SOL    HW152870   7.994   7.043   7.353  3.3119  1.4041  0.8851
15678SOL    HW252871   8.033   6.996   7.492 -2.2914 -0.2273  2.1849
15679SOL     OW52872   6.836   3.803   8.635 -0.3051  0.5855  0.3772
15679SOL    HW152873   6.798   3.880   8.593  0.1891  1.2337  1.1012
15679SOL    HW252874   6.821   3.817   8.729 -0.5642 -0.3924  0.4978
15680SOL     OW52875  10.228   1.523   0.550 -0.3025 -0.2210  0.2951
15680SOL    HW152876  10.301   1.538   0.609 -0.7959 -1.1533  1.1580
15680SOL    HW252877  10.220   1.428   0.544 -0.9536 -0.1344 -0.4136
15681SOL     OW52878  10.549   1.512   6.056  0.2210  0.0986  0.1348
15681SOL    HW152879  10.608   1.439   6.039 -0.0214 -0.0569 -0.0373
15681SOL    HW252880  10.585   1.584   6.003  2.9047  1.4076  3.3527
15682SOL     OW52881   2.380   4.899   9.491 -0.2859  0.6910 -0.0674
15682SOL    HW152882   2.441   4.949   9.545  0.3263 -0.4721  0.3603
15682SOL    HW252883   2.297   4.946   9.499 -0.1032  0.8063  1.5344
15683SOL     OW52884  10.512   0.751   3.483 -0.2569 -0.1317  0.1118
15683SOL    HW152885  10.454   0.740   3.407  1.9316 -0.2932 -1.6167
15683SOL    HW252886  10.477   0.828   3.528  0.1268  1.9266 -2.7971
15684SOL     OW52887   6.102   1.901   2.877 -0.1702 -0.7701  0.2184
15684SOL    HW152888   6.152   1.820   2.873 -1.2799 -1.4495 -0.7009
15684SOL    HW252889   6.121   1.946   2.795 -0.8073 -0.8793  0.0078
15685SOL     OW52890   4.912   6.054   5.287  0.2866 -0.2121 -0.6406
15685SOL    HW152891   4.828   6.008   5.293  0.7168 -0.8189  2.1287
15685SOL    HW252892   4.977   5.991   5.319  1.1537  1.5869  1.4726
15686SOL     OW52893   8.553   0.380   0.678 -0.4275 -0.0719  0.4844
15686SOL    HW152894   8.606   0.303   0.701 -1.7612 -1.1570  0.1130
15686SOL    HW252895   8.511   0.405   0.760 -1.3303 -0.8509  0.2843
15687SOL     OW52896   2.582   1.614   8.774 -0.6034 -0.3828  0.3509
15687SOL    HW152897   2.528   1.542   8.808 -0.3138 -0.3507  0.8929
15687SOL    HW252898   2.534   1.645   8.697 -0.0936 -1.9895 -0.6521
15688SOL     OW52899   1.903   6.333   9.718 -0.6332  0.1938  0.5867
15688SOL    HW152900   1.881   6.293   9.633  0.7525  1.1301 -0.2394
15688SOL    HW252901   1.916   6.425   9.699 -1.7437  0.7083  2.1147
15689SOL     OW52902   4.464   5.471   6.034  0.3323  0.0862  0.1394
15689SOL    HW152903   4.443   5.392   6.084  0.1097  1.2148  1.9087
15689SOL    HW252904   4.555   5.490   6.057 -0.1183  1.2424  1.0267
15690SOL     OW52905   2.361   4.923   2.460  0.6250  0.4134  0.3629
15690SOL    HW152906   2.284   4.869   2.476 -0.8582  2.6634  1.3382
15690SOL    HW252907   2.350   4.953   2.370  1.8558 -1.4018 -0.4562
15691SOL     OW52908   8.684   5.006   3.235 -0.5149  0.1237  0.0967
15691SOL    HW152909   8.746   5.028   3.167 -0.9980 -0.7683 -0.6558
15691SOL    HW252910   8.736   5.006   3.316  0.7833 -1.8368 -0.6551
15692SOL     OW52911   4.537   6.589   7.838 -0.4245 -0.3056  0.0502
15692SOL    HW152912   4.594   6.666   7.833  1.0410 -1.1668  2.0195
15692SOL    HW252913   4.588   6.520   7.796  1.3416 -1.7143  4.0074
15693SOL     OW52914   9.613   1.998  10.231 -0.0605  0.3019 -0.3453
15693SOL    HW152915   9.627   2.075  10.176 -1.5030  0.6306 -0.2685
15693SOL    HW252916   9.569   1.935  10.174 -1.4995  0.6174  0.3773
15694SOL     OW52917   9.668   4.816   2.740 -0.2277  0.4853  0.2762
15694SOL    HW152918   9.741   4.871   2.769  1.1099 -0.3741 -1.2456
15694SOL    HW252919   9.641   4.769   2.819  2.6290 -1.0848  0.4771
15695SOL     OW52920   6.009   7.729   8.031 -0.6630 -0.2711  0.2675
15695SOL    HW152921   6.092   7.699   8.069 -1.1867  0.1240  1.7842
15695SOL    HW252922   6.032   7.808   7.983 -0.0455 -0.5558  0.0827
15696SOL     OW52923   5.532   5.731   7.299 -0.0351 -0.6288 -0.1067
15696SOL    HW152924   5.583   5.658   7.265  0.4493  0.0966 -0.9757
15696SOL    HW252925   5.597   5.797   7.323 -0.4161 -0.7504  1.3840
15697SOL     OW52926  10.300   9.187   3.967 -0.2852  0.0415 -0.2623
15697SOL    HW152927  10.394   9.179   3.956  0.0025  1.0487  1.1612
15697SOL    HW252928  10.284   9.282   3.969 -1.4116 -0.1186 -1.1285
15698SOL     OW52929   7.773   3.902   8.912  0.1089  0.4931  0.0721
15698SOL    HW152930   7.821   3.937   8.987 -0.3486 -0.4386  0.8296
15698SOL    HW252931   7.785   3.807   8.918 -0.7196  0.3403 -0.4851
15699SOL     OW52932   6.133   8.967   8.431  0.2873 -0.1108  0.1571
15699SOL    HW152933   6.126   8.926   8.345  0.2869  1.5548 -0.6642
15699SOL    HW252934   6.225   8.991   8.439  0.0697  0.7567  0.1277
15700SOL     OW52935   4.469   3.023   2.325 -0.0235 -0.0328 -0.7794
15700SOL    HW152936   4.474   3.065   2.411 -1.1333 -0.9217 -0.2563
15700SOL    HW252937   4.467   3.095   2.262 -2.9610  0.8128  0.1345
15701SOL     OW52938   6.400   7.987   3.942 -0.0963 -0.2701  0.0703
15701SOL    HW152939   6.323   7.952   3.987 -0.4196  0.3541  0.0126
15701SOL    HW252940   6.376   7.985   3.849 -0.1202  0.1084  0.0668
15702SOL     OW52941   5.927   7.070   5.773 -0.2331  0.1377 -0.1542
15702SOL    HW152942   5.966   7.132   5.835  0.0202 -0.2569  0.0798
15702SOL    HW252943   5.998   7.048   5.713  0.3011 -1.5646  1.0243
15703SOL     OW52944   1.681   1.151   0.275 -0.2330 -0.7208 -0.7742
15703SOL    HW152945   1.639   1.220   0.224  1.5692  2.8605  2.0970
15703SOL    HW252946   1.769   1.142   0.237  0.4183  0.5281  0.3416
15704SOL     OW52947   0.046   0.047   5.301 -0.0851 -1.1151 -0.2335
15704SOL    HW152948   0.020   0.076   5.388 -1.6684  0.3549 -1.1236
15704SOL    HW252949   0.077  -0.042   5.313 -0.6137 -1.0637  1.7706
15705SOL     OW52950   9.412   5.151   3.469  0.4759  0.3321  0.4449
15705SOL    HW152951   9.462   5.167   3.549  2.2270  0.3960 -0.6178
15705SOL    HW252952   9.425   5.230   3.417  1.0803 -0.5451 -0.7628
15706SOL     OW52953   4.431   9.527   6.878 -1.0584 -0.1731  0.0932
15706SOL    HW152954   4.485   9.510   6.800 -1.3488 -2.3554  0.2996
15706SOL    HW252955   4.341   9.512   6.849 -1.2677  0.1172  0.5772
15707SOL     OW52956   6.667   3.243   3.363  0.4268 -0.3388 -0.3322
15707SOL    HW152957   6.697   3.283   3.282  0.0581 -0.9192 -0.7617
15707SOL    HW252958   6.608   3.308   3.401  1.1001  0.2098 -0.1928
15708SOL     OW52959   5.486   8.887   4.786 -0.2413 -0.1137  0.0727
15708SOL    HW152960   5.411   8.944   4.804  1.1399  1.2960  1.5765
15708SOL    HW252961   5.548   8.943   4.739  0.4000 -0.9108 -0.0545
15709SOL     OW52962   7.203   4.873   8.539  0.5570 -0.3612 -0.3659
15709SOL    HW152963   7.158   4.905   8.617 -0.7483  0.5347 -1.4610
15709SOL    HW252964   7.135   4.862   8.473  1.7303 -0.3285 -1.6486
15710SOL     OW52965   3.246   0.436   6.129 -0.5689  0.0332 -0.1712
15710SOL    HW152966   3.192   0.372   6.176  0.3764  0.6399  1.8570
15710SOL    HW252967   3.275   0.497   6.196  0.7129  1.0887 -1.6052
15711SOL     OW52968   7.051   0.249   5.361 -0.0074  0.1493 -0.5681
15711SOL    HW152969   6.983   0.287   5.416 -1.2034 -1.4744 -0.8511
15711SOL    HW252970   7.006   0.184   5.308  2.0728 -2.7963  0.9390
15712SOL     OW52971   4.766   6.767   4.491 -0.2347  0.0703  0.1501
15712SOL    HW152972   4.833   6.704   4.464  2.3805  2.4723  0.5010
15712SOL    HW252973   4.730   6.800   4.408  1.4315  1.0657 -0.2315
15713SOL     OW52974   3.975   5.369   9.126  0.0251 -0.6516 -0.4805
15713SOL    HW152975   4.054   5.339   9.083  0.5996 -1.4720  1.0870
15713SOL    HW252976   3.916   5.393   9.054  1.7269  0.1378 -1.6666
15714SOL     OW52977   2.514   6.148   1.296 -0.2767  0.4031  0.1546
15714SOL    HW152978   2.609   6.159   1.309  0.0099 -1.2610 -0.2762
15714SOL    HW252979   2.496   6.198   1.216  0.3408  0.3243 -0.0444
15715SOL     OW52980   7.502   3.539   3.049 -0.0367  0.4466  0.0458
15715SOL    HW152981   7.417   3.500   3.069  0.7731 -0.5109  1.7948
15715SOL    HW252982   7.494   3.566   2.957 -2.1306  0.1746  0.0889
15716SOL     OW52983   4.252   1.735   7.102  0.1089  0.3107  0.2134
15716SOL    HW152984   4.278   1.706   7.015  0.2953 -0.0362  0.3844
15716SOL    HW252985   4.274   1.662   7.159  1.1600  1.0307  0.7471
15717SOL     OW52986   6.151   2.859   0.423  0.2840 -0.5049  0.7188
15717SOL    HW152987   6.153   2.777   0.472  2.9867 -0.3704  0.9936
15717SOL    HW252988   6.066   2.898   0.444 -1.3003 -3.3884  0.2087
15718SOL     OW52989   5.340   6.740   4.255 -0.2071  0.3819  0.5285
15718SOL    HW152990   5.309   6.815   4.204 -1.5317 -0.0409  0.6794
15718SOL    HW252991   5.305   6.754   4.343 -0.9911 -0.6955  0.4124
15719SOL     OW52992   2.900   4.071   5.762  0.3900  0.2133 -0.3095
15719SOL    HW152993   2.833   4.039   5.823  1.5158 -0.4438  0.6390
15719SOL    HW252994   2.857   4.141   5.713 -1.0379 -0.3113  0.1371
15720SOL     OW52995   6.870   6.978   9.734 -0.4146 -0.2546  0.0039
15720SOL    HW152996   6.840   6.935   9.654 -2.4724  0.6891  0.2081
15720SOL    HW252997   6.811   6.947   9.802  1.7203 -1.5812  1.3960
15721SOL     OW52998   3.831   3.752   1.917 -0.7864  0.2581  0.1908
15721SOL    HW152999   3.793   3.819   1.974 -1.0466  0.5384 -0.3022
15721SOL    HW253000   3.803   3.669   1.955  0.3988  0.3765  1.4195
15722SOL     OW53001   6.243   6.083   6.587  0.1420 -0.4195  0.3539
15722SOL    HW153002   6.186   6.127   6.651 -0.2408 -0.1514 -0.1628
15722SOL    HW253003   6.277   6.007   6.634  0.4921  0.1949  1.1358
15723SOL     OW53004   4.328   6.688   0.049  0.5264 -0.3069 -0.1688
15723SOL    HW153005   4.336   6.595   0.067 -0.7651 -0.8908 -2.2263
15723SOL    HW253006   4.374   6.701  -0.034 -0.1585  0.6644 -0.4287
15724SOL     OW53007   3.237   2.132   5.893 -0.1273 -0.1232  0.2873
15724SOL    HW153008   3.203   2.042   5.897 -0.0599 -0.2759 -1.5834
15724SOL    HW253009   3.266   2.151   5.982 -0.2030 -1.9443  0.7348
15725SOL     OW53010   6.943   5.252   5.747  0.3925 -0.0545  0.1383
15725SOL    HW153011   6.859   5.289   5.774 -0.6828 -0.6698 -2.1545
15725SOL    HW253012   6.981   5.217   5.828 -2.4007 -1.3938  0.9867
15726SOL     OW53013   0.258   1.579   8.297  0.2130  0.3859 -0.1612
15726SOL    HW153014   0.281   1.646   8.362  1.1964 -0.1784  0.0893
15726SOL    HW253015   0.263   1.496   8.344 -1.5337  0.1394 -0.3260
15727SOL     OW53016   2.600   8.249  10.251  0.2127 -0.0319  0.0366
15727SOL    HW153017   2.542   8.205  10.189 -1.1402  1.7277 -0.0322
15727SOL    HW253018   2.610   8.338  10.216  0.9011  0.4566  1.3984
15728SOL     OW53019   5.037   1.968   3.904  0.2665 -0.4745  0.1261
15728SOL    HW153020   5.026   2.044   3.846 -0.5913 -0.8874 -0.2612
15728SOL    HW253021   4.985   1.899   3.863  2.7846 -1.9766 -0.7499
15729SOL     OW53022   4.374   7.670   9.703 -0.2526  0.2054  0.3730
15729SOL    HW153023   4.344   7.697   9.790 -0.2817 -0.1083  0.4594
15729SOL    HW253024   4.324   7.591   9.683  2.6177 -2.1587  1.8194
15730SOL     OW53025  10.174   9.379   6.423 -0.2856  0.4050  0.5875
15730SOL    HW153026  10.264   9.390   6.393 -0.1546  0.2307  0.9115
15730SOL    HW253027  10.173   9.293   6.465 -0.9150 -0.1464 -0.5270
15731SOL     OW53028   9.457   1.732   5.244  0.2214 -0.8313  0.4115
15731SOL    HW153029   9.433   1.726   5.336  0.3170  2.7880  0.8163
15731SOL    HW253030   9.374   1.739   5.197  0.1512  1.4118  0.7472
15732SOL     OW53031   7.044   6.912   4.403 -0.0712  0.3114  0.3441
15732SOL    HW153032   7.017   6.853   4.332 -1.4525  1.1517  0.1454
15732SOL    HW253033   6.983   6.891   4.475  0.6184  0.2255  0.9086
15733SOL     OW53034   3.472   8.069   1.778 -0.1932 -0.5012  0.4191
15733SOL    HW153035   3.382   8.038   1.778 -0.2118 -0.5497  2.2406
15733SOL    HW253036   3.510   8.033   1.697 -1.7175 -0.6792 -0.2428
15734SOL     OW53037   2.553   9.064  10.050 -0.1574 -0.4954  0.3569
15734SOL    HW153038   2.605   9.054  10.130  0.4462  0.7589  0.1428
15734SOL    HW253039   2.618   9.078   9.981 -0.7212 -0.3174 -0.1472
15735SOL     OW53040   8.895   3.086   2.418  0.1055 -0.6187  0.3144
15735SOL    HW153041   8.810   3.053   2.449  0.8694 -2.3509  0.6832
15735SOL    HW253042   8.935   3.127   2.495 -0.0211 -0.5988  0.3705
15736SOL     OW53043   5.799   7.135   7.281  0.1622 -0.1630  0.6895
15736SOL    HW153044   5.764   7.046   7.276 -0.0993 -0.0607  0.6463
15736SOL    HW253045   5.776   7.165   7.369 -0.5686  0.1867  0.3945
15737SOL     OW53046   3.219   7.155   1.212  0.0172 -0.2247 -0.1303
15737SOL    HW153047   3.133   7.151   1.254 -0.7320  0.4273 -1.5447
15737SOL    HW253048   3.223   7.076   1.158  0.5499 -0.5374  0.3575
15738SOL     OW53049   5.798   6.972   7.538  0.0155  0.5820  0.0161
15738SOL    HW153050   5.772   6.999   7.626 -1.7571 -0.5680 -0.0956
15738SOL    HW253051   5.817   6.879   7.546  1.7051  0.8574 -0.4710
15739SOL     OW53052   6.144   0.375   5.971  0.3526  0.0239 -0.2650
15739SOL    HW153053   6.102   0.316   6.034 -1.1559  0.6659 -0.6106
15739SOL    HW253054   6.126   0.463   6.005  1.8616  0.3257 -0.1877
15740SOL     OW53055   3.358  10.160   9.609  0.3563  0.1420 -0.6175
15740SOL    HW153056   3.330  10.154   9.700 -0.2571 -0.2756 -0.8290
15740SOL    HW253057   3.386  10.251   9.599  3.0073 -0.4071  0.7098
15741SOL     OW53058   5.387   6.534   2.417 -0.2167  0.2591  0.1480
15741SOL    HW153059   5.453   6.559   2.352 -0.1107 -1.0943 -0.2935
15741SOL    HW253060   5.371   6.441   2.400 -1.0110  0.1625  1.3420
15742SOL     OW53061   0.268   4.596   3.285  1.0287  0.7152 -0.1388
15742SOL    HW153062   0.233   4.544   3.213 -1.3684 -0.4667  1.6947
15742SOL    HW253063   0.310   4.532   3.342  0.9456  1.2749  0.5686
15743SOL     OW53064   1.306   0.566   7.390 -0.1551 -0.3997 -0.5976
15743SOL    HW153065   1.400   0.573   7.410 -0.1287 -3.8033  1.2845
15743SOL    HW253066   1.263   0.614   7.460  0.1926 -0.8723 -0.0469
15744SOL     OW53067   2.422   1.741   5.796 -0.2698  0.2956  0.0288
15744SOL    HW153068   2.451   1.736   5.888  0.2379  0.8450 -0.0972
15744SOL    HW253069   2.496   1.707   5.746 -0.5685 -0.0518 -0.1724
15745SOL     OW53070   3.471   8.754   2.948 -0.0527  0.4105 -0.2367
15745SOL    HW153071   3.418   8.832   2.967  0.5055  0.4214  1.4452
15745SOL    HW253072   3.499   8.723   3.034  3.5886  1.0223 -1.0533
15746SOL     OW53073   1.401   0.738   8.578 -0.2433 -0.1737 -0.6010
15746SOL    HW153074   1.348   0.769   8.505 -0.5877 -0.2926 -0.4036
15746SOL    HW253075   1.351   0.762   8.656  0.6443  0.9413 -0.3559
15747SOL     OW53076   6.660   6.281   6.976 -0.1726 -0.2779  0.2491
15747SOL    HW153077   6.631   6.334   7.050  0.6221 -0.7583  0.9205
15747SOL    HW253078   6.666   6.343   6.904 -0.6148  0.2685  0.6692
15748SOL     OW53079   3.793   6.550   6.285  0.0212  0.2876 -0.4474
15748SOL    HW153080   3.725   6.611   6.257  0.0069 -0.0231 -1.1100
15748SOL    HW253081   3.751   6.464   6.285  0.0902  0.2469  0.3027
15749SOL     OW53082   7.252   9.376   6.338  0.4351  0.0748 -0.5549
15749SOL    HW153083   7.321   9.370   6.404  0.3297 -1.3900 -0.5502
15749SOL    HW253084   7.183   9.427   6.380 -0.0337 -1.6359  0.8642
15750SOL     OW53085   0.442   3.428   2.926 -0.3125 -0.4274 -0.4601
15750SOL    HW153086   0.515   3.403   2.869  0.2743 -3.0007  1.2509
15750SOL    HW253087   0.372   3.368   2.901 -0.8116 -0.0371  0.0039
15751SOL     OW53088   2.734   8.928   5.239 -0.1076  0.6074 -0.6741
15751SOL    HW153089   2.744   8.930   5.334  0.7369  0.0502 -0.7505
15751SOL    HW253090   2.739   8.835   5.216  1.2623  0.8475 -1.4209
15752SOL     OW53091   7.423   7.536   0.057 -0.6547  0.0831  0.0217
15752SOL    HW153092   7.471   7.454   0.042  2.3195  1.8733 -1.0434
15752SOL    HW253093   7.435   7.554   0.150 -0.8823 -0.3886  0.1493
15753SOL     OW53094   2.572   7.353   0.381 -0.2578 -0.1562  0.1190
15753SOL    HW153095   2.627   7.345   0.302  0.5900 -2.3315  0.8425
15753SOL    HW253096   2.506   7.417   0.357  1.0631  0.6388 -1.7183
15754SOL     OW53097   2.586   9.136   6.075 -0.3731 -0.4435 -0.3386
15754SOL    HW153098   2.641   9.145   6.153  1.5253 -2.0470 -1.3986
15754SOL    HW253099   2.510   9.086   6.105 -0.4567  0.3083  0.7838
15755SOL     OW53100   4.017   1.324   7.684 -0.3821 -0.3707 -0.2683
15755SOL    HW153101   3.983   1.358   7.767  0.2460  1.1528 -0.6104
15755SOL    HW253102   4.030   1.401   7.630  0.8143 -1.2003 -1.2083
15756SOL     OW53103   7.428   1.393   2.467  0.5156 -0.5640 -0.7509
15756SOL    HW153104   7.336   1.380   2.442 -0.5920  2.2617  1.3131
15756SOL    HW253105   7.455   1.310   2.505 -1.7650 -0.9390  0.1885
15757SOL     OW53106   5.077   4.138  10.453  0.0980 -0.0378  0.3711
15757SOL    HW153107   5.113   4.050  10.437 -2.0944 -0.8785 -0.2986
15757SOL    HW253108   5.082   4.148  10.548 -0.7099 -1.4446  0.6039
15758SOL     OW53109  10.214   1.720   9.204  0.2331  0.5734 -0.2800
15758SOL    HW153110  10.189   1.781   9.134 -3.6890 -2.2824 -1.7512
15758SOL    HW253111  10.142   1.724   9.266  0.4996 -1.5296  0.2517
15759SOL     OW53112   4.862   0.924   1.833  0.1273  0.0441 -0.7737
15759SOL    HW153113   4.793   0.976   1.875  1.6461  1.0944  0.5204
15759SOL    HW253114   4.906   0.986   1.775  2.3383  0.4700  1.2292
15760SOL     OW53115   8.315   0.564   6.578 -0.4015  0.5627  0.8134
15760SOL    HW153116   8.351   0.501   6.515 -0.3357 -0.8955  2.2106
15760SOL    HW253117   8.389   0.585   6.635 -0.5081  1.6865  0.5542
15761SOL     OW53118   2.992   4.908   4.035  0.7006  0.1504 -0.7253
15761SOL    HW153119   2.923   4.919   4.100  0.2753 -3.0725 -0.5052
15761SOL    HW253120   3.073   4.921   4.084  0.3479  1.6435 -0.4854
15762SOL     OW53121   6.815   8.007   1.841 -0.4053 -0.0104 -0.1938
15762SOL    HW153122   6.797   8.023   1.749 -0.7327  0.0159 -0.1273
15762SOL    HW253123   6.756   7.936   1.866 -1.5749  1.1347  0.4194
15763SOL     OW53124   6.651   2.291   1.450 -1.4899  0.5458  0.2658
15763SOL    HW153125   6.661   2.358   1.382  1.2532 -0.9128 -0.9617
15763SOL    HW253126   6.586   2.230   1.414 -2.5795  1.5310  0.5283
15764SOL     OW53127   9.210   6.753   3.959  0.0976 -0.2125  0.6087
15764SOL    HW153128   9.284   6.727   4.012  0.1309 -2.0712 -0.2944
15764SOL    HW253129   9.245   6.821   3.900  1.2301 -1.4027 -0.1365
15765SOL     OW53130   7.520   7.671   8.558 -0.3362  0.3997 -0.3545
15765SOL    HW153131   7.519   7.759   8.595 -0.0001  0.6795 -0.9890
15765SOL    HW253132   7.556   7.683   8.470  2.0373 -0.6749  0.3939
15766SOL     OW53133  10.578   8.896   4.768 -0.2176  0.0806 -0.7483
15766SOL    HW153134  10.502   8.868   4.819 -0.3123 -1.6862 -1.7913
15766SOL    HW253135  10.541   8.943   4.693 -0.3161 -0.7922 -1.2635
15767SOL     OW53136  10.604   1.617   3.541 -0.1974 -0.1054  0.3691
15767SOL    HW153137  10.567   1.572   3.465 -0.1335 -0.3573  0.4871
15767SOL    HW253138  10.601   1.710   3.517  0.6079 -0.2330 -0.2841
15768SOL     OW53139   5.750   5.531   1.857  0.5389  0.2521  0.2335
15768SOL    HW153140   5.742   5.605   1.796 -0.9915 -0.5505 -0.5797
15768SOL    HW253141   5.702   5.560   1.935 -0.2655  0.0335 -0.1749
15769SOL     OW53142   8.026   1.562   7.323 -0.1626  0.3117 -0.4804
15769SOL    HW153143   7.995   1.616   7.250  1.1985 -0.3820 -1.6241
15769SOL    HW253144   8.022   1.620   7.399 -3.4897  0.4738 -0.6508
15770SOL     OW53145   2.851   4.050   8.162  0.1505  0.5629 -0.4850
15770SOL    HW153146   2.939   4.038   8.126  0.6660  0.2569  0.8360
15770SOL    HW253147   2.851   4.139   8.199 -0.6895  1.2527 -2.0322
15771SOL     OW53148   7.736   0.182   0.031 -0.3181  0.1634 -0.3236
15771SOL    HW153149   7.736   0.271   0.068  0.2981 -0.9077  2.4491
15771SOL    HW253150   7.643   0.163   0.015 -0.4206  1.4830 -1.6017
15772SOL     OW53151   6.768   4.254   3.230 -0.5051  0.4561  0.3090
15772SOL    HW153152   6.746   4.189   3.296  0.2006  0.0017  0.1140
15772SOL    HW253153   6.848   4.220   3.189 -1.5391  0.1605 -1.5486
15773SOL     OW53154   3.709   2.941   4.710  0.0656 -0.1113 -0.9165
15773SOL    HW153155   3.704   2.883   4.634  0.6817 -2.1622  0.5164
15773SOL    HW253156   3.786   2.912   4.758 -0.2448  1.1762  0.4761
15774SOL     OW53157   0.450   9.880   4.421 -0.3943  0.1428  0.0465
15774SOL    HW153158   0.432   9.791   4.392  0.2772 -0.2094  0.6580
15774SOL    HW253159   0.540   9.876   4.454 -0.7121  0.7970  1.0235
15775SOL     OW53160   9.765   4.302   5.660  0.4119  0.3800  0.2507
15775SOL    HW153161   9.841   4.280   5.713 -0.8529 -1.3549  1.4305
15775SOL    HW253162   9.797   4.301   5.570  1.8064 -0.1686  0.7344
15776SOL     OW53163   5.658   0.694   3.577 -0.0680  0.4237  0.1217
15776SOL    HW153164   5.713   0.617   3.558 -0.9236 -0.9739  2.8336
15776SOL    HW253165   5.589   0.691   3.510 -0.2540 -1.3780  0.3475
15777SOL     OW53166   2.975   1.476   0.612 -0.0335  0.5954  0.2690
15777SOL    HW153167   2.886   1.445   0.595  0.0703  1.1528 -1.4227
15777SOL    HW253168   2.989   1.457   0.705 -2.4309  1.7832  0.9385
15778SOL     OW53169   7.152   0.828   4.980  0.3405  0.7059  0.2107
15778SOL    HW153170   7.099   0.791   4.909 -0.9489 -1.4702  2.1665
15778SOL    HW253171   7.220   0.878   4.935 -3.2605  3.7095 -2.4625
15779SOL     OW53172   6.045   2.189   6.807 -0.4379  0.5853  0.0149
15779SOL    HW153173   6.117   2.136   6.772 -0.4887  0.7796 -0.3855
15779SOL    HW253174   6.089   2.263   6.849 -0.4216  1.1286 -0.9292
15780SOL     OW53175   6.690   8.847   8.875 -0.4344 -0.6816  0.0198
15780SOL    HW153176   6.623   8.780   8.871  0.1565 -1.5397  2.6378
15780SOL    HW253177   6.644   8.927   8.901 -0.7573 -0.6861 -0.5305
15781SOL     OW53178   9.546   1.946   7.533  0.4349  0.1952  0.2688
15781SOL    HW153179   9.456   1.925   7.557 -0.0976  0.3596 -1.4111
15781SOL    HW253180   9.565   2.029   7.577 -0.1818  0.0833  0.7464
15782SOL     OW53181   7.225   9.995   8.313  0.2184  0.5543  0.2762
15782SOL    HW153182   7.191  10.025   8.397  0.1974 -1.4228  1.0198
15782SOL    HW253183   7.147   9.980   8.259  0.1585  0.4527  0.3919
15783SOL     OW53184   8.081   3.797   9.962 -0.2212 -0.3124 -0.0372
15783SOL    HW153185   7.986   3.785   9.970 -0.1890 -0.3974  0.1999
15783SOL    HW253186   8.107   3.840  10.043 -0.5108  2.4148 -1.2717
15784SOL     OW53187   8.716   5.032   3.891  0.1588 -0.2262  0.2164
15784SOL    HW153188   8.706   4.976   3.814  1.8979 -0.5171  0.1632
15784SOL    HW253189   8.706   4.973   3.966 -2.8010  0.2656  0.3172
15785SOL     OW53190   2.541   8.001   9.842 -0.2145  0.4953  0.1517
15785SOL    HW153191   2.583   8.077   9.802  3.9561 -0.8919  1.3524
15785SOL    HW253192   2.581   7.926   9.800 -3.2590 -1.1600 -0.0799
15786SOL     OW53193   2.721   3.074   7.892 -0.2848  0.0039 -0.0008
15786SOL    HW153194   2.789   3.088   7.827 -0.9640  0.2073 -0.6791
15786SOL    HW253195   2.668   3.154   7.888  1.2574  1.3275  2.7881
15787SOL     OW53196   1.033   6.870   9.435 -0.1564 -0.4127 -0.3649
15787SOL    HW153197   1.036   6.828   9.520  0.6154  0.4304  0.0471
15787SOL    HW253198   1.010   6.961   9.454 -4.5041 -1.0557 -1.4238
15788SOL     OW53199   9.469   7.844   7.530  0.0368  0.3655  0.3147
15788SOL    HW153200   9.403   7.873   7.468  0.0927 -0.9084 -0.3803
15788SOL    HW253201   9.482   7.918   7.589 -1.2422  0.9928 -0.1724
15789SOL     OW53202  10.519   2.061   9.501  0.1077 -0.3055  0.1420
15789SOL    HW153203  10.438   2.059   9.552  0.6138  0.3431  0.9999
15789SOL    HW253204  10.502   2.126   9.433 -1.0800 -2.1773 -1.4620
15790SOL     OW53205   0.059  10.614   3.049  0.5643  0.0084  0.0933
15790SOL    HW153206   0.103  10.640   2.967  0.1881 -0.1527 -0.1598
15790SOL    HW253207   0.102  10.532   3.073  0.0236 -0.4423 -0.4547
15791SOL     OW53208  10.499   4.624   6.097 -0.4615  1.1328  0.1973
15791SOL    HW153209  10.519   4.714   6.073 -0.2193  1.0125 -0.0644
15791SOL    HW253210  10.481   4.626   6.191  1.4882  1.1337  0.6064
15792SOL     OW53211   2.384   8.257   6.680 -0.0907  0.6001  0.1621
15792SOL    HW153212   2.414   8.332   6.628 -0.4203  0.8951  0.3964
15792SOL    HW253213   2.380   8.290   6.769  0.6213  0.0503  0.4073
15793SOL     OW53214   5.028   0.527   3.519  0.4435  0.1085  0.3227
15793SOL    HW153215   5.000   0.493   3.604  0.9960  1.0924  0.9233
15793SOL    HW253216   4.947   0.553   3.475 -0.0061 -1.9919 -0.1952
15794SOL     OW53217   4.633   6.906   1.199  0.1629 -0.1323  0.3391
15794SOL    HW153218   4.645   6.966   1.126 -1.5012 -0.5142 -0.2857
15794SOL    HW253219   4.657   6.958   1.276  0.7011  0.6797 -0.3547
15795SOL     OW53220   5.762   9.123   1.509  0.1014 -0.7755  0.3324
15795SOL    HW153221   5.724   9.102   1.595 -0.9203 -1.1176 -0.1921
15795SOL    HW253222   5.801   9.209   1.522 -1.3677 -0.1344  0.7590
15796SOL     OW53223   7.959   6.636   1.294 -0.0191  0.1540 -0.0754
15796SOL    HW153224   8.017   6.570   1.256 -0.9009 -2.1558  2.3256
15796SOL    HW253225   7.874   6.594   1.300 -1.0514  2.1356  0.0177
15797SOL     OW53226   6.178   9.075   5.709  0.6036 -0.2034 -0.3151
15797SOL    HW153227   6.225   9.128   5.645  1.1022 -0.0280  0.1905
15797SOL    HW253228   6.220   9.095   5.793 -0.7168  0.3930  0.2404
15798SOL     OW53229   8.199   4.246   9.386  0.2227 -0.2637  0.6774
15798SOL    HW153230   8.232   4.159   9.411 -1.0160 -0.5708  1.3027
15798SOL    HW253231   8.193   4.242   9.290  1.0953 -0.5197  0.6246
15799SOL     OW53232   4.994   3.016   0.653 -0.1301 -0.2873 -0.5458
15799SOL    HW153233   5.032   3.016   0.740 -0.3451  2.3112 -0.3565
15799SOL    HW253234   5.069   3.021   0.593 -0.0353 -0.2858 -0.4259
15800SOL     OW53235   5.917   4.109   9.007  0.5735 -0.5582  0.8600
15800SOL    HW153236   5.850   4.156   9.057 -0.3754 -0.5779 -0.3498
15800SOL    HW253237   5.900   4.132   8.916  1.9135 -0.9686  0.4779
15801SOL     OW53238  10.163   8.364   1.290 -0.6099 -0.2287  0.1404
15801SOL    HW153239  10.246   8.320   1.272 -0.1671  0.3464  0.7295
15801SOL    HW253240  10.098   8.293   1.289 -0.4771 -0.4073 -2.5044
15802SOL     OW53241   5.279   2.924   5.911  0.6739 -0.6477 -0.4470
15802SOL    HW153242   5.301   2.947   5.821  1.9663 -0.0102  0.0040
15802SOL    HW253243   5.363   2.905   5.953  0.3279  0.8544  1.0856
15803SOL     OW53244   6.571   5.238   7.531  0.1092  0.0960  0.1888
15803SOL    HW153245   6.572   5.304   7.462 -0.5886  1.4529  1.4146
15803SOL    HW253246   6.504   5.175   7.505 -0.7571  1.0656  0.0347
15804SOL     OW53247  10.270   4.739   1.451 -0.1168 -0.8156  0.4893
15804SOL    HW153248  10.187   4.693   1.439 -0.3716 -0.0090 -1.1511
15804SOL    HW253249  10.248   4.814   1.507 -0.3262 -1.0340  0.7014
15805SOL     OW53250   0.245   0.247   7.341 -0.0659 -0.3018 -0.3759
15805SOL    HW153251   0.313   0.184   7.319 -0.0161 -0.3747 -0.0186
15805SOL    HW253252   0.238   0.242   7.436  1.2840  1.6116 -0.1253
15806SOL     OW53253   0.116   1.269   0.312 -0.3033  0.6766 -0.8651
15806SOL    HW153254   0.032   1.223   0.312  0.2123 -0.4022  1.0108
15806SOL    HW253255   0.101   1.347   0.365  0.0810 -0.0738  0.4192
15807SOL     OW53256   6.666   9.298   4.105  0.0502  0.0074 -0.2454
15807SOL    HW153257   6.688   9.266   4.017  0.8281  1.6102 -0.6788
15807SOL    HW253258   6.643   9.390   4.091 -1.0155 -0.0268  1.0876
15808SOL     OW53259   8.948   1.402   0.953  0.1539  0.2614  0.3227
15808SOL    HW153260   9.029   1.368   0.991  1.2586  1.6528 -0.6869
15808SOL    HW253261   8.878   1.359   1.003  1.5046 -0.5777  1.5676
15809SOL     OW53262   5.909   5.967   8.007  0.1759  0.5120 -0.1589
15809SOL    HW153263   5.924   5.878   7.974  1.4475  0.4570  0.5004
15809SOL    HW253264   5.828   5.961   8.057 -0.4667  0.0419 -1.2255
15810SOL     OW53265   0.676   9.911  10.156 -0.1968  0.2953  1.2100
15810SOL    HW153266   0.681   9.841  10.091 -1.3035  1.3447 -0.0824
15810SOL    HW253267   0.725   9.878  10.232  4.4022  0.4431 -1.3552
15811SOL     OW53268   2.819   9.460   4.834 -0.5507  0.0598 -0.3705
15811SOL    HW153269   2.865   9.466   4.918 -1.9955  0.5174  0.4303
15811SOL    HW253270   2.846   9.538   4.786 -0.9720  0.6739  0.3619
15812SOL     OW53271   1.647  10.329  10.723 -0.4038 -0.2520  0.2450
15812SOL    HW153272   1.713  10.295  10.784  0.0705 -0.3981 -0.3437
15812SOL    HW253273   1.609  10.403  10.769  0.4362  0.0674  0.4496
15813SOL     OW53274   2.117   2.719   6.520  0.3464 -0.3273 -0.3185
15813SOL    HW153275   2.067   2.691   6.443  0.3217 -1.8782  0.2417
15813SOL    HW253276   2.200   2.752   6.484  0.4599 -1.3128 -1.0066
15814SOL     OW53277   9.190   4.484   8.120 -0.2553  0.2155 -0.3290
15814SOL    HW153278   9.132   4.540   8.172  1.0564  0.3657  1.0419
15814SOL    HW253279   9.167   4.504   8.029 -0.6880  2.0704  0.1406
15815SOL     OW53280   4.022   4.656   3.916 -0.1407 -0.1174  0.1332
15815SOL    HW153281   4.009   4.611   3.832 -2.8763 -1.0771  0.9685
15815SOL    HW253282   4.058   4.589   3.974 -0.3472 -0.1066  0.2787
15816SOL     OW53283   9.699   4.048   1.169  0.1145 -0.0930 -0.4805
15816SOL    HW153284   9.705   4.099   1.250 -0.8016  0.5455 -0.7967
15816SOL    HW253285   9.655   3.967   1.195  3.6518 -1.9059  0.5188
15817SOL     OW53286  10.032   6.186   2.529 -0.6113 -0.4457  0.1174
15817SOL    HW153287   9.949   6.225   2.502 -0.5645 -0.8024 -0.5682
15817SOL    HW253288  10.063   6.140   2.451  1.5136  1.8211 -0.5125
15818SOL     OW53289   1.555   7.251   3.613  0.2627 -0.2324  0.5178
15818SOL    HW153290   1.559   7.347   3.608 -0.7370 -0.2408 -1.8624
15818SOL    HW253291   1.463   7.233   3.633  0.2185 -0.6771 -0.0613
15819SOL     OW53292   9.107   4.808   2.749  0.7740  0.4733 -0.6352
15819SOL    HW153293   9.132   4.742   2.814  1.1019  1.0044 -0.2072
15819SOL    HW253294   9.174   4.801   2.681  0.7234  0.2691 -0.6661
15820SOL     OW53295   6.044   3.604   9.400 -0.5181  0.0410 -0.3784
15820SOL    HW153296   6.020   3.511   9.393  1.4527 -0.6171  0.6923
15820SOL    HW253297   6.020   3.628   9.489 -1.6625  0.7778 -0.8781
15821SOL     OW53298   0.954   7.805   4.115  0.1297 -0.2603 -0.3816
15821SOL    HW153299   1.046   7.791   4.091  0.5238  2.0133 -0.4119
15821SOL    HW253300   0.951   7.791   4.209  0.4032 -0.7718 -0.4448
15822SOL     OW53301   5.593   6.949  10.005  0.1923  0.4608 -0.2300
15822SOL    HW153302   5.599   7.022   9.943  0.4211  0.2962 -0.4034
15822SOL    HW253303   5.502   6.948  10.032 -0.0639  0.1036 -1.0903
15823SOL     OW53304   3.574   7.615   0.869 -0.5224 -0.5425 -0.2655
15823SOL    HW153305   3.562   7.698   0.824  0.4167 -0.4770 -0.4049
15823SOL    HW253306   3.629   7.563   0.810  1.2758 -0.2233  1.0604
15824SOL     OW53307   6.638   8.811   2.631  0.2382 -0.1928 -0.0383
15824SOL    HW153308   6.679   8.757   2.563  0.4568 -1.6565  1.2062
15824SOL    HW253309   6.622   8.750   2.703  0.2022  1.3653  1.3123
15825SOL     OW53310   1.891   8.448   4.868  0.2779  0.3317 -0.2136
15825SOL    HW153311   1.937   8.428   4.950 -0.5801 -0.5158  0.0689
15825SOL    HW253312   1.961   8.451   4.803  1.2080  2.7157  0.7904
15826SOL     OW53313   8.616   3.456   7.132 -0.0096 -0.4084 -0.5609
15826SOL    HW153314   8.643   3.369   7.103  0.1498 -1.2938  2.0047
15826SOL    HW253315   8.532   3.442   7.175  0.9830  0.2867  1.7364
15827SOL     OW53316   4.052   8.260   8.644 -0.3525  0.0067 -0.5469
15827SOL    HW153317   4.024   8.325   8.709  0.7091 -0.6252  0.5840
15827SOL    HW253318   4.144   8.243   8.665 -0.2047 -0.8040 -1.7380
15828SOL     OW53319   5.367   9.032   2.043 -0.9063 -0.2014 -0.1081
15828SOL    HW153320   5.271   9.031   2.041 -0.9340 -1.4986  0.6313
15828SOL    HW253321   5.392   8.958   1.987 -0.2949  0.6342 -0.9766
15829SOL     OW53322   0.541   9.169   8.160 -0.0455  0.3756  0.1880
15829SOL    HW153323   0.635   9.154   8.165 -0.1817 -0.2719  0.9643
15829SOL    HW253324   0.513   9.115   8.086  0.1703  0.4905  0.0185
15830SOL     OW53325  10.633   9.955   1.511 -0.1781 -0.2280 -0.3670
15830SOL    HW153326  10.687   9.884   1.546  0.2789  0.5218  0.4857
15830SOL    HW253327  10.601  10.002   1.589 -1.2841 -0.0799 -0.8824
15831SOL     OW53328   5.575   6.716   7.243 -0.4139  0.6414  0.1127
15831SOL    HW153329   5.581   6.622   7.260 -0.7628  0.6789  0.4507
15831SOL    HW253330   5.543   6.754   7.325 -1.2881  0.9310 -0.3501
15832SOL     OW53331  10.434   2.702   5.521  0.3078  0.2755 -0.1419
15832SOL    HW153332  10.491   2.764   5.476  1.2387 -1.0222 -0.8202
15832SOL    HW253333  10.463   2.616   5.490  0.8218 -0.6832  2.6977
15833SOL     OW53334   2.988   8.245   4.593 -0.2059  0.1527  0.1889
15833SOL    HW153335   2.957   8.272   4.506 -2.1551  0.9143  1.0610
15833SOL    HW253336   3.069   8.196   4.575 -0.8334 -0.1867 -2.0917
15834SOL     OW53337   9.966   3.757   9.568  0.5128  0.3020  0.0679
15834SOL    HW153338   9.986   3.835   9.620 -1.4060  0.1122  1.1999
15834SOL    HW253339   9.960   3.789   9.478 -0.9530  1.6581  0.5927
15835SOL     OW53340   4.355   3.973   0.124 -0.1610  0.3439  0.3550
15835SOL    HW153341   4.389   3.959   0.213 -2.2079 -0.5875  1.0428
15835SOL    HW253342   4.268   3.933   0.125 -0.5567  1.0362 -1.8503
15836SOL     OW53343   1.619  10.430   9.482  0.6502  0.3156  0.8945
15836SOL    HW153344   1.631  10.395   9.394 -2.9224  1.2212 -0.1101
15836SOL    HW253345   1.644  10.358   9.540  2.2255 -0.6007 -0.7998
15837SOL     OW53346   8.819   9.983   3.212  0.0366  0.0240 -0.8768
15837SOL    HW153347   8.760   9.948   3.146  0.6168 -0.7098 -1.0186
15837SOL    HW253348   8.763   9.997   3.289 -0.9365  2.1958 -1.8929
15838SOL     OW53349   2.440   5.568   9.566  0.3751  0.4939  0.2462
15838SOL    HW153350   2.514   5.521   9.527 -1.2056  0.1227 -2.5319
15838SOL    HW253351   2.441   5.541   9.658  1.7323 -2.0794 -0.4251
15839SOL     OW53352   2.781   3.361   5.717  0.6871  0.1556 -0.7726
15839SOL    HW153353   2.798   3.396   5.630 -0.6244  0.2713 -0.9953
15839SOL    HW253354   2.693   3.323   5.712  0.0618  1.2491  0.8174
15840SOL     OW53355   7.962   4.640   4.393  0.4310 -0.0909 -0.2558
15840SOL    HW153356   8.011   4.721   4.409  0.8949 -0.9269  3.3906
15840SOL    HW253357   8.029   4.571   4.392  0.0204 -0.5939 -3.0690
15841SOL     OW53358   7.930   4.041   6.020 -0.5658 -0.0341  0.5419
15841SOL    HW153359   7.956   3.970   6.080 -1.7819 -0.5374  0.4857
15841SOL    HW253360   8.013   4.082   5.995  0.2447 -1.9741 -0.0972
15842SOL     OW53361   5.740   3.369   2.701 -0.0642  0.2841 -0.0103
15842SOL    HW153362   5.762   3.386   2.610 -0.9514 -2.4741 -0.8277
15842SOL    HW253363   5.695   3.449   2.730 -0.1816  1.0423 -2.1272
15843SOL     OW53364   7.839   4.623  10.190 -0.2894 -0.0020  0.1390
15843SOL    HW153365   7.862   4.669  10.110 -0.2715 -0.1175  0.0775
15843SOL    HW253366   7.751   4.588  10.174 -1.0499  1.4782  0.8214
15844SOL     OW53367   3.536   0.377   0.683  0.2948  0.3245 -0.0176
15844SOL    HW153368   3.622   0.401   0.717 -0.4620 -2.2819  4.5975
15844SOL    HW253369   3.547   0.288   0.649 -0.0563  1.1034 -2.3563
15845SOL     OW53370   2.570   8.136   8.469  0.1649 -0.2950 -0.2385
15845SOL    HW153371   2.665   8.147   8.470  0.2887 -1.2383 -0.7295
15845SOL    HW253372   2.557   8.042   8.478 -0.7410 -0.1236  0.3196
15846SOL     OW53373   1.498   4.316   3.934 -0.2583  0.2159 -0.0018
15846SOL    HW153374   1.432   4.248   3.946 -0.4727  0.8590  3.2490
15846SOL    HW253375   1.581   4.271   3.943 -0.2187 -0.2051 -1.9018
15847SOL     OW53376   3.302   5.818   1.229 -0.1171 -0.3999  0.3131
15847SOL    HW153377   3.273   5.780   1.312 -0.3864 -1.3561 -0.2043
15847SOL    HW253378   3.228   5.871   1.199 -0.4743 -1.0132  0.1022
15848SOL     OW53379   9.265   7.843   8.801  0.1560 -0.5262  0.0758
15848SOL    HW153380   9.350   7.816   8.768  0.0968 -0.6520  0.0272
15848SOL    HW253381   9.285   7.900   8.875  0.3886  1.8027 -1.6506
15849SOL     OW53382   1.021   6.724   2.942 -0.4396  0.1124 -0.0079
15849SOL    HW153383   1.004   6.643   2.893 -0.5960 -0.0286  0.2782
15849SOL    HW253384   1.114   6.741   2.928 -0.6938  0.6461 -1.2199
15850SOL     OW53385   3.938   8.814   0.086  0.2329 -0.1806  0.0730
15850SOL    HW153386   4.014   8.801   0.142 -0.1184 -1.0580  0.3738
15850SOL    HW253387   3.964   8.881   0.023  1.3688 -0.7219 -0.0479
15851SOL     OW53388   3.178   6.824   8.308  0.3257 -0.4712  0.1312
15851SOL    HW153389   3.151   6.915   8.295 -1.3756 -0.7666  1.2747
15851SOL    HW253390   3.226   6.802   8.228 -1.1822  0.7447 -1.1848
15852SOL     OW53391   4.956   4.995   9.556  0.6697  0.4092  0.4738
15852SOL    HW153392   5.002   4.916   9.582 -1.9332 -0.5529  2.6032
15852SOL    HW253393   4.943   4.986   9.462 -1.9624 -3.1737  1.0121
15853SOL     OW53394   6.686   1.855   4.304 -0.4477  0.3363  0.0180
15853SOL    HW153395   6.691   1.808   4.221  0.8175 -0.1164  0.3284
15853SOL    HW253396   6.641   1.794   4.363 -1.5817  0.7586 -0.3686
15854SOL     OW53397   4.198   7.264   4.938  0.4212 -0.5006 -0.2040
15854SOL    HW153398   4.195   7.354   4.971  3.4858 -0.1487 -0.6126
15854SOL    HW253399   4.278   7.260   4.886  0.3057 -3.4593 -0.3195
15855SOL     OW53400   2.119   5.198   2.455  0.2998 -0.4506 -0.2557
15855SOL    HW153401   2.192   5.167   2.401 -0.1118 -0.8284 -0.6025
15855SOL    HW253402   2.041   5.166   2.410 -0.0412 -1.3846  0.9398
15856SOL     OW53403   1.449   4.589   1.201 -0.2606  0.8353 -0.0840
15856SOL    HW153404   1.480   4.639   1.276  1.7671  0.7156 -0.7953
15856SOL    HW253405   1.493   4.628   1.126  0.4152 -1.1915 -0.8160
15857SOL     OW53406   6.397   1.659   3.184 -0.2300 -0.0531  0.4240
15857SOL    HW153407   6.338   1.732   3.204  0.0470 -0.2135  1.9946
15857SOL    HW253408   6.457   1.656   3.259  2.5246  0.8021 -1.5752
15858SOL     OW53409   9.383   0.287   1.470  0.1867  0.3752 -0.1601
15858SOL    HW153410   9.302   0.280   1.420 -0.7742  0.4642  1.3286
15858SOL    HW253411   9.427   0.203   1.457 -0.0762  0.3644 -1.0546
15859SOL     OW53412   8.180  10.650   7.477  0.4910 -0.0110 -0.0764
15859SOL    HW153413   8.191  10.650   7.572 -0.1061 -0.5778  0.0005
15859SOL    HW253414   8.114  10.583   7.461 -0.6992  1.2518 -0.7277
15860SOL     OW53415   8.415   0.696   5.211 -0.1249 -0.3244 -0.4442
15860SOL    HW153416   8.362   0.745   5.274 -0.3546  0.1598 -1.0033
15860SOL    HW253417   8.430   0.611   5.253  0.5390  0.3152  0.6903
15861SOL     OW53418   0.822   3.775   2.072  0.2732  0.3321 -0.1494
15861SOL    HW153419   0.799   3.848   2.013 -2.5193  1.0526  1.6136
15861SOL    HW253420   0.865   3.817   2.146 -0.3168  0.0560  0.3562
15862SOL     OW53421   0.163   2.982   6.188  0.6247  0.2956  0.2139
15862SOL    HW153422   0.247   2.942   6.206  0.1125 -0.4630  0.9898
15862SOL    HW253423   0.177   3.075   6.202  1.2008  0.1211  0.8340
15863SOL     OW53424   6.145   4.869   1.082 -0.3113 -0.0883  0.4135
15863SOL    HW153425   6.163   4.898   0.992 -0.9564  0.1412  0.3545
15863SOL    HW253426   6.209   4.800   1.098  1.8459  1.8750  0.8375
15864SOL     OW53427   0.636   8.475   6.434  0.1186  0.7300 -0.2165
15864SOL    HW153428   0.721   8.516   6.414  0.9346 -1.3954 -1.4549
15864SOL    HW253429   0.634   8.397   6.379 -2.1601  0.0913  0.6741
15865SOL     OW53430   4.394   3.055   0.439 -0.5276  0.2742 -0.0771
15865SOL    HW153431   4.309   3.012   0.450 -0.2372 -0.1029  0.7891
15865SOL    HW253432   4.409   3.101   0.522  0.9099 -1.1270  0.5085
15866SOL     OW53433   1.798   3.365  10.025  0.7427 -0.5930  0.9320
15866SOL    HW153434   1.869   3.337   9.966 -1.0325  0.8833 -2.1567
15866SOL    HW253435   1.783   3.457  10.002 -1.4126 -0.5438  2.2950
15867SOL     OW53436   9.344   4.801   6.960  0.9712  0.2030  0.1245
15867SOL    HW153437   9.366   4.743   7.034  0.2694  0.8260  0.8288
15867SOL    HW253438   9.328   4.741   6.887  1.3101 -0.4394  0.5683
15868SOL     OW53439   1.696   6.777   8.435  0.2476 -0.0086  0.5745
15868SOL    HW153440   1.778   6.820   8.414 -0.4421  1.0474 -0.0480
15868SOL    HW253441   1.631   6.847   8.434 -0.7426 -0.8990  0.5415
15869SOL     OW53442   3.988   1.068   0.878 -0.3095  0.3150 -0.5734
15869SOL    HW153443   4.008   1.141   0.937 -1.4158  0.4292 -0.3032
15869SOL    HW253444   3.904   1.092   0.839  0.1305 -0.0346 -1.7759
15870SOL     OW53445   5.978   0.109   4.232 -0.4862 -0.0611 -0.1119
15870SOL    HW153446   5.910   0.099   4.298  0.2313 -0.3310  0.6145
15870SOL    HW253447   5.988   0.204   4.221  0.7415  0.0524  1.6484
15871SOL     OW53448   3.282   3.536   9.195 -0.4949 -0.0983  0.6258
15871SOL    HW153449   3.214   3.584   9.148 -0.7827 -0.4667  0.6630
15871SOL    HW253450   3.363   3.556   9.148 -0.6120  0.4336  0.6498
15872SOL     OW53451   6.605   6.776   4.686 -0.4942  0.2346  0.1367
15872SOL    HW153452   6.636   6.798   4.598 -3.0743 -0.8294 -1.1356
15872SOL    HW253453   6.620   6.855   4.737  0.5178  1.0959 -1.4118
15873SOL     OW53454   5.577   9.605  10.355 -0.1798  0.6454 -0.0768
15873SOL    HW153455   5.591   9.545  10.428  0.0747  1.0154  0.1814
15873SOL    HW253456   5.500   9.570  10.309  1.0375 -0.9257 -1.0223
15874SOL     OW53457   8.305   4.253   4.475 -0.3646 -0.2282  0.2671
15874SOL    HW153458   8.384   4.242   4.528  1.9035  2.0925 -2.3304
15874SOL    HW253459   8.285   4.164   4.443  1.4530 -0.8130  0.6559
15875SOL     OW53460   1.738   7.373   0.109  0.2483  0.2575  0.3548
15875SOL    HW153461   1.769   7.296   0.063  2.4914  0.0734  1.9355
15875SOL    HW253462   1.643   7.368   0.106  0.2776 -0.3763 -3.0155
15876SOL     OW53463   3.464   0.878   4.506  0.2532 -0.0675  0.4190
15876SOL    HW153464   3.400   0.810   4.487 -0.0211 -0.2911  1.9671
15876SOL    HW253465   3.450   0.944   4.439 -0.9943 -0.5286  0.1990
15877SOL     OW53466   5.922  10.496   6.761 -0.2736 -0.8471  0.2001
15877SOL    HW153467   5.955  10.585   6.747 -2.6910  0.0748  0.0186
15877SOL    HW253468   5.887  10.470   6.676  0.1286 -1.8913  0.3367
15878SOL     OW53469   2.316   5.617  10.412 -0.1406 -0.5136  0.5199
15878SOL    HW153470   2.284   5.687  10.354 -2.4247 -0.3270  1.8412
15878SOL    HW253471   2.349   5.664  10.489  3.5588 -0.7153 -0.7496
15879SOL     OW53472   9.021   6.234   1.367  0.3915  0.2226 -0.2266
15879SOL    HW153473   9.036   6.274   1.281  1.7968 -1.8327 -1.0553
15879SOL    HW253474   9.109   6.226   1.405 -0.1145  0.2048  0.9786
15880SOL     OW53475   9.023   6.881   8.958  0.1073  0.4106  0.3002
15880SOL    HW153476   9.113   6.910   8.950 -0.1148  0.9946 -0.1751
15880SOL    HW253477   9.024   6.816   9.029  0.6821  1.3210  1.1486
15881SOL     OW53478   1.871   8.373   4.275  0.0090 -0.1258  0.1183
15881SOL    HW153479   1.957   8.331   4.272 -0.5386 -1.3275  0.2685
15881SOL    HW253480   1.837   8.351   4.362 -0.5989  0.0154 -0.0762
15882SOL     OW53481   3.484   4.556   9.855 -0.5327 -0.1696 -0.2369
15882SOL    HW153482   3.429   4.618   9.806 -0.2926  1.0145  0.9199
15882SOL    HW253483   3.573   4.577   9.826 -0.6006 -1.6392 -1.6203
15883SOL     OW53484   1.488   7.508   4.287 -0.4731  0.1853  0.1904
15883SOL    HW153485   1.542   7.469   4.218 -1.1678  0.6557 -0.6314
15883SOL    HW253486   1.413   7.450   4.294 -1.3260  1.1416 -0.7742
15884SOL     OW53487   7.725   4.575   1.568 -0.1374  0.2908 -0.2085
15884SOL    HW153488   7.809   4.547   1.604 -0.5224  0.1681  0.6127
15884SOL    HW253489   7.662   4.508   1.597 -0.4709  0.2028 -1.0868
15885SOL     OW53490   9.931   7.413   1.864  0.0359 -0.4162 -0.1470
15885SOL    HW153491   9.957   7.505   1.872 -0.9636 -0.1185 -0.1394
15885SOL    HW253492   9.912   7.402   1.771  2.0902 -1.1865 -0.5289
15886SOL     OW53493  10.327   3.320   4.344  0.2950  0.0696 -0.5686
15886SOL    HW153494  10.240   3.306   4.306 -0.1165 -0.3207  0.4878
15886SOL    HW253495  10.316   3.302   4.437  1.4788  0.1680 -0.3925
15887SOL     OW53496   7.988   9.876   7.593 -0.3827 -0.5011  0.4346
15887SOL    HW153497   8.011   9.898   7.683 -0.8929 -0.5016  0.5693
15887SOL    HW253498   8.006   9.955   7.543 -1.4714 -0.0119  0.7849
15888SOL     OW53499   8.981   3.322   9.758 -0.3021 -0.1606 -0.2562
15888SOL    HW153500   9.021   3.241   9.727  1.1988  0.3155  0.3610
15888SOL    HW253501   9.046   3.390   9.740 -0.7706  0.6270  0.9017
15889SOL     OW53502   9.267   9.007   4.014  0.2404 -0.1658  0.8119
15889SOL    HW153503   9.268   9.048   3.927  2.3570  1.6584  1.6053
15889SOL    HW253504   9.355   8.972   4.025  0.6476  1.3467  2.9364
15890SOL     OW53505   8.250   5.026   3.065 -0.0876 -0.1635 -0.3540
15890SOL    HW153506   8.252   5.104   3.010  0.5031 -0.4147 -0.6997
15890SOL    HW253507   8.326   4.975   3.037  0.1784 -0.3361  0.6356
15891SOL     OW53508   1.182   1.031   6.080  0.5330  0.4707  0.1092
15891SOL    HW153509   1.231   1.112   6.070  0.2880  0.5829 -0.1923
15891SOL    HW253510   1.165   1.001   5.991  1.1781 -0.2552  0.2191
15892SOL     OW53511   9.078   9.926   8.547 -0.2133  0.1659 -0.2874
15892SOL    HW153512   9.164   9.964   8.565  0.1234 -0.7136  0.0657
15892SOL    HW253513   9.038   9.985   8.483  0.6058  0.6513 -0.3705
15893SOL     OW53514   1.485   4.981   4.725  0.0184 -0.1545  0.4751
15893SOL    HW153515   1.492   4.981   4.821  0.0197  0.9429  0.4905
15893SOL    HW253516   1.563   5.027   4.695 -0.2776  0.0391 -0.0195
15894SOL     OW53517   8.071   9.736   9.993 -0.4146  0.0573  0.4105
15894SOL    HW153518   8.057   9.756  10.086 -1.8228 -1.0834  0.4731
15894SOL    HW253519   8.091   9.642   9.991  0.4416  0.2445 -0.3721
15895SOL     OW53520   7.198   7.132   3.612 -0.3262  0.4633  0.1269
15895SOL    HW153521   7.286   7.101   3.633 -0.8069 -0.5455  0.7163
15895SOL    HW253522   7.207   7.227   3.605  0.8530  0.3443 -0.0624
15896SOL     OW53523   4.348   7.948   7.701  0.3037  0.0162 -0.6282
15896SOL    HW153524   4.400   7.875   7.668  1.3570  0.1781  0.6027
15896SOL    HW253525   4.312   7.916   7.783 -0.6739  0.2882 -0.9435
15897SOL     OW53526   8.554  10.029   7.597  0.5675  0.7882  0.2122
15897SOL    HW153527   8.522   9.959   7.654 -0.1597  0.1527 -0.9327
15897SOL    HW253528   8.639   9.999   7.566  0.3971  0.5462 -0.0277
15898SOL     OW53529   4.521   0.999   2.360 -0.6331 -0.1840  0.2827
15898SOL    HW153530   4.464   1.003   2.437  1.1844 -0.6869  1.7190
15898SOL    HW253531   4.600   1.046   2.387  0.2600 -0.8478 -1.0870
15899SOL     OW53532   5.965   4.457   3.896 -0.3155  0.1749  0.2230
15899SOL    HW153533   6.021   4.528   3.863  0.2115 -0.4336 -0.2062
15899SOL    HW253534   5.898   4.502   3.947  0.3137  0.9462  0.3876
15900SOL     OW53535   6.911   7.014   4.691  0.1835  0.2584  0.1151
15900SOL    HW153536   7.004   7.030   4.677  0.0986  0.6330 -0.0211
15900SOL    HW253537   6.908   6.958   4.768  0.5325  0.0663 -0.0077
15901SOL     OW53538   4.235   6.977  10.449  0.2865  0.0343  0.0066
15901SOL    HW153539   4.252   7.008  10.360  0.1288  0.1339  0.0111
15901SOL    HW253540   4.311   7.007  10.500  0.4585 -0.1693 -0.1289
15902SOL     OW53541   4.116   8.787   3.430  0.1580 -0.1145  0.0801
15902SOL    HW153542   4.111   8.713   3.369  0.4687  0.5635 -0.7820
15902SOL    HW253543   4.048   8.847   3.401  0.0328  0.0392  0.6659
15903SOL     OW53544   6.905   9.359   2.137  0.4680 -0.1213 -0.3863
15903SOL    HW153545   6.829   9.317   2.178  0.0951  1.0383  0.1755
15903SOL    HW253546   6.883   9.452   2.137  2.3519  0.3817  0.7988
15904SOL     OW53547   5.481   8.264   7.488 -0.2017 -0.1083  0.3883
15904SOL    HW153548   5.526   8.252   7.572  0.1880  0.3866  0.2563
15904SOL    HW253549   5.462   8.358   7.484  0.2230 -0.0464 -0.3000
15905SOL     OW53550   0.271  10.235   5.696  0.2839  0.0377 -0.6707
15905SOL    HW153551   0.229  10.163   5.744 -2.3632  0.6019 -1.9037
15905SOL    HW253552   0.317  10.192   5.624  0.1394 -0.5364 -0.4268
15906SOL     OW53553   6.122   7.548   3.353  0.3256 -0.3475  0.2986
15906SOL    HW153554   6.065   7.618   3.385  2.0447  1.3348 -0.1146
15906SOL    HW253555   6.169   7.518   3.431  3.6251  2.9120 -0.1824
15907SOL     OW53556   7.486   6.607   9.310 -0.5067  0.2829 -0.1631
15907SOL    HW153557   7.561   6.548   9.313  0.1084  1.0847  1.1426
15907SOL    HW253558   7.411   6.549   9.299 -0.0483 -0.9059  2.1740
15908SOL     OW53559   2.210   2.108   8.381 -0.6266  0.3015 -0.6039
15908SOL    HW153560   2.293   2.123   8.336  0.9293 -0.2479  1.9172
15908SOL    HW253561   2.199   2.186   8.436  0.7208 -1.5816  2.5848
15909SOL     OW53562   2.774   8.242   5.968 -0.1009  0.1275  0.5769
15909SOL    HW153563   2.844   8.231   6.032 -0.2171  2.2314  1.1371
15909SOL    HW253564   2.694   8.246   6.020 -0.2478  1.3370  0.2945
15910SOL     OW53565   5.785   9.198   1.814 -0.1894 -0.2969  0.2385
15910SOL    HW153566   5.858   9.136   1.819 -0.0096 -0.1424 -0.3966
15910SOL    HW253567   5.825   9.282   1.796 -0.4857 -0.1204  0.4011
15911SOL     OW53568   3.635   1.217   6.428  0.6675  0.1760 -0.0524
15911SOL    HW153569   3.643   1.306   6.462 -2.0986  0.7698 -0.6852
15911SOL    HW253570   3.673   1.161   6.495 -0.2745  1.6429  1.7784
15912SOL     OW53571   1.262   9.282   0.819  0.1767 -0.0418 -0.4218
15912SOL    HW153572   1.208   9.204   0.831 -0.0758  0.0095 -1.1719
15912SOL    HW253573   1.334   9.253   0.764  0.9560 -0.1198  0.6070
15913SOL     OW53574   8.154   4.500   2.587 -0.2729 -0.5002 -0.0680
15913SOL    HW153575   8.239   4.520   2.626  0.3702 -1.7156 -0.7767
15913SOL    HW253576   8.092   4.553   2.636  0.8558  0.1804  0.6687
15914SOL     OW53577   5.008   3.456   1.107 -0.2721 -0.7316  0.6483
15914SOL    HW153578   4.969   3.544   1.111  0.6063 -0.3570  1.1930
15914SOL    HW253579   5.076   3.464   1.040  0.9665 -0.5017  1.8817
15915SOL     OW53580   3.648   3.407   6.860 -0.4038  0.0108  0.3862
15915SOL    HW153581   3.713   3.370   6.920  1.1495  3.0966  0.8434
15915SOL    HW253582   3.694   3.413   6.776 -0.2183  1.6602  0.5653
15916SOL     OW53583   0.280   0.851   9.872  0.4032  0.0204  0.5118
15916SOL    HW153584   0.331   0.928   9.846 -0.8382  0.6955 -0.0093
15916SOL    HW253585   0.190   0.883   9.878 -0.3443 -1.6392 -0.8818
15917SOL     OW53586   5.792   8.621   7.474 -0.6957  0.0523 -0.3047
15917SOL    HW153587   5.759   8.531   7.483  0.8323 -0.4792  0.2504
15917SOL    HW253588   5.839   8.637   7.555 -0.0207  0.9647 -0.8679
15918SOL     OW53589   8.637   1.310   2.828  0.3255 -0.4694  0.1787
15918SOL    HW153590   8.548   1.286   2.804  0.1086 -0.8495  1.3207
15918SOL    HW253591   8.686   1.228   2.823  0.4425 -0.4084  0.3116
15919SOL     OW53592   9.174   0.875   8.622 -0.2761 -0.8310  0.4476
15919SOL    HW153593   9.224   0.804   8.582 -0.5576 -1.1916  0.7357
15919SOL    HW253594   9.232   0.909   8.690 -0.3768 -1.1836  0.7137
15920SOL     OW53595   6.307   0.133   4.514  0.4483 -0.4721 -0.2392
15920SOL    HW153596   6.386   0.186   4.525  0.4614 -0.5926  0.2548
15920SOL    HW253597   6.274   0.159   4.428  0.6852  0.0304 -0.1871
15921SOL     OW53598   1.209   6.346   3.557  0.4392 -0.1526 -0.0102
15921SOL    HW153599   1.119   6.368   3.583  0.7193  1.9017 -0.6018
15921SOL    HW253600   1.253   6.325   3.639 -0.1754  0.4535  0.4895
15922SOL     OW53601   3.669  10.261   4.230 -0.1235 -0.7512  0.2339
15922SOL    HW153602   3.598  10.322   4.210  1.5085  0.0653 -4.3734
15922SOL    HW253603   3.748  10.315   4.227  1.1975 -2.6131 -1.8130
15923SOL     OW53604   3.676   9.588   2.760 -0.3426  0.1469 -0.4082
15923SOL    HW153605   3.613   9.541   2.814  0.3308 -1.4924 -0.9829
15923SOL    HW253606   3.730   9.520   2.720  1.9245  1.4658  0.1881
15924SOL     OW53607   8.069   0.926  10.717 -0.1501 -0.5579 -0.5124
15924SOL    HW153608   8.109   0.944  10.631 -1.4975  0.7684 -0.9063
15924SOL    HW253609   8.016   0.848  10.702  0.9689 -1.3733 -0.3988
15925SOL     OW53610  10.079   5.099   2.642  0.0124  0.3774 -0.1622
15925SOL    HW153611  10.105   5.189   2.660 -1.9041  0.5770  1.9708
15925SOL    HW253612  10.162   5.052   2.632  1.0791  2.0216  0.5127
15926SOL     OW53613   7.413  10.629   1.500 -0.4435 -0.3424 -0.0180
15926SOL    HW153614   7.344  10.575   1.540  0.3122 -1.6587 -0.4273
15926SOL    HW253615   7.372  10.665   1.421 -0.1384 -2.7736 -1.4076
15927SOL     OW53616   2.976   3.530   7.792  0.0920 -0.3314  0.5358
15927SOL    HW153617   2.899   3.586   7.789  0.1888 -0.2095  0.3015
15927SOL    HW253618   3.001   3.518   7.700  0.7364  0.1713  0.6316
15928SOL     OW53619   3.068   6.679   4.740 -0.9383 -0.1816  0.1128
15928SOL    HW153620   2.983   6.654   4.776 -1.1817  1.2084  0.5891
15928SOL    HW253621   3.130   6.618   4.779 -1.7850 -1.6893 -0.8121
15929SOL     OW53622  10.589  10.623   4.061  0.1853 -0.0384  0.3969
15929SOL    HW153623  10.673  10.578   4.070  0.6989  0.2388 -2.2096
15929SOL    HW253624  10.612  10.716   4.067  0.2810  0.0792 -1.4072
15930SOL     OW53625   0.262   4.735   9.316  0.3009  0.0108  0.5558
15930SOL    HW153626   0.190   4.682   9.351  0.5720  0.0155  1.1387
15930SOL    HW253627   0.341   4.687   9.342  0.5030 -1.0982 -1.8398
15931SOL     OW53628   6.885   4.963   6.773  0.4400  0.7792 -0.2940
15931SOL    HW153629   6.961   5.021   6.770 -0.0784  1.5388  0.6450
15931SOL    HW253630   6.850   4.964   6.683  1.0207  1.1232 -0.5189
15932SOL     OW53631   4.187   6.943   0.608  0.2698  0.6247  0.0987
15932SOL    HW153632   4.244   6.894   0.548 -1.4224 -0.5872 -0.5837
15932SOL    HW253633   4.188   6.891   0.688  1.9838  1.8861  0.9681
15933SOL     OW53634   4.618  10.577   3.286  0.7111 -0.0683 -0.1171
15933SOL    HW153635   4.574  10.626   3.356 -0.0264 -0.0154 -0.6039
15933SOL    HW253636   4.591  10.486   3.301  0.1204  0.0126 -0.6304
15934SOL     OW53637   3.607   6.933   8.445  0.1366 -0.4190  0.4384
15934SOL    HW153638   3.558   7.015   8.449 -0.0786 -0.5699  1.1578
15934SOL    HW253639   3.664   6.943   8.369  2.1932  1.6079  2.0941
15935SOL     OW53640   5.124   6.713  10.272  0.8336 -0.2412  0.0292
15935SOL    HW153641   5.113   6.693  10.179 -0.4748  1.0574 -0.1282
15935SOL    HW253642   5.137   6.627  10.313 -0.8627 -1.0851 -1.0810
15936SOL     OW53643   7.355   1.808   0.871 -0.3584 -0.0816  0.1358
15936SOL    HW153644   7.358   1.747   0.945  0.0717  0.9627  0.9955
15936SOL    HW253645   7.423   1.872   0.889  0.0678 -0.0597 -1.4066
15937SOL     OW53646   4.965   0.154   3.803 -0.7756 -0.8825 -0.0131
15937SOL    HW153647   5.060   0.158   3.794 -0.9562  1.5303 -1.6381
15937SOL    HW253648   4.938   0.083   3.745 -0.1466  0.2833 -1.8046
15938SOL     OW53649   8.740   7.920   1.011 -0.5910  0.2927  0.6533
15938SOL    HW153650   8.669   7.940   1.072 -0.6434 -0.7916  0.9524
15938SOL    HW253651   8.718   7.971   0.932  0.6038  3.4778  2.1776
15939SOL     OW53652   7.441   1.638   0.068  0.1639  0.3239 -0.4027
15939SOL    HW153653   7.365   1.589   0.100  0.6684  0.1687  0.6100
15939SOL    HW253654   7.513   1.575   0.070  0.5247  0.7287 -0.4190
15940SOL     OW53655   9.783   6.545   0.717 -0.5033  0.1760  0.7311
15940SOL    HW153656   9.800   6.577   0.629 -0.2428 -0.7210  0.4435
15940SOL    HW253657   9.834   6.602   0.774 -0.8946  0.9446  0.3383
15941SOL     OW53658  10.224   9.911   9.057 -0.3501  0.2009 -0.1309
15941SOL    HW153659  10.306   9.862   9.044 -0.1072  0.0413  1.8252
15941SOL    HW253660  10.180   9.905   8.972  0.9968 -0.9482 -0.7947
15942SOL     OW53661   3.761   0.165   4.585  0.4590  0.1416 -0.2695
15942SOL    HW153662   3.821   0.213   4.529  0.3361  0.8424  0.1979
15942SOL    HW253663   3.799   0.077   4.592  0.9551  0.3218 -0.6956
15943SOL     OW53664   3.801   5.309   3.917 -0.1972 -0.4527 -0.0599
15943SOL    HW153665   3.728   5.370   3.921  1.8098  2.0160  1.5484
15943SOL    HW253666   3.768   5.236   3.865 -2.8982  1.7425 -1.6813
15944SOL     OW53667   5.283   8.356   0.257 -0.2277 -0.3632 -0.0552
15944SOL    HW153668   5.220   8.429   0.255 -0.1272 -0.2927 -1.8303
15944SOL    HW253669   5.247   8.292   0.196  2.1237  0.3003 -2.2837
15945SOL     OW53670   9.103   1.190   7.857  0.0478  0.0239  0.9687
15945SOL    HW153671   9.032   1.197   7.921 -1.3356 -0.7971 -0.4001
15945SOL    HW253672   9.138   1.101   7.870 -0.3836 -0.2274  0.4780
15946SOL     OW53673   4.658   9.868   5.395  0.1402 -0.4138 -0.0632
15946SOL    HW153674   4.634   9.870   5.303  3.0254 -0.9240 -0.9363
15946SOL    HW253675   4.734   9.927   5.401 -1.3814  1.5152  2.5254
15947SOL     OW53676   7.234   8.419   1.400 -0.2150  0.0871 -0.4749
15947SOL    HW153677   7.291   8.431   1.325  1.5457 -0.0151  0.7800
15947SOL    HW253678   7.243   8.500   1.451 -0.6132 -0.2227  0.1021
15948SOL     OW53679   5.978   3.153   9.749  0.4205 -0.2715  0.1582
15948SOL    HW153680   6.057   3.174   9.699  0.0390 -0.7319 -0.6540
15948SOL    HW253681   5.954   3.065   9.720 -1.8500  0.8253 -1.5923
15949SOL     OW53682   9.100   4.611   1.492  0.2036 -0.0726 -0.3040
15949SOL    HW153683   9.172   4.672   1.478 -0.1707  0.4882  0.1359
15949SOL    HW253684   9.074   4.584   1.404  1.0188 -0.3756 -0.4623
15950SOL     OW53685   8.154   1.972   0.286 -0.5080 -0.0754  0.2841
15950SOL    HW153686   8.120   1.954   0.198 -0.4697  0.9294  0.0455
15950SOL    HW253687   8.171   2.067   0.286 -1.5166  0.1442  1.7151
15951SOL     OW53688   4.568   9.620   2.366  0.1367 -0.3407 -0.4045
15951SOL    HW153689   4.495   9.628   2.427 -0.2334 -0.3318 -0.8429
15951SOL    HW253690   4.532   9.572   2.291  0.7061 -0.7577 -0.4214
15952SOL     OW53691  10.459   7.938   1.266  0.5252  0.1051 -0.1316
15952SOL    HW153692  10.452   7.843   1.271  0.4206  0.1501  0.8600
15952SOL    HW253693  10.385   7.970   1.318 -1.4745  0.7951 -3.1644
15953SOL     OW53694   6.615  10.526   2.641 -0.2878 -0.4851  0.2856
15953SOL    HW153695   6.700  10.492   2.670 -0.5482  0.0078  1.7051
15953SOL    HW253696   6.633  10.617   2.618 -0.3803 -0.4397  0.3905
15954SOL     OW53697   0.138   3.800   9.610 -0.3710 -0.2339 -0.2024
15954SOL    HW153698   0.208   3.856   9.575  0.8839 -1.0061  0.9493
15954SOL    HW253699   0.060   3.824   9.560  0.5752  1.1187 -1.0922
15955SOL     OW53700  10.587   4.993   9.826  0.7335  0.3313  0.2413
15955SOL    HW153701  10.577   5.072   9.879 -1.5898  0.4507 -0.2523
15955SOL    HW253702  10.640   5.021   9.751  1.5984  0.8892  1.0408
15956SOL     OW53703   1.812   4.938   1.251  0.5087 -0.4754  0.2893
15956SOL    HW153704   1.756   5.014   1.265 -0.4432 -0.8587 -1.1625
15956SOL    HW253705   1.898   4.965   1.283 -0.0082  0.9015  0.5830
15957SOL     OW53706   1.071   4.425   4.314 -0.1087 -0.5670  0.6261
15957SOL    HW153707   1.166   4.429   4.311 -0.1249 -0.8319 -0.2849
15957SOL    HW253708   1.050   4.424   4.408  0.8263 -1.6476  0.8355
15958SOL     OW53709   6.407  10.071   3.781  0.2691  0.3246 -0.0834
15958SOL    HW153710   6.423  10.034   3.868 -0.5287 -0.1843 -0.1414
15958SOL    HW253711   6.490  10.111   3.756  0.8118 -0.4129  0.4901
15959SOL     OW53712   2.611   8.266   3.858  0.1734 -0.4822  0.5798
15959SOL    HW153713   2.571   8.353   3.857  1.2778  0.0408  0.2683
15959SOL    HW253714   2.641   8.255   3.949  3.0329  0.9308 -0.0775
15960SOL     OW53715   3.799   5.439   6.831  0.0764 -0.4741 -0.3218
15960SOL    HW153716   3.781   5.358   6.784  1.0502 -0.1973 -1.1936
15960SOL    HW253717   3.865   5.414   6.897  0.0684 -0.4754 -0.3143
15961SOL     OW53718   6.120   5.363   3.749 -0.5515  0.7585 -0.1503
15961SOL    HW153719   6.139   5.401   3.663  1.5804 -0.1322 -0.1267
15961SOL    HW253720   6.203   5.371   3.797 -1.0436 -0.8304  1.0167
15962SOL     OW53721   4.310   3.601   2.281 -0.5942  0.0161  0.0280
15962SOL    HW153722   4.289   3.601   2.188 -1.7674 -2.1381  0.2290
15962SOL    HW253723   4.403   3.626   2.285 -0.3403 -0.5046 -1.7624
15963SOL     OW53724   6.922   6.700   1.971 -0.0340 -0.0069 -0.4477
15963SOL    HW153725   6.969   6.704   2.055 -0.6444  1.3043 -0.1544
15963SOL    HW253726   6.832   6.680   1.996  0.1902 -1.9099 -0.9736
15964SOL     OW53727  10.544   2.262   1.925 -0.1193 -1.1446  0.0994
15964SOL    HW153728  10.526   2.344   1.971  0.5040 -0.1253 -1.3798
15964SOL    HW253729  10.580   2.204   1.992  2.2885  0.7879  0.6394
15965SOL     OW53730   9.801   7.700   3.539 -0.0776 -0.5439 -0.5502
15965SOL    HW153731   9.807   7.614   3.499 -0.2114 -0.5791 -0.4929
15965SOL    HW253732   9.868   7.752   3.493  0.6448 -0.9264  0.0506
15966SOL     OW53733   4.301   5.123   4.847 -0.0027  0.6717 -0.1736
15966SOL    HW153734   4.368   5.170   4.896 -0.4444 -1.3172  2.6297
15966SOL    HW253735   4.349   5.071   4.783  1.0370  0.4051  0.7885
15967SOL     OW53736   6.491   3.390   1.357  0.2494  0.2966  0.4301
15967SOL    HW153737   6.538   3.455   1.410 -0.7611  0.5059  1.0903
15967SOL    HW253738   6.487   3.312   1.412  4.2920 -1.5959 -1.4916
15968SOL     OW53739   4.661   0.880   8.219  0.1570  0.3987  0.1527
15968SOL    HW153740   4.602   0.943   8.260 -1.6601 -2.2356  1.9603
15968SOL    HW253741   4.610   0.841   8.149  0.8245  0.1154 -0.1849
15969SOL     OW53742   2.998   3.686   5.966 -0.8604 -0.0778  0.0641
15969SOL    HW153743   3.019   3.601   6.003  1.1954  0.5300  0.4064
15969SOL    HW253744   2.938   3.667   5.893  0.0874 -1.8657 -0.2765
15970SOL     OW53745   0.832   6.515   9.644  0.0733  0.1078 -0.2537
15970SOL    HW153746   0.774   6.591   9.650 -1.4119 -0.9680 -0.2387
15970SOL    HW253747   0.888   6.521   9.721  1.1920  2.0761 -1.1342
15971SOL     OW53748   6.710   8.156   4.789  0.6592  0.1805 -0.3687
15971SOL    HW153749   6.756   8.157   4.705 -0.7911 -0.3621 -1.2147
15971SOL    HW253750   6.624   8.194   4.769  0.6333  0.9516  1.1010
15972SOL     OW53751   7.742  10.374   2.360  0.1543 -0.6723  0.5252
15972SOL    HW153752   7.683  10.447   2.377  0.9012 -0.1213  0.8135
15972SOL    HW253753   7.763  10.339   2.447  0.9964 -0.2582  0.4975
15973SOL     OW53754   6.789   5.919   5.096 -0.8272  0.5468 -0.0087
15973SOL    HW153755   6.877   5.954   5.104 -0.8050  0.9633 -1.6312
15973SOL    HW253756   6.801   5.833   5.056 -1.1886  1.0666 -1.2967
15974SOL     OW53757  10.690   7.093   9.658  0.4356  0.2392 -0.8469
15974SOL    HW153758  10.601   7.109   9.691  0.5510  1.0915 -0.9168
15974SOL    HW253759  10.704   7.162   9.593  1.3577  0.4657 -0.4235
15975SOL     OW53760   0.192   1.073   1.725 -0.0357  0.3660 -0.4859
15975SOL    HW153761   0.253   1.129   1.772  1.9476 -1.0340 -1.2444
15975SOL    HW253762   0.166   1.124   1.648 -1.0878  1.5614  0.6188
15976SOL     OW53763   1.666   3.659   4.123 -0.1986  0.5375  0.0873
15976SOL    HW153764   1.748   3.612   4.142 -0.3193  0.2434 -0.1210
15976SOL    HW253765   1.649   3.641   4.031 -0.7234  0.2574  0.2371
15977SOL     OW53766   8.410   8.412   0.164 -0.6967  0.6739  0.3945
15977SOL    HW153767   8.455   8.342   0.117 -0.9945  0.8153 -0.1050
15977SOL    HW253768   8.474   8.483   0.169 -0.9770  1.0060 -0.6237
15978SOL     OW53769   4.712   2.693   8.842  0.3770  0.4871  0.0299
15978SOL    HW153770   4.725   2.712   8.935  2.5192 -0.7799  0.0608
15978SOL    HW253771   4.649   2.622   8.841 -2.6369  2.9584  0.2280
15979SOL     OW53772   1.615   2.861   4.455 -0.3085  1.0065 -0.2740
15979SOL    HW153773   1.572   2.878   4.371 -0.6047  2.4384  0.1361
15979SOL    HW253774   1.570   2.919   4.517  2.6413  3.1407  0.0672
15980SOL     OW53775   9.461   7.812   0.779  0.3421  0.6870 -0.4385
15980SOL    HW153776   9.365   7.816   0.779  0.3100  0.1031  0.0943
15980SOL    HW253777   9.488   7.880   0.840  0.1356 -1.0700  1.7412
15981SOL     OW53778   2.136   7.100   1.460 -0.0510  0.1738  0.5211
15981SOL    HW153779   2.159   7.141   1.377 -0.5427  0.9105  0.7301
15981SOL    HW253780   2.042   7.118   1.471 -0.2746 -0.9733  0.6576
15982SOL     OW53781   2.845   8.949  10.082  1.1506 -0.5350  0.2981
15982SOL    HW153782   2.780   8.950  10.152  1.2276  0.3872  0.3749
15982SOL    HW253783   2.883   9.037  10.084  0.2411 -0.0403 -1.7613
15983SOL     OW53784   1.569   8.448   4.411 -0.4727  0.3208 -0.3570
15983SOL    HW153785   1.498   8.455   4.348 -1.5093  0.6320  0.8083
15983SOL    HW253786   1.566   8.357   4.441 -1.8830  0.8819  1.3471
15984SOL     OW53787   9.379   4.115   9.861 -0.5958  0.4471 -0.0000
15984SOL    HW153788   9.427   4.048   9.910 -1.1207  0.9018  1.1958
15984SOL    HW253789   9.288   4.105   9.891 -0.3711  3.0736  1.9454
15985SOL     OW53790   4.530   1.954   3.117  0.0280  0.6250  0.5573
15985SOL    HW153791   4.624   1.972   3.111  0.6258 -2.2286 -1.1103
15985SOL    HW253792   4.488   2.036   3.093  2.0791  2.0324  1.5181
15986SOL     OW53793   8.633   9.892   8.490 -0.1800  0.6201 -0.4214
15986SOL    HW153794   8.552   9.841   8.494 -0.6018  1.2604 -0.6985
15986SOL    HW253795   8.696   9.833   8.449 -0.0877 -0.3983  1.0919
15987SOL     OW53796   5.068   3.268   5.165 -0.1142  0.1883  0.0062
15987SOL    HW153797   5.022   3.349   5.187  1.0163  0.3316  2.0094
15987SOL    HW253798   5.144   3.297   5.115  0.1476  0.3486  0.4926
15988SOL     OW53799   3.485   0.500   5.993  0.0163 -0.2643  0.5156
15988SOL    HW153800   3.507   0.583   6.036 -1.0119  0.7887 -0.9012
15988SOL    HW253801   3.406   0.469   6.037  0.4133 -0.5159  1.0589
15989SOL     OW53802   0.931   0.310   0.737 -0.3582 -0.5640 -0.1709
15989SOL    HW153803   0.891   0.382   0.787 -0.1779 -1.2515  0.9848
15989SOL    HW253804   0.959   0.351   0.656 -0.2111  0.6928  0.4876
15990SOL     OW53805   4.948   2.502   1.300 -0.2903 -0.3119 -0.7863
15990SOL    HW153806   4.930   2.595   1.290  1.5404  0.0058 -1.3563
15990SOL    HW253807   4.945   2.487   1.395  0.5977  0.5958 -0.6003
15991SOL     OW53808   3.801   8.044   6.451  0.0832 -0.2444  0.2470
15991SOL    HW153809   3.806   7.951   6.429 -3.2303 -0.3742 -0.4745
15991SOL    HW253810   3.783   8.045   6.545  2.4478 -0.1782  0.7406
15992SOL     OW53811   1.285  10.392   9.641 -0.2269  0.4361 -0.0956
15992SOL    HW153812   1.216  10.336   9.604 -1.3025  1.8864 -0.3620
15992SOL    HW253813   1.329  10.336   9.705 -0.3546 -1.1450 -1.3371
15993SOL     OW53814   5.305   7.769   1.080 -0.4554 -0.3607 -0.1316
15993SOL    HW153815   5.398   7.777   1.103 -0.7698  1.3742  0.6931
15993SOL    HW253816   5.260   7.824   1.144 -1.4724  4.2788 -4.2205
15994SOL     OW53817  10.187   0.907   7.138 -0.2479 -0.0255  0.3315
15994SOL    HW153818  10.126   0.978   7.121  2.6997  2.5641 -0.2972
15994SOL    HW253819  10.228   0.889   7.053  2.7915  1.3606  1.3500
15995SOL     OW53820  10.445   9.700   9.042 -0.7895 -0.5885  0.2550
15995SOL    HW153821  10.490   9.710   9.126 -0.6311 -2.2391  0.3997
15995SOL    HW253822  10.407   9.612   9.045 -1.6577 -0.2867 -0.9965
15996SOL     OW53823   4.037   8.236   9.895  0.1409  0.8559  0.8218
15996SOL    HW153824   4.060   8.295   9.967  1.1153  0.9346  0.4700
15996SOL    HW253825   4.105   8.252   9.829 -0.3554  0.3060  0.1635
15997SOL     OW53826   6.662   2.428   4.625 -0.4984 -0.6575  0.1471
15997SOL    HW153827   6.660   2.428   4.720 -1.6667 -1.2021  0.1367
15997SOL    HW253828   6.608   2.353   4.599 -0.9624  0.0229 -0.9514
15998SOL     OW53829   1.629   0.686   1.124 -0.0589  0.2000 -0.9013
15998SOL    HW153830   1.707   0.663   1.174  0.1273  0.7646 -0.9307
15998SOL    HW253831   1.604   0.605   1.080  0.5447  0.0314 -0.9363
15999SOL     OW53832   8.564   0.006   9.647  0.2596 -0.1955 -0.7095
15999SOL    HW153833   8.611   0.078   9.689  0.8545 -0.7450 -0.4199
15999SOL    HW253834   8.481   0.001   9.695  0.8974 -0.7674  0.3853
16000SOL     OW53835   2.577   9.040   4.480  0.0523  0.2503 -0.4593
16000SOL    HW153836   2.649   9.071   4.425 -0.2762  1.9286 -0.0174
16000SOL    HW253837   2.521   8.991   4.421  1.5840 -1.1922 -0.7971
16001SOL     OW53838   6.476   1.080   1.159 -0.1084 -0.3808  0.9101
16001SOL    HW153839   6.423   1.116   1.230 -0.3421 -0.5494  0.8241
16001SOL    HW253840   6.423   1.093   1.081 -0.8570 -2.1991  1.0619
16002SOL     OW53841   1.522   3.219   4.835  0.0765  0.4340 -0.3561
16002SOL    HW153842   1.458   3.211   4.906  2.1373 -1.6488  1.4178
16002SOL    HW253843   1.561   3.306   4.849 -0.1120  0.3859  0.5581
16003SOL     OW53844   9.749   9.778   8.799 -0.2285  1.0452  0.3788
16003SOL    HW153845   9.837   9.753   8.773 -0.2768  0.9608  0.2919
16003SOL    HW253846   9.755   9.795   8.893 -0.0587  1.3186  0.3186
16004SOL     OW53847   5.970   9.201   7.713 -0.3386 -0.4776 -0.0437
16004SOL    HW153848   6.011   9.263   7.774 -0.8927  0.6396 -0.7686
16004SOL    HW253849   6.022   9.208   7.633 -1.4754  0.4017 -0.7232
16005SOL     OW53850   8.807   7.217   0.311  0.0286 -0.4659 -0.2497
16005SOL    HW153851   8.750   7.250   0.242 -2.1429 -2.0423  0.6834
16005SOL    HW253852   8.793   7.277   0.385 -0.1131 -0.6074 -0.1599
16006SOL     OW53853   7.467   7.783   3.174 -0.2210  0.4351 -0.1237
16006SOL    HW153854   7.562   7.769   3.175 -0.1747  0.1592  3.3357
16006SOL    HW253855   7.429   7.696   3.181 -0.6032  0.7047  1.3875
16007SOL     OW53856   7.840   5.493   2.360  0.2095 -0.5267 -0.3772
16007SOL    HW153857   7.776   5.425   2.376  0.7941 -0.5576  2.4577
16007SOL    HW253858   7.880   5.509   2.446  1.8822  1.5857 -1.4355
16008SOL     OW53859   4.010   6.739   7.422 -0.6386 -0.3010 -0.4090
16008SOL    HW153860   4.059   6.792   7.485  1.2672 -2.0470 -0.2830
16008SOL    HW253861   3.974   6.802   7.360  1.9564  1.1628 -0.5807
16009SOL     OW53862   2.624   7.905   2.947  0.6440 -0.0078  0.0295
16009SOL    HW153863   2.710   7.919   2.986 -0.3484  1.9940  1.7018
16009SOL    HW253864   2.573   7.982   2.973 -1.6512 -1.1112 -0.9167
16010SOL     OW53865   0.588   7.040   1.418 -0.4739 -0.1671  0.0240
16010SOL    HW153866   0.559   7.025   1.328 -1.3846  0.2901  0.2216
16010SOL    HW253867   0.673   7.082   1.410  0.4379 -2.0201 -0.5833
16011SOL     OW53868   6.735   5.952   1.467 -0.5409  0.1580 -0.0225
16011SOL    HW153869   6.792   6.028   1.458 -0.2716 -0.1305 -0.7546
16011SOL    HW253870   6.716   5.948   1.561  2.0617 -0.7693  0.5347
16012SOL     OW53871   1.905   2.614   3.330  0.0365  0.0187  0.1934
16012SOL    HW153872   1.894   2.698   3.375 -1.3760 -0.1753  0.2588
16012SOL    HW253873   1.851   2.553   3.381  1.2794 -1.0043  0.3218
16013SOL     OW53874   6.516   9.568   4.569 -0.1187 -0.5323  0.0692
16013SOL    HW153875   6.479   9.657   4.565  0.9883 -0.0411  0.2751
16013SOL    HW253876   6.512   9.537   4.479  3.0989  1.3101 -0.8864
16014SOL     OW53877   6.282   5.684   4.518  0.2721  0.4670 -0.8417
16014SOL    HW153878   6.244   5.760   4.562  0.7643 -0.3288  1.0326
16014SOL    HW253879   6.210   5.621   4.513  0.2217  0.5492 -1.1867
16015SOL     OW53880   8.977   6.145   0.821 -0.4123 -0.2781 -0.2259
16015SOL    HW153881   8.965   6.081   0.891  1.9454 -0.9541 -0.3366
16015SOL    HW253882   9.018   6.095   0.750  0.5245  1.1007 -0.7084
16016SOL     OW53883   5.202   9.715   8.331  0.4262  0.1470  0.4014
16016SOL    HW153884   5.205   9.712   8.235  1.3347  1.5104  0.3461
16016SOL    HW253885   5.231   9.804   8.353  3.0063 -0.9415  2.0199
16017SOL     OW53886   9.628  10.262   0.756 -0.3420  0.1394 -0.2226
16017SOL    HW153887   9.532  10.270   0.755 -0.4070 -0.0157  1.4168
16017SOL    HW253888   9.645  10.175   0.721 -1.0949 -1.3570  2.8101
16018SOL     OW53889   7.776   4.751   7.818  0.4075 -0.5762 -0.0305
16018SOL    HW153890   7.697   4.799   7.795  1.3128  1.9312  1.6026
16018SOL    HW253891   7.841   4.820   7.838  3.0015 -2.5099 -1.2587
16019SOL     OW53892   3.288   9.612   6.342 -0.1882  0.2457  0.2745
16019SOL    HW153893   3.302   9.674   6.270  0.4337  0.8786  0.9178
16019SOL    HW253894   3.223   9.654   6.398 -0.1548  0.0729  0.4443
16020SOL     OW53895   6.002  10.316   3.167 -0.1093  0.1728 -0.0321
16020SOL    HW153896   5.958  10.277   3.243 -0.8001 -2.1219 -1.5095
16020SOL    HW253897   5.962  10.402   3.159 -1.6474 -0.4012  0.9254
16021SOL     OW53898   7.332   5.887  10.657 -0.4718 -0.0900 -0.3565
16021SOL    HW153899   7.335   5.982  10.651  0.8670 -0.1693 -1.2258
16021SOL    HW253900   7.328   5.857  10.566  0.8619 -0.8882 -0.1801
16022SOL     OW53901   7.399   8.389   5.686  0.1643 -0.4524 -0.7903
16022SOL    HW153902   7.349   8.342   5.619  0.2362 -1.7009  0.0070
16022SOL    HW253903   7.368   8.354   5.769  1.7999 -0.7016 -0.2454
16023SOL     OW53904   6.756   6.460   3.562  0.4824 -0.1116  0.3354
16023SOL    HW153905   6.749   6.544   3.607  0.5619  0.1106 -0.0645
16023SOL    HW253906   6.665   6.434   3.548  0.4360 -0.8804  1.9014
16024SOL     OW53907   1.436   2.665   1.254 -0.4278 -0.0836  0.1844
16024SOL    HW153908   1.506   2.600   1.256  0.4391  0.6521 -2.3315
16024SOL    HW253909   1.472   2.742   1.299  0.3892  0.2393 -0.9672
16025SOL     OW53910   9.895  10.345   6.698 -0.1022  0.0966  0.3739
16025SOL    HW153911   9.851  10.264   6.725 -0.3552  0.2501  0.4238
16025SOL    HW253912   9.976  10.347   6.748 -0.5939  0.4138  1.1701
16026SOL     OW53913  10.056   9.872   4.919  0.1067  1.0655 -0.1629
16026SOL    HW153914  10.117   9.938   4.887  0.9517 -0.6172 -2.2587
16026SOL    HW253915   9.974   9.920   4.934  0.7507  2.6234 -1.4053
16027SOL     OW53916   0.194   4.734   6.940 -0.1610 -0.0239 -0.1546
16027SOL    HW153917   0.166   4.815   6.984  1.1009 -0.2171  1.1043
16027SOL    HW253918   0.261   4.762   6.878 -0.3223 -0.0036 -0.3184
16028SOL     OW53919   9.364   7.431   8.803  0.2675  0.4804 -0.0481
16028SOL    HW153920   9.390   7.467   8.718 -1.5086  1.0761 -0.3917
16028SOL    HW253921   9.277   7.395   8.788  0.2450 -0.1119  1.3474
16029SOL     OW53922   8.828   2.856   3.707  0.0215  0.2591 -0.1543
16029SOL    HW153923   8.876   2.924   3.754 -0.6397  0.4921  0.1938
16029SOL    HW253924   8.847   2.872   3.615  1.4478 -0.2852  0.0130
16030SOL     OW53925   6.400   3.593   3.183  0.3445 -0.3674  0.5206
16030SOL    HW153926   6.349   3.543   3.246 -0.2127  0.4458  0.7240
16030SOL    HW253927   6.340   3.608   3.110  0.7962 -0.7697  0.0444
16031SOL     OW53928   5.917   1.526   0.408 -0.2094 -0.5868  0.0806
16031SOL    HW153929   5.974   1.557   0.478  1.3920 -1.5328 -0.7438
16031SOL    HW253930   5.845   1.589   0.405  1.5742  1.5689  0.1490
16032SOL     OW53931   8.759   6.252   4.324 -0.6103 -0.2157 -0.0714
16032SOL    HW153932   8.678   6.274   4.277  0.3728  1.5641 -1.0781
16032SOL    HW253933   8.809   6.198   4.262 -0.0692  0.6452 -0.4104
16033SOL     OW53934   1.521   4.048   4.495  0.2999  0.2373 -0.0325
16033SOL    HW153935   1.549   4.095   4.573  3.0397 -1.0233 -0.1492
16033SOL    HW253936   1.531   3.956   4.518 -2.0158 -0.2755 -0.8252
16034SOL     OW53937   4.459   6.786   8.302 -0.5137  0.2827 -0.2399
16034SOL    HW153938   4.548   6.781   8.339 -0.8694 -2.2637  0.4737
16034SOL    HW253939   4.473   6.798   8.208  0.6587 -0.9026 -0.2542
16035SOL     OW53940  10.626   8.722   0.015  0.5052  0.6532 -0.2460
16035SOL    HW153941  10.579   8.719  -0.068 -1.0739  0.3900  0.6345
16035SOL    HW253942  10.689   8.650   0.009  0.1806  0.4301 -1.0869
16036SOL     OW53943   6.056   0.818   7.153  0.0407 -0.1462 -0.5569
16036SOL    HW153944   6.000   0.760   7.102  1.2856 -3.4562  1.5122
16036SOL    HW253945   6.116   0.856   7.089 -0.1067 -2.0711 -1.9302
16037SOL     OW53946   6.023   0.885   0.409 -0.0324 -0.1525  0.3014
16037SOL    HW153947   6.056   0.883   0.499 -1.5039  1.7340  0.9595
16037SOL    HW253948   6.088   0.837   0.358  3.2541  2.4798  1.6312
16038SOL     OW53949   2.562   3.639   5.790 -0.1125 -0.3694 -0.3580
16038SOL    HW153950   2.546   3.658   5.697 -1.5487 -0.9001 -0.2289
16038SOL    HW253951   2.479   3.659   5.833  0.5318 -0.1741  0.8185
16039SOL     OW53952   7.126   9.223   4.854  0.5774 -0.3624 -0.8615
16039SOL    HW153953   7.195   9.159   4.837 -0.8060 -2.7106  1.6128
16039SOL    HW253954   7.046   9.182   4.820 -0.4150 -0.2741  1.2052
16040SOL     OW53955   5.548   1.616   9.599  0.4136  0.1724  0.2738
16040SOL    HW153956   5.461   1.647   9.624  0.5232  0.7667 -0.0632
16040SOL    HW253957   5.570   1.551   9.665 -0.5106 -0.3779  0.0613
16041SOL     OW53958   5.372   7.114   4.391 -0.5920 -0.5471 -0.3273
16041SOL    HW153959   5.342   7.091   4.303 -0.4628 -2.0585 -0.0007
16041SOL    HW253960   5.341   7.042   4.446 -0.3837  0.2142  0.8173
16042SOL     OW53961   4.746   2.101   3.072 -0.5976  0.0574 -0.7385
16042SOL    HW153962   4.795   2.117   2.991  0.0520  2.5380  0.0609
16042SOL    HW253963   4.812   2.066   3.132 -0.1347  1.7909 -0.1822
16043SOL     OW53964   6.870   8.471   8.424 -0.1174  0.2717  0.0263
16043SOL    HW153965   6.806   8.521   8.475 -0.1018  0.2691  0.0481
16043SOL    HW253966   6.843   8.481   8.333  1.0008  1.9363 -0.1627
16044SOL     OW53967   6.895   8.961   5.102 -0.8633 -0.0354  0.3975
16044SOL    HW153968   6.952   9.027   5.062 -0.7020 -0.3171  0.1537
16044SOL    HW253969   6.945   8.879   5.097 -0.9925 -0.1466  0.8482
16045SOL     OW53970   9.401   8.400   7.608  0.3596  0.1359  0.6066
16045SOL    HW153971   9.329   8.462   7.622 -0.2055 -0.7915  2.1067
16045SOL    HW253972   9.428   8.375   7.697  2.5611  0.4705  0.0812
16046SOL     OW53973   8.481   3.773   6.429  0.3899 -0.2075 -0.7430
16046SOL    HW153974   8.396   3.789   6.468  0.6056  0.1525 -0.4119
16046SOL    HW253975   8.499   3.851   6.377  0.4798 -0.3206 -0.8823
16047SOL     OW53976   7.658   1.877   0.005 -0.3353  0.1834 -0.6880
16047SOL    HW153977   7.709   1.796   0.015 -0.2676  0.4228  1.3191
16047SOL    HW253978   7.673   1.903  -0.086  0.2561 -1.6407 -1.1713
16048SOL     OW53979   2.956   3.931   8.888 -0.1926  0.2561  0.0745
16048SOL    HW153980   2.995   3.978   8.962  0.7877  0.0410 -0.2856
16048SOL    HW253981   2.872   3.975   8.873  0.7498  2.0101 -0.3325
16049SOL     OW53982   1.896   4.789   7.259 -0.3539 -0.1798  0.5402
16049SOL    HW153983   1.982   4.826   7.278  0.5481 -1.3126 -1.1446
16049SOL    HW253984   1.902   4.698   7.286 -1.1906 -0.1512  0.8475
16050SOL     OW53985   9.261  10.119  10.062  0.4161  0.0246 -0.1267
16050SOL    HW153986   9.264  10.117  10.158  1.1964 -1.7469 -0.1569
16050SOL    HW253987   9.172  10.147  10.042  0.4595  1.1231  1.1030
16051SOL     OW53988   0.041   6.342  10.555  0.2410  0.8702 -0.4506
16051SOL    HW153989  -0.050   6.316  10.542  0.0591 -0.6739  2.9709
16051SOL    HW253990   0.036   6.434  10.581 -0.0100  1.5674 -2.6994
16052SOL     OW53991   7.971   4.672   0.796  0.3103 -0.5396 -0.3285
16052SOL    HW153992   7.904   4.609   0.771  1.6857 -2.5703  0.8725
16052SOL    HW253993   7.997   4.647   0.884  0.9802  1.6936  0.1861
16053SOL     OW53994   5.647   8.022   4.000  0.4950  0.0244 -0.1146
16053SOL    HW153995   5.716   8.009   4.066 -0.3829  1.5364  1.1542
16053SOL    HW253996   5.577   8.068   4.047 -0.5117  0.3983 -1.9084
16054SOL     OW53997  10.474   3.780   9.820  0.1084  0.2821  0.0861
16054SOL    HW153998  10.453   3.873   9.814  0.3803  0.3269 -0.1757
16054SOL    HW253999  10.492   3.753   9.730 -1.4669 -0.3803 -0.0589
16055SOL     OW54000   4.707   7.535   0.575 -0.1899 -0.2780 -0.0100
16055SOL    HW154001   4.664   7.566   0.495 -0.1831  1.2332  0.5266
16055SOL    HW254002   4.727   7.443   0.558 -1.1856 -0.2873 -1.3096
16056SOL     OW54003   8.617   9.903   5.210  0.1031  0.4387  0.1991
16056SOL    HW154004   8.564   9.933   5.136 -0.6632 -0.0124  0.5537
16056SOL    HW254005   8.557   9.900   5.284 -0.2081 -2.9657 -0.0078
16057SOL     OW54006   5.466   6.760  10.381 -0.1775  0.1248 -0.0980
16057SOL    HW154007   5.541   6.701  10.374 -1.7505 -2.1966  1.0853
16057SOL    HW254008   5.473   6.797  10.469 -0.0840  0.3966 -0.2195
16058SOL     OW54009   4.657   4.442   7.914 -0.0861  0.5582  0.5807
16058SOL    HW154010   4.639   4.363   7.862  0.8042  0.4139  0.4684
16058SOL    HW254011   4.707   4.410   7.989  0.0290  0.9797  0.6854
16059SOL     OW54012   3.168   7.803   2.771  0.6194 -0.3719 -0.4049
16059SOL    HW154013   3.199   7.797   2.681  1.4952  2.5293 -0.3937
16059SOL    HW254014   3.134   7.892   2.779 -2.5421 -1.5913  1.2658
16060SOL     OW54015   8.072   2.522   9.133  0.3400 -0.0335 -0.3109
16060SOL    HW154016   8.072   2.618   9.127 -0.4127  0.0811  1.1693
16060SOL    HW254017   8.132   2.503   9.205 -0.1926 -0.6164 -0.0143
16061SOL     OW54018   5.133   9.992   8.325 -0.1951 -0.3359 -0.2956
16061SOL    HW154019   5.158  10.069   8.274 -0.7858  2.1625  2.8052
16061SOL    HW254020   5.198   9.988   8.395 -1.5069 -1.2002  0.9319
16062SOL     OW54021   2.183   8.384   6.396 -0.6732 -0.2019  0.3984
16062SOL    HW154022   2.169   8.414   6.486 -0.9340 -1.1374  0.6856
16062SOL    HW254023   2.272   8.414   6.374 -0.4223 -0.3822  1.1412
16063SOL     OW54024   2.454   2.245   8.274 -0.3853  0.1195  0.2315
16063SOL    HW154025   2.525   2.263   8.335  0.7362 -2.0606 -0.3312
16063SOL    HW254026   2.474   2.301   8.198  1.4958 -1.2801 -0.4058
16064SOL     OW54027   6.237   8.531   6.444  0.3496  0.0714  0.3695
16064SOL    HW154028   6.289   8.585   6.384  0.9201 -0.5552  0.2899
16064SOL    HW254029   6.284   8.534   6.527  0.1789  0.0014  0.4699
16065SOL     OW54030   1.132   6.718   2.390 -0.8388 -0.2037  0.7622
16065SOL    HW154031   1.193   6.692   2.321 -0.2383 -0.5413  1.4039
16065SOL    HW254032   1.091   6.798   2.356 -0.3583 -0.2105  0.1326
16066SOL     OW54033   5.004   3.691   3.842  0.3460  0.1697  0.4541
16066SOL    HW154034   5.075   3.628   3.830  0.7319  0.7896 -0.6875
16066SOL    HW254035   5.012   3.719   3.933  1.2777 -0.1037  0.4634
16067SOL     OW54036   9.650   7.306   8.410 -0.1395 -0.0114  0.1527
16067SOL    HW154037   9.691   7.338   8.329 -2.2655  1.5876 -0.4235
16067SOL    HW254038   9.713   7.245   8.448  3.1841  2.9917 -0.0515
16068SOL     OW54039   7.389   3.437   2.256  0.0010  0.3265  0.3529
16068SOL    HW154040   7.309   3.453   2.205 -1.1703  0.9457  2.2881
16068SOL    HW254041   7.400   3.515   2.310  1.8425  0.1691  0.2600
16069SOL     OW54042   2.466   1.188   5.562  0.5449 -0.3939  0.1944
16069SOL    HW154043   2.476   1.170   5.469  0.5015 -1.3271  0.3570
16069SOL    HW254044   2.428   1.276   5.566  0.8961 -0.1940 -0.6496
16070SOL     OW54045   5.651   5.310   0.770  0.3137 -0.0445  0.3666
16070SOL    HW154046   5.633   5.244   0.703 -1.1383  1.0083 -0.3525
16070SOL    HW254047   5.564   5.343   0.794  1.0016  3.4054 -1.1897
16071SOL     OW54048   6.424   4.427   3.462  0.8825 -0.3363  0.0458
16071SOL    HW154049   6.433   4.380   3.379 -0.2300 -0.4030 -0.0539
16071SOL    HW254050   6.489   4.387   3.520 -1.2743 -3.4142  0.5967
16072SOL     OW54051   2.590  10.613   2.951  0.2514 -0.5032 -0.2418
16072SOL    HW154052   2.513  10.638   2.900  0.4423 -2.0215 -1.3551
16072SOL    HW254053   2.617  10.529   2.913  2.2826 -0.1494  0.3109
16073SOL     OW54054   1.639   3.625   4.407 -0.1998 -0.1341 -0.7289
16073SOL    HW154055   1.679   3.707   4.438 -1.1972 -0.1918  0.8570
16073SOL    HW254056   1.645   3.630   4.312 -0.6851  2.0515 -0.7056
16074SOL     OW54057   5.592   2.287   1.195 -0.0698  0.0122 -0.3673
16074SOL    HW154058   5.640   2.214   1.154 -0.6704 -0.5327 -0.1143
16074SOL    HW254059   5.515   2.299   1.141  0.9047  1.6875 -1.4761
16075SOL     OW54060  10.214   6.188   8.867 -0.5261 -0.3190  0.4632
16075SOL    HW154061  10.274   6.258   8.893 -0.0327 -0.2926 -0.7059
16075SOL    HW254062  10.253   6.151   8.788 -0.6828 -2.0613  1.1703
16076SOL     OW54063   1.464   4.634   4.947 -0.2569 -0.2246  0.2224
16076SOL    HW154064   1.447   4.657   5.039 -0.7936 -0.1465  0.1096
16076SOL    HW254065   1.495   4.544   4.950 -1.9204 -0.8303  0.3590
16077SOL     OW54066   1.465   9.955   0.061  0.1859  0.4209 -0.7004
16077SOL    HW154067   1.469   9.912   0.146  1.5431 -3.0351 -2.2914
16077SOL    HW254068   1.374   9.945   0.033 -0.0053  0.5602 -0.1399
16078SOL     OW54069   0.188   3.147   5.086  0.3826 -0.5931  0.2614
16078SOL    HW154070   0.260   3.128   5.026  1.0071  1.2777  0.3438
16078SOL    HW254071   0.181   3.243   5.086 -1.6613 -0.6893  0.8000
16079SOL     OW54072   8.776   3.475   4.135  0.1276 -0.2953 -0.3186
16079SOL    HW154073   8.799   3.568   4.142 -1.3639  0.0641  0.1482
16079SOL    HW254074   8.828   3.443   4.061  0.2617  1.0410 -0.8278
16080SOL     OW54075   4.914   9.462   0.105  0.2979 -0.2705 -0.2875
16080SOL    HW154076   4.986   9.518   0.134 -0.6279 -0.1989  2.0657
16080SOL    HW254077   4.900   9.401   0.178 -3.4425  1.1583  0.4106
16081SOL     OW54078   1.044   1.588   5.819  0.0675 -0.6148  0.4624
16081SOL    HW154079   1.033   1.574   5.913  0.8430  0.5725  0.7538
16081SOL    HW254080   1.069   1.681   5.811  2.3052 -1.2471 -0.7021
16082SOL     OW54081   5.594  10.423  10.666 -0.4905  0.7659  0.0482
16082SOL    HW154082   5.544  10.371  10.603  0.2010 -1.1854  1.0133
16082SOL    HW254083   5.566  10.391  10.752  1.5126  0.4361  0.6366
16083SOL     OW54084   5.927  10.475   5.669 -0.6358  0.7512 -0.5503
16083SOL    HW154085   5.970  10.525   5.600 -1.1521  0.9011 -0.7688
16083SOL    HW254086   5.971  10.500   5.749  0.6210 -0.1433 -0.9363
16084SOL     OW54087   5.087   8.011   2.385 -0.0607  0.1634  0.0454
16084SOL    HW154088   5.027   7.937   2.378 -0.1200  0.2031  0.1282
16084SOL    HW254089   5.034   8.088   2.364  0.3726  0.0369 -1.7041
16085SOL     OW54090   9.505   8.829   8.232 -0.4711 -0.0049  0.5162
16085SOL    HW154091   9.424   8.879   8.223 -0.7697 -0.0395  2.4273
16085SOL    HW254092   9.475   8.739   8.245 -0.1433 -0.0446  1.0392
16086SOL     OW54093   3.284   6.702   0.924  0.1746  0.0670 -0.2835
16086SOL    HW154094   3.320   6.614   0.908  1.5761  0.9558 -2.3993
16086SOL    HW254095   3.348   6.761   0.886 -1.6534  1.9443 -0.6013
16087SOL     OW54096   1.433   8.796   9.254 -0.2788  0.3891  0.3035
16087SOL    HW154097   1.364   8.730   9.249 -2.0711  2.2404 -0.5772
16087SOL    HW254098   1.387   8.879   9.267  1.9407  1.4291  2.1605
16088SOL     OW54099  10.673   2.733   3.416 -0.2965 -0.6169  0.2398
16088SOL    HW154100  10.657   2.823   3.445  0.6655 -0.0703 -0.8643
16088SOL    HW254101  10.729   2.696   3.484  0.5821  0.1221 -0.0633
16089SOL     OW54102   9.509   7.655   3.839 -0.1793 -0.2809 -0.5464
16089SOL    HW154103   9.514   7.664   3.744  1.2325  2.5881 -0.2969
16089SOL    HW254104   9.593   7.689   3.871 -1.6995  1.4963  1.8442
16090SOL     OW54105   3.568  10.678   6.541 -0.4324 -0.1172 -0.1374
16090SOL    HW154106   3.610  10.665   6.626  0.8038 -1.0833 -0.8702
16090SOL    HW254107   3.604  10.610   6.485 -0.0674  1.4151 -1.8628
16091SOL     OW54108   7.043   4.776  10.076  0.0494  0.1140 -0.0152
16091SOL    HW154109   7.101   4.701  10.060  0.0693 -0.0486  0.7527
16091SOL    HW254110   7.101   4.852  10.075  0.4796 -0.1319  1.6767
16092SOL     OW54111   2.531   3.928   1.628 -0.1435 -0.2145 -0.4454
16092SOL    HW154112   2.579   3.861   1.579 -0.4527  0.2199 -1.3634
16092SOL    HW254113   2.489   3.879   1.699  1.2348 -0.6722  0.0897
16093SOL     OW54114   3.835   8.675   8.405 -0.1102  0.1241 -0.3030
16093SOL    HW154115   3.923   8.696   8.375  0.6832 -0.4937  1.4484
16093SOL    HW254116   3.811   8.597   8.355  0.6223 -0.0836 -0.3491
16094SOL     OW54117   6.001   3.453  10.361  0.4873 -0.2914 -0.7644
16094SOL    HW154118   5.933   3.508  10.401  0.2275 -0.6075 -0.7593
16094SOL    HW254119   5.984   3.366  10.397  1.6446 -0.1625  0.1785
16095SOL     OW54120   3.776   8.033   7.891 -0.0602  0.4370  0.1254
16095SOL    HW154121   3.871   8.033   7.880 -0.2314 -1.9195 -2.8354
16095SOL    HW254122   3.762   8.040   7.985  3.0003  1.2739  0.6135
16096SOL     OW54123   9.007   2.474   7.398  0.3682 -0.0884  0.0517
16096SOL    HW154124   8.967   2.454   7.313 -2.2088 -1.7934  1.5007
16096SOL    HW254125   9.063   2.399   7.417  2.6366  1.2692 -0.9922
16097SOL     OW54126   7.766   6.216   0.735 -0.0359  0.1449  0.8057
16097SOL    HW154127   7.855   6.194   0.763 -0.2734 -0.7880  0.8684
16097SOL    HW254128   7.753   6.167   0.654  0.1887  1.8218 -0.2850
16098SOL     OW54129   4.545   9.680   7.088  0.4702  0.1158 -0.2892
16098SOL    HW154130   4.617   9.616   7.089  0.7652  0.1995 -4.0265
16098SOL    HW254131   4.478   9.640   7.032 -1.0295  1.4572  0.4721
16099SOL     OW54132   3.803   3.067   1.311 -0.1485  0.0462 -0.2741
16099SOL    HW154133   3.860   3.026   1.377  0.4265  1.8227  0.3791
16099SOL    HW254134   3.818   3.016   1.232  0.6937 -0.8676  0.4435
16100SOL     OW54135  10.599   9.417   4.958  0.4408 -0.4051  0.1070
16100SOL    HW154136  10.608   9.339   5.012  0.6302 -1.0518 -0.8286
16100SOL    HW254137  10.689   9.447   4.944  0.3841 -0.1609  0.2505
16101SOL     OW54138   8.413   8.135   5.401  0.2681  0.0138 -0.4403
16101SOL    HW154139   8.387   8.088   5.322 -0.4277 -1.2502  0.5042
16101SOL    HW254140   8.334   8.178   5.431 -0.1597 -1.6255  0.9495
16102SOL     OW54141   9.511   0.388  10.337 -0.2389  0.1312  0.1002
16102SOL    HW154142   9.604   0.398  10.354 -0.0488 -1.2145 -0.0215
16102SOL    HW254143   9.502   0.390  10.242 -0.2395 -0.3482  0.0850
16103SOL     OW54144  10.112   1.673   1.372 -0.3049 -0.4425  0.0183
16103SOL    HW154145  10.089   1.761   1.400  0.6861 -0.2384  0.2408
16103SOL    HW254146  10.029   1.624   1.374 -1.0215  0.6817 -0.9376
16104SOL     OW54147   8.683   6.650   2.750  0.9027 -0.2565  0.2562
16104SOL    HW154148   8.648   6.575   2.703  2.2187  0.0336 -1.3054
16104SOL    HW254149   8.752   6.614   2.806  1.5234 -0.2454 -0.4809
16105SOL     OW54150   5.507   5.048   5.677  0.0991  0.4081 -0.6899
16105SOL    HW154151   5.466   5.102   5.745 -1.3097 -0.8887 -0.4495
16105SOL    HW254152   5.471   5.081   5.595  0.9015  1.2133 -0.7288
16106SOL     OW54153   4.044  10.328   9.965  0.4581 -0.2101  0.2372
16106SOL    HW154154   4.131  10.355   9.935  0.7080 -0.9616  0.2807
16106SOL    HW254155   4.049  10.335  10.060  0.7740 -1.1281  0.2987
16107SOL     OW54156   5.561   0.077   0.628 -0.3147  0.5216  0.0121
16107SOL    HW154157   5.629   0.013   0.646  0.2777  1.7411  2.6628
16107SOL    HW254158   5.484   0.025   0.604  0.4852 -1.0984  0.8219
16108SOL     OW54159   3.743   7.222   7.283 -0.0266  0.0188  0.0213
16108SOL    HW154160   3.836   7.203   7.273  0.4822  0.2727  3.3818
16108SOL    HW254161   3.733   7.312   7.250  1.1828  0.4620  0.8139
16109SOL     OW54162   7.196   0.348   2.536  0.1151 -0.1376  0.6431
16109SOL    HW154163   7.244   0.409   2.481 -0.1138 -0.3530  0.2004
16109SOL    HW254164   7.210   0.380   2.625  0.8230 -0.0271  0.4966
16110SOL     OW54165   1.887   9.799   0.926  0.1684 -0.4770  0.4304
16110SOL    HW154166   1.945   9.807   0.851  0.7313  1.6346  1.0372
16110SOL    HW254167   1.944   9.778   0.999 -0.2915 -1.8111  0.4296
16111SOL     OW54168   5.836   9.060   9.512 -0.2738  0.6990 -0.1008
16111SOL    HW154169   5.852   9.122   9.582  2.8480 -1.7299  1.6091
16111SOL    HW254170   5.843   9.111   9.432 -0.1954  2.9105  1.2483
16112SOL     OW54171   9.669   3.531   8.177 -0.2171 -0.3958  0.1089
16112SOL    HW154172   9.613   3.597   8.136 -1.9473 -0.4427  2.2565
16112SOL    HW254173   9.668   3.458   8.115 -1.2064  0.2224 -0.6460
16113SOL     OW54174   0.936   8.758   0.627 -0.2538  0.0757 -0.0771
16113SOL    HW154175   0.886   8.710   0.560 -0.3988 -1.9622  1.4131
16113SOL    HW254176   1.014   8.705   0.641  0.3276  1.0869  0.5621
16114SOL     OW54177  10.249   3.590   5.920 -0.0765  0.5295  0.3981
16114SOL    HW154178  10.332   3.546   5.904 -0.4711 -0.1375  0.1601
16114SOL    HW254179  10.246   3.661   5.855 -0.5502 -0.6216 -0.8721
16115SOL     OW54180   3.820   4.603   7.362 -0.2061 -0.8119 -0.1687
16115SOL    HW154181   3.892   4.575   7.306  0.5974 -0.3345  0.6069
16115SOL    HW254182   3.765   4.524   7.371  0.6122 -1.3924 -0.1560
16116SOL     OW54183   1.609   5.483   9.993 -0.2290 -0.2036  0.5325
16116SOL    HW154184   1.589   5.397   9.956 -3.5832  0.5497  0.2901
16116SOL    HW254185   1.624   5.539   9.917 -1.7373  0.1629  0.4678
16117SOL     OW54186   5.332   5.687   0.662 -0.3551  0.8230  0.2285
16117SOL    HW154187   5.333   5.648   0.749 -0.2921 -0.7975 -0.4492
16117SOL    HW254188   5.244   5.671   0.629 -0.7264  2.3967  0.3767
16118SOL     OW54189   6.098   7.155   9.465 -0.5068  0.1156  0.1454
16118SOL    HW154190   6.175   7.133   9.518  0.8649 -2.2873 -2.5682
16118SOL    HW254191   6.054   7.071   9.451 -0.5608  0.5265 -2.7632
16119SOL     OW54192   4.325   5.080   9.127  0.6146 -0.2798 -0.7935
16119SOL    HW154193   4.304   5.156   9.181  0.6160 -0.5258 -0.4455
16119SOL    HW254194   4.369   5.116   9.050 -0.9473  0.2516 -1.4775
16120SOL     OW54195   6.784   5.665   6.147 -0.1761  0.0721  0.1069
16120SOL    HW154196   6.787   5.749   6.100 -0.8172 -0.0317 -0.1297
16120SOL    HW254197   6.835   5.606   6.093  0.0938  0.2529  0.1610
16121SOL     OW54198   5.230   4.137   3.540  0.2111 -0.4533 -0.1989
16121SOL    HW154199   5.200   4.120   3.629  1.9035 -2.2082  0.0987
16121SOL    HW254200   5.273   4.222   3.545 -2.2776  0.8842 -0.0690
16122SOL     OW54201   7.587   6.507   1.816 -0.1368  0.1670 -0.0414
16122SOL    HW154202   7.563   6.417   1.792 -1.2939  0.9096 -1.9177
16122SOL    HW254203   7.673   6.499   1.856 -0.7279 -1.9122  0.9705
16123SOL     OW54204   8.675   3.534   9.647 -0.0115  0.0001 -0.1047
16123SOL    HW154205   8.721   3.609   9.686  1.0464 -0.8740  0.3547
16123SOL    HW254206   8.626   3.496   9.720  2.1707 -1.7928  0.5465
16124SOL     OW54207   7.717   5.986   8.570  0.5494  0.4454  0.1093
16124SOL    HW154208   7.699   6.066   8.520 -0.3960  0.3498  0.2867
16124SOL    HW254209   7.760   6.017   8.650 -0.8136  0.8983  0.6999
16125SOL     OW54210  10.158  10.393   0.197 -0.6074 -0.2694 -0.2272
16125SOL    HW154211  10.072  10.380   0.238  0.0599 -1.1013  0.9885
16125SOL    HW254212  10.196  10.305   0.196  0.4336  0.1777 -0.2683
16126SOL     OW54213   3.391   2.503   5.841  0.0195 -0.0717  0.5261
16126SOL    HW154214   3.475   2.517   5.798  0.9153 -1.5703  1.6909
16126SOL    HW254215   3.383   2.575   5.903  0.2893  0.2368  0.2088
16127SOL     OW54216   4.032   2.233   8.536 -0.5957  0.2172  0.7691
16127SOL    HW154217   3.993   2.270   8.456 -2.1730  1.7651  2.1792
16127SOL    HW254218   3.985   2.151   8.549  0.0733 -0.3398 -0.1731
16128SOL     OW54219   2.832   6.108   1.047 -0.2271 -0.5958  0.4034
16128SOL    HW154220   2.777   6.151   1.112 -0.0268 -1.0467  0.8837
16128SOL    HW254221   2.850   6.175   0.982 -0.6930 -0.2243  0.6511
16129SOL     OW54222  10.239   9.917   8.181 -0.2615  0.6165 -0.6753
16129SOL    HW154223  10.306   9.986   8.179 -0.8209  1.2013 -3.1795
16129SOL    HW254224  10.157   9.963   8.166 -0.7979 -0.4681 -1.1725
16130SOL     OW54225   2.698  10.037   2.103  0.2721  0.0268 -0.3276
16130SOL    HW154226   2.780  10.000   2.070  0.3105  0.5701 -0.8552
16130SOL    HW254227   2.683   9.993   2.187  1.0681 -0.1198 -0.2630
16131SOL     OW54228   1.632   6.823   1.708 -0.1461  0.0486 -0.1372
16131SOL    HW154229   1.575   6.889   1.748 -1.6028 -1.8280  1.0191
16131SOL    HW254230   1.611   6.827   1.615 -2.4412 -0.7743  0.2821
16132SOL     OW54231   5.554   9.834   3.137 -0.0282 -0.8977  0.1453
16132SOL    HW154232   5.571   9.778   3.212  1.2574 -0.0595  0.5363
16132SOL    HW254233   5.515   9.913   3.175 -0.0520 -0.7643 -0.1556
16133SOL     OW54234  10.620   5.263   6.134 -0.4787  0.0159  0.1288
16133SOL    HW154235  10.658   5.275   6.047 -0.1921  0.4222  0.3089
16133SOL    HW254236  10.560   5.337   6.144  1.8194  1.8109  1.5300
16134SOL     OW54237   8.037   1.661   9.926 -0.0961 -0.0149  0.0092
16134SOL    HW154238   7.980   1.594   9.964 -0.3435 -0.1089 -0.5147
16134SOL    HW254239   8.011   1.665   9.834  2.0579 -1.4907 -0.7423
16135SOL     OW54240  10.579   6.700   1.502 -0.1856  0.1620  0.0538
16135SOL    HW154241  10.493   6.741   1.492  0.1108  0.4961 -1.3615
16135SOL    HW254242  10.562   6.606   1.497 -0.3844  0.2460 -1.2332
16136SOL     OW54243   5.552   5.282   7.813 -0.0426 -0.3353  0.0425
16136SOL    HW154244   5.519   5.335   7.741 -0.5405 -1.4933 -0.6165
16136SOL    HW254245   5.549   5.340   7.889  0.3903  0.8724 -0.8407
16137SOL     OW54246   3.684   3.379  10.244  0.3984  0.5053  0.1170
16137SOL    HW154247   3.593   3.402  10.226  0.7278  1.7638  0.0302
16137SOL    HW254248   3.735   3.449  10.205  1.4914 -0.8903 -1.0661
16138SOL     OW54249   5.715   5.778   0.411 -0.3383 -0.0216  0.2473
16138SOL    HW154250   5.620   5.769   0.423 -0.1710 -0.3695  1.4784
16138SOL    HW254251   5.749   5.691   0.427  0.3111  0.3886  1.1545
16139SOL     OW54252   9.772   2.154   3.844  0.1963  0.5329 -0.0503
16139SOL    HW154253   9.677   2.158   3.848  0.2445  0.9275  1.4013
16139SOL    HW254254   9.795   2.072   3.888  0.4869 -0.4368 -1.9257
16140SOL     OW54255   3.223   8.122   4.519  0.2191 -0.2798 -0.2329
16140SOL    HW154256   3.270   8.191   4.472 -2.7191  0.9658 -1.5851
16140SOL    HW254257   3.242   8.042   4.470  1.0661  0.1242 -0.5872
16141SOL     OW54258   8.036   8.844   1.327  0.4973  0.6633 -0.0288
16141SOL    HW154259   8.023   8.820   1.235  2.6180 -1.2233  0.0807
16141SOL    HW254260   8.053   8.938   1.324 -1.7215  1.1051 -1.2418
16142SOL     OW54261   4.553   1.281   1.746 -0.3463  0.1633  0.4397
16142SOL    HW154262   4.522   1.210   1.690 -0.8217  0.4718  0.3085
16142SOL    HW254263   4.473   1.325   1.776 -0.0449  1.2485 -0.2693
16143SOL     OW54264   3.581   3.009   6.761 -0.5282 -0.1414 -0.2065
16143SOL    HW154265   3.640   3.073   6.721  0.1886 -0.0800  0.9140
16143SOL    HW254266   3.498   3.056   6.772  0.5157  1.2398  2.3028
16144SOL     OW54267   6.636   1.975   1.312 -0.3963  0.7820 -0.0919
16144SOL    HW154268   6.565   2.011   1.366 -0.5472  1.0229 -0.4456
16144SOL    HW254269   6.702   1.947   1.375 -0.4939  1.2212  0.2157
16145SOL     OW54270   0.534   4.122   2.335  0.2004 -0.3475 -0.0294
16145SOL    HW154271   0.466   4.058   2.313  0.9161 -1.2784  0.3859
16145SOL    HW254272   0.523   4.136   2.429 -0.3746  0.6631 -0.2356
16146SOL     OW54273   2.843  10.097   9.080 -0.1866  0.1069 -0.1059
16146SOL    HW154274   2.783  10.140   9.141  0.6095 -0.6645  1.2848
16146SOL    HW254275   2.797  10.018   9.052 -0.9050  0.8958 -1.2182
16147SOL     OW54276   8.547   8.623   1.653 -0.5642  0.4438 -0.3101
16147SOL    HW154277   8.530   8.705   1.607 -1.7844 -0.0693 -0.8305
16147SOL    HW254278   8.460   8.584   1.665  0.0187 -0.9426 -0.3913
16148SOL     OW54279   8.456   9.978   6.368  0.2255  0.0333  0.4601
16148SOL    HW154280   8.441   9.968   6.273  1.5396 -0.4116  0.2785
16148SOL    HW254281   8.388  10.039   6.396 -0.0352  0.3724 -0.8143
16149SOL     OW54282   5.418   2.929   0.208 -0.4540  0.3483  0.2360
16149SOL    HW154283   5.451   3.007   0.254 -1.1780  1.3594 -0.9004
16149SOL    HW254284   5.388   2.871   0.278  1.5217  0.3887  1.1962
16150SOL     OW54285   6.775   6.041   2.132 -0.3904 -0.1003 -0.7549
16150SOL    HW154286   6.742   6.121   2.173  0.5355  0.2543 -0.6819
16150SOL    HW254287   6.754   5.972   2.195  1.3508  0.4881  0.5436
16151SOL     OW54288   0.860   8.453   4.527  0.5341 -0.0813 -0.2450
16151SOL    HW154289   0.883   8.412   4.444  1.5045 -0.3265  0.1287
16151SOL    HW254290   0.842   8.544   4.505 -1.7089 -0.6608 -1.1002
16152SOL     OW54291   7.135   3.797   9.628 -0.0792 -0.0314  0.5185
16152SOL    HW154292   7.222   3.756   9.634  0.5309  0.9772 -0.9711
16152SOL    HW254293   7.102   3.796   9.718  1.9005  0.4784  1.3053
16153SOL     OW54294   2.678   2.970   1.823  0.1858  0.6764  0.3462
16153SOL    HW154295   2.615   2.993   1.755  0.4000 -0.1035 -0.1292
16153SOL    HW254296   2.634   2.905   1.877  0.1852  0.9494  0.6791
16154SOL     OW54297   4.040   2.610   3.771  0.3159  0.7187 -0.0066
16154SOL    HW154298   4.028   2.516   3.787  1.7258  0.5078 -0.0628
16154SOL    HW254299   4.066   2.616   3.679  1.7646  0.9902  0.3897
16155SOL     OW54300   4.268   0.033   2.603  0.2493  0.3952  0.0222
16155SOL    HW154301   4.269   0.070   2.515 -0.2691  0.5147  0.0642
16155SOL    HW254302   4.202  -0.036   2.600 -1.6393  2.0562  0.9635
16156SOL     OW54303   8.669  10.524   4.083 -0.3643  0.6105 -0.5896
16156SOL    HW154304   8.690  10.522   4.176 -1.2869 -1.7852 -0.3583
16156SOL    HW254305   8.750  10.551   4.040 -0.0783  2.2586  0.9144
16157SOL     OW54306   7.507   5.458   1.574 -0.8818  0.2905  0.0498
16157SOL    HW154307   7.580   5.416   1.529 -0.6167 -0.5544  1.2358
16157SOL    HW254308   7.444   5.386   1.589 -2.5131  1.1805 -1.9421
16158SOL     OW54309   8.365   7.930   4.516 -0.5254  0.0147 -0.7712
16158SOL    HW154310   8.393   7.963   4.431 -0.1880 -1.6821 -1.3754
16158SOL    HW254311   8.333   8.006   4.563  0.0659  1.1240 -2.1098
16159SOL     OW54312   6.354   0.603  10.625  0.2201 -0.1198 -0.2655
16159SOL    HW154313   6.423   0.550  10.584  0.8108  0.2822  0.1840
16159SOL    HW254314   6.308   0.643  10.552  2.0558  1.6034 -0.5572
16160SOL     OW54315   2.683   1.249   6.491 -0.0826  0.3381  0.0971
16160SOL    HW154316   2.660   1.259   6.583 -0.3375 -0.9408  0.1930
16160SOL    HW254317   2.776   1.272   6.487  0.1567 -0.4473  0.8487
16161SOL     OW54318   7.004   5.257   2.445  0.3962  0.2713  0.2514
16161SOL    HW154319   6.957   5.272   2.527 -0.8362 -0.7169 -0.2461
16161SOL    HW254320   6.958   5.185   2.403  1.7400 -0.0533 -0.7605
16162SOL     OW54321  10.006  10.383   9.418 -0.3849  0.4191  0.2159
16162SOL    HW154322  10.050  10.368   9.502  0.7825  1.3291 -0.2162
16162SOL    HW254323   9.993  10.477   9.413 -0.7069  0.3483 -0.5052
16163SOL     OW54324   8.698   2.501   5.284 -0.4825 -0.5595 -0.5567
16163SOL    HW154325   8.636   2.559   5.241 -1.5711 -1.0624  0.2996
16163SOL    HW254326   8.760   2.561   5.328 -2.3268  0.0544  1.3991
16164SOL     OW54327   1.086   8.223   6.489  0.0573 -0.0692 -0.2455
16164SOL    HW154328   1.128   8.188   6.568  1.8582  2.2460 -0.0711
16164SOL    HW254329   1.050   8.308   6.516  0.3136  0.5679 -1.7970
16165SOL     OW54330   8.875   8.266   3.874 -0.7802 -0.2437  0.2244
16165SOL    HW154331   8.920   8.199   3.823  1.0445  0.6837  0.5194
16165SOL    HW254332   8.813   8.217   3.928 -0.6201 -1.5217 -0.6898
16166SOL     OW54333   8.895   3.636   4.709  0.1350  0.4174 -0.2904
16166SOL    HW154334   8.842   3.611   4.784  0.7655 -2.1050 -0.5887
16166SOL    HW254335   8.831   3.660   4.641 -0.4389  2.2434  0.8370
16167SOL     OW54336   8.571   1.470   0.225  0.2430  0.1426  0.3802
16167SOL    HW154337   8.600   1.408   0.293  1.3908  0.6252  0.3520
16167SOL    HW254338   8.601   1.555   0.256 -0.2543  0.5237 -0.1759
16168SOL     OW54339   7.602   2.431  10.503  0.2929 -0.2645 -0.1105
16168SOL    HW154340   7.552   2.350  10.511  1.6534 -1.2564 -1.1503
16168SOL    HW254341   7.691   2.407  10.529  0.3443  1.3860  1.4510
16169SOL     OW54342   2.376   0.123  10.721  0.3397 -0.2643  0.1056
16169SOL    HW154343   2.359   0.128  10.815  0.8127 -1.4466  0.2706
16169SOL    HW254344   2.464   0.086  10.714  1.1086  1.6455 -0.7937
16170SOL     OW54345   5.124   7.625   2.915  0.0112  0.1071 -0.2537
16170SOL    HW154346   5.124   7.531   2.897 -0.6073  0.3347 -1.5296
16170SOL    HW254347   5.214   7.653   2.899  0.2717 -0.3069  0.4377
16171SOL     OW54348   5.416   0.832   3.230 -0.1156  0.4117  1.1006
16171SOL    HW154349   5.484   0.900   3.232  2.3042 -1.7211 -0.8460
16171SOL    HW254350   5.334   0.880   3.231  1.4083  3.5799 -2.0612
16172SOL     OW54351   8.789   3.097   2.827  0.3197 -0.1441 -0.6170
16172SOL    HW154352   8.724   3.070   2.893 -0.1394 -0.3632 -1.1429
16172SOL    HW254353   8.867   3.046   2.848  0.6249  0.7827  0.5700
16173SOL     OW54354   9.250   4.840   2.105 -0.2558  0.0715  0.3971
16173SOL    HW154355   9.168   4.881   2.079 -1.5898 -1.2506  2.2018
16173SOL    HW254356   9.271   4.879   2.190  0.7586  0.1015  0.1439
16174SOL     OW54357   1.884  10.071   9.419  0.3757  0.3494 -0.2817
16174SOL    HW154358   1.820  10.003   9.438  1.1685 -0.3304  0.0007
16174SOL    HW254359   1.848  10.116   9.342 -0.6422  0.2649  0.1271
16175SOL     OW54360   4.193  10.240   5.592 -0.2888  0.1931  0.8047
16175SOL    HW154361   4.115  10.215   5.642 -0.4509 -1.6005 -0.2603
16175SOL    HW254362   4.266  10.204   5.641 -0.3644 -0.5649  0.3809
16176SOL     OW54363   6.372   5.254   2.830 -0.0969  0.4101  0.6018
16176SOL    HW154364   6.318   5.187   2.788 -0.0040  1.0237 -0.5083
16176SOL    HW254365   6.334   5.263   2.918  1.3623 -2.8253  1.7153
16177SOL     OW54366   6.320   3.373   3.309  0.1438 -0.3113 -0.0336
16177SOL    HW154367   6.364   3.327   3.379  1.4774 -1.3708 -1.5037
16177SOL    HW254368   6.350   3.331   3.229  0.2736  2.1472 -1.3910
16178SOL     OW54369   1.603   5.151   4.365  0.2842 -0.4450 -0.4810
16178SOL    HW154370   1.689   5.129   4.330  0.0727  0.0882 -1.3690
16178SOL    HW254371   1.544   5.146   4.289 -0.4804 -0.8643  0.1245
16179SOL     OW54372   6.102   8.545   9.797  0.6032 -0.1941  0.2165
16179SOL    HW154373   6.050   8.569   9.721 -0.2355 -0.9463  0.5347
16179SOL    HW254374   6.179   8.601   9.792  1.2470 -1.1551 -1.9250
16180SOL     OW54375   2.143   2.965   8.372 -0.1150  0.2993  0.5373
16180SOL    HW154376   2.119   3.056   8.356  3.8312  1.3155 -0.6308
16180SOL    HW254377   2.206   2.969   8.444  2.0746 -1.0862 -1.1814
16181SOL     OW54378   2.579   1.806  10.008  0.3152 -0.3607 -0.1840
16181SOL    HW154379   2.627   1.789  10.089 -1.0126 -0.6433  0.5770
16181SOL    HW254380   2.582   1.901   9.997 -1.1318 -0.1196  1.2702
16182SOL     OW54381   3.800   9.862   1.227 -0.2462  0.2866  0.3030
16182SOL    HW154382   3.806   9.951   1.193 -0.6213  0.6245  1.0752
16182SOL    HW254383   3.722   9.864   1.282 -1.4122 -1.0734 -1.2274
16183SOL     OW54384   5.903   9.647   9.680  0.4235  0.2960 -0.4007
16183SOL    HW154385   5.889   9.596   9.760  1.8832 -1.5824 -1.2365
16183SOL    HW254386   5.850   9.726   9.691 -1.6634 -1.1986  1.1871
16184SOL     OW54387   8.498   3.976  10.696 -0.1867  0.3279  0.2633
16184SOL    HW154388   8.496   3.880  10.696 -0.9669  0.2903 -1.9725
16184SOL    HW254389   8.439   4.001  10.767 -2.3069 -0.9165 -0.9437
16185SOL     OW54390   9.678   1.728   2.184  0.1002  0.3518  0.7411
16185SOL    HW154391   9.656   1.694   2.271 -1.8137  0.5596  0.3758
16185SOL    HW254392   9.754   1.784   2.199  1.6902 -1.8916  1.7902
16186SOL     OW54393   5.565   9.995  10.671 -0.5038 -0.0576  0.1715
16186SOL    HW154394   5.587   9.902  10.668 -1.0657 -0.2051  0.3858
16186SOL    HW254395   5.587  10.028  10.584 -0.6076 -0.4677 -0.0121
16187SOL     OW54396   5.817   1.410   0.882  0.2054 -0.4444  0.3685
16187SOL    HW154397   5.773   1.379   0.802 -0.0238  0.4146  0.1576
16187SOL    HW254398   5.839   1.501   0.864  2.3154 -0.8951  0.3634
16188SOL     OW54399   3.986   9.891   6.620 -0.2218 -0.0812 -0.8506
16188SOL    HW154400   4.074   9.928   6.611 -1.1873  2.6404 -0.0497
16188SOL    HW254401   3.929   9.956   6.579 -2.1696 -0.0932  1.6598
16189SOL     OW54402   7.324   4.820   6.720  0.2667 -0.9967  0.2770
16189SOL    HW154403   7.394   4.814   6.785  0.3514 -1.9361  0.1092
16189SOL    HW254404   7.245   4.840   6.772  0.3885 -1.4330  0.6341
16190SOL     OW54405   2.224   0.255   4.462  0.1447  0.1226  0.1135
16190SOL    HW154406   2.263   0.211   4.387 -0.4952  1.3446 -0.9735
16190SOL    HW254407   2.160   0.315   4.424 -1.3858 -0.4109  1.7355
16191SOL     OW54408   8.476   5.885   2.984 -0.0037  0.7263  0.1069
16191SOL    HW154409   8.510   5.797   2.994 -0.6042  0.3571 -0.9498
16191SOL    HW254410   8.388   5.873   2.948  0.5980  1.7735 -1.8738
16192SOL     OW54411   7.282   8.717   3.135  0.5862  0.1940  0.5108
16192SOL    HW154412   7.191   8.724   3.163  0.7045 -0.2345  1.0254
16192SOL    HW254413   7.280   8.657   3.061  0.2863  1.2271 -0.3344
16193SOL     OW54414   8.857   8.049   8.707  0.4957 -0.0586  0.3322
16193SOL    HW154415   8.810   8.033   8.789 -0.5446  0.6741 -0.0945
16193SOL    HW254416   8.816   8.128   8.671  1.1000 -0.2266 -0.7687
16194SOL     OW54417   2.989   3.053   5.859 -0.4628  0.5593  0.4450
16194SOL    HW154418   3.074   3.010   5.847 -1.1493 -1.1575  1.3275
16194SOL    HW254419   2.931   3.008   5.797 -0.8286  1.4254  0.1505
16195SOL     OW54420   3.773   6.535   3.454 -0.3523 -1.0146 -0.7667
16195SOL    HW154421   3.864   6.565   3.461 -0.0492 -2.1301  0.7467
16195SOL    HW254422   3.780   6.439   3.455 -1.6164 -1.1673  1.5600
16196SOL     OW54423   8.899   0.982   8.333  0.0769  0.0330 -0.1641
16196SOL    HW154424   8.975   1.032   8.365  0.5042  0.3510 -1.5698
16196SOL    HW254425   8.898   0.903   8.387 -0.2989  1.2806  1.7681
16197SOL     OW54426   7.187  10.047   7.677  0.0026  0.1206 -0.8258
16197SOL    HW154427   7.098  10.013   7.672 -0.0172  0.1784 -0.8640
16197SOL    HW254428   7.181  10.135   7.640 -0.2623  0.7542  0.6399
16198SOL     OW54429   0.959   9.149   5.832 -0.3739 -0.0367  0.0230
16198SOL    HW154430   0.948   9.107   5.918  0.5434 -0.4108 -0.0251
16198SOL    HW254431   1.015   9.088   5.783  0.6595  1.0552 -0.1921
16199SOL     OW54432   0.441   1.127  10.300 -0.6271  0.2632  0.1835
16199SOL    HW154433   0.378   1.114  10.371 -0.8032 -1.1419 -0.1957
16199SOL    HW254434   0.470   1.218  10.309 -1.6119  0.4870  1.2548
16200SOL     OW54435   1.562   1.631   5.570 -0.0648  0.2916  0.3647
16200SOL    HW154436   1.571   1.570   5.496  1.0242 -1.8533  2.1359
16200SOL    HW254437   1.651   1.659   5.589 -0.1918 -0.0075  1.4813
16201SOL     OW54438   2.987   5.710   8.084 -0.1600 -0.2993  0.6154
16201SOL    HW154439   2.924   5.764   8.131  0.1779  0.9377 -0.3159
16201SOL    HW254440   3.070   5.727   8.128  0.2286  1.1612 -0.6235
16202SOL     OW54441   3.502   7.388   5.218  0.7979  0.1366  0.4248
16202SOL    HW154442   3.561   7.434   5.277 -1.5780  1.6205  1.8235
16202SOL    HW254443   3.510   7.435   5.135 -2.0243  3.8789  1.9557
16203SOL     OW54444   2.459   1.950   0.861 -0.3216  0.4492 -0.2214
16203SOL    HW154445   2.539   1.898   0.855  0.2570  1.0543  1.5347
16203SOL    HW254446   2.389   1.885   0.862  0.2737 -0.2006  0.1121
16204SOL     OW54447   7.705   3.559   2.345  0.1993 -0.0260  0.8184
16204SOL    HW154448   7.706   3.474   2.300 -0.8327  0.0029  0.7300
16204SOL    HW254449   7.736   3.621   2.279  1.9143 -0.4417  1.1677
16205SOL     OW54450   7.267   1.485   2.856 -0.3419  0.0077  0.0762
16205SOL    HW154451   7.273   1.483   2.951 -1.3949 -0.8830  0.1369
16205SOL    HW254452   7.187   1.437   2.835  0.5700 -0.9878 -1.3309
16206SOL     OW54453   4.899   1.499   9.136  0.0260  0.0624 -0.0717
16206SOL    HW154454   4.896   1.524   9.044 -0.7108  0.1488 -0.0279
16206SOL    HW254455   4.988   1.522   9.164  0.5660 -0.8406 -0.9890
16207SOL     OW54456   0.990   6.183   5.710 -0.4990 -0.7003 -0.1310
16207SOL    HW154457   1.064   6.213   5.763 -1.0663  0.2001  0.1739
16207SOL    HW254458   1.030   6.127   5.643  0.6496  0.9143 -0.8583
16208SOL     OW54459   4.689  10.306   5.542  0.1913  0.2270 -0.0656
16208SOL    HW154460   4.702  10.286   5.635 -0.6390  0.0474  0.0244
16208SOL    HW254461   4.775  10.330   5.510  0.3506  1.1270  0.9648
16209SOL     OW54462   4.430   6.629   6.310  0.1510 -0.3145 -0.5704
16209SOL    HW154463   4.373   6.697   6.346  0.5555 -0.4030  0.2922
16209SOL    HW254464   4.408   6.550   6.360  1.9232 -0.0440  0.7820
16210SOL     OW54465   5.981   8.587   1.011 -0.4212 -0.0386 -0.1507
16210SOL    HW154466   5.953   8.658   1.068 -0.4944 -0.1466 -0.0541
16210SOL    HW254467   5.930   8.599   0.931  0.1887  0.5339 -0.4663
16211SOL     OW54468   0.624  10.394   7.552  0.1037 -0.7656  0.8148
16211SOL    HW154469   0.612  10.317   7.608  1.3679 -4.0769 -2.9587
16211SOL    HW254470   0.719  10.401   7.543 -0.0232  0.9180  0.5627
16212SOL     OW54471   9.671   4.839   4.694  0.2800 -0.4263  0.2559
16212SOL    HW154472   9.680   4.809   4.784  1.0939  0.0617  0.3417
16212SOL    HW254473   9.758   4.830   4.656  1.1855  3.6999  0.8716
16213SOL     OW54474   6.776   0.540   1.411 -0.2168 -0.6181 -0.2581
16213SOL    HW154475   6.843   0.492   1.459  0.8704 -0.8831 -1.9646
16213SOL    HW254476   6.700   0.481   1.411 -0.9627  0.1744  2.7156
16214SOL     OW54477   5.612   6.831  10.647 -0.5653  0.1333  1.4628
16214SOL    HW154478   5.634   6.854  10.737  2.5686  1.0008  0.6003
16214SOL    HW254479   5.640   6.907  10.595 -0.9524 -0.9064 -0.3561
16215SOL     OW54480   8.077   7.765   5.919  0.1968  0.3449 -0.1685
16215SOL    HW154481   8.100   7.818   5.842  0.5835  0.4917  0.0413
16215SOL    HW254482   8.130   7.803   5.989 -0.8036  0.7797  0.3715
16216SOL     OW54483   1.952   1.503   9.418  0.3773  0.2800 -0.2852
16216SOL    HW154484   1.949   1.451   9.338  0.4788  0.1892 -0.2303
16216SOL    HW254485   2.042   1.493   9.450 -0.2069 -1.4056  0.9984
16217SOL     OW54486   5.122   0.122   3.006  0.0879  0.3722  0.7010
16217SOL    HW154487   5.211   0.139   3.037  0.1028  0.6432  0.5105
16217SOL    HW254488   5.133   0.056   2.938  0.3350  1.6497 -0.5339
16218SOL     OW54489   4.826   0.909  10.626  0.1250 -0.2936  0.1287
16218SOL    HW154490   4.854   0.854  10.698 -0.5720 -0.8501 -0.0060
16218SOL    HW254491   4.900   0.966  10.608 -0.2595  0.9830  2.3503
16219SOL     OW54492   4.259   6.399  10.226  0.8156  0.1080 -0.1221
16219SOL    HW154493   4.347   6.434  10.210  0.4182  1.8392  1.2823
16219SOL    HW254494   4.200   6.468  10.196 -0.0755 -0.8123 -0.5313
16220SOL     OW54495   5.936   4.180   4.839  0.6064 -0.2098  0.0641
16220SOL    HW154496   5.942   4.214   4.928 -0.3648  0.7941 -0.2270
16220SOL    HW254497   5.947   4.258   4.783  1.5571 -0.8726 -0.7050
16221SOL     OW54498   5.459   6.016   5.513  0.0891  0.9433  0.0410
16221SOL    HW154499   5.446   5.952   5.443  0.7328  1.2816 -0.3937
16221SOL    HW254500   5.379   6.009   5.566  0.0372 -0.0311 -0.1412
16222SOL     OW54501   4.842   5.489   5.506 -0.2374  0.4107 -0.0653
16222SOL    HW154502   4.759   5.452   5.479 -0.1797 -1.4058  2.0779
16222SOL    HW254503   4.824   5.533   5.589 -0.3091  5.4887 -2.3999
16223SOL     OW54504   3.841   9.407   8.404  0.5371 -0.0859  0.0711
16223SOL    HW154505   3.869   9.396   8.495 -0.7589  0.7052  0.5978
16223SOL    HW254506   3.747   9.423   8.410  0.5577  0.7395 -1.3672
16224SOL     OW54507   3.379   8.001   3.573  0.4911 -0.1099 -0.0272
16224SOL    HW154508   3.469   8.030   3.561  0.9209 -1.1631  0.5104
16224SOL    HW254509   3.381   7.908   3.549 -0.1227 -0.5143  1.3869
16225SOL     OW54510   9.815  10.166   4.784  0.7147  0.3651 -0.2964
16225SOL    HW154511   9.725  10.149   4.758  0.9008  0.5937 -1.1339
16225SOL    HW254512   9.825  10.123   4.869 -0.8182  2.1774  0.8791
16226SOL     OW54513   0.837   4.537   8.525  0.2320  0.2410  0.0699
16226SOL    HW154514   0.866   4.455   8.564 -0.4904 -0.5533 -1.0027
16226SOL    HW254515   0.747   4.549   8.555  0.1922  0.4151 -0.1137
16227SOL     OW54516   3.555   1.772   1.466 -0.1684  0.2697  0.4318
16227SOL    HW154517   3.567   1.750   1.559  0.7391  0.5924  0.4065
16227SOL    HW254518   3.461   1.781   1.455 -0.3536 -0.6090  1.1326
16228SOL     OW54519   2.619   9.403   7.705  0.3092  0.3380  0.2158
16228SOL    HW154520   2.586   9.323   7.745  0.5536 -0.6909 -1.5617
16228SOL    HW254521   2.541   9.450   7.675  0.2674 -0.9609 -1.8741
16229SOL     OW54522   3.467   8.809   4.160 -0.1595 -0.0763 -0.2218
16229SOL    HW154523   3.531   8.738   4.153 -1.0277 -0.8783 -0.2537
16229SOL    HW254524   3.518   8.885   4.189  0.9166 -0.5169 -0.8935
16230SOL     OW54525   9.222   4.435   9.305  0.0520 -0.1585 -0.4006
16230SOL    HW154526   9.196   4.439   9.397 -0.8083 -0.8905 -0.6064
16230SOL    HW254527   9.178   4.510   9.264 -0.8478 -0.7524 -0.5274
16231SOL     OW54528   3.328   9.209   4.804  0.0114 -0.4497  0.0807
16231SOL    HW154529   3.278   9.182   4.881  0.7604  0.4160  0.8869
16231SOL    HW254530   3.313   9.303   4.797  0.3664 -0.4320 -0.5291
16232SOL     OW54531   9.712   9.750   1.899 -0.0369  0.3023  0.3567
16232SOL    HW154532   9.690   9.687   1.967 -0.3513 -0.5268 -0.4900
16232SOL    HW254533   9.635   9.755   1.843 -0.5851  2.5597  1.1882
16233SOL     OW54534   1.436   6.579   5.591  0.0450 -0.5617  0.9274
16233SOL    HW154535   1.506   6.568   5.655  0.6696 -2.7305 -0.0420
16233SOL    HW254536   1.481   6.584   5.506 -0.8658  0.3086  0.4712
16234SOL     OW54537   5.793   4.410   3.606  0.1054  0.5429  0.2852
16234SOL    HW154538   5.887   4.399   3.620  0.2639  1.5249  0.0584
16234SOL    HW254539   5.755   4.405   3.694  0.3684  0.1797  0.3811
16235SOL     OW54540   1.447   0.627   3.750  0.4520  0.0329 -0.5909
16235SOL    HW154541   1.432   0.721   3.765 -1.1916 -0.6257  2.8295
16235SOL    HW254542   1.385   0.604   3.681  0.9165  1.4102 -1.5333
16236SOL     OW54543   0.361   1.332   4.539  0.2265 -0.0643 -0.0653
16236SOL    HW154544   0.411   1.327   4.457 -0.7557  0.1963 -0.6959
16236SOL    HW254545   0.332   1.242   4.555 -0.5534  0.0795 -0.6330
16237SOL     OW54546   3.625   3.034   0.352 -0.3917  0.0473  0.5699
16237SOL    HW154547   3.659   2.994   0.432 -0.9912 -1.7697 -0.0370
16237SOL    HW254548   3.603   2.960   0.296  0.5034  1.2686 -1.5114
16238SOL     OW54549   8.113  10.308   8.286 -0.0949 -0.4065  0.3399
16238SOL    HW154550   8.022  10.302   8.255 -0.9463  1.2399  2.2710
16238SOL    HW254551   8.133  10.219   8.316 -0.9891 -0.8431 -0.2779
16239SOL     OW54552   0.933   6.878  10.335  0.3724 -0.1638 -0.4626
16239SOL    HW154553   0.944   6.869  10.429  0.5672 -0.5056 -0.5162
16239SOL    HW254554   0.854   6.827  10.315  1.2560 -1.4832 -0.7129
16240SOL     OW54555  10.586   4.732   4.631 -0.6033  0.2975 -0.0709
16240SOL    HW154556  10.656   4.760   4.573  0.3275 -0.3730  0.6865
16240SOL    HW254557  10.506   4.768   4.593 -0.2193 -1.2381 -2.5211
16241SOL     OW54558   0.992   0.926   6.701  0.0914 -0.0547  0.0279
16241SOL    HW154559   0.990   0.845   6.649  0.1784  0.9552 -1.5985
16241SOL    HW254560   0.911   0.971   6.678  0.0027  0.3044  0.9932
16242SOL     OW54561   8.854   3.624   6.598  0.1451  0.2131 -0.5664
16242SOL    HW154562   8.908   3.675   6.658 -0.2074 -0.0262 -0.0422
16242SOL    HW254563   8.769   3.668   6.598  0.2531  0.4289 -1.1769
16243SOL     OW54564   4.356   4.426   5.702 -0.4955 -0.1813  0.1196
16243SOL    HW154565   4.325   4.385   5.621  0.3135 -0.4942 -0.0322
16243SOL    HW254566   4.414   4.361   5.742 -2.4500 -0.8991  2.0022
16244SOL     OW54567   3.968   9.826   4.578 -0.4116 -0.0550  0.3093
16244SOL    HW154568   3.889   9.775   4.597 -0.5008 -0.0491 -0.0376
16244SOL    HW254569   4.001   9.789   4.497 -0.2376  0.1591  0.2827
16245SOL     OW54570   6.089   0.636   2.848 -0.0189 -0.0372 -0.0541
16245SOL    HW154571   6.016   0.660   2.791  0.5746  1.3072 -0.2562
16245SOL    HW254572   6.125   0.557   2.808 -1.5983 -0.9810  0.2760
16246SOL     OW54573   1.829   0.173   8.180  0.0078 -0.2194 -0.1132
16246SOL    HW154574   1.893   0.201   8.246  0.3073 -0.9550 -0.0784
16246SOL    HW254575   1.862   0.207   8.098  0.0739 -0.0012  0.0049
16247SOL     OW54576  10.438   0.179   6.356  0.2298 -0.4512 -0.0924
16247SOL    HW154577  10.477   0.149   6.437  0.7356  0.8845  0.1786
16247SOL    HW254578  10.498   0.149   6.287  1.1298  0.5475  0.2291
16248SOL     OW54579   8.781   5.654   0.680  0.0871 -0.2266 -0.2477
16248SOL    HW154580   8.861   5.607   0.657 -0.0596 -0.9757  0.7467
16248SOL    HW254581   8.812   5.733   0.724  0.3074  0.2588 -1.2335
16249SOL     OW54582   3.409   9.800  10.257  0.3292 -0.1201 -0.2978
16249SOL    HW154583   3.313   9.808  10.258  0.3662  0.6640 -1.2920
16249SOL    HW254584   3.426   9.714  10.295 -0.8124 -0.6000 -0.8240
16250SOL     OW54585   4.645   2.893   0.495  0.7701 -0.2823 -0.6012
16250SOL    HW154586   4.643   2.987   0.478 -0.4032 -0.0034  0.9218
16250SOL    HW254587   4.615   2.883   0.585 -0.5817 -2.2127 -1.1870
16251SOL     OW54588   9.825   5.944   3.458  0.3425 -0.0625 -0.3985
16251SOL    HW154589   9.764   5.878   3.424 -0.4332  0.2300  0.4131
16251SOL    HW254590   9.773   6.024   3.465  0.4351 -0.1163  1.5113
16252SOL     OW54591   0.893   7.986  10.653  0.1625 -0.2925  0.2165
16252SOL    HW154592   0.864   7.921  10.717  1.5885 -0.9113  0.2710
16252SOL    HW254593   0.897   7.939  10.570 -0.0762  0.0822 -0.0126
16253SOL     OW54594   2.297  10.400   6.326 -0.2581  0.7495 -0.1643
16253SOL    HW154595   2.212  10.415   6.284 -0.5304 -0.1823  0.0212
16253SOL    HW254596   2.339  10.485   6.326  0.5996  0.4936 -4.1123
16254SOL     OW54597   6.091   3.321   8.386 -0.3152 -0.0347 -0.2933
16254SOL    HW154598   6.060   3.394   8.440 -1.2077  0.0168 -0.8453
16254SOL    HW254599   6.071   3.243   8.438  1.6097  0.1208  0.7698
16255SOL     OW54600   4.113   0.613   4.602 -0.2939 -0.3287 -0.4014
16255SOL    HW154601   4.104   0.615   4.697  0.0330 -1.1154 -0.3461
16255SOL    HW254602   4.096   0.704   4.574 -1.7842 -0.3749  0.2649
16256SOL     OW54603   9.730   2.638   7.323 -0.3585 -0.3221 -0.3673
16256SOL    HW154604   9.810   2.598   7.357 -0.0676  1.3029  0.9951
16256SOL    HW254605   9.670   2.565   7.310  0.4667 -1.3062  1.1088
16257SOL     OW54606   3.210   1.967   5.610  0.2620 -0.2339 -0.0999
16257SOL    HW154607   3.117   1.968   5.588  0.1188  0.0985  0.4802
16257SOL    HW254608   3.212   1.971   5.706  0.8390 -2.1343  0.0171
16258SOL     OW54609   3.489   9.400   0.040 -0.0663 -0.1948  0.1540
16258SOL    HW154610   3.522   9.459  -0.028 -0.7702 -0.7105 -0.6508
16258SOL    HW254611   3.519   9.440   0.122  1.1892  0.2043 -0.4570
16259SOL     OW54612   9.032   1.746   4.874  0.1358 -0.1749  0.1025
16259SOL    HW154613   8.988   1.828   4.897 -2.4203 -1.1703 -0.9240
16259SOL    HW254614   8.995   1.721   4.790  1.1560 -2.1923  0.1937
16260SOL     OW54615   3.382   8.565   6.104  0.0015  0.2548 -0.5735
16260SOL    HW154616   3.352   8.481   6.139  0.3101 -0.3326 -1.6632
16260SOL    HW254617   3.333   8.575   6.022  0.6412  0.6892 -0.9046
16261SOL     OW54618   3.311   7.353   8.182 -0.6311 -0.3088 -0.1818
16261SOL    HW154619   3.225   7.394   8.172 -0.0178  0.8147 -1.0130
16261SOL    HW254620   3.374   7.420   8.156  0.5542 -0.8803  1.0705
16262SOL     OW54621   6.395   9.652   2.292  0.7194 -0.0382  0.2803
16262SOL    HW154622   6.375   9.606   2.210 -0.4663 -1.3606  1.2521
16262SOL    HW254623   6.340   9.731   2.289 -1.8669 -1.6525  1.1176
16263SOL     OW54624   0.419   9.611   9.263  0.2523  0.5959  0.4620
16263SOL    HW154625   0.501   9.588   9.306  0.0950  0.0766  0.4910
16263SOL    HW254626   0.441   9.685   9.207  0.5382  1.0415  1.1598
16264SOL     OW54627   0.446   8.511   0.329  0.3546  0.2127 -0.0958
16264SOL    HW154628   0.396   8.528   0.249 -0.7813 -0.3016  0.4870
16264SOL    HW254629   0.400   8.559   0.397  0.7473 -0.1474  0.4351
16265SOL     OW54630   5.931   6.462   5.197 -0.3318  0.1071 -0.5234
16265SOL    HW154631   5.872   6.537   5.207 -0.4956 -0.0083 -0.6171
16265SOL    HW254632   5.923   6.438   5.105 -1.8153 -1.2779 -0.0688
16266SOL     OW54633  10.314   2.103   5.313  0.5411  0.6251 -0.6403
16266SOL    HW154634  10.243   2.165   5.296 -0.5871  0.4250  2.5817
16266SOL    HW254635  10.388   2.158   5.338  0.3214  0.7632 -0.2760
16267SOL     OW54636   9.552   2.799   2.229 -0.9101  0.1681  0.4487
16267SOL    HW154637   9.518   2.880   2.267  0.2540  0.4996  0.8173
16267SOL    HW254638   9.513   2.729   2.283 -2.5554  0.4020 -0.3668
16268SOL     OW54639   5.820   3.119   0.993  0.2008  0.1536  0.0812
16268SOL    HW154640   5.885   3.051   1.011  1.1917  0.6032 -1.5371
16268SOL    HW254641   5.786   3.144   1.079  0.3683 -1.8148  0.7739
16269SOL     OW54642   0.676   9.535   7.808  0.1237 -0.1049 -0.1422
16269SOL    HW154643   0.588   9.501   7.793 -0.0136 -0.1677  0.7559
16269SOL    HW254644   0.693   9.517   7.901  0.3106  1.6653  0.1976
16270SOL     OW54645   0.568   4.561   9.162  0.2102  0.7160  0.5448
16270SOL    HW154646   0.567   4.504   9.085 -1.8265  0.6009  0.6057
16270SOL    HW254647   0.529   4.509   9.232  2.3515  0.7063  1.8083
16271SOL     OW54648   3.272   8.561   0.839 -0.2354 -0.4082  0.2547
16271SOL    HW154649   3.251   8.497   0.770  0.4707 -0.9924  0.5742
16271SOL    HW254650   3.365   8.547   0.857  0.2441  1.5015 -0.4836
16272SOL     OW54651   9.072   9.700   1.438  0.0954  0.1271 -0.0222
16272SOL    HW154652   9.045   9.650   1.515  1.3752  0.6901  0.8368
16272SOL    HW254653   9.102   9.784   1.474  0.4381  0.5107 -1.1705
16273SOL     OW54654   2.352   4.607   6.145  0.9723  0.5309 -0.1058
16273SOL    HW154655   2.358   4.682   6.086  1.0975  0.7870  0.2298
16273SOL    HW254656   2.337   4.645   6.231  0.3410  0.1330 -0.0396
16274SOL     OW54657   5.244   5.835   5.669  0.4106 -0.4326 -0.0566
16274SOL    HW154658   5.182   5.907   5.683 -0.0719 -1.0243  1.0734
16274SOL    HW254659   5.189   5.757   5.671  0.9891 -0.8654 -0.7884
16275SOL     OW54660   8.730   9.044   5.346  0.0707  0.7947  0.3943
16275SOL    HW154661   8.668   9.036   5.419 -1.8563  1.1980 -1.1136
16275SOL    HW254662   8.744   8.954   5.317  0.3036  0.6951  0.7951
16276SOL     OW54663   5.834   7.671   7.455  0.1610  0.6924 -0.1660
16276SOL    HW154664   5.837   7.683   7.550 -0.7010  0.5766 -0.1143
16276SOL    HW254665   5.769   7.735   7.425 -0.8839 -0.4681 -0.4624
16277SOL     OW54666   4.875   4.209   0.537 -0.6949 -0.3686  0.6745
16277SOL    HW154667   4.886   4.175   0.448  1.3755  0.1786  0.6598
16277SOL    HW254668   4.941   4.162   0.589 -2.5168 -1.3738  2.1686
16278SOL     OW54669   8.006   6.141   1.261 -0.1088  0.3830  0.0727
16278SOL    HW154670   8.034   6.204   1.327 -0.7993  0.3949  0.3638
16278SOL    HW254671   8.086   6.094   1.237  0.7680  2.4183 -1.3068
16279SOL     OW54672  10.054   9.210   4.141 -0.2116  0.3604  0.3686
16279SOL    HW154673  10.014   9.127   4.116 -0.1490 -0.0309  1.5167
16279SOL    HW254674  10.140   9.208   4.100 -1.1186  0.9800 -1.6826
16280SOL     OW54675   8.553   4.181   9.972  0.0026  0.3413  0.1495
16280SOL    HW154676   8.612   4.256   9.974  0.5847 -0.1073 -0.1476
16280SOL    HW254677   8.563   4.144   9.884 -0.6704  0.2200  0.1124
16281SOL     OW54678   5.535  10.258  10.429  0.1983  0.5916 -0.0361
16281SOL    HW154679   5.587  10.238  10.351  0.4363 -0.8071  0.4541
16281SOL    HW254680   5.475  10.327  10.400 -0.8608 -1.0339 -1.9546
16282SOL     OW54681   5.493   8.638   4.882  0.3715  0.1812 -0.2960
16282SOL    HW154682   5.401   8.634   4.908 -0.1179  0.1037 -1.9293
16282SOL    HW254683   5.501   8.721   4.836  1.4735  0.8360  1.0054
16283SOL     OW54684   8.320   0.090   7.038  0.1869  0.0023 -0.2756
16283SOL    HW154685   8.353   0.160   6.983 -0.0782  1.1790  0.9851
16283SOL    HW254686   8.299   0.133   7.121 -1.7337 -1.2149 -0.0582
16284SOL     OW54687   9.579   9.512   9.629  0.4984  0.2700  0.0027
16284SOL    HW154688   9.603   9.529   9.720 -0.3404  0.1546  0.2540
16284SOL    HW254689   9.639   9.444   9.600  2.6261  2.1913 -0.4093
16285SOL     OW54690   9.146   0.488   4.042 -0.2324  0.2866  0.0330
16285SOL    HW154691   9.098   0.412   4.009 -0.6066  0.8940 -0.8764
16285SOL    HW254692   9.096   0.564   4.009  0.3272  0.9263  0.6233
16286SOL     OW54693   9.139   8.294   5.658 -0.0033  0.1375 -0.4422
16286SOL    HW154694   9.126   8.274   5.566 -2.1995  0.3563 -0.2212
16286SOL    HW254695   9.082   8.233   5.705  0.5171  0.5196  0.7362
16287SOL     OW54696   0.519   2.406   2.537 -0.4944  0.2890 -0.3976
16287SOL    HW154697   0.533   2.416   2.443  0.7856 -1.4579 -0.4397
16287SOL    HW254698   0.536   2.314   2.554  0.3663  0.7840  1.7054
16288SOL     OW54699   1.705   9.162   9.821  0.3145 -0.0605  0.1367
16288SOL    HW154700   1.735   9.249   9.848  0.7106  0.3837 -1.6408
16288SOL    HW254701   1.668   9.175   9.734  0.0342 -1.6087 -0.0028
16289SOL     OW54702   4.758   3.644   8.700 -0.0524  0.2200 -0.0910
16289SOL    HW154703   4.787   3.672   8.613 -0.2921  1.0010  0.0743
16289SOL    HW254704   4.770   3.549   8.699  0.5341  0.2867 -0.7589
16290SOL     OW54705   4.206  10.434   1.746  0.2621 -0.0476 -0.1395
16290SOL    HW154706   4.262  10.423   1.823  0.2375  0.9732  0.0333
16290SOL    HW254707   4.159  10.516   1.761 -0.5277 -0.3702 -0.7594
16291SOL     OW54708   6.631   9.147   1.660  0.1849 -0.1790 -0.1308
16291SOL    HW154709   6.712   9.103   1.636 -0.5920 -1.2453 -0.9018
16291SOL    HW254710   6.562   9.087   1.632 -0.8818  0.9025  0.0909
16292SOL     OW54711   0.521   5.010   0.317 -0.1932  0.7070  0.1606
16292SOL    HW154712   0.594   4.959   0.284 -0.8988  1.2779 -2.5355
16292SOL    HW254713   0.455   4.945   0.341  0.5328  0.2543  0.9839
16293SOL     OW54714   3.243   6.949   3.422 -0.2874 -0.0447 -0.0592
16293SOL    HW154715   3.183   6.879   3.449  0.7019 -1.2359 -0.8023
16293SOL    HW254716   3.229   6.957   3.328 -0.4694  0.8620  0.0407
16294SOL     OW54717   8.658   5.202   1.402 -0.2321 -0.1147  0.3559
16294SOL    HW154718   8.652   5.258   1.325 -1.4381 -1.6720 -0.7671
16294SOL    HW254719   8.568   5.173   1.418  0.3835 -2.0900  0.5477
16295SOL     OW54720   2.004   3.174   1.557 -0.5421  0.3864 -0.2877
16295SOL    HW154721   1.980   3.084   1.581  0.5526  0.3933  0.9061
16295SOL    HW254722   2.002   3.175   1.462 -0.8590 -0.8223 -0.3052
16296SOL     OW54723   0.260   3.683   7.047  0.0059 -0.2655 -0.0600
16296SOL    HW154724   0.169   3.686   7.017  0.1743  0.6243 -0.5199
16296SOL    HW254725   0.304   3.625   6.985 -0.1834 -0.4593 -0.0147
16297SOL     OW54726   0.523   8.444   2.556  0.8490 -0.3106 -0.1792
16297SOL    HW154727   0.462   8.485   2.617  0.9953  0.3136 -0.4405
16297SOL    HW254728   0.529   8.506   2.483  0.7629 -0.9873 -0.7721
16298SOL     OW54729   8.557   5.019   1.870  0.3460  0.8564 -0.1190
16298SOL    HW154730   8.483   5.048   1.816  1.5098  0.7646 -1.8641
16298SOL    HW254731   8.573   4.929   1.841  1.9807  1.3318 -0.7976
16299SOL     OW54732   5.461   9.106   5.259  0.3839  0.2264  0.2467
16299SOL    HW154733   5.502   9.091   5.344  0.8461 -1.3018 -0.2093
16299SOL    HW254734   5.447   9.018   5.223  0.5610  0.8373 -1.4205
16300SOL     OW54735   1.972   7.995   4.145 -0.2036  0.1333 -0.0877
16300SOL    HW154736   1.947   7.963   4.058 -0.4679  0.9402 -0.3154
16300SOL    HW254737   2.064   8.020   4.136  1.1675 -3.7854  1.0130
16301SOL     OW54738   5.660   7.975   2.629  0.4097 -0.5984 -0.0284
16301SOL    HW154739   5.618   8.038   2.571  0.1475 -0.8903 -0.1580
16301SOL    HW254740   5.625   7.890   2.602  2.4758 -1.0742 -1.3753
16302SOL     OW54741   8.388   0.297   6.889  0.3250 -0.3581 -0.3451
16302SOL    HW154742   8.310   0.311   6.834 -0.0165 -1.2277 -0.0879
16302SOL    HW254743   8.459   0.285   6.826 -0.0114 -1.0298 -0.6132
16303SOL     OW54744   9.693   6.932   9.919  0.1248  0.7098 -0.4178
16303SOL    HW154745   9.661   7.022   9.931 -0.6240  0.2344  1.6260
16303SOL    HW254746   9.787   6.938   9.934 -0.1775  0.9113  1.8421
16304SOL     OW54747   3.591   9.949   5.470  0.4508  0.0434 -0.0298
16304SOL    HW154748   3.552   9.968   5.384 -1.4677 -0.2174  0.7449
16304SOL    HW254749   3.539   9.999   5.532  1.4365 -0.2500  1.0711
16305SOL     OW54750   2.178   8.169   1.477  0.2005  0.0636 -0.1399
16305SOL    HW154751   2.117   8.153   1.405  0.3080 -0.8311 -0.0357
16305SOL    HW254752   2.214   8.256   1.458 -0.7400  0.3910 -0.4622
16306SOL     OW54753   3.919   1.982   4.088  0.1236 -0.2695  0.2508
16306SOL    HW154754   3.955   2.067   4.062 -1.2380  0.2990  0.1539
16306SOL    HW254755   3.996   1.925   4.097  0.9524  0.6028 -1.0214
16307SOL     OW54756   4.274   6.613   6.652 -0.7965  0.3076 -0.3511
16307SOL    HW154757   4.224   6.532   6.646 -1.2141  0.4164  1.3276
16307SOL    HW254758   4.366   6.585   6.650 -0.9335 -0.1435 -0.3284
16308SOL     OW54759   8.847   6.652   3.567 -0.3200 -0.0547 -0.0840
16308SOL    HW154760   8.825   6.734   3.523 -0.3616  0.1565  0.3248
16308SOL    HW254761   8.765   6.621   3.605 -0.1303  0.1833  0.5297
16309SOL     OW54762   5.662   0.145   7.394  0.0267 -0.0888 -0.7803
16309SOL    HW154763   5.630   0.165   7.307 -2.2947 -2.8613 -0.7206
16309SOL    HW254764   5.712   0.063   7.383  0.7125  0.1520  0.3320
16310SOL     OW54765   2.714   2.491   6.840 -0.1460 -0.0844 -0.0504
16310SOL    HW154766   2.690   2.471   6.750  0.2791  0.4604 -0.2925
16310SOL    HW254767   2.783   2.558   6.833  0.1689 -0.3170  0.6658
16311SOL     OW54768   4.514   1.514   4.006  0.2153 -0.5906  0.0357
16311SOL    HW154769   4.558   1.434   3.976  0.8831 -1.1617  2.3195
16311SOL    HW254770   4.496   1.497   4.099  0.7738  2.0826  0.7007
16312SOL     OW54771   6.874   9.767   6.282 -0.1434 -0.2156 -0.5830
16312SOL    HW154772   6.818   9.812   6.220 -0.8872  1.0661  0.9515
16312SOL    HW254773   6.831   9.683   6.298 -0.3507 -0.2259 -1.2037
16313SOL     OW54774   7.390   6.263  10.171 -0.0016 -0.1254  0.3373
16313SOL    HW154775   7.402   6.174  10.204  0.7330  0.5831  2.0763
16313SOL    HW254776   7.404   6.255  10.076  0.0995 -1.8303  0.4624
16314SOL     OW54777   9.188   0.755   8.372 -0.5453 -0.7504 -0.0666
16314SOL    HW154778   9.207   0.847   8.388 -1.5811  0.0017 -2.5961
16314SOL    HW254779   9.259   0.707   8.415  1.5131  1.3863 -0.8953
16315SOL     OW54780   3.711   3.069   8.600 -0.0135  0.1402 -0.2141
16315SOL    HW154781   3.637   3.128   8.588 -0.2262 -0.4987 -2.4474
16315SOL    HW254782   3.728   3.071   8.694 -4.3331 -1.4748  0.8128
16316SOL     OW54783   7.068   3.697  10.175 -0.0110 -0.0076 -0.1249
16316SOL    HW154784   6.976   3.673  10.187  0.2827 -1.3605 -0.4236
16316SOL    HW254785   7.112   3.615  10.154  1.3914  0.5121  0.6442
16317SOL     OW54786   5.610   9.831   0.237  0.4300 -0.2237 -0.0169
16317SOL    HW154787   5.616   9.778   0.157 -2.3961  0.2943 -0.6919
16317SOL    HW254788   5.647   9.916   0.212 -1.2582  0.2358 -1.1741
16318SOL     OW54789  10.365   2.901   9.790 -0.5256  0.1934  0.0971
16318SOL    HW154790  10.345   2.808   9.778 -1.2284  0.4100 -0.4913
16318SOL    HW254791  10.375   2.935   9.700  0.2072  0.5869  0.3169
16319SOL     OW54792   0.057   2.527   8.890 -0.0374  0.4899 -0.8022
16319SOL    HW154793   0.061   2.451   8.948 -0.8809  1.4939  0.6509
16319SOL    HW254794   0.085   2.494   8.805  1.2457 -1.0509  0.1567
16320SOL     OW54795   3.736   4.772   9.614 -0.3284  0.0204 -0.3642
16320SOL    HW154796   3.658   4.820   9.643 -0.4704 -0.4943  0.1314
16320SOL    HW254797   3.799   4.783   9.686 -0.7274 -1.3803  0.2196
16321SOL     OW54798   2.451   9.418   2.435  0.1743  0.1051 -0.0259
16321SOL    HW154799   2.392   9.354   2.475  1.0520 -2.8415 -2.9889
16321SOL    HW254800   2.393   9.478   2.389 -0.6639 -1.1678 -0.7082
16322SOL     OW54801   7.105   5.269   0.367 -0.0584 -0.0710 -0.1101
16322SOL    HW154802   7.166   5.196   0.353  0.4316 -0.0481  1.6422
16322SOL    HW254803   7.069   5.253   0.454 -2.7108 -0.1418 -1.1473
16323SOL     OW54804   4.781   1.110   5.181 -0.1056  0.2618 -0.4072
16323SOL    HW154805   4.811   1.192   5.219 -0.5463  0.7000 -0.9807
16323SOL    HW254806   4.861   1.064   5.156  0.1816  0.0554  0.8441
16324SOL     OW54807   0.559  10.330   5.623 -0.0297 -0.6043 -0.0053
16324SOL    HW154808   0.542  10.260   5.560 -1.2132 -0.6039  0.3047
16324SOL    HW254809   0.643  10.306   5.663  0.6708 -0.6820 -1.4494
16325SOL     OW54810   8.555   4.017   3.748  0.1949 -0.5135 -0.4385
16325SOL    HW154811   8.562   4.092   3.689  0.7558 -0.0703  0.1645
16325SOL    HW254812   8.487   4.042   3.810 -1.0031 -1.3379 -1.3792
16326SOL     OW54813   6.274   5.209   3.084  0.1959  0.4687  0.0983
16326SOL    HW154814   6.315   5.280   3.134 -2.0188  1.4337  0.6770
16326SOL    HW254815   6.180   5.224   3.095 -0.3354 -1.4130 -1.4423
16327SOL     OW54816   2.273   4.699   3.756  0.4678 -0.3415 -0.1611
16327SOL    HW154817   2.327   4.665   3.685 -0.8855 -2.3104 -0.3379
16327SOL    HW254818   2.214   4.762   3.714  1.0498  0.0722 -0.3736
16328SOL     OW54819   2.452  10.161  10.703  0.6863 -0.1682  0.6616
16328SOL    HW154820   2.443  10.109  10.623  0.4736 -0.7066  1.0264
16328SOL    HW254821   2.518  10.227  10.682  0.2759  0.0028 -0.1064
16329SOL     OW54822   1.782   0.494   9.939 -0.9731  0.3842 -0.4823
16329SOL    HW154823   1.838   0.492   9.862 -1.4751  1.5753 -0.9152
16329SOL    HW254824   1.693   0.487   9.905 -1.1290 -1.7249  0.2117
16330SOL     OW54825   5.717   5.757   1.436  0.6062  0.0882 -0.1143
16330SOL    HW154826   5.694   5.721   1.350 -0.8810 -2.2330  1.1404
16330SOL    HW254827   5.661   5.834   1.446 -1.2431 -1.1784 -0.1991
16331SOL     OW54828   9.662   0.938   8.287  0.1147 -0.2105 -0.1244
16331SOL    HW154829   9.752   0.913   8.266  0.0067  0.2331 -1.1675
16331SOL    HW254830   9.653   0.921   8.380  1.0811 -0.8766 -0.1442
16332SOL     OW54831   3.724   5.751   5.999 -0.6635 -0.4946  0.3144
16332SOL    HW154832   3.639   5.795   5.993  0.4979  1.9282  0.4307
16332SOL    HW254833   3.783   5.817   6.036  1.9007 -1.1207 -2.2608
16333SOL     OW54834   7.872   2.858   5.498  0.1707  0.2018 -0.5928
16333SOL    HW154835   7.959   2.874   5.461  0.1726  0.3577 -0.5215
16333SOL    HW254836   7.882   2.880   5.591  0.3570 -0.8554 -0.3447
16334SOL     OW54837   0.294   9.613   6.105 -0.4521 -0.1728 -0.2592
16334SOL    HW154838   0.375   9.658   6.081 -0.8593  0.0421 -1.3121
16334SOL    HW254839   0.294   9.533   6.052 -1.3323  0.2583 -0.9436
16335SOL     OW54840   7.775   6.922   4.669 -0.4648  0.4122  0.1079
16335SOL    HW154841   7.710   6.988   4.642 -0.3203  0.6769  0.3979
16335SOL    HW254842   7.736   6.882   4.747 -0.8738 -0.3377 -0.4619
16336SOL     OW54843   2.847   1.109   9.716 -0.1046  0.4665 -0.1760
16336SOL    HW154844   2.866   1.140   9.628  1.6965  0.7724  0.2954
16336SOL    HW254845   2.795   1.030   9.703  1.8393 -0.6369 -1.5876
16337SOL     OW54846   4.468   2.118   9.163  0.0729 -0.2040  0.0369
16337SOL    HW154847   4.411   2.094   9.090  0.5943 -1.3332 -0.0196
16337SOL    HW254848   4.455   2.213   9.173 -2.5775 -0.5540  0.7203
16338SOL     OW54849   2.731   3.892   1.027  0.2637 -0.2036 -0.4115
16338SOL    HW154850   2.768   3.980   1.035 -0.2744 -0.1271  1.5706
16338SOL    HW254851   2.667   3.886   1.097  0.3151 -2.2016 -0.4885
16339SOL     OW54852   5.862   7.652   0.961 -0.1951  0.5165 -0.2157
16339SOL    HW154853   5.892   7.626   1.048 -0.2757  0.4164 -0.2180
16339SOL    HW254854   5.820   7.737   0.974  3.7564  2.8062 -0.8157
16340SOL     OW54855   9.669   8.966   8.722  0.2440 -0.1795  0.0467
16340SOL    HW154856   9.726   9.014   8.662  1.0527 -0.8630  0.2443
16340SOL    HW254857   9.583   9.004   8.709  0.8734  1.3672  0.2618
16341SOL     OW54858   6.989   5.676   7.376  0.5958 -0.8816  0.0092
16341SOL    HW154859   6.924   5.745   7.360  2.0499  0.8080  0.9714
16341SOL    HW254860   6.943   5.594   7.358 -1.3860  0.3095 -0.6029
16342SOL     OW54861   7.371   9.521   8.754  0.0958 -0.2509 -0.5200
16342SOL    HW154862   7.388   9.433   8.789 -2.0886 -0.8193 -0.6978
16342SOL    HW254863   7.278   9.518   8.729  0.3863  1.6266 -1.9920
16343SOL     OW54864   2.729   4.300   2.740  0.1638  0.2142  0.5020
16343SOL    HW154865   2.743   4.206   2.730  1.3790  0.1172  2.5702
16343SOL    HW254866   2.754   4.337   2.656 -0.9561 -1.3517 -0.5648
16344SOL     OW54867   0.182   6.616   9.591 -0.4065  0.1599 -0.2087
16344SOL    HW154868   0.113   6.578   9.537 -0.1984  0.0936 -0.4326
16344SOL    HW254869   0.171   6.710   9.582 -0.6029  0.1506 -0.0680
16345SOL     OW54870   4.198   2.192   9.434 -0.6613 -0.6457 -0.4694
16345SOL    HW154871   4.237   2.145   9.508  1.1661 -0.5633 -1.3429
16345SOL    HW254872   4.192   2.282   9.464 -0.9375 -0.7993 -0.0475
16346SOL     OW54873   9.871   7.408   2.963 -0.1033  0.2297  0.1110
16346SOL    HW154874   9.910   7.386   2.879  0.6293  0.2107  0.4548
16346SOL    HW254875   9.901   7.497   2.981 -1.0035  0.5885 -0.0717
16347SOL     OW54876   6.574   7.850   4.915 -0.4732 -0.4826  0.8911
16347SOL    HW154877   6.505   7.887   4.859  0.1802  0.1791  0.4988
16347SOL    HW254878   6.583   7.914   4.986 -2.4751 -2.1233  2.7601
16348SOL     OW54879   9.517   6.230   8.967  0.1704 -0.1837 -0.1360
16348SOL    HW154880   9.550   6.213   8.879  1.4457  1.2492  0.0221
16348SOL    HW254881   9.580   6.187   9.025 -0.3099 -0.5746  0.1103
16349SOL     OW54882   6.075   0.687   1.539  0.2047  0.2102  0.1222
16349SOL    HW154883   6.118   0.759   1.494 -0.6595  0.0293 -1.0317
16349SOL    HW254884   6.119   0.608   1.506  1.6051  0.1788  1.8742
16350SOL     OW54885   5.215   2.101   9.835  0.4224 -0.2849 -0.8120
16350SOL    HW154886   5.191   2.158   9.762 -0.6991  0.6437  0.2350
16350SOL    HW254887   5.173   2.141   9.911  1.4116 -1.3226  0.3192
16351SOL     OW54888   7.422   5.780   7.016  0.2039 -0.2002  0.2326
16351SOL    HW154889   7.377   5.858   7.048 -1.1244 -0.6758 -0.3903
16351SOL    HW254890   7.496   5.814   6.966  0.1439  0.6378  0.6925
16352SOL     OW54891   3.443   1.339   6.690  0.0243  0.3462 -0.2267
16352SOL    HW154892   3.486   1.256   6.712  0.4260  0.8963  1.2402
16352SOL    HW254893   3.353   1.328   6.722 -0.3923 -0.0827 -1.4918
16353SOL     OW54894   7.106   5.754   8.161  0.2382 -0.5135  0.1740
16353SOL    HW154895   7.191   5.758   8.205 -0.6400 -0.3890  1.9878
16353SOL    HW254896   7.090   5.660   8.150  1.2781 -0.5204 -1.6596
16354SOL     OW54897  10.532   8.334   8.831  0.0041  0.3092  0.3241
16354SOL    HW154898  10.462   8.285   8.874 -0.6862  0.9121 -0.0990
16354SOL    HW254899  10.570   8.386   8.902  0.1369 -0.1387  0.5876
16355SOL     OW54900   4.473   2.194   8.357  0.3106  0.6459 -0.2240
16355SOL    HW154901   4.504   2.284   8.364  0.9346  0.5223 -1.1801
16355SOL    HW254902   4.444   2.185   8.266  1.3094 -0.4344 -0.4625
16356SOL     OW54903   6.579   8.443   0.666  0.4504  0.3403 -0.1328
16356SOL    HW154904   6.669   8.409   0.663  1.0063  1.7636 -0.6268
16356SOL    HW254905   6.587   8.533   0.636 -1.2125  0.3983 -0.4763
16357SOL     OW54906   5.865   3.034   4.091  0.1298 -0.1696 -0.2521
16357SOL    HW154907   5.819   3.029   4.174 -0.8766  2.3917 -0.5668
16357SOL    HW254908   5.812   2.983   4.030  0.4124 -1.3275  0.4339
16358SOL     OW54909   9.934   4.477  10.150  0.2078  0.0997  0.0442
16358SOL    HW154910   9.907   4.420  10.079 -0.3066 -0.6997  0.8616
16358SOL    HW254911   9.992   4.423  10.204  0.1389  0.5126  0.5419
16359SOL     OW54912   4.877  10.064   5.322 -0.2453  0.5807  0.1903
16359SOL    HW154913   4.945  10.036   5.260 -0.0242 -2.3414  1.5598
16359SOL    HW254914   4.920  10.131   5.376  1.3553 -0.6725  0.5474
16360SOL     OW54915   4.829   0.030   8.214 -0.4033 -0.2969 -0.0889
16360SOL    HW154916   4.766  -0.032   8.253 -0.4870 -0.1104  0.0730
16360SOL    HW254917   4.837   0.001   8.124 -0.1405 -0.7883  0.0891
16361SOL     OW54918   1.109   9.575   7.764 -0.1186  0.2220  0.2905
16361SOL    HW154919   1.190   9.616   7.794  0.1636 -1.1046  1.4404
16361SOL    HW254920   1.057   9.564   7.843 -1.0691  0.2372 -0.3086
16362SOL     OW54921   3.606   0.512   7.358  0.3491 -0.1677  0.2277
16362SOL    HW154922   3.621   0.573   7.431 -0.7670  0.5076 -0.0761
16362SOL    HW254923   3.556   0.440   7.397  0.2607 -0.0911  0.2578
16363SOL     OW54924   1.437   1.151   7.171 -0.2855  0.2009  0.0377
16363SOL    HW154925   1.484   1.163   7.253 -1.0304  2.3155  0.1954
16363SOL    HW254926   1.506   1.141   7.105  0.3308 -0.0689  0.7185
16364SOL     OW54927  10.192   5.801   3.735  0.2864 -0.1012  0.0432
16364SOL    HW154928  10.173   5.747   3.658 -0.9963  2.1570 -1.3478
16364SOL    HW254929  10.134   5.767   3.803  0.8627 -1.6309 -0.1871
16365SOL     OW54930   7.800   0.360   1.170  0.6723 -0.1575 -0.1945
16365SOL    HW154931   7.817   0.448   1.202  1.8892 -0.6551  0.6062
16365SOL    HW254932   7.887   0.323   1.156  0.1977 -1.5772  0.4665
16366SOL     OW54933   0.461   3.025   9.799 -0.4603 -0.0930 -0.7122
16366SOL    HW154934   0.492   3.007   9.887 -0.1853  2.0492 -0.3205
16366SOL    HW254935   0.521   2.976   9.742  1.3564  0.9826  0.1904
16367SOL     OW54936   0.116   2.504   6.005  0.2533 -0.0379  0.0814
16367SOL    HW154937   0.064   2.475   6.080 -1.3989  0.4889 -0.8205
16367SOL    HW254938   0.052   2.535   5.941  1.6936  0.9407 -0.9610
16368SOL     OW54939   6.333   7.259   4.255  0.2351 -0.1129 -0.7735
16368SOL    HW154940   6.250   7.214   4.269  0.8036 -0.8638  0.2885
16368SOL    HW254941   6.307   7.347   4.227 -0.9020 -0.5397 -1.1523
16369SOL     OW54942   3.940   8.589   2.871  0.3207 -0.2809  0.3367
16369SOL    HW154943   3.992   8.546   2.804  0.1109  0.6551 -0.4466
16369SOL    HW254944   3.873   8.638   2.823 -0.6289 -0.6018  1.2773
16370SOL     OW54945   6.517   7.388   1.520  0.3564  0.2157  0.4311
16370SOL    HW154946   6.434   7.347   1.495  0.4196  0.8143 -0.8088
16370SOL    HW254947   6.541   7.344   1.602 -1.1836  0.0422  0.8326
16371SOL     OW54948   5.553   0.685   5.348 -0.1557 -0.3488 -0.6050
16371SOL    HW154949   5.471   0.731   5.368 -0.6635 -0.4856 -2.2221
16371SOL    HW254950   5.538   0.646   5.262  1.6811 -0.2406 -1.0071
16372SOL     OW54951   8.551  10.570   5.899 -0.8649  0.0227  0.4582
16372SOL    HW154952   8.487  10.508   5.935  0.5211 -2.0291 -0.4250
16372SOL    HW254953   8.626  10.564   5.959  0.2427 -1.0742 -0.9814
16373SOL     OW54954   5.061   5.172   4.195  0.6562  0.5071 -0.1508
16373SOL    HW154955   4.969   5.162   4.170  0.8763  0.4816 -0.9695
16373SOL    HW254956   5.105   5.201   4.115  0.8861  3.3754  0.8700
16374SOL     OW54957   8.480   2.232   1.749 -0.0682 -0.0490  0.0992
16374SOL    HW154958   8.528   2.159   1.788 -2.2803 -0.9098  1.4023
16374SOL    HW254959   8.489   2.303   1.813 -1.5079 -0.6322  1.0189
16375SOL     OW54960   8.325   1.532   4.218 -0.5194  0.2089  0.0103
16375SOL    HW154961   8.303   1.457   4.162 -4.0271  1.7746 -0.9955
16375SOL    HW254962   8.334   1.495   4.305  0.9760 -1.7377 -0.8877
16376SOL     OW54963  10.260   6.872   0.024  0.2562  0.1395  0.2035
16376SOL    HW154964  10.298   6.808  -0.036 -2.3055 -1.3018 -0.0230
16376SOL    HW254965  10.203   6.925  -0.032  1.6465  2.1311  0.5596
16377SOL     OW54966   9.538   5.918   4.361  0.8215 -0.4649 -0.2186
16377SOL    HW154967   9.479   5.947   4.431  1.7675 -2.0176  1.3039
16377SOL    HW254968   9.512   5.828   4.343  1.9683 -0.7994 -0.3144
16378SOL     OW54969   6.285   8.891   3.067 -0.4120  0.4307  0.1827
16378SOL    HW154970   6.379   8.891   3.047 -0.6568 -0.0543 -1.0026
16378SOL    HW254971   6.282   8.869   3.161  0.7023  1.9302  0.6172
16379SOL     OW54972   5.331   4.759   7.927 -0.2774 -0.4699 -0.4809
16379SOL    HW154973   5.421   4.758   7.894  0.0785 -0.8214  0.4706
16379SOL    HW254974   5.308   4.666   7.937  0.0485 -0.3885  1.3378
16380SOL     OW54975   7.262  10.438   5.150 -0.1104  0.0314 -0.1902
16380SOL    HW154976   7.295  10.520   5.188  0.2882 -0.0530 -0.3561
16380SOL    HW254977   7.335  10.377   5.155 -0.5303 -0.4487  0.3084
16381SOL     OW54978   8.127   6.932   1.656  0.7531  0.0199  0.1704
16381SOL    HW154979   8.217   6.964   1.669  2.0979 -3.4559  0.5100
16381SOL    HW254980   8.126   6.903   1.565  0.0074 -0.0623  0.2034
16382SOL     OW54981   7.841   0.635   6.943  0.3123 -0.3760  0.6564
16382SOL    HW154982   7.830   0.725   6.973  1.7582 -0.8557  2.8455
16382SOL    HW254983   7.771   0.586   6.987 -1.3502 -0.1871 -1.6047
16383SOL     OW54984   2.067   0.776   3.085 -0.4201  0.1717  0.2050
16383SOL    HW154985   2.152   0.739   3.060  0.4770  3.3929 -2.1800
16383SOL    HW254986   2.084   0.818   3.170 -0.0272 -0.3561  0.3938
16384SOL     OW54987   6.150   5.233   5.954  0.0055  0.9128 -0.5423
16384SOL    HW154988   6.112   5.190   5.877  0.3516  0.5869 -0.5370
16384SOL    HW254989   6.245   5.219   5.944 -0.0371 -0.5638  0.7756
16385SOL     OW54990   6.728   5.307   6.366 -0.2547 -0.1818 -0.1595
16385SOL    HW154991   6.766   5.392   6.389  2.0039 -1.3630  0.8264
16385SOL    HW254992   6.676   5.324   6.287 -0.7302  2.2732  0.5862
16386SOL     OW54993  10.563   2.734   5.059  0.2090 -0.4774 -0.5634
16386SOL    HW154994  10.527   2.648   5.081 -0.0114 -0.5563 -1.2143
16386SOL    HW254995  10.576   2.777   5.144 -1.2897 -0.4968 -0.2796
16387SOL     OW54996   2.186   9.138   3.774 -0.1201  0.4010 -0.3596
16387SOL    HW154997   2.133   9.208   3.812  1.2729  0.9779  0.6008
16387SOL    HW254998   2.138   9.058   3.794 -1.0347  0.9689 -0.2446
16388SOL     OW54999   5.698   7.896   6.317  0.1936  0.0769  0.3437
16388SOL    HW155000   5.735   7.813   6.286  1.3380  0.1373  1.4922
16388SOL    HW255001   5.768   7.937   6.366 -0.9322  0.9055  1.3131
16389SOL     OW55002   3.679   3.952   7.812  0.2093 -0.0958 -0.3080
16389SOL    HW155003   3.590   3.947   7.846  0.7701 -0.3716  1.1733
16389SOL    HW255004   3.735   3.946   7.889  1.5726 -1.7631 -1.3702
16390SOL     OW55005   6.141   3.459   4.953 -0.1615  0.0342 -0.1046
16390SOL    HW155006   6.165   3.366   4.959  2.3425  0.6484  0.9247
16390SOL    HW255007   6.110   3.470   4.863  0.4895 -1.5980 -0.5728
16391SOL     OW55008   9.393   1.071   5.190 -0.8591 -0.1064  0.4010
16391SOL    HW155009   9.374   1.112   5.275 -0.7870 -1.9017  1.3265
16391SOL    HW255010   9.488   1.077   5.180 -0.8323 -0.1818  0.6126
16392SOL     OW55011   5.391   3.388   5.190 -0.3559 -0.6166 -0.0318
16392SOL    HW155012   5.378   3.482   5.173  1.2450 -0.3000  0.3354
16392SOL    HW255013   5.376   3.378   5.284 -0.4781 -0.7325 -0.0625
16393SOL     OW55014   1.291   9.604   4.985 -0.1696  0.0674 -0.4586
16393SOL    HW155015   1.381   9.618   5.015  0.1994 -0.7257 -1.1391
16393SOL    HW255016   1.294   9.622   4.891 -0.4468 -1.0724 -0.7067
16394SOL     OW55017   8.509   3.664   6.181  0.3374  0.0840 -0.2214
16394SOL    HW155018   8.601   3.679   6.158  0.3788 -0.1527 -0.2122
16394SOL    HW255019   8.504   3.691   6.273  0.2605  0.6531 -0.3872
16395SOL     OW55020   6.027  10.593   3.006  0.3836 -0.2408  0.3702
16395SOL    HW155021   5.935  10.620   3.012  0.5977  0.8349 -0.7729
16395SOL    HW255022   6.027  10.522   2.943 -0.0322 -2.3504  2.5948
16396SOL     OW55023   5.310  10.432   2.266  0.2331 -0.1318  0.4749
16396SOL    HW155024   5.393  10.385   2.276  0.2395 -0.1904  0.1636
16396SOL    HW255025   5.293  10.470   2.352 -0.7662 -2.2956  1.2887
16397SOL     OW55026   0.886   1.791   4.802  0.1930 -0.4764  0.1234
16397SOL    HW155027   0.920   1.803   4.891  2.7817  0.9714 -0.9314
16397SOL    HW255028   0.847   1.875   4.780  1.0517 -0.2604 -0.6437
16398SOL     OW55029   6.296   6.821   8.865  0.5087 -0.0196 -0.0951
16398SOL    HW155030   6.291   6.779   8.779 -2.5249 -0.5852  0.2565
16398SOL    HW255031   6.285   6.915   8.846  1.7445  0.0747 -0.4308
16399SOL     OW55032   1.518   5.097   2.435  0.2225  0.2366  0.6067
16399SOL    HW155033   1.425   5.115   2.447  0.0194  0.1493 -0.6182
16399SOL    HW255034   1.542   5.149   2.358  1.0862 -0.0358  0.6861
16400SOL     OW55035   0.726   1.481   0.171 -0.4188 -0.4383  1.0948
16400SOL    HW155036   0.750   1.393   0.140  1.0373 -0.0891  1.1597
16400SOL    HW255037   0.804   1.534   0.155 -1.0106  0.6758  1.7755
16401SOL     OW55038   9.234   6.449   0.373 -0.1609 -0.0376 -0.2019
16401SOL    HW155039   9.231   6.431   0.467 -1.0696  0.0491 -0.2079
16401SOL    HW255040   9.280   6.373   0.336  1.0511  0.3813  0.4096
16402SOL     OW55041   3.187   1.243   4.640  0.1951  0.3579 -0.9515
16402SOL    HW155042   3.154   1.263   4.728  1.2558 -0.3122 -0.3787
16402SOL    HW255043   3.272   1.288   4.636 -0.1294  0.9016 -1.8737
16403SOL     OW55044   3.472  10.114   8.360 -0.6301  0.1508  0.0333
16403SOL    HW155045   3.383  10.101   8.392 -1.4538  0.3716 -1.9898
16403SOL    HW255046   3.490  10.207   8.375 -0.8864  0.1899  0.0954
16404SOL     OW55047   2.545   5.051   2.145  0.1363 -0.0524  0.1048
16404SOL    HW155048   2.552   5.146   2.155  1.3097  0.1130 -1.7276
16404SOL    HW255049   2.456   5.030   2.174 -0.3574  1.6910 -0.0350
16405SOL     OW55050   9.747   0.366   3.516 -0.1856 -0.0529  0.5162
16405SOL    HW155051   9.831   0.334   3.483  0.9412  1.9623  1.2470
16405SOL    HW255052   9.766   0.399   3.604 -2.3686 -2.0470  1.8498
16406SOL     OW55053   4.531   9.344   9.127 -0.3785 -0.1188  0.0662
16406SOL    HW155054   4.521   9.438   9.138  0.1037 -0.0025 -0.4648
16406SOL    HW255055   4.615   9.333   9.083 -0.8621 -0.7294 -0.7484
16407SOL     OW55056   2.923   2.719   0.347  0.0878 -0.1660 -0.3838
16407SOL    HW155057   2.922   2.769   0.265 -0.2947 -1.0323 -0.9246
16407SOL    HW255058   2.888   2.633   0.323  2.3871 -1.3289  0.1135
16408SOL     OW55059   1.260   0.685   1.883 -0.5635  0.1033 -0.2408
16408SOL    HW155060   1.177   0.644   1.856 -1.5352  2.4568 -1.1139
16408SOL    HW255061   1.306   0.701   1.802 -0.3857  1.0596  0.0451
16409SOL     OW55062   2.952   5.165   3.310  0.0714  0.0076 -0.2445
16409SOL    HW155063   3.023   5.105   3.287  0.9424  1.3329 -1.1472
16409SOL    HW255064   2.991   5.252   3.307 -1.4682  0.7468 -0.2595
16410SOL     OW55065   3.476   0.614   5.038  0.3535  0.4876  0.2670
16410SOL    HW155066   3.445   0.653   4.956 -1.8172 -0.4128  0.5874
16410SOL    HW255067   3.491   0.522   5.017  0.3623  0.3762  0.7474
16411SOL     OW55068   4.982   9.875   7.183  0.1786  0.0418  0.5156
16411SOL    HW155069   4.951   9.858   7.272  0.5133  1.2251  0.8716
16411SOL    HW255070   5.064   9.825   7.177  1.0176  1.2192  1.4658
16412SOL     OW55071   8.623   0.102   0.516  0.1331  0.5146  0.2012
16412SOL    HW155072   8.629   0.020   0.466  0.6659  0.6101  0.0983
16412SOL    HW255073   8.582   0.164   0.456  0.7654  0.6272 -0.1192
16413SOL     OW55074   1.729  10.431   3.621  0.1424 -0.9784  0.3343
16413SOL    HW155075   1.638  10.458   3.635  0.3285  0.2053 -0.5389
16413SOL    HW255076   1.725  10.370   3.547  0.2856  1.2036 -1.6054
16414SOL     OW55077   1.248   4.861   0.319  0.0221 -0.3512 -0.3265
16414SOL    HW155078   1.293   4.800   0.261 -0.1923 -0.2359 -0.6237
16414SOL    HW255079   1.200   4.805   0.380  0.3615 -0.4734 -0.1717
16415SOL     OW55080   4.784   9.410   1.626  0.1470 -0.7742 -0.0098
16415SOL    HW155081   4.720   9.342   1.643  0.5178 -1.0417  0.3162
16415SOL    HW255082   4.757   9.483   1.681 -0.5462 -0.4640 -0.7389
16416SOL     OW55083   6.567   4.147   0.493  0.0008 -0.6003 -0.1408
16416SOL    HW155084   6.551   4.054   0.509 -3.3112 -0.0097  0.8796
16416SOL    HW255085   6.509   4.169   0.420  0.9361  0.6178 -0.5512
16417SOL     OW55086   2.618   2.597   9.797  0.5825  0.1121 -0.0708
16417SOL    HW155087   2.577   2.683   9.804  0.2932 -0.0583  0.3570
16417SOL    HW255088   2.554   2.537   9.835  2.4975  0.1994  3.7023
16418SOL     OW55089   3.962   2.361   0.983 -0.4650 -0.3699  0.1910
16418SOL    HW155090   4.040   2.411   1.008 -0.3591  0.6723 -1.9455
16418SOL    HW255091   3.997   2.280   0.946 -0.3923 -0.0912 -0.3666
16419SOL     OW55092   1.779   0.547   2.572 -0.1173  0.2318  0.4835
16419SOL    HW155093   1.737   0.474   2.618  0.4806  0.4011  1.3029
16419SOL    HW255094   1.803   0.510   2.487 -0.0191 -0.4660  0.8088
16420SOL     OW55095   5.667   7.806   2.835 -0.2538  0.2279  0.0039
16420SOL    HW155096   5.709   7.733   2.789 -1.0786 -0.3674  0.1688
16420SOL    HW255097   5.684   7.882   2.779 -2.0156 -0.6294 -1.8624
16421SOL     OW55098   6.368   1.011   2.306 -0.0334  0.4780  0.2389
16421SOL    HW155099   6.283   0.968   2.313 -0.7122  1.7671  0.2434
16421SOL    HW255100   6.393   1.029   2.396  0.0452  0.4586  0.2204
16422SOL     OW55101   5.898   0.037   1.344  0.3821 -0.1334 -0.0810
16422SOL    HW155102   5.968   0.100   1.360  1.3460 -1.2789  0.3618
16422SOL    HW255103   5.873   0.005   1.431 -0.4534  0.0021 -0.2608
16423SOL     OW55104  10.268  10.429   0.999 -0.4888  0.2627  0.0427
16423SOL    HW155105  10.193  10.465   0.951 -1.2703 -0.2088  0.8706
16423SOL    HW255106  10.255  10.334   0.996 -0.9239  0.2286  1.6965
16424SOL     OW55107   1.422   3.807   4.664  0.2874  0.0937  0.2287
16424SOL    HW155108   1.513   3.783   4.678  0.7093  1.9683  0.9923
16424SOL    HW255109   1.378   3.782   4.745  0.0729 -0.9028 -0.1779
16425SOL     OW55110   8.670   4.867   2.354 -0.2006 -0.4465  1.0353
16425SOL    HW155111   8.595   4.811   2.333 -0.3676  0.1107  0.0588
16425SOL    HW255112   8.685   4.917   2.273  0.9753 -0.2679  1.3499
16426SOL     OW55113   5.332   6.954   0.169  0.2728 -0.3576  0.7140
16426SOL    HW155114   5.331   7.027   0.107  0.5461 -0.6905  0.3091
16426SOL    HW255115   5.423   6.924   0.169 -0.0368 -1.3427  0.0998
16427SOL     OW55116   3.206   9.087   5.021 -0.2979  0.0033 -0.4284
16427SOL    HW155117   3.123   9.045   5.043 -1.4240  1.3756 -1.8362
16427SOL    HW255118   3.219   9.151   5.091 -0.3299 -0.3330 -0.1117
16428SOL     OW55119   6.239   7.382   5.026 -0.5816 -0.5838 -0.4499
16428SOL    HW155120   6.144   7.378   5.019 -0.4914  0.0419 -2.9839
16428SOL    HW255121   6.271   7.351   4.941  1.4785 -0.6515  0.2930
16429SOL     OW55122   3.589   1.228   6.959 -0.1653  0.1903 -0.0369
16429SOL    HW155123   3.681   1.211   6.976  0.0736  0.6689 -0.7872
16429SOL    HW255124   3.561   1.155   6.904 -0.5848 -0.6376  1.2290
16430SOL     OW55125  10.013   5.720   5.618  0.0731 -0.4687 -0.2747
16430SOL    HW155126  10.058   5.804   5.615  0.0292 -0.4645 -0.8818
16430SOL    HW255127   9.933   5.733   5.568  0.8119 -1.3096 -1.7356
16431SOL     OW55128   0.746   0.565   9.799 -0.0808  0.7893 -0.2592
16431SOL    HW155129   0.677   0.528   9.853 -0.8591  2.7638  0.1960
16431SOL    HW255130   0.716   0.552   9.709  0.6710 -1.4668 -0.2358
16432SOL     OW55131   5.191   9.532   4.738 -0.1210  0.3927  1.1464
16432SOL    HW155132   5.241   9.610   4.715 -0.1862  0.9979  2.9026
16432SOL    HW255133   5.255   9.460   4.732  0.6030  0.9463  1.9253
16433SOL     OW55134   3.673   0.789   4.867  0.2295  0.8305  0.4486
16433SOL    HW155135   3.634   0.741   4.940 -1.8604  1.4248 -0.2000
16433SOL    HW255136   3.649   0.739   4.789  0.6705  1.2744  0.0186
16434SOL     OW55137   6.581   8.299   0.277  0.5104  0.3254  0.3788
16434SOL    HW155138   6.528   8.368   0.236  1.1001  0.2947 -0.4557
16434SOL    HW255139   6.543   8.289   0.364  0.7589  2.1081  0.7326
16435SOL     OW55140  10.310   5.129   5.853  0.0136 -0.1276 -0.6152
16435SOL    HW155141  10.395   5.171   5.863  0.2559 -0.4553 -1.2180
16435SOL    HW255142  10.306   5.065   5.924  0.4109 -0.3292 -0.7708
16436SOL     OW55143   2.336   5.859   4.342 -0.5573  0.3363 -0.0233
16436SOL    HW155144   2.360   5.951   4.341  0.3872  0.1059 -0.8983
16436SOL    HW255145   2.338   5.834   4.435  1.2659  0.6890  0.0586
16437SOL     OW55146   2.381   8.678   7.957 -0.0607  0.4845 -0.0032
16437SOL    HW155147   2.335   8.681   7.874 -0.8838  0.5525  0.4452
16437SOL    HW255148   2.408   8.587   7.966 -0.5389  0.3386 -0.0399
16438SOL     OW55149   7.565   7.310   6.600  0.1064 -0.0183 -0.0159
16438SOL    HW155150   7.583   7.218   6.587  2.3718  0.6132 -1.8372
16438SOL    HW255151   7.478   7.323   6.561  0.4288 -1.0641 -1.1158
16439SOL     OW55152   6.693   9.093   6.590  0.0299 -0.3865  0.2514
16439SOL    HW155153   6.722   9.184   6.576 -0.8504 -0.3179 -1.4536
16439SOL    HW255154   6.772   9.041   6.576  0.2140  0.0358 -0.3597
16440SOL     OW55155  10.275   4.291   5.813  0.0208  0.6948 -0.7001
16440SOL    HW155156  10.353   4.343   5.833  2.4746 -2.9451  0.1149
16440SOL    HW255157  10.210   4.321   5.877  0.8515  3.4215 -1.0110
16441SOL     OW55158   6.371   3.896   3.280 -0.3344 -0.0260 -0.1230
16441SOL    HW155159   6.291   3.915   3.231 -0.7032  0.9630  0.8153
16441SOL    HW255160   6.440   3.892   3.213 -1.1430 -0.8445 -0.9335
16442SOL     OW55161   0.991   5.857   3.038 -0.0887  0.6396  0.3083
16442SOL    HW155162   0.955   5.855   3.126 -1.8774  1.5145 -0.3423
16442SOL    HW255163   1.014   5.949   3.023  1.9121  0.2008  0.4731
16443SOL     OW55164   0.207   4.811   3.488  0.4439  0.0288 -0.6044
16443SOL    HW155165   0.235   4.894   3.450  0.0869 -0.3732 -1.7871
16443SOL    HW255166   0.253   4.745   3.436  0.9865 -0.5222  0.5397
16444SOL     OW55167   8.694   0.365   4.868  0.8245  0.5393 -0.0908
16444SOL    HW155168   8.620   0.410   4.908 -0.8072 -1.9064 -0.0955
16444SOL    HW255169   8.705   0.408   4.783 -1.1169  0.5412 -0.4061
16445SOL     OW55170   6.733   3.636   4.853 -0.2418 -0.7653 -0.3869
16445SOL    HW155171   6.788   3.680   4.788 -1.4091  0.1901 -0.7798
16445SOL    HW255172   6.693   3.708   4.903  0.7942 -1.4764  1.5674
16446SOL     OW55173   5.776   8.459   0.216  0.0856 -0.4458  0.2238
16446SOL    HW155174   5.778   8.527   0.148 -0.5945 -0.1352  0.5071
16446SOL    HW255175   5.776   8.377   0.167  3.2185 -0.3593 -0.1127
16447SOL     OW55176   3.039   0.030   6.508  0.7295 -0.7204  0.6262
16447SOL    HW155177   3.112  -0.031   6.499 -0.2896 -2.3901  2.6478
16447SOL    HW255178   3.054   0.073   6.592 -0.8110 -1.4789  1.3355
16448SOL     OW55179   0.245  10.697   9.336  0.7943 -0.6118 -0.1924
16448SOL    HW155180   0.331  10.662   9.314  0.8516 -0.5179 -0.1213
16448SOL    HW255181   0.199  10.625   9.379  1.1459 -0.4045  0.5479
16449SOL     OW55182   7.832   4.520   2.922  0.0726  0.0439  0.4671
16449SOL    HW155183   7.763   4.581   2.946  0.6026 -0.0128  2.3054
16449SOL    HW255184   7.870   4.556   2.842 -0.8754  1.0606  0.4580
16450SOL     OW55185   5.808   3.750   7.953 -0.1934  0.3488 -0.3562
16450SOL    HW155186   5.848   3.688   8.013 -1.3149  0.3070  0.3747
16450SOL    HW255187   5.791   3.699   7.874 -2.2164 -0.6414  0.6642
16451SOL     OW55188   8.228   8.552   2.855 -0.6659 -0.0699  0.1144
16451SOL    HW155189   8.133   8.550   2.844 -0.6253 -1.5381 -0.2677
16451SOL    HW255190   8.263   8.563   2.766 -0.4775 -0.0045  0.1952
16452SOL     OW55191   4.626   0.040   4.229 -0.2768  0.2746 -0.2532
16452SOL    HW155192   4.670  -0.043   4.249 -0.7817  0.4677  1.8593
16452SOL    HW255193   4.698   0.103   4.218  0.0682 -0.1146 -0.2520
16453SOL     OW55194   0.320   0.906   5.458 -0.4634  0.2860 -0.0299
16453SOL    HW155195   0.297   0.968   5.389 -0.3382 -1.1907 -1.4557
16453SOL    HW255196   0.245   0.906   5.517 -1.0459  0.7834 -0.7592
16454SOL     OW55197   2.161   9.907   7.030  0.0543  0.0282  0.4474
16454SOL    HW155198   2.160   9.875   6.940 -1.9587 -0.1140  0.4707
16454SOL    HW255199   2.252   9.929   7.047  0.1214  2.9275 -2.6603
16455SOL     OW55200   6.848  10.043   3.505  0.4598 -0.4116  0.2070
16455SOL    HW155201   6.862   9.950   3.522 -0.0707 -0.4233  0.6020
16455SOL    HW255202   6.906  10.063   3.431  1.1422 -0.8773  0.6076
16456SOL     OW55203   4.946   5.446   1.823 -0.3083  0.5189 -0.3786
16456SOL    HW155204   4.905   5.504   1.758  0.1834  0.4135 -0.7919
16456SOL    HW255205   4.873   5.398   1.861 -0.4937 -0.5425 -1.9621
16457SOL     OW55206   2.637   5.853   6.787  0.3204 -0.3518 -0.5420
16457SOL    HW155207   2.616   5.887   6.874  1.4084 -2.6577  0.7024
16457SOL    HW255208   2.558   5.870   6.735 -1.8851 -2.2166  1.9170
16458SOL     OW55209   5.937   4.605   0.893  0.5745  0.4369  0.0293
16458SOL    HW155210   5.970   4.574   0.977 -0.2310  0.4428  0.3548
16458SOL    HW255211   5.923   4.699   0.906  0.3961  0.4272 -0.0911
16459SOL     OW55212   7.565  10.212   3.153  0.6930  0.4557 -0.0702
16459SOL    HW155213   7.605  10.298   3.161 -1.6603  1.5854  0.2359
16459SOL    HW255214   7.545  10.203   3.060  2.0206 -0.3286 -0.3099
16460SOL     OW55215  10.147   7.056   1.424  0.6977 -0.1053 -0.2274
16460SOL    HW155216  10.186   7.080   1.508  2.2161 -2.6365 -0.1145
16460SOL    HW255217  10.058   7.030   1.445  0.2388  1.6530  0.1687
16461SOL     OW55218  10.397   0.124   4.051 -0.8555 -0.1353  0.0257
16461SOL    HW155219  10.487   0.146   4.073 -1.0932  0.1926  0.7343
16461SOL    HW255220  10.394   0.029   4.052 -0.6211 -0.1404  0.4700
16462SOL     OW55221   4.881   3.288   4.016  0.6554 -0.8948 -0.6440
16462SOL    HW155222   4.837   3.351   3.960 -1.1272 -1.9298 -0.5063
16462SOL    HW255223   4.922   3.226   3.956  0.9519 -0.5617 -0.7850
16463SOL     OW55224   5.730   6.399   8.886  0.7560 -0.1283  0.2605
16463SOL    HW155225   5.821   6.430   8.887  0.8327 -0.0088 -2.7384
16463SOL    HW255226   5.681   6.468   8.929  1.5591  2.0851 -2.1188
16464SOL     OW55227   7.738   4.554   0.655  0.0611 -0.0967 -0.0990
16464SOL    HW155228   7.646   4.526   0.662 -0.0983  0.5615  0.5580
16464SOL    HW255229   7.749   4.579   0.563 -0.6189  0.4899 -0.0269
16465SOL     OW55230   1.201  10.111   8.707  0.1518 -0.3368  0.2726
16465SOL    HW155231   1.220  10.102   8.800  1.5243 -1.4330 -0.0781
16465SOL    HW255232   1.266  10.055   8.664 -0.5824 -0.0058 -1.3316
16466SOL     OW55233   3.042   4.830  10.658  0.1172 -0.1954  0.1154
16466SOL    HW155234   3.137   4.823  10.644  0.0951 -1.5254  0.4989
16466SOL    HW255235   3.033   4.852  10.751  0.0661  0.9944 -0.1610
16467SOL     OW55236  10.135   1.452   2.902 -0.4667  0.2641 -0.0327
16467SOL    HW155237  10.067   1.441   2.968  0.3143  3.2274  1.4530
16467SOL    HW255238  10.213   1.478   2.952  0.5426  1.2110 -1.9890
16468SOL     OW55239   3.927   9.706   4.315 -0.3136 -0.1714  1.0593
16468SOL    HW155240   3.920   9.780   4.255 -0.5013 -1.5483 -0.7351
16468SOL    HW255241   3.837   9.674   4.324 -0.0121 -1.2985  0.2632
16469SOL     OW55242   1.928   7.354   1.991  0.7242  0.1859  0.0664
16469SOL    HW155243   2.003   7.302   1.962 -0.2332 -1.9871  1.2588
16469SOL    HW255244   1.955   7.388   2.077  0.0606 -1.3445  0.9089
16470SOL     OW55245   4.786   7.844   7.944 -0.2397  0.0866  0.4669
16470SOL    HW155246   4.859   7.859   8.005  0.1370  1.3679 -0.2515
16470SOL    HW255247   4.737   7.926   7.947  0.0127  0.3247 -1.2285
16471SOL     OW55248   3.857   7.832   9.525  0.0148 -0.3986 -0.1244
16471SOL    HW155249   3.881   7.912   9.573 -0.8694 -0.0238 -0.2972
16471SOL    HW255250   3.818   7.776   9.592 -0.9315 -0.0004 -0.3343
16472SOL     OW55251   3.451   9.830   1.779 -0.2911 -0.2323  1.2612
16472SOL    HW155252   3.436   9.793   1.692 -1.6474  0.4747  1.1687
16472SOL    HW255253   3.392   9.905   1.784  2.2697  1.9397  1.4503
16473SOL     OW55254   2.759   4.720   2.831  0.2316  0.0291 -0.7684
16473SOL    HW155255   2.674   4.752   2.803  0.1126  0.1296 -0.2935
16473SOL    HW255256   2.785   4.778   2.902  0.7081  0.0160 -0.9271
16474SOL     OW55257   2.584   3.458   4.410 -0.0293 -0.0164  0.1079
16474SOL    HW155258   2.678   3.448   4.400  0.2311  0.7328  1.6056
16474SOL    HW255259   2.565   3.421   4.497 -0.8644  1.2260  0.4832
16475SOL     OW55260   7.166   9.759   0.514  0.0429  0.0326  0.1711
16475SOL    HW155261   7.216   9.791   0.438 -0.7302  1.6353  0.2837
16475SOL    HW255262   7.097   9.705   0.476  0.5728 -0.4353 -0.1434
16476SOL     OW55263   0.889   1.135   0.472  0.1574  0.4103  0.1715
16476SOL    HW155264   0.892   1.230   0.479  0.7835  0.4905 -0.9845
16476SOL    HW255265   0.956   1.113   0.407 -1.0690 -0.6916 -0.7732
16477SOL     OW55266   5.234   3.530   7.548 -0.1689 -0.0391  0.2962
16477SOL    HW155267   5.271   3.466   7.608  0.6035  1.0206  1.0005
16477SOL    HW255268   5.143   3.540   7.576  0.4286  1.1382  1.9533
16478SOL     OW55269   3.237   1.938   2.463 -0.1669  0.1527  0.1454
16478SOL    HW155270   3.168   1.877   2.438 -0.8700  1.7347 -2.0752
16478SOL    HW255271   3.289   1.950   2.384  1.8304  0.1095  1.3847
16479SOL     OW55272   1.376   2.997   4.986  0.1091  0.2715 -0.1313
16479SOL    HW155273   1.470   2.986   4.968  0.2047  0.7924  0.0314
16479SOL    HW255274   1.334   2.928   4.934  0.6413 -0.5334  0.4789
16480SOL     OW55275   2.418   2.276   2.398  0.0693 -0.1044 -0.4590
16480SOL    HW155276   2.324   2.292   2.393 -0.0706 -0.5383  0.6179
16480SOL    HW255277   2.426   2.184   2.426  0.7549  0.8058  2.6562
16481SOL     OW55278   4.904   7.859   5.077 -0.2356  0.4085  0.2402
16481SOL    HW155279   4.920   7.811   5.158  2.1352  0.4974 -0.1025
16481SOL    HW255280   4.870   7.793   5.017 -0.5230 -0.0032  0.8405
16482SOL     OW55281   9.266   7.038   8.638 -0.4771 -0.5433  0.2424
16482SOL    HW155282   9.347   7.084   8.615 -0.7191 -0.4605 -0.4527
16482SOL    HW255283   9.196   7.100   8.621 -0.7678 -0.9872 -0.2005
16483SOL     OW55284   0.284   9.054   1.646 -0.3622 -0.8798 -0.4597
16483SOL    HW155285   0.346   9.066   1.575 -1.4959  0.0686 -1.3329
16483SOL    HW255286   0.337   9.062   1.726  0.6948 -0.5297 -1.1722
16484SOL     OW55287   9.381  10.397   4.744 -0.2822 -0.1395 -0.0603
16484SOL    HW155288   9.323  10.431   4.812  0.9988 -0.1085  1.0661
16484SOL    HW255289   9.430  10.473   4.714  1.1552 -0.5859  1.0324
16485SOL     OW55290   9.225   1.277   0.953 -0.0942  0.0620  0.1583
16485SOL    HW155291   9.193   1.311   0.869  0.8636 -0.8597 -0.5905
16485SOL    HW255292   9.253   1.355   1.001  0.0732  0.5301 -0.6856
16486SOL     OW55293   0.953  10.145   9.889  0.4742  0.1066 -0.0702
16486SOL    HW155294   1.039  10.136   9.848 -0.1072  0.2116 -1.3637
16486SOL    HW255295   0.968  10.207   9.961  1.5358 -0.0960 -0.0919
16487SOL     OW55296   1.649   9.327   3.830 -0.0975  0.3687  0.0581
16487SOL    HW155297   1.716   9.327   3.899  0.3901 -2.6414 -0.2700
16487SOL    HW255298   1.700   9.325   3.748 -0.5751 -0.6623 -0.2284
16488SOL     OW55299   0.100   9.161   4.346 -0.1908  0.0805  0.0353
16488SOL    HW155300   0.027   9.223   4.341  0.1395  0.4118 -1.1635
16488SOL    HW255301   0.160   9.200   4.409 -0.3311  0.6142 -0.1485
16489SOL     OW55302   6.782   3.781   5.996  0.1342  0.4124 -0.0978
16489SOL    HW155303   6.708   3.821   6.041  0.6463  1.2360  0.0408
16489SOL    HW255304   6.831   3.855   5.960  0.1482 -0.1913 -1.3684
16490SOL     OW55305   7.405   2.748   2.405 -0.0913  0.0954  0.4012
16490SOL    HW155306   7.351   2.670   2.405  0.0515 -0.0165  1.4052
16490SOL    HW255307   7.358   2.810   2.461 -0.0755  0.6373 -0.1743
16491SOL     OW55308   5.030   2.278   4.028  0.0620  0.0788 -0.1001
16491SOL    HW155309   4.981   2.298   3.948 -1.1958 -1.4397  0.2396
16491SOL    HW255310   5.108   2.231   3.997 -0.6299 -0.8758 -0.4302
16492SOL     OW55311   0.498   6.877   2.634  0.1796 -0.4265  0.1950
16492SOL    HW155312   0.563   6.936   2.595  0.2635 -0.5913  0.0852
16492SOL    HW255313   0.431   6.867   2.566 -0.7211  0.9071  0.8203
16493SOL     OW55314   5.867  10.264   0.676 -0.2686 -0.1189  0.4338
16493SOL    HW155315   5.834  10.352   0.692 -0.9727 -0.2119 -0.4556
16493SOL    HW255316   5.789  10.212   0.657  0.3049 -0.4978 -1.0182
16494SOL     OW55317   8.349   8.828   5.856  1.0759 -0.2106  0.1276
16494SOL    HW155318   8.432   8.799   5.817 -0.3533 -0.8140 -2.7482
16494SOL    HW255319   8.333   8.766   5.927  3.2460  0.1968  1.0697
16495SOL     OW55320   8.484   4.728   3.511  0.1482  0.3023 -0.6739
16495SOL    HW155321   8.444   4.678   3.441 -0.2050  1.0712 -1.0350
16495SOL    HW255322   8.492   4.817   3.476  1.8915  0.2576 -0.5026
16496SOL     OW55323   4.107   3.422   6.274  0.3784 -0.0598  0.3632
16496SOL    HW155324   4.094   3.515   6.256 -1.5944 -0.1284  1.1454
16496SOL    HW255325   4.042   3.377   6.220  0.1650 -0.8455  1.2306
16497SOL     OW55326   8.034   4.229   0.020  0.0544 -0.1260 -0.0968
16497SOL    HW155327   7.966   4.167   0.048  0.8244 -0.9017  0.0842
16497SOL    HW255328   8.042   4.290   0.093 -0.9505  0.4291 -0.4151
16498SOL     OW55329   5.958   5.913   1.085  0.1120 -0.2491 -0.5178
16498SOL    HW155330   5.938   5.984   1.024 -0.3986 -0.9811 -1.2273
16498SOL    HW255331   6.042   5.878   1.054  0.2246 -0.1313 -0.3428
16499SOL     OW55332   9.474   0.424   4.726  0.1862 -0.2301 -0.0202
16499SOL    HW155333   9.449   0.332   4.740  0.2810 -1.1326 -4.3899
16499SOL    HW255334   9.393   0.473   4.741 -0.7299 -1.4557 -0.6773
16500SOL     OW55335   0.480   2.556   9.668 -0.3398  0.2464 -0.4717
16500SOL    HW155336   0.550   2.614   9.636  1.2156  0.6918  3.1621
16500SOL    HW255337   0.518   2.468   9.664 -0.1703  0.2945 -0.0155
16501SOL     OW55338   0.885  10.018   3.851  0.1185  0.0688  0.0476
16501SOL    HW155339   0.856   9.957   3.783  0.7203 -1.5834  1.2140
16501SOL    HW255340   0.976   9.993   3.867  0.2807  1.0887  0.7896
16502SOL     OW55341   6.798  10.346   5.153 -0.2172 -0.4628 -0.3354
16502SOL    HW155342   6.879  10.306   5.184  0.3616  2.7139  3.0190
16502SOL    HW255343   6.730  10.308   5.210 -0.1730  0.7884  0.5815
16503SOL     OW55344   6.856   6.467  10.063 -0.0873 -0.1686 -0.8812
16503SOL    HW155345   6.834   6.487   9.972 -0.9510 -0.4730 -0.7488
16503SOL    HW255346   6.859   6.372  10.066 -0.3659 -0.1652 -0.5221
16504SOL     OW55347   6.201   7.250   3.299  0.4301  0.3701 -0.1091
16504SOL    HW155348   6.159   7.335   3.290  2.2561  1.3148 -0.0499
16504SOL    HW255349   6.286   7.268   3.340  1.5877 -1.2479 -1.6162
16505SOL     OW55350   3.141   9.072   4.638  0.3859 -0.0827  0.4440
16505SOL    HW155351   3.225   9.102   4.674  0.6332  1.7517 -1.4549
16505SOL    HW255352   3.079   9.141   4.660  0.4411  0.8538 -2.0410
16506SOL     OW55353   5.001   8.410   1.101  0.3038 -0.0525  0.2489
16506SOL    HW155354   4.935   8.342   1.117 -0.2462  0.6293  0.9539
16506SOL    HW255355   4.950   8.489   1.083  0.9063 -0.1873 -2.5246
16507SOL     OW55356   3.905   5.329   6.451  0.3040 -0.1087  0.4717
16507SOL    HW155357   3.864   5.336   6.365  0.3011  0.0130  0.4838
16507SOL    HW255358   3.832   5.329   6.513  0.2924 -0.4424  0.4596
16508SOL     OW55359   9.055   6.184   9.380  0.3849 -0.0689  0.5005
16508SOL    HW155360   8.990   6.225   9.437 -0.1369  0.7484 -0.6472
16508SOL    HW255361   9.131   6.170   9.437  0.2450  1.6361  1.1757
16509SOL     OW55362   3.034   4.793   0.203  0.0472 -0.2426  0.3585
16509SOL    HW155363   3.126   4.813   0.216  0.2779 -0.1268 -1.2172
16509SOL    HW255364   3.006   4.751   0.284  1.5737 -0.6146  0.7120
16510SOL     OW55365   6.938   3.155   6.658  0.0406 -0.2170 -0.2161
16510SOL    HW155366   6.924   3.243   6.624 -1.7054 -0.4184 -0.1062
16510SOL    HW255367   6.998   3.115   6.595  2.1814  1.5152  0.5817
16511SOL     OW55368   8.373   9.084   0.586  0.2935 -0.1180 -0.8145
16511SOL    HW155369   8.326   9.001   0.585 -1.1329  0.5967  0.5306
16511SOL    HW255370   8.331   9.136   0.517 -1.3077  0.6694  0.6630
16512SOL     OW55371   7.479   0.975   8.251  0.1415 -0.4718  0.5061
16512SOL    HW155372   7.436   0.906   8.200  0.6745  0.0198 -0.6518
16512SOL    HW255373   7.457   1.056   8.205 -0.5682  0.1600  1.9139
16513SOL     OW55374   3.416   2.894   4.586 -0.0937 -0.0220 -0.0964
16513SOL    HW155375   3.333   2.868   4.628  0.1226 -0.2768  0.1793
16513SOL    HW255376   3.426   2.832   4.514 -0.0675 -0.0888 -0.0360
16514SOL     OW55377  10.441   2.716   2.708  0.6569 -0.0638 -0.1207
16514SOL    HW155378  10.518   2.661   2.718  1.8275  1.6782  1.0419
16514SOL    HW255379  10.440   2.771   2.786 -0.6135  1.3648 -1.0715
16515SOL     OW55380   9.194   0.936   3.847  0.2682 -0.1615 -0.5248
16515SOL    HW155381   9.146   0.864   3.806 -2.2090  1.3912 -0.5562
16515SOL    HW255382   9.260   0.961   3.782 -0.7122 -0.5861 -1.7293
16516SOL     OW55383   3.765   3.510   2.054 -0.6326 -0.2842  0.0861
16516SOL    HW155384   3.719   3.548   2.129 -0.6436  0.2233 -0.1800
16516SOL    HW255385   3.800   3.427   2.088  0.8121  0.7136  1.1564
16517SOL     OW55386   3.086  10.020   0.437 -0.1351  0.1084 -0.2791
16517SOL    HW155387   3.120   9.942   0.393  0.6525 -0.1074  0.6831
16517SOL    HW255388   3.064  10.080   0.365  1.6898  0.0075 -0.9680
16518SOL     OW55389   9.204   2.502   5.830  0.4944 -0.1593  0.4853
16518SOL    HW155390   9.210   2.594   5.803  2.2823 -0.1514  0.8225
16518SOL    HW255391   9.116   2.494   5.868 -0.2374  1.0328 -0.8414
16519SOL     OW55392   5.060   1.647  10.138 -0.7711  0.4289  0.0300
16519SOL    HW155393   5.001   1.594  10.085 -1.4278  1.4919 -0.3349
16519SOL    HW255394   5.131   1.588  10.162 -1.8447 -0.8078  0.2450
16520SOL     OW55395   6.377   3.247   5.311  0.0871  0.1265  0.5446
16520SOL    HW155396   6.414   3.194   5.240 -0.8794 -1.6834  1.3390
16520SOL    HW255397   6.452   3.267   5.367  0.3172 -1.4147  0.8321
16521SOL     OW55398   4.962   4.782   8.077 -0.1010 -0.1166 -0.4477
16521SOL    HW155399   4.923   4.800   7.992  0.1080 -1.1895 -0.7770
16521SOL    HW255400   5.022   4.855   8.092 -0.9955  0.6851 -0.6833
16522SOL     OW55401  10.715   7.844   1.819 -0.0964  0.0543 -0.1586
16522SOL    HW155402  10.787   7.816   1.875  0.2112  0.3680 -0.3932
16522SOL    HW255403  10.753   7.845   1.731 -0.3717  0.2783 -0.2751
16523SOL     OW55404   6.341   5.880   2.500  0.4540 -0.4865  0.2137
16523SOL    HW155405   6.409   5.815   2.513  0.5092 -0.1217  1.9857
16523SOL    HW255406   6.386   5.964   2.508  0.0944 -0.2295 -0.3780
16524SOL     OW55407   4.533   4.831   8.040 -0.3321  0.6282  0.2652
16524SOL    HW155408   4.610   4.889   8.036 -0.2521  0.4717 -1.4896
16524SOL    HW255409   4.477   4.862   7.969 -1.3724  0.0144  0.8004
16525SOL     OW55410   6.096   1.158   0.267  0.0292  0.7089  1.0418
16525SOL    HW155411   6.174   1.179   0.214  0.1601 -0.2692  0.8313
16525SOL    HW255412   6.113   1.070   0.300 -2.1419 -0.6887 -1.2282
16526SOL     OW55413   2.057   0.338   0.576  0.3200  0.3752  0.0448
16526SOL    HW155414   1.977   0.385   0.551  0.0424 -1.0081 -1.8972
16526SOL    HW255415   2.123   0.369   0.514  1.0840  0.8038  1.0402
16527SOL     OW55416   8.874   4.942   1.891  0.4741 -0.2216 -0.2400
16527SOL    HW155417   8.870   4.848   1.874  0.4599 -0.3251  0.3292
16527SOL    HW255418   8.842   4.982   1.810  0.5935 -0.7001 -0.5307
16528SOL     OW55419   6.070  10.493   8.438 -0.0361 -0.2200 -0.4290
16528SOL    HW155420   6.057  10.588   8.441 -1.4901 -0.3941  3.1108
16528SOL    HW255421   5.998  10.461   8.384 -0.5785  0.5694 -0.1928
16529SOL     OW55422   3.144   8.352   5.469 -0.3704  0.1951  0.0440
16529SOL    HW155423   3.115   8.439   5.497 -0.0993  0.3618 -0.1826
16529SOL    HW255424   3.206   8.325   5.537  1.4507  1.2408 -1.0948
16530SOL     OW55425   4.584   3.575   6.078 -0.6530  0.3018 -0.1504
16530SOL    HW155426   4.598   3.580   5.983 -0.6679  0.9973 -0.1195
16530SOL    HW255427   4.508   3.519   6.088  1.3435 -2.6576 -0.3801
16531SOL     OW55428   5.192   7.854   2.130 -0.3990  0.0756  1.1132
16531SOL    HW155429   5.142   7.888   2.204 -0.7723  3.1853 -0.4322
16531SOL    HW255430   5.282   7.879   2.147 -0.3187 -0.1123  0.9786
16532SOL     OW55431   1.849   9.001   0.206  0.3429  0.6948  0.4040
16532SOL    HW155432   1.775   8.962   0.159  1.2247 -0.5632  0.0118
16532SOL    HW255433   1.878   9.073   0.149  0.2043  0.3956 -0.0495
16533SOL     OW55434  10.632   4.255   0.188 -0.2768 -0.4431  0.0422
16533SOL    HW155435  10.607   4.303   0.110 -0.3594 -0.4400  0.0702
16533SOL    HW255436  10.573   4.179   0.190 -0.5744 -0.2064  0.3419
16534SOL     OW55437   4.470   5.973   3.828 -0.5642 -0.3903  0.4493
16534SOL    HW155438   4.391   5.921   3.809 -0.6303  0.1181 -0.7407
16534SOL    HW255439   4.445   6.029   3.901 -0.8191 -1.2786  1.0677
16535SOL     OW55440   7.094   8.616   3.541  0.4357 -0.2154 -0.0089
16535SOL    HW155441   7.055   8.590   3.457  1.3549 -0.2263 -0.4436
16535SOL    HW255442   7.178   8.656   3.517 -0.6212  2.6277  0.6705
16536SOL     OW55443   5.798   2.787   6.583  0.1129  0.4742  0.4046
16536SOL    HW155444   5.789   2.832   6.666  1.6758  0.7630  0.4515
16536SOL    HW255445   5.864   2.719   6.600  1.2371  1.2097 -0.8384
16537SOL     OW55446   3.322   2.928   7.230  0.2576 -0.3918  0.5311
16537SOL    HW155447   3.237   2.887   7.213 -1.4597  2.6869  0.9888
16537SOL    HW255448   3.344   2.902   7.319 -1.0734  0.1181  1.0271
16538SOL     OW55449   9.674   0.465   8.936  0.1435  0.0674 -0.1847
16538SOL    HW155450   9.718   0.428   9.013  0.3734  1.2435  0.2759
16538SOL    HW255451   9.613   0.397   8.908  1.1949 -1.0147  0.0625
16539SOL     OW55452   0.292   8.817   1.981  0.4146 -0.5730  0.6907
16539SOL    HW155453   0.340   8.887   1.937  1.0051 -0.8641  0.8640
16539SOL    HW255454   0.259   8.762   1.909 -0.5217  0.1724  0.5300
16540SOL     OW55455   1.897   7.347  10.210 -0.4361  0.3557  0.1784
16540SOL    HW155456   1.878   7.435  10.243 -0.7807  0.7233 -0.9487
16540SOL    HW255457   1.849   7.342  10.128 -0.6350 -0.9933  0.3556
16541SOL     OW55458   4.360   4.661   9.680  0.2220  0.3480 -0.1208
16541SOL    HW155459   4.422   4.695   9.615  0.0222  0.4970 -0.2353
16541SOL    HW255460   4.396   4.688   9.764  1.1389 -0.8897 -0.0797
16542SOL     OW55461  10.486   2.010   1.123 -0.0863 -0.0599 -0.4252
16542SOL    HW155462  10.464   2.072   1.192 -0.0250 -0.7562  0.2269
16542SOL    HW255463  10.556   2.054   1.073  2.0565 -0.7530  1.7662
16543SOL     OW55464   5.116   4.143   8.698  0.6279 -0.1901  0.1937
16543SOL    HW155465   5.109   4.216   8.636  0.4303 -0.6987 -0.3926
16543SOL    HW255466   5.116   4.065   8.643  0.4791 -0.6508  0.8393
16544SOL     OW55467   8.656   6.897  10.165 -0.4199  0.0064 -0.7647
16544SOL    HW155468   8.694   6.923  10.082  1.4195  1.3688  0.4223
16544SOL    HW255469   8.592   6.829  10.142  0.9313 -0.5849 -3.1419
16545SOL     OW55470   5.309   7.391   0.177 -0.3261 -0.0448 -0.2089
16545SOL    HW155471   5.307   7.485   0.161  1.5345  0.1559  0.4396
16545SOL    HW255472   5.369   7.357   0.110 -1.3827 -0.8618 -0.7666
16546SOL     OW55473   8.744   1.985   7.590  0.0049  0.7630 -0.4189
16546SOL    HW155474   8.786   2.026   7.515  0.3202  0.5196 -0.3796
16546SOL    HW255475   8.735   1.893   7.566  0.4071  0.6172 -0.0370
16547SOL     OW55476  10.554   2.543   0.283 -0.2240 -0.3873 -0.2465
16547SOL    HW155477  10.563   2.628   0.327 -0.3030 -0.1374 -0.7126
16547SOL    HW255478  10.605   2.483   0.338  1.3649  0.3097 -0.8859
16548SOL     OW55479   4.944   9.927   1.119 -0.4201 -0.1056  0.2356
16548SOL    HW155480   4.919  10.003   1.170  1.5125  2.1042 -1.8648
16548SOL    HW255481   5.010   9.883   1.172  1.8680  2.3778 -0.3343
16549SOL     OW55482   0.243   2.592   3.979 -0.7563  0.4003  0.6188
16549SOL    HW155483   0.273   2.513   4.024  1.6326  0.7253 -0.2563
16549SOL    HW255484   0.259   2.574   3.886 -1.4272  1.4268  0.2869
16550SOL     OW55485   6.961   7.228   5.768 -0.0576 -0.0816  0.2534
16550SOL    HW155486   6.924   7.233   5.680 -0.2696 -0.4270  0.3242
16550SOL    HW255487   6.949   7.315   5.805  0.9674  0.3749 -0.4392
16551SOL     OW55488   3.398   1.713   8.325  0.4490  0.2341 -0.0206
16551SOL    HW155489   3.306   1.709   8.301  0.6183 -1.1488 -0.5624
16551SOL    HW255490   3.445   1.705   8.242  1.0470 -0.9042  0.4074
16552SOL     OW55491   6.142  10.470   7.840  0.1437  0.5687 -0.3043
16552SOL    HW155492   6.233  10.443   7.845 -0.3017 -1.2160 -0.9763
16552SOL    HW255493   6.110  10.465   7.930  0.1405 -1.0632 -0.3652
16553SOL     OW55494   7.678   2.976   6.053 -0.6880  0.2193 -1.0415
16553SOL    HW155495   7.652   2.945   5.966  0.2258  0.1194 -1.2836
16553SOL    HW255496   7.601   2.962   6.107 -0.6121 -1.5930 -1.3582
16554SOL     OW55497   3.348   1.059   3.669  0.8740 -0.3427 -0.6396
16554SOL    HW155498   3.293   1.080   3.593  1.7003 -0.7437 -1.3618
16554SOL    HW255499   3.438   1.067   3.637  1.2403 -2.6917 -0.3439
16555SOL     OW55500   8.750   8.267   9.252  0.2516 -0.0479 -0.0192
16555SOL    HW155501   8.817   8.332   9.275  0.3798 -0.0593 -0.3576
16555SOL    HW255502   8.798   8.199   9.204 -0.3085  0.8119 -1.8499
16556SOL     OW55503   5.355   2.249   8.405  0.0024 -0.5102 -0.3555
16556SOL    HW155504   5.445   2.271   8.429  0.1143 -0.4215 -0.8557
16556SOL    HW255505   5.314   2.225   8.488  1.0467 -2.5331 -0.3673
16557SOL     OW55506   2.608   0.422   1.170  0.4404 -0.1684 -0.3060
16557SOL    HW155507   2.545   0.351   1.156 -1.0121  0.6645  1.5418
16557SOL    HW255508   2.616   0.463   1.084 -1.3629 -0.4844 -0.6862
16558SOL     OW55509   9.200   8.396  10.414  0.4206 -0.5663 -0.3632
16558SOL    HW155510   9.123   8.385  10.358  0.8589 -0.2217 -1.0526
16558SOL    HW255511   9.219   8.490  10.408  0.0713 -0.4019  0.9149
16559SOL     OW55512   2.827   8.733   9.300 -0.5095  0.2794 -0.4063
16559SOL    HW155513   2.880   8.775   9.232 -1.8832  0.6911 -1.2703
16559SOL    HW255514   2.844   8.640   9.290 -1.0860  0.2886 -1.6999
16560SOL     OW55515   0.580   4.240   9.446  0.7002 -0.4314 -0.2967
16560SOL    HW155516   0.669   4.262   9.472  0.5527 -0.3659  0.1603
16560SOL    HW255517   0.524   4.288   9.508  0.3437 -0.2766 -0.7304
16561SOL     OW55518   9.960   3.686   2.122  0.9486  0.0650 -0.5742
16561SOL    HW155519   9.871   3.718   2.105  1.4422  1.2365 -1.0692
16561SOL    HW255520   9.970   3.612   2.062 -0.2576 -1.1715  0.6820
16562SOL     OW55521   3.341   7.199   5.411 -0.1429  0.0225  0.2641
16562SOL    HW155522   3.391   7.254   5.351 -0.1067  0.8712  1.0463
16562SOL    HW255523   3.295   7.137   5.354  0.4410  0.3470 -0.5788
16563SOL     OW55524   4.623   0.031   9.393 -0.3521  0.0877 -0.2933
16563SOL    HW155525   4.654  -0.012   9.472  0.9161  1.1262 -0.1925
16563SOL    HW255526   4.639  -0.033   9.323 -0.8621 -0.5735  0.1828
16564SOL     OW55527   3.129   9.709   1.796  0.4291  0.0935 -0.4205
16564SOL    HW155528   3.211   9.690   1.751  0.4392 -0.3348 -0.2233
16564SOL    HW255529   3.156   9.746   1.880  0.4130  1.5905 -1.0299
16565SOL     OW55530   7.006   7.067   9.345 -0.3046  0.2137  0.4459
16565SOL    HW155531   7.043   7.134   9.287 -0.2951  0.0001  0.1990
16565SOL    HW255532   6.958   7.009   9.285 -0.0455 -0.1766  0.6187
16566SOL     OW55533   7.831   9.502   9.829 -0.4579  0.7261  0.4206
16566SOL    HW155534   7.921   9.536   9.831 -1.1636  2.8845 -1.0607
16566SOL    HW255535   7.804   9.513   9.738 -2.0907 -0.3258  0.7471
16567SOL     OW55536   2.219   9.886   3.547  0.3564 -0.4434 -0.1356
16567SOL    HW155537   2.182   9.962   3.593  2.1138  1.1123 -1.1229
16567SOL    HW255538   2.195   9.811   3.601 -1.4680  0.7968  0.8896
16568SOL     OW55539   8.351   8.371  10.412  0.6444  0.1820 -0.1300
16568SOL    HW155540   8.298   8.381  10.334  0.0591 -0.9775  0.0992
16568SOL    HW255541   8.433   8.333  10.380  0.3954 -0.3170 -0.1882
16569SOL     OW55542   0.149   3.698   5.106 -0.1691 -0.1658  0.1064
16569SOL    HW155543   0.165   3.734   5.019  0.1527  0.7470  0.5297
16569SOL    HW255544   0.168   3.771   5.166  0.5705 -1.0672  0.9991
16570SOL     OW55545   8.025   5.570   9.118  0.3816 -0.3229  0.0453
16570SOL    HW155546   7.939   5.605   9.093  0.7363  1.2174  0.8227
16570SOL    HW255547   8.020   5.477   9.097 -1.2226 -0.1330 -0.5969
16571SOL     OW55548   5.836   2.518   0.005 -0.5165 -0.1300  0.0122
16571SOL    HW155549   5.848   2.446  -0.057 -2.4286  0.9248 -1.7548
16571SOL    HW255550   5.902   2.583  -0.021  1.1955 -1.1417  1.5946
16572SOL     OW55551   8.823   4.604   5.072  0.4845 -0.0366  0.2323
16572SOL    HW155552   8.842   4.624   5.164 -1.4495  2.7441  0.1516
16572SOL    HW255553   8.901   4.632   5.024  0.6567  0.5830  0.8596
16573SOL     OW55554   5.196   9.952   2.533  0.2600 -0.4051  0.7298
16573SOL    HW155555   5.223  10.036   2.497  0.3329 -1.2324 -1.2397
16573SOL    HW255556   5.122   9.925   2.479  1.0852 -2.2279  0.4245
16574SOL     OW55557   8.473   1.075   0.877  0.0052 -0.0995  0.8750
16574SOL    HW155558   8.510   1.043   0.794  1.3649  1.4412  0.8268
16574SOL    HW255559   8.406   1.137   0.851 -0.0278 -0.1115  0.9299
16575SOL     OW55560   1.299   9.194   2.669 -0.5637 -0.5902 -0.5242
16575SOL    HW155561   1.316   9.254   2.597 -0.5124 -0.1003 -0.1100
16575SOL    HW255562   1.278   9.111   2.627  0.6024 -0.6188 -1.0885
16576SOL     OW55563   8.921   0.796  10.343  0.1431  0.4104 -0.0303
16576SOL    HW155564   8.865   0.718  10.344  1.5674 -0.6827 -0.7883
16576SOL    HW255565   8.935   0.817  10.435  2.0365 -2.0398  0.3573
16577SOL     OW55566   0.441   9.364   1.909 -0.1177  0.3951  0.9810
16577SOL    HW155567   0.356   9.369   1.953 -1.6652 -1.6968 -1.4626
16577SOL    HW255568   0.457   9.452   1.877 -2.0479  0.5899  0.4183
16578SOL     OW55569   8.706   9.443   9.385 -0.7185  0.0553  0.8988
16578SOL    HW155570   8.755   9.523   9.401  4.1338 -2.3098 -0.0294
16578SOL    HW255571   8.697   9.439   9.289  1.1227 -1.3606  0.7169
16579SOL     OW55572   2.156   1.089   9.473 -0.2043  0.1127  0.0120
16579SOL    HW155573   2.164   1.181   9.497 -1.3184  0.1767  0.1960
16579SOL    HW255574   2.161   1.042   9.557 -0.5660  0.0804  0.0180
16580SOL     OW55575   7.005   0.296   3.331 -0.0663 -0.3450 -0.2029
16580SOL    HW155576   6.957   0.237   3.388 -0.1039 -0.7026 -0.5981
16580SOL    HW255577   6.940   0.357   3.298  0.0934  0.3835  0.7680
16581SOL     OW55578   7.420   2.161   3.320 -0.2389 -0.0850 -0.0023
16581SOL    HW155579   7.441   2.191   3.408  1.6251  1.2873 -0.8612
16581SOL    HW255580   7.398   2.241   3.271 -4.2527 -1.0362 -0.1552
16582SOL     OW55581  10.299   8.796   8.323 -0.0988 -0.2515 -0.2334
16582SOL    HW155582  10.280   8.713   8.280  0.8422  0.4432 -2.0753
16582SOL    HW255583  10.391   8.814   8.303 -0.5378  1.6919 -0.7562
16583SOL     OW55584   9.433   1.022   8.088 -0.2134  0.3643  0.6500
16583SOL    HW155585   9.523   0.988   8.089 -0.5789 -0.6741 -0.2220
16583SOL    HW255586   9.397   0.994   8.004 -1.9520 -0.8664  1.7344
16584SOL     OW55587   9.300   3.701   8.893 -0.3058 -0.4970  0.4146
16584SOL    HW155588   9.223   3.758   8.885  0.5928  0.6768 -0.2004
16584SOL    HW255589   9.354   3.724   8.818  1.3853 -0.1381  1.6846
16585SOL     OW55590   8.249   3.966   4.485  0.1638 -0.5270 -0.1226
16585SOL    HW155591   8.188   3.923   4.544 -0.0546 -2.1744 -1.4517
16585SOL    HW255592   8.305   3.895   4.453  0.0219  0.2063 -2.1552
16586SOL     OW55593   5.300   7.744   8.830 -0.2240 -0.0412 -0.0882
16586SOL    HW155594   5.230   7.742   8.763  0.0085 -0.7823 -0.3113
16586SOL    HW255595   5.371   7.792   8.787  0.5494 -1.9246 -1.0139
16587SOL     OW55596   8.820   6.892   3.410  0.3570 -0.3234 -0.1603
16587SOL    HW155597   8.739   6.941   3.402  0.7227  0.5236  1.0497
16587SOL    HW255598   8.851   6.880   3.320 -0.8048 -0.1645 -0.5873
16588SOL     OW55599   6.287   4.313   4.846  0.0106 -0.3146  0.1852
16588SOL    HW155600   6.246   4.396   4.869 -1.6523 -1.1398  0.3595
16588SOL    HW255601   6.257   4.295   4.757  0.0530 -0.9043  0.2828
16589SOL     OW55602   7.034   4.483   2.932 -0.3235 -0.1291 -0.2445
16589SOL    HW155603   7.117   4.503   2.890  0.2791  0.4923  1.1701
16589SOL    HW255604   7.027   4.387   2.927  0.6637 -0.2234 -0.0671
16590SOL     OW55605   3.034   0.128  10.572  0.3354  0.6389 -0.0623
16590SOL    HW155606   3.117   0.162  10.540  0.7996  1.2246  1.6624
16590SOL    HW255607   3.057   0.073  10.646 -0.8030  0.6049  0.2851
16591SOL     OW55608   4.196   7.746   0.902  0.0202 -0.5442 -0.7438
16591SOL    HW155609   4.101   7.748   0.910 -0.0536  0.0759 -1.6802
16591SOL    HW255610   4.213   7.749   0.808  1.0191  2.7533 -0.5802
16592SOL     OW55611   9.230   4.552   8.471 -0.0937  0.1991 -0.3818
16592SOL    HW155612   9.174   4.625   8.442 -1.0679 -0.7808 -1.0473
16592SOL    HW255613   9.317   4.574   8.438 -0.3738  1.0572 -0.5871
16593SOL     OW55614   7.772  10.321   2.623 -0.6827  0.4031 -0.1546
16593SOL    HW155615   7.865  10.341   2.631 -0.2377 -1.4225 -0.2984
16593SOL    HW255616   7.736  10.334   2.711 -0.3852  1.4844 -0.1836
16594SOL     OW55617  10.209   8.907   5.295 -0.1242  0.0757  0.3552
16594SOL    HW155618  10.301   8.897   5.318  0.2466  0.1764 -1.0150
16594SOL    HW255619  10.161   8.876   5.372  1.0482  0.5797  1.3118
16595SOL     OW55620   9.858   5.015   2.810  0.0583 -1.0858 -0.3100
16595SOL    HW155621   9.937   5.062   2.784 -0.7416 -0.2734 -1.3623
16595SOL    HW255622   9.857   5.021   2.905  0.7792 -0.3050 -0.3373
16596SOL     OW55623   4.771   5.686   1.004 -0.2425  0.1316 -0.2222
16596SOL    HW155624   4.723   5.715   0.926  1.7586 -0.4967 -1.7903
16596SOL    HW255625   4.853   5.735   1.000  1.2645 -2.2541 -0.3651
16597SOL     OW55626   9.367   6.528   8.195  0.2435  0.0676 -0.0333
16597SOL    HW155627   9.289   6.477   8.174  0.9994 -1.0260 -0.2267
16597SOL    HW255628   9.386   6.577   8.114 -1.2520  1.7263  0.5678
16598SOL     OW55629   4.208   9.817   4.089 -0.0154  0.1214  0.1422
16598SOL    HW155630   4.143   9.824   4.019  1.0894  0.2474 -0.9227
16598SOL    HW255631   4.248   9.731   4.075 -0.1051 -0.0542  0.9314
16599SOL     OW55632   9.626  10.246   1.649 -0.0929  0.3203 -0.3398
16599SOL    HW155633   9.670  10.232   1.732  0.3960 -0.4871 -0.7191
16599SOL    HW255634   9.668  10.184   1.589 -1.8353 -0.5817 -0.6855
16600SOL     OW55635   8.187   0.664   0.139 -0.3079  0.3475 -0.5250
16600SOL    HW155636   8.121   0.600   0.111 -1.3229  1.5546 -1.0252
16600SOL    HW255637   8.157   0.746   0.100  0.5342  1.2752  0.7343
16601SOL     OW55638   8.086   5.614  10.020 -0.2159 -0.9004 -0.5861
16601SOL    HW155639   7.995   5.593  10.042  0.2299 -3.7125 -0.9723
16601SOL    HW255640   8.084   5.631   9.926 -0.5831  0.8735 -0.2790
16602SOL     OW55641   2.544   1.664   6.839 -0.3247  0.2264  0.5213
16602SOL    HW155642   2.489   1.601   6.886 -0.9764 -0.1748 -0.7302
16602SOL    HW255643   2.600   1.610   6.783 -0.7484  0.7318 -0.4154
16603SOL     OW55644   9.912   3.351   4.695  0.0102 -0.1459  0.1215
16603SOL    HW155645   9.910   3.279   4.633 -0.4658  1.4087 -1.7656
16603SOL    HW255646   9.821   3.359   4.726 -0.1259  0.2007 -0.3588
16604SOL     OW55647  10.630   7.796   0.356  0.4629 -0.5005  0.0590
16604SOL    HW155648  10.600   7.850   0.429  1.1714  1.0350 -0.7207
16604SOL    HW255649  10.663   7.716   0.396 -1.6755 -0.8765  1.1665
16605SOL     OW55650   6.806   5.815   9.090 -0.0359 -0.4022 -0.4087
16605SOL    HW155651   6.839   5.764   9.164 -1.9365 -2.2276 -0.7387
16605SOL    HW255652   6.798   5.751   9.019  0.2890  1.0015 -1.7710
16606SOL     OW55653   7.223   9.880   2.651  0.0003 -0.1487 -0.1945
16606SOL    HW155654   7.137   9.843   2.672  0.4656 -0.9222  0.3939
16606SOL    HW255655   7.205   9.945   2.584 -0.9534 -0.8659 -0.6603
16607SOL     OW55656   4.483   6.516   8.273 -0.4283  0.5340 -0.2807
16607SOL    HW155657   4.438   6.592   8.235 -1.8166 -0.6566 -1.1238
16607SOL    HW255658   4.432   6.495   8.351  0.8450  1.3440  0.8164
16608SOL     OW55659   6.147   6.804   9.095  0.3246  0.1188  0.2416
16608SOL    HW155660   6.127   6.896   9.112 -0.1044  0.1863 -0.5947
16608SOL    HW255661   6.193   6.804   9.012  1.1122 -0.3467  0.6602
16609SOL     OW55662   8.698  10.341   8.751  0.2007 -0.3847  0.3970
16609SOL    HW155663   8.627  10.294   8.794 -0.4191  1.0000  0.9381
16609SOL    HW255664   8.778  10.303   8.788 -0.3051  0.1131  2.0912
16610SOL     OW55665   8.544   8.700   8.058  0.0489  0.1427  0.3685
16610SOL    HW155666   8.608   8.653   8.111  0.8817  1.2566  0.3903
16610SOL    HW255667   8.463   8.694   8.108  0.2983 -0.7066  0.6836
16611SOL     OW55668   3.771   9.684   0.303  0.8006  0.0349 -0.1721
16611SOL    HW155669   3.733   9.597   0.291  1.7611 -0.3404 -0.5767
16611SOL    HW255670   3.807   9.682   0.392 -0.5986  0.5897  0.4334
16612SOL     OW55671   0.669   3.173   1.200  0.1360 -0.6545 -0.1391
16612SOL    HW155672   0.743   3.151   1.143 -0.1203 -1.7508 -0.0590
16612SOL    HW255673   0.634   3.089   1.228 -0.1920 -0.1455  1.0712
16613SOL     OW55674   2.842   8.242   8.467  0.1309  0.2802 -0.2129
16613SOL    HW155675   2.926   8.205   8.442 -0.3838  0.4687 -2.4100
16613SOL    HW255676   2.863   8.331   8.498  0.8361 -0.0986  0.4412
16614SOL     OW55677   0.976   7.329   1.194  0.2605 -0.7983 -0.2089
16614SOL    HW155678   1.071   7.327   1.195  0.2493 -2.2596 -0.0832
16614SOL    HW255679   0.953   7.370   1.111  0.9765  0.9649  0.4105
16615SOL     OW55680  10.665   2.031   6.707 -0.2073 -0.6433  0.2318
16615SOL    HW155681  10.586   2.049   6.759 -0.6568 -1.8581 -0.0096
16615SOL    HW255682  10.733   2.013   6.772 -0.6749 -1.7799  0.4331
16616SOL     OW55683   0.369   8.459   1.742  0.3565  0.3032 -0.3244
16616SOL    HW155684   0.395   8.547   1.715 -0.4207  0.4264 -0.7255
16616SOL    HW255685   0.282   8.447   1.703  0.3416 -0.5433 -0.0583
16617SOL     OW55686   5.807   4.992   9.964  0.1665 -0.2875 -0.4735
16617SOL    HW155687   5.897   5.026   9.963  1.4086 -3.2145 -1.0594
16617SOL    HW255688   5.763   5.037   9.892  0.7299  2.1289  0.6173
16618SOL     OW55689   6.830   7.496   7.167 -0.2904  0.0176  0.3929
16618SOL    HW155690   6.875   7.429   7.220  0.9936  0.7024  0.2168
16618SOL    HW255691   6.891   7.570   7.167 -0.8509  0.5007 -0.9778
16619SOL     OW55692   0.891   4.814   8.487 -0.0249 -0.7712 -0.6051
16619SOL    HW155693   0.896   4.719   8.472  2.9304 -0.8530  0.1859
16619SOL    HW255694   0.943   4.828   8.566 -0.3151  1.5246 -0.7568
16620SOL     OW55695   6.196   8.389   2.969 -0.5521  0.3049  0.3266
16620SOL    HW155696   6.165   8.462   3.024  1.2178  1.7287 -0.4531
16620SOL    HW255697   6.238   8.432   2.895 -0.9729 -1.5768 -1.0473
16621SOL     OW55698   7.707   2.805   4.520 -0.5065  0.0811  0.0627
16621SOL    HW155699   7.738   2.787   4.609 -0.0174  0.2007 -0.0822
16621SOL    HW255700   7.613   2.789   4.524 -0.4771  0.0249  0.5880
16622SOL     OW55701   5.586   7.513   9.193 -0.1716 -0.1332 -0.1239
16622SOL    HW155702   5.553   7.440   9.245  1.0386 -0.8350 -0.3162
16622SOL    HW255703   5.673   7.531   9.229  0.4219 -0.1984 -1.4744
16623SOL     OW55704   0.166   0.645   9.240  0.0654  0.1034  0.1671
16623SOL    HW155705   0.128   0.606   9.318  0.5141  1.2973  1.0057
16623SOL    HW255706   0.250   0.600   9.228  0.8435  1.1326  1.4564
16624SOL     OW55707   4.012   4.273   6.789 -0.3837 -0.3554  0.7878
16624SOL    HW155708   4.028   4.363   6.762  1.3886 -0.3075  1.7975
16624SOL    HW255709   3.917   4.267   6.798 -0.4589  1.9351  2.3469
16625SOL     OW55710   0.307   7.943   9.559  0.2675  0.1710 -0.9691
16625SOL    HW155711   0.267   8.019   9.599 -0.3379 -0.3896 -0.4921
16625SOL    HW255712   0.387   7.929   9.609 -0.5981 -0.6626  0.2289
16626SOL     OW55713   4.500   7.329   7.125 -0.1393 -0.3727  0.5503
16626SOL    HW155714   4.515   7.313   7.032 -0.5742  0.1645  0.3829
16626SOL    HW255715   4.569   7.280   7.170 -0.2100 -1.0056 -0.0341
16627SOL     OW55716   3.134   5.458   8.409  0.2433 -0.0512  0.4439
16627SOL    HW155717   3.096   5.376   8.440 -0.9511  0.6276  0.8521
16627SOL    HW255718   3.202   5.432   8.347 -0.8142 -1.3433 -0.2172
16628SOL     OW55719   1.034   9.697   0.129 -0.0627  0.4926 -0.0113
16628SOL    HW155720   1.011   9.697   0.222 -0.4771 -0.6903 -0.0902
16628SOL    HW255721   0.959   9.655   0.086  0.9612 -0.7829 -0.6276
16629SOL     OW55722   2.964  10.177   3.815  0.0363 -0.4636 -0.2642
16629SOL    HW155723   2.999  10.143   3.898  1.1886  1.5046  0.1133
16629SOL    HW255724   3.037  10.169   3.754 -0.3581 -0.5745 -0.7200
16630SOL     OW55725   6.263   2.270   0.868  0.1867  1.1700  0.1410
16630SOL    HW155726   6.193   2.206   0.873  0.4160  0.9439  0.5543
16630SOL    HW255727   6.259   2.317   0.951  0.7687  0.8867  0.3371
16631SOL     OW55728   4.457   8.190   2.047  0.2455 -0.0665  0.5858
16631SOL    HW155729   4.470   8.274   2.003  0.5477 -0.7680 -0.6911
16631SOL    HW255730   4.375   8.157   2.012  1.7496 -1.8329 -1.4788
16632SOL     OW55731   1.570   3.842   5.777 -0.3441 -0.1834  0.1229
16632SOL    HW155732   1.558   3.920   5.724  0.3034 -0.1249  0.0568
16632SOL    HW255733   1.483   3.801   5.780 -0.4355 -0.0810 -0.8035
16633SOL     OW55734   0.674   3.711   0.962 -0.4636 -0.8821  0.0328
16633SOL    HW155735   0.596   3.676   1.006 -1.5453 -0.4237 -1.4322
16633SOL    HW255736   0.642   3.790   0.918  0.8090 -0.7629 -0.7115
16634SOL     OW55737   0.349   2.907  10.288 -0.0184 -0.6286  0.3331
16634SOL    HW155738   0.430   2.905  10.236  0.7318 -0.7994  1.4696
16634SOL    HW255739   0.313   2.994  10.272  0.8160 -0.2560  0.4408
16635SOL     OW55740   7.332   5.056   5.519 -0.2743  0.0061 -0.0051
16635SOL    HW155741   7.319   5.017   5.432 -0.4561  2.4135 -1.1234
16635SOL    HW255742   7.258   5.024   5.571  0.1357 -1.9197 -0.5063
16636SOL     OW55743   4.741  10.161   7.607  0.6326 -0.9825  0.3971
16636SOL    HW155744   4.793  10.088   7.640  1.4192 -0.4753  0.3146
16636SOL    HW255745   4.688  10.123   7.537  2.0597 -1.2072 -0.5990
16637SOL     OW55746   2.319   0.687   5.672 -0.4164 -0.2355 -0.0585
16637SOL    HW155747   2.298   0.650   5.758 -2.1424  0.2515 -0.2305
16637SOL    HW255748   2.408   0.657   5.654 -1.0930 -2.8804  0.5535
16638SOL     OW55749   7.099   3.928   8.698  0.0798  0.3136  0.6896
16638SOL    HW155750   7.065   3.934   8.609 -1.8401  0.8815  1.4134
16638SOL    HW255751   7.060   4.002   8.744 -1.2730 -1.5131  2.6967
16639SOL     OW55752  10.320   8.485   0.587 -0.4861  0.5165  0.2939
16639SOL    HW155753  10.239   8.475   0.537 -1.2181  1.3797  1.2614
16639SOL    HW255754  10.296   8.462   0.677  0.6347 -0.3432  0.3931
16640SOL     OW55755   8.453   1.110   4.628  0.0852  0.0229  0.1294
16640SOL    HW155756   8.548   1.095   4.634  0.5566  2.7329  0.7665
16640SOL    HW255757   8.428   1.139   4.716 -0.7512  2.0157 -0.6939
16641SOL     OW55758   4.297   6.883   4.586  0.6900  0.5944 -0.4623
16641SOL    HW155759   4.201   6.888   4.583  0.4517  0.5679  3.1027
16641SOL    HW255760   4.325   6.918   4.502 -2.3915  2.5814 -0.8352
16642SOL     OW55761   9.920   3.463   8.904  0.0533  0.2162  0.2272
16642SOL    HW155762   9.873   3.545   8.918 -0.7663  0.2902 -2.5060
16642SOL    HW255763  10.010   3.490   8.884  0.5439  0.2337  2.2518
16643SOL     OW55764   4.499   1.778   6.524 -0.2472 -0.2963  0.2037
16643SOL    HW155765   4.414   1.823   6.526 -0.8793 -1.4459  2.6702
16643SOL    HW255766   4.484   1.701   6.469  0.0351  0.8665 -1.6133
16644SOL     OW55767   9.918   2.406   2.403  0.1278 -0.1670 -0.2125
16644SOL    HW155768   9.947   2.336   2.461 -2.1300 -1.5802 -0.6326
16644SOL    HW255769   9.981   2.477   2.415  2.0050 -1.9525  0.8836
16645SOL     OW55770   9.848   1.132   4.182  0.6322 -0.2247  0.2360
16645SOL    HW155771   9.942   1.119   4.181  0.7093  0.1568 -1.5207
16645SOL    HW255772   9.811   1.043   4.186  1.0851 -0.4400 -0.2073
16646SOL     OW55773   3.142   8.250   7.037 -0.3636 -0.5177 -0.2401
16646SOL    HW155774   3.209   8.307   7.076 -1.2691  0.7443 -0.4863
16646SOL    HW255775   3.088   8.221   7.111 -0.3852 -0.4134 -0.2158
16647SOL     OW55776   0.928  10.122   7.669  0.2691  0.3119  0.3326
16647SOL    HW155777   0.944  10.159   7.756 -0.6678  0.0243  0.6364
16647SOL    HW255778   0.917  10.028   7.686 -0.4926  0.3340 -0.0202
16648SOL     OW55779   3.695   0.096   8.168  0.8575 -0.2952  0.1786
16648SOL    HW155780   3.602   0.105   8.188  1.2343  1.4490  1.3462
16648SOL    HW255781   3.702   0.119   8.075 -0.2166 -3.3897 -0.7917
16649SOL     OW55782   6.985   3.309   0.312 -0.9778  0.2182  0.1137
16649SOL    HW155783   7.068   3.268   0.335 -1.7914 -2.3692 -1.1773
16649SOL    HW255784   7.000   3.345   0.224 -0.6168  1.7480  0.7719
16650SOL     OW55785   7.218  10.444   6.403 -0.0771 -0.7918  0.2365
16650SOL    HW155786   7.311  10.449   6.382 -0.1035  0.5926  0.3531
16650SOL    HW255787   7.187  10.367   6.355  0.6503  0.0751 -1.7609
16651SOL     OW55788   7.329   6.158  10.637  0.2882 -0.0138  0.6673
16651SOL    HW155789   7.316   6.243  10.680  1.3019 -0.0176  1.0185
16651SOL    HW255790   7.262   6.155  10.569 -0.3352  0.6829  1.2267
16652SOL     OW55791   6.292  10.424   7.449 -0.2547 -0.0319  0.3164
16652SOL    HW155792   6.369  10.469   7.483 -1.8303  2.4481  0.8575
16652SOL    HW255793   6.296  10.436   7.355 -0.9363  1.8516  0.4902
16653SOL     OW55794   7.581   6.180   9.400 -0.0348  0.1073 -0.1587
16653SOL    HW155795   7.621   6.145   9.480 -2.4328  0.9417  1.5165
16653SOL    HW255796   7.504   6.228   9.431 -0.3494  1.5468 -2.8957
16654SOL     OW55797   8.471   5.384   8.575  0.1076  0.0074  0.5247
16654SOL    HW155798   8.400   5.328   8.607  0.6086 -0.2910  1.1399
16654SOL    HW255799   8.432   5.434   8.503 -0.8155  0.0803  1.0629
16655SOL     OW55800   5.874  10.387   0.403 -0.3152  0.3758 -0.1060
16655SOL    HW155801   5.870  10.444   0.480  0.3860  0.7955 -0.3693
16655SOL    HW255802   5.883  10.447   0.329  3.2020 -0.0520 -0.1854
16656SOL     OW55803   5.369   8.879   1.759 -0.0027 -0.5823 -0.1899
16656SOL    HW155804   5.375   8.903   1.666 -0.6869  0.2486 -0.0320
16656SOL    HW255805   5.457   8.894   1.793 -0.1391  0.7565 -0.3438
16657SOL     OW55806   1.562   9.333   3.011 -0.1991  0.2673 -0.4008
16657SOL    HW155807   1.487   9.321   2.953  1.0422  0.8869 -2.2153
16657SOL    HW255808   1.525   9.330   3.099 -2.4493  1.2633 -1.2453
16658SOL     OW55809   3.124   0.426   4.678 -0.7352 -0.3254  0.2568
16658SOL    HW155810   3.120   0.448   4.585 -2.4667  0.7461  0.5209
16658SOL    HW255811   3.048   0.369   4.692  0.0616 -1.2713  0.8517
16659SOL     OW55812   7.464  10.529   6.654  0.2800 -0.3350 -0.5650
16659SOL    HW155813   7.418  10.613   6.660  2.9409  1.1025  2.7759
16659SOL    HW255814   7.398  10.464   6.677 -0.9165  1.2687  0.7699
16660SOL     OW55815   9.696   7.356   6.714 -0.2713  0.5700 -1.2401
16660SOL    HW155816   9.771   7.336   6.658 -1.0028  0.1397 -2.0947
16660SOL    HW255817   9.693   7.452   6.717  1.2210  0.6130  0.0935
16661SOL     OW55818   1.059   9.087   2.944 -0.0808 -0.1225 -0.2963
16661SOL    HW155819   1.112   9.032   3.002  0.5316  0.3416 -0.4126
16661SOL    HW255820   1.074   9.176   2.974 -0.4039  0.0566 -0.6534
16662SOL     OW55821   3.201   5.083   8.148  0.1714  0.1253 -0.4640
16662SOL    HW155822   3.111   5.069   8.119  0.6096 -0.2858 -1.7139
16662SOL    HW255823   3.247   5.002   8.125  0.8392  0.2829  0.2632
16663SOL     OW55824   8.545   8.190   5.975 -0.0787  0.3891 -0.1098
16663SOL    HW155825   8.594   8.108   5.972  1.4779  1.2989 -0.6470
16663SOL    HW255826   8.533   8.207   6.068 -0.8563 -0.6688  0.0096
16664SOL     OW55827   3.641   8.054   1.231 -0.0766  0.8790  0.1227
16664SOL    HW155828   3.668   7.993   1.162  3.1638  2.2924 -0.0177
16664SOL    HW255829   3.546   8.057   1.224  0.0359  0.1851 -3.6386
16665SOL     OW55830   7.035   4.746  10.362 -0.0624 -0.2292 -0.1128
16665SOL    HW155831   7.081   4.724  10.281  1.2605 -2.3689  1.1273
16665SOL    HW255832   7.072   4.687  10.427  0.4402  2.8306  2.6118
16666SOL     OW55833   3.988  10.712   8.005 -0.5162  0.1317  0.3679
16666SOL    HW155834   3.958  10.650   8.071  0.9847 -0.3936  0.5942
16666SOL    HW255835   4.031  10.781   8.055  0.1743 -0.0076 -0.0263
16667SOL     OW55836   9.270   0.258   4.312 -0.3061  0.3286 -0.3021
16667SOL    HW155837   9.340   0.242   4.376 -1.2725  1.3431  1.0384
16667SOL    HW255838   9.294   0.341   4.270  0.0418 -0.0672 -0.9161
16668SOL     OW55839  10.530   3.326   4.174  0.2115  0.0598 -0.1258
16668SOL    HW155840  10.553   3.234   4.191  0.1568  0.3881  1.9961
16668SOL    HW255841  10.441   3.334   4.207  0.1732  0.8563 -0.4130
16669SOL     OW55842   2.574   3.247   7.485  0.2387  0.3014 -0.3680
16669SOL    HW155843   2.578   3.172   7.544 -0.1469  0.0482 -0.6561
16669SOL    HW255844   2.660   3.252   7.445  0.3405  0.1594 -0.1655
16670SOL     OW55845   7.580   2.095   4.301  0.4305 -0.1456  0.3724
16670SOL    HW155846   7.597   2.103   4.207 -0.0071 -1.2820  0.1839
16670SOL    HW255847   7.524   2.017   4.309 -0.2483  0.4273  1.4897
16671SOL     OW55848   7.453   6.000  10.278  0.3492  0.3137  0.1842
16671SOL    HW155849   7.526   5.982  10.338  0.3965  0.3812  0.1469
16671SOL    HW255850   7.409   5.916  10.267  0.1028  0.3803  0.6329
16672SOL     OW55851   9.243   0.149   4.066 -0.3262  0.4238  0.1408
16672SOL    HW155852   9.249   0.190   4.152  0.4618 -1.3910  1.0113
16672SOL    HW255853   9.205   0.063   4.083 -1.8711  0.6894 -1.6038
16673SOL     OW55854   2.516   5.048   7.994  0.3243  0.2061  0.1568
16673SOL    HW155855   2.448   5.013   7.937 -0.4768 -1.3636  1.9952
16673SOL    HW255856   2.598   5.017   7.956 -0.2026 -0.9505 -0.0510
16674SOL     OW55857   4.528   9.703  10.618 -0.3252 -0.2060 -0.1889
16674SOL    HW155858   4.598   9.669  10.675 -0.2915  0.5220  0.2108
16674SOL    HW255859   4.506   9.788  10.655 -1.4177 -0.4178 -0.3238
16675SOL     OW55860   9.415   6.954   4.427  0.1134 -0.3895 -0.0950
16675SOL    HW155861   9.348   6.926   4.489 -0.3937 -1.5098 -1.0919
16675SOL    HW255862   9.389   7.042   4.401  0.3596  0.1117  1.2745
16676SOL     OW55863   4.168  10.563   9.038 -0.3045  0.1483  0.0015
16676SOL    HW155864   4.126  10.555   9.123  1.3711 -0.6751  0.8058
16676SOL    HW255865   4.205  10.652   9.039 -1.0184  0.4568 -0.2439
16677SOL     OW55866   7.727  10.084   7.506 -0.4523  0.6194  0.1276
16677SOL    HW155867   7.714  10.126   7.421 -1.2738  1.3326  0.5888
16677SOL    HW255868   7.640  10.055   7.532 -0.1945  0.3321  0.6934
16678SOL     OW55869   0.509   1.357   3.292 -0.3029 -0.2616 -0.5536
16678SOL    HW155870   0.583   1.298   3.305 -1.7557 -1.9948  0.2217
16678SOL    HW255871   0.439   1.301   3.260 -1.6600  1.1127 -0.1085
16679SOL     OW55872   4.910   3.519   4.207 -0.1291  0.1114  0.1642
16679SOL    HW155873   4.976   3.504   4.274 -2.0433  0.2920  2.2049
16679SOL    HW255874   4.917   3.442   4.149  0.2177 -1.1277  1.7700
16680SOL     OW55875   1.786   1.389   7.720 -0.5004 -0.1020 -0.1104
16680SOL    HW155876   1.730   1.311   7.713  0.9596 -1.2798  0.7864
16680SOL    HW255877   1.784   1.412   7.813  1.2122 -0.7316  0.1142
16681SOL     OW55878   2.619   0.613   6.370  0.3416 -0.1155  0.2114
16681SOL    HW155879   2.651   0.702   6.353 -0.3525  0.2195  0.6259
16681SOL    HW255880   2.599   0.613   6.464  2.8671 -1.5228  0.8543
16682SOL     OW55881   9.444  10.225   5.261 -0.3302 -0.2821  0.4145
16682SOL    HW155882   9.350  10.218   5.277 -0.5960 -1.7195 -1.4508
16682SOL    HW255883   9.454  10.201   5.169  2.0152 -1.5118  0.9262
16683SOL     OW55884   2.679   6.458   4.599 -0.1720 -0.7412 -0.2793
16683SOL    HW155885   2.727   6.435   4.520 -0.6309 -1.0518 -0.4684
16683SOL    HW255886   2.631   6.378   4.622 -0.7021 -0.3877 -0.1647
16684SOL     OW55887   0.184   9.623   9.407 -0.0100  0.1719  0.3498
16684SOL    HW155888   0.259   9.618   9.348 -1.5308  1.7793 -1.8807
16684SOL    HW255889   0.217   9.590   9.491  3.2177  1.0366 -0.4602
16685SOL     OW55890   8.991   6.510   7.912  0.2733 -0.0301 -0.4941
16685SOL    HW155891   8.897   6.510   7.931  0.4709  1.1286  0.6717
16685SOL    HW255892   9.030   6.557   7.986  1.9733 -2.0238 -0.0348
16686SOL     OW55893   0.112   6.985   2.673 -0.4737 -0.0147  0.0088
16686SOL    HW155894   0.114   6.894   2.702 -4.0850 -0.1129  0.4569
16686SOL    HW255895   0.153   7.034   2.744 -0.5999 -1.0933  0.8448
16687SOL     OW55896   2.535   2.487   9.449 -0.4713 -0.5565 -0.2529
16687SOL    HW155897   2.616   2.469   9.496 -0.8024  1.0330  1.0019
16687SOL    HW255898   2.536   2.582   9.434 -1.7515 -0.6125 -0.8807
16688SOL     OW55899   4.012   1.063   5.225  0.1938 -0.7436  0.3571
16688SOL    HW155900   4.060   1.104   5.152 -2.0512  0.7438 -0.3771
16688SOL    HW255901   4.016   1.128   5.295 -1.1430 -0.3736  0.1097
16689SOL     OW55902   3.411   3.590   0.190 -0.0544  0.0500 -0.1261
16689SOL    HW155903   3.497   3.559   0.220 -0.5606  0.3881  1.7341
16689SOL    HW255904   3.358   3.511   0.184 -0.6901  0.2242  2.4354
16690SOL     OW55905   3.488   2.104   3.762 -0.1601 -0.4027 -0.1984
16690SOL    HW155906   3.575   2.065   3.768  0.4340  0.7691 -0.8293
16690SOL    HW255907   3.457   2.079   3.675 -1.1184 -2.0813  0.5776
16691SOL     OW55908   8.981   4.244   0.182  0.4985  0.5699 -0.3687
16691SOL    HW155909   8.981   4.311   0.250 -0.0542 -1.2075  1.4806
16691SOL    HW255910   8.893   4.207   0.184  0.9144 -0.5064 -1.0316
16692SOL     OW55911   6.804   0.320   0.634  0.9815 -0.0929 -0.0817
16692SOL    HW155912   6.820   0.389   0.698 -1.0939 -0.0641  0.4959
16692SOL    HW255913   6.794   0.241   0.686 -3.3150  0.3223  0.1129
16693SOL     OW55914   3.432   2.367   3.807  0.1040 -0.4680  0.5276
16693SOL    HW155915   3.473   2.281   3.805 -1.4575 -1.3388  2.3175
16693SOL    HW255916   3.358   2.357   3.868  0.2754  2.3066  1.3404
16694SOL     OW55917   3.873   7.725   8.295 -0.5920  0.6248 -0.1691
16694SOL    HW155918   3.921   7.755   8.218  0.1307 -0.1895 -0.0486
16694SOL    HW255919   3.789   7.696   8.261  0.4378 -1.6288 -0.9921
16695SOL     OW55920   9.515   0.052   7.368 -0.2946  0.1896 -0.4457
16695SOL    HW155921   9.557  -0.027   7.334 -0.9709 -0.9004  1.1440
16695SOL    HW255922   9.435   0.061   7.317 -0.8421 -0.9086  0.1660
16696SOL     OW55923   9.774   0.218   1.520  0.3751 -0.1301  0.3054
16696SOL    HW155924   9.739   0.304   1.495  2.6963  1.2654  1.4274
16696SOL    HW255925   9.823   0.190   1.444  1.4181  0.6364  0.6655
16697SOL     OW55926   3.388   7.612   0.537 -0.4294 -0.7991  0.3311
16697SOL    HW155927   3.475   7.573   0.546  0.4821  1.3840  2.3619
16697SOL    HW255928   3.328   7.540   0.554  1.1080 -1.6990  2.5290
16698SOL     OW55929   9.860   1.423   2.594 -0.1239  0.0426  0.1478
16698SOL    HW155930   9.811   1.373   2.529 -0.6766  1.9170 -0.9653
16698SOL    HW255931   9.817   1.402   2.677 -2.4622  1.1130 -0.7051
16699SOL     OW55932   2.081   9.577   3.535  0.1586  0.1372  0.3934
16699SOL    HW155933   2.142   9.576   3.608  1.2952 -0.7778 -0.5255
16699SOL    HW255934   2.048   9.487   3.531 -1.4985  0.6838  1.0520
16700SOL     OW55935   2.190   8.608   5.720 -0.0231 -0.3767  0.2745
16700SOL    HW155936   2.140   8.685   5.694 -0.3131  0.1541  2.2081
16700SOL    HW255937   2.137   8.566   5.788  1.2503 -0.8736  1.0156
16701SOL     OW55938   9.697   3.331   8.806  0.3842 -0.3323 -0.1486
16701SOL    HW155939   9.770   3.375   8.850  0.3458 -0.7604  0.3615
16701SOL    HW255940   9.621   3.386   8.823  0.2776 -0.7240  0.7415
16702SOL     OW55941   5.356   7.310   2.480  0.2012  0.2865 -0.2399
16702SOL    HW155942   5.288   7.290   2.416  0.0877  0.4532 -0.1725
16702SOL    HW255943   5.419   7.238   2.472 -1.6258 -1.7155  2.0196
16703SOL     OW55944   1.550   7.660   3.075  0.1546  0.1993 -0.0612
16703SOL    HW155945   1.511   7.746   3.066  0.5649  0.3808 -0.1284
16703SOL    HW255946   1.617   7.671   3.142 -1.0017 -0.4871  1.2562
16704SOL     OW55947   7.924   2.995   2.799 -0.3664  0.1390  0.1275
16704SOL    HW155948   7.986   2.929   2.768 -1.0937 -0.8212  0.6734
16704SOL    HW255949   7.846   2.982   2.746 -0.1561  1.2909 -0.5043
16705SOL     OW55950   1.767   3.242   6.683 -0.0617 -0.4950  0.0865
16705SOL    HW155951   1.680   3.204   6.684  0.1091 -0.9229 -0.6403
16705SOL    HW255952   1.819   3.184   6.626  0.2887  0.5986 -0.7649
16706SOL     OW55953   2.822   9.141   0.719  0.2194 -0.4444  0.3406
16706SOL    HW155954   2.758   9.159   0.788 -0.6537 -1.4524 -0.1764
16706SOL    HW255955   2.890   9.090   0.763  0.4669  0.2674  0.8005
16707SOL     OW55956   4.938   0.019   2.472 -0.1068 -0.2600  0.2036
16707SOL    HW155957   4.941  -0.066   2.427  0.4854 -0.0621 -0.1306
16707SOL    HW255958   4.895   0.077   2.409  0.1285 -0.1429  0.1509
16708SOL     OW55959   8.868   4.202  10.500  0.2025  0.1069  0.0099
16708SOL    HW155960   8.811   4.130  10.529 -0.3801  0.4770 -0.1886
16708SOL    HW255961   8.940   4.203  10.562  0.0405 -0.4375  0.2106
16709SOL     OW55962   4.853   8.109   7.391 -0.5075  0.6532 -0.6241
16709SOL    HW155963   4.908   8.044   7.436 -2.8702  0.6514  2.6377
16709SOL    HW255964   4.841   8.073   7.303  1.1483 -1.4885 -0.0758
16710SOL     OW55965   2.329   1.694   9.464  0.0266 -0.6152  0.4363
16710SOL    HW155966   2.387   1.764   9.434 -0.5643 -0.7096 -0.9817
16710SOL    HW255967   2.277   1.735   9.533  0.9604 -0.2000  0.9170
16711SOL     OW55968   2.636   2.564   7.490 -0.5302  0.7194 -0.2180
16711SOL    HW155969   2.594   2.481   7.512  0.9239  0.1937  0.6176
16711SOL    HW255970   2.615   2.622   7.563 -1.3299  1.0442 -0.6824
16712SOL     OW55971   9.422   4.280   1.125  0.5228  0.2060 -0.3365
16712SOL    HW155972   9.385   4.331   1.197  2.5016  0.5057  0.5152
16712SOL    HW255973   9.423   4.190   1.159  1.0613  0.2814 -0.1503
16713SOL     OW55974   7.528   3.647   7.259  0.1621 -0.3777  0.1158
16713SOL    HW155975   7.569   3.566   7.229 -1.2609 -0.4440 -1.8647
16713SOL    HW255976   7.479   3.622   7.337  1.7652 -0.8273  1.0212
16714SOL     OW55977  10.235  10.050   1.871 -0.6293  0.1300 -0.1407
16714SOL    HW155978  10.217  10.141   1.846  1.4925 -0.1333 -3.1273
16714SOL    HW255979  10.313  10.054   1.925 -0.3486  0.0777 -0.5381
16715SOL     OW55980   6.615   6.995   4.847 -0.3832  1.0045  0.2589
16715SOL    HW155981   6.531   7.038   4.862  0.1187  1.9835  0.3540
16715SOL    HW255982   6.678   7.067   4.839  0.1144  0.4233 -2.0493
16716SOL     OW55983   0.623   4.763   1.155 -0.1103  0.5977  0.3734
16716SOL    HW155984   0.676   4.719   1.089 -1.6873 -2.0108  0.7360
16716SOL    HW255985   0.563   4.818   1.105  0.7920  1.1108 -0.1737
16717SOL     OW55986   8.012   3.408   0.213  0.7016 -0.6445  0.0995
16717SOL    HW155987   7.938   3.467   0.194  1.4001  0.9362  1.9169
16717SOL    HW255988   7.986   3.363   0.293  1.8009  0.1865  0.9603
16718SOL     OW55989   7.684   1.461   0.014  0.1269  0.3324  0.2338
16718SOL    HW155990   7.735   1.381   0.028 -0.5923 -0.4405 -1.2520
16718SOL    HW255991   7.614   1.434  -0.045 -0.1143  2.0770 -0.3303
16719SOL     OW55992   9.627   8.231   4.544 -0.5956 -0.0254  0.4025
16719SOL    HW155993   9.701   8.291   4.553 -0.3658  0.0609 -1.5983
16719SOL    HW255994   9.667   8.146   4.529 -0.8516  0.0962 -1.1421
16720SOL     OW55995   2.000   1.732   6.488 -0.3721  0.3475 -0.1016
16720SOL    HW155996   2.018   1.639   6.500  1.6942  0.2256 -3.1236
16720SOL    HW255997   2.086   1.774   6.497 -1.0451  1.7920 -0.1575
16721SOL     OW55998   8.127   1.694   1.790  0.1588  0.1411 -0.1994
16721SOL    HW155999   8.127   1.600   1.803  1.4585  0.1429 -0.1074
16721SOL    HW256000   8.219   1.720   1.794  0.0352  1.1358 -2.2942
16722SOL     OW56001   1.613   4.138   3.443  0.3206 -0.0013  0.4674
16722SOL    HW156002   1.541   4.138   3.379  0.1804 -0.6173  0.6200
16722SOL    HW256003   1.593   4.064   3.501  0.2322  0.7871  1.4650
16723SOL     OW56004   5.430   3.322   2.870  0.4213  0.0413 -0.2857
16723SOL    HW156005   5.388   3.303   2.787  0.1996 -0.8468  0.0245
16723SOL    HW256006   5.428   3.239   2.918 -0.0296  0.7003  0.8585
16724SOL     OW56007   0.526   5.340   1.165  0.3493 -0.9548 -0.2234
16724SOL    HW156008   0.531   5.432   1.193  0.8641 -0.9383 -0.3695
16724SOL    HW256009   0.457   5.340   1.098  1.5939 -0.3284 -1.5556
16725SOL     OW56010   5.749   5.888   3.004  0.0917  0.0262 -0.7429
16725SOL    HW156011   5.800   5.812   3.033  2.0620  1.4819 -0.1817
16725SOL    HW256012   5.728   5.869   2.913  1.3454 -0.8107 -0.8870
16726SOL     OW56013   9.800   2.313  10.586 -0.0108  0.0346 -0.4274
16726SOL    HW156014   9.724   2.325  10.642  0.5402 -2.0708  0.8852
16726SOL    HW256015   9.874   2.341  10.639  0.4348 -1.0964 -0.4306
16727SOL     OW56016   6.265   6.335   4.540 -0.5392 -0.0600  0.2185
16727SOL    HW156017   6.278   6.422   4.578 -0.4004  0.4072 -0.8482
16727SOL    HW256018   6.171   6.329   4.525 -0.2637  1.3361 -2.8290
16728SOL     OW56019   1.570   1.458   4.206 -0.4783  0.4119  0.5621
16728SOL    HW156020   1.535   1.452   4.295 -0.0946 -0.4930  0.6596
16728SOL    HW256021   1.665   1.454   4.217 -0.4247  0.4335  0.1201
16729SOL     OW56022  10.692   0.077   5.558  0.2610 -0.2841 -0.3982
16729SOL    HW156023  10.737   0.147   5.605  2.6480 -0.9476 -1.5065
16729SOL    HW256024  10.629   0.043   5.621  2.4655 -0.3606  1.9630
16730SOL     OW56025   9.821   7.992   0.514 -0.2609  0.3777 -0.9670
16730SOL    HW156026   9.752   7.971   0.578 -0.7070  0.8025 -1.2959
16730SOL    HW256027   9.894   7.935   0.537  1.2815  3.3910  2.7288
16731SOL     OW56028   2.067   2.166   0.767  0.2606 -0.5668  0.7816
16731SOL    HW156029   2.096   2.155   0.677  0.1925  0.1871  0.6583
16731SOL    HW256030   1.971   2.166   0.761  0.1713  2.6804  0.3701
16732SOL     OW56031   7.503   7.722   4.186 -0.2861 -0.2119  0.1381
16732SOL    HW156032   7.437   7.720   4.116 -0.3266  1.5248  0.0981
16732SOL    HW256033   7.545   7.636   4.181 -2.2064 -1.1826 -0.1602
16733SOL     OW56034   6.079   1.686   4.964 -0.5000 -0.1952  0.1270
16733SOL    HW156035   6.136   1.753   4.928 -0.5045  0.3598  1.1128
16733SOL    HW256036   6.110   1.604   4.925  0.9813  0.0887  0.6308
16734SOL     OW56037   5.844   9.923   5.043 -0.1852 -0.3357  0.3522
16734SOL    HW156038   5.762   9.894   5.004  0.0170 -0.8182  0.2755
16734SOL    HW256039   5.840  10.018   5.039  0.1991 -0.3594 -1.6852
16735SOL     OW56040   3.648  10.010   7.851  0.1804 -0.1631  0.0669
16735SOL    HW156041   3.636  10.072   7.923  0.7178 -0.2191  0.2106
16735SOL    HW256042   3.596  10.047   7.779 -0.4940 -0.1991  0.5296
16736SOL     OW56043   1.190   4.305   2.352 -0.2941 -0.3134 -0.5491
16736SOL    HW156044   1.112   4.279   2.303  0.2206 -0.8155 -1.1302
16736SOL    HW256045   1.194   4.400   2.342 -0.5159 -0.3487 -1.0055
16737SOL     OW56046   2.296   9.400  10.174 -0.0155  0.2949  0.2535
16737SOL    HW156047   2.278   9.314  10.213  0.0811  0.5217  0.7955
16737SOL    HW256048   2.374   9.386  10.121 -0.8329 -0.3121 -0.8513
16738SOL     OW56049   8.123   9.970   9.744  0.7207 -0.0990  0.2839
16738SOL    HW156050   8.103   9.902   9.680 -0.5447 -0.1065  0.6569
16738SOL    HW256051   8.203   9.941   9.787  1.2338 -0.4027 -0.8567
16739SOL     OW56052  10.264   2.394   0.247  0.2157 -0.0612  0.4331
16739SOL    HW156053  10.190   2.435   0.292  0.5919  1.2618 -0.1015
16739SOL    HW256054  10.305   2.339   0.313 -0.6899 -0.0784  0.9975
16740SOL     OW56055   4.473   1.061   9.357 -0.1532  0.2382 -0.2719
16740SOL    HW156056   4.515   1.012   9.286  0.6298 -0.1691  0.4609
16740SOL    HW256057   4.514   1.147   9.355 -1.4727  0.8945 -1.5069
16741SOL     OW56058   2.237   2.829  10.244 -0.1701  1.1790 -0.5621
16741SOL    HW156059   2.220   2.907  10.296  0.7315 -0.0054  1.6232
16741SOL    HW256060   2.326   2.803  10.269 -0.3987 -0.4678 -1.3467
16742SOL     OW56061   3.357   5.611   0.223 -0.0602  0.7310 -0.3476
16742SOL    HW156062   3.365   5.706   0.228  0.1384  0.7006 -0.0768
16742SOL    HW256063   3.410   5.578   0.295 -1.6565  0.4788  0.7707
16743SOL     OW56064   1.634   2.518  10.511 -0.1266  0.0946  0.5009
16743SOL    HW156065   1.624   2.476  10.596  0.7724  3.2540  2.3247
16743SOL    HW256066   1.728   2.532  10.502 -0.2452  0.1855 -0.8822
16744SOL     OW56067   2.809   2.853   9.086  0.5118 -0.0498  0.1826
16744SOL    HW156068   2.715   2.860   9.099  0.6320 -0.3655  1.3425
16744SOL    HW256069   2.820   2.781   9.024  0.0264 -0.6925  0.8244
16745SOL     OW56070   7.238   8.028  10.091  0.2185  0.2220 -0.1334
16745SOL    HW156071   7.247   7.933  10.080 -0.4666 -0.0703  1.6366
16745SOL    HW256072   7.253   8.043  10.184 -0.0775  1.8122 -0.3220
16746SOL     OW56073   1.529   2.242   0.699 -0.0531 -0.2327  0.3401
16746SOL    HW156074   1.479   2.162   0.680  1.5629 -1.0199 -0.8001
16746SOL    HW256075   1.468   2.313   0.682 -1.5271 -1.1965  1.3282
16747SOL     OW56076   3.253   8.968   2.897  0.1894 -0.0280 -0.4726
16747SOL    HW156077   3.180   8.971   2.837  0.2557  1.1626 -0.5225
16747SOL    HW256078   3.311   9.038   2.868  1.3566 -0.9476 -0.4380
16748SOL     OW56079   4.889   7.627  10.630  0.2343  0.7310 -0.1259
16748SOL    HW156080   4.854   7.662  10.711  0.1215 -0.8516  0.5436
16748SOL    HW256081   4.907   7.704  10.576  2.0893  1.9646  2.0949
16749SOL     OW56082   4.233   3.999   5.296  0.2339 -0.2729  0.0954
16749SOL    HW156083   4.245   3.933   5.228 -0.6121 -1.4194  1.0029
16749SOL    HW256084   4.177   4.065   5.256  0.0878 -0.7182 -0.4538
16750SOL     OW56085  10.487   3.179   8.100  0.4930  0.2134  0.8842
16750SOL    HW156086  10.448   3.222   8.176  1.8302 -2.1792  3.0507
16750SOL    HW256087  10.576   3.157   8.126  0.4510 -2.2741 -0.6750
16751SOL     OW56088   9.896   3.077   1.572 -0.2343 -0.1917 -0.0336
16751SOL    HW156089   9.886   3.083   1.477 -0.4520  0.9720  0.0384
16751SOL    HW256090   9.985   3.106   1.589 -0.7374  1.3148  0.2205
16752SOL     OW56091   6.572   9.573   0.773  0.0047 -0.2951 -0.7402
16752SOL    HW156092   6.625   9.554   0.696  0.3455  3.1449 -1.5508
16752SOL    HW256093   6.631   9.621   0.831 -1.3966  1.2152 -0.4675
16753SOL     OW56094   0.689  10.333   7.123 -0.3193 -0.6652 -0.7402
16753SOL    HW156095   0.775  10.305   7.152 -1.1746 -2.0801  0.6351
16753SOL    HW256096   0.694  10.428   7.120  1.6650 -0.7514 -2.0481
16754SOL     OW56097   3.138  10.666   4.841  0.3955 -0.1928  0.5552
16754SOL    HW156098   3.133  10.751   4.884  0.4712  0.6863 -1.0945
16754SOL    HW256099   3.214  10.672   4.784 -0.2578 -0.9423 -0.4313
16755SOL     OW56100  10.684  10.341   2.125  0.4211 -0.0200 -0.1022
16755SOL    HW156101  10.687  10.265   2.182  0.7334 -0.0546 -0.1627
16755SOL    HW256102  10.656  10.413   2.182  0.4968 -0.1043  0.0400
16756SOL     OW56103   7.088   7.910   6.236  0.1102  0.3482  0.2616
16756SOL    HW156104   7.019   7.976   6.229 -0.5740 -0.3753  0.0295
16756SOL    HW256105   7.044   7.827   6.218  1.0446 -0.1299  0.1018
16757SOL     OW56106   5.070   8.083   5.216 -0.2783 -0.3992  0.0473
16757SOL    HW156107   5.007   8.117   5.279  0.6831  0.4663  0.5863
16757SOL    HW256108   5.131   8.031   5.269  0.4795  0.2480 -0.1600
16758SOL     OW56109   2.241   8.052   9.038  0.1355 -0.3407  0.2630
16758SOL    HW156110   2.161   8.091   9.074  0.0620  1.2408 -1.4974
16758SOL    HW256111   2.210   7.978   8.985 -0.1282 -0.0073 -0.0513
16759SOL     OW56112   2.336   2.603   3.581 -0.0640 -0.2986 -0.1361
16759SOL    HW156113   2.292   2.633   3.502  0.8655 -2.9629 -1.8217
16759SOL    HW256114   2.266   2.582   3.642 -0.9509 -0.6247 -1.2421
16760SOL     OW56115   0.055   6.943   3.907 -0.7692  0.0388 -0.3952
16760SOL    HW156116   0.053   6.853   3.941  2.1556  0.4368  1.1149
16760SOL    HW256117   0.103   6.935   3.824 -0.3485  0.2101 -0.1714
16761SOL     OW56118   9.961   1.807   7.685 -0.4262  0.4514  0.8970
16761SOL    HW156119  10.019   1.882   7.670 -0.7863  0.3898 -1.0026
16761SOL    HW256120   9.913   1.797   7.603 -0.7645 -1.5493  1.2956
16762SOL     OW56121   7.633   4.419   3.199  0.2462 -0.0754 -0.5256
16762SOL    HW156122   7.679   4.376   3.271 -0.6997 -2.0104 -1.0276
16762SOL    HW256123   7.671   4.381   3.120 -0.5521  0.0651 -0.9879
16763SOL     OW56124   7.390   4.627   3.206  0.0155  0.6609  0.3502
16763SOL    HW156125   7.442   4.702   3.179 -0.3040  2.0936  3.3202
16763SOL    HW256126   7.451   4.572   3.256 -0.3551  0.2454  0.3539
16764SOL     OW56127   0.789   3.110   3.065 -0.1194 -0.4738  0.3296
16764SOL    HW156128   0.791   3.204   3.084  0.1254 -0.1269 -1.2175
16764SOL    HW256129   0.879   3.087   3.044 -0.3828 -0.7383 -0.5911
16765SOL     OW56130   5.922   5.931   8.416 -0.0970  0.1112 -0.4405
16765SOL    HW156131   5.957   5.945   8.504  1.6760 -0.8504 -0.9324
16765SOL    HW256132   5.956   6.005   8.365  0.3233 -0.2405 -0.6781
16766SOL     OW56133   5.872   5.562   4.871  0.6154  0.3863  0.3648
16766SOL    HW156134   5.890   5.597   4.958  0.4674  1.9687 -0.2030
16766SOL    HW256135   5.805   5.620   4.835  0.8642 -0.0632 -0.9023
16767SOL     OW56136   5.329   8.919   6.663  0.2619  0.1120  0.1592
16767SOL    HW156137   5.297   8.848   6.719  1.4250 -0.8861 -0.4102
16767SOL    HW256138   5.305   8.892   6.574  0.0749  0.7936 -0.0017
16768SOL     OW56139   4.976   2.574   1.004 -0.4658  0.4934  0.7091
16768SOL    HW156140   4.916   2.523   1.058 -0.9990  0.6762  0.3005
16768SOL    HW256141   5.057   2.523   1.002 -1.6518 -1.4923 -1.5042
16769SOL     OW56142   4.628   4.398   6.266 -0.5852  0.1630  0.0714
16769SOL    HW156143   4.669   4.470   6.314  0.1756 -0.4539  0.3617
16769SOL    HW256144   4.557   4.440   6.217  0.2461  1.2137 -0.2628
16770SOL     OW56145   9.772   2.420   1.527 -0.6735 -0.3269  0.0013
16770SOL    HW156146   9.863   2.415   1.498 -0.7238 -0.5827 -0.1225
16770SOL    HW256147   9.724   2.457   1.453 -0.4673  1.0905  0.5447
16771SOL     OW56148   2.550   5.600   4.538  0.4482 -0.3583 -0.2852
16771SOL    HW156149   2.626   5.546   4.562  1.1632  1.1313  1.0052
16771SOL    HW256150   2.580   5.651   4.462  0.9056  0.4855  0.4381
16772SOL     OW56151   2.837   4.909   2.374 -0.4437 -0.4392 -0.0376
16772SOL    HW156152   2.805   4.987   2.419 -0.4141 -0.6764  0.4054
16772SOL    HW256153   2.897   4.868   2.437 -0.1257 -0.5860 -0.4339
16773SOL     OW56154   3.241   6.377   3.426 -0.1444 -0.3372  0.3485
16773SOL    HW156155   3.147   6.396   3.429 -0.2514 -0.5152 -1.1712
16773SOL    HW256156   3.280   6.458   3.391 -0.0880 -1.2145 -1.7605
16774SOL     OW56157   5.467   8.352   9.938  0.0418 -0.7981 -0.0306
16774SOL    HW156158   5.543   8.411   9.944 -1.5986  1.5294 -0.6830
16774SOL    HW256159   5.462   8.330   9.845  0.3164 -1.5394  0.1258
16775SOL     OW56160   2.820   6.793   9.998 -0.4776 -0.3777  0.4044
16775SOL    HW156161   2.842   6.871  10.049  2.9910 -1.2081  0.3655
16775SOL    HW256162   2.825   6.823   9.907  0.3360 -0.4939  0.4045
16776SOL     OW56163   5.106   1.479   4.487 -0.2981  0.0482  0.0483
16776SOL    HW156164   5.015   1.499   4.511 -0.0871  0.5540  0.4521
16776SOL    HW256165   5.116   1.513   4.398 -0.3968  0.3296  0.1447
16777SOL     OW56166   2.807   1.245   5.337 -0.1559 -0.3807  0.3413
16777SOL    HW156167   2.785   1.289   5.254  3.4028 -0.5859 -0.8788
16777SOL    HW256168   2.792   1.312   5.404 -2.3118  0.0638 -0.4986
16778SOL     OW56169   3.561  10.016   1.459  0.0555 -0.2996 -0.3761
16778SOL    HW156170   3.481   9.968   1.481  0.2394  0.1417  1.3551
16778SOL    HW256171   3.626   9.986   1.522  0.5720  1.1331 -0.1778
16779SOL     OW56172  10.049   8.180   2.865  0.0043 -0.1208 -0.1111
16779SOL    HW156173   9.967   8.133   2.884 -0.1488 -0.5529 -1.6891
16779SOL    HW256174  10.038   8.265   2.907 -1.6034  0.1102 -0.8979
16780SOL     OW56175   4.629   1.985   1.358 -0.0753  0.0174  0.3781
16780SOL    HW156176   4.562   2.053   1.352 -0.1504  0.0579  1.5805
16780SOL    HW256177   4.590   1.910   1.312 -0.0830  0.6798 -0.7523
16781SOL     OW56178   0.523   0.530   6.958  0.6870  0.1271  0.4721
16781SOL    HW156179   0.531   0.475   7.036 -1.2764  0.3955  0.8892
16781SOL    HW256180   0.448   0.586   6.975  1.7420  1.9391 -0.5852
16782SOL     OW56181   4.682   9.613   5.497  0.3180 -0.9424  0.0280
16782SOL    HW156182   4.594   9.606   5.461  0.8769 -1.0471 -1.3693
16782SOL    HW256183   4.720   9.689   5.453  0.6771 -0.4435  1.1754
16783SOL     OW56184   0.460   3.608   4.476 -0.1569 -0.0082  0.9215
16783SOL    HW156185   0.471   3.515   4.458 -1.0062 -0.3790  2.1687
16783SOL    HW256186   0.435   3.612   4.569  0.7509  1.5265  1.1340
16784SOL     OW56187   4.022   8.130   9.064 -0.0323 -0.1051 -0.7685
16784SOL    HW156188   3.950   8.139   9.126 -0.6716 -0.8860 -1.3571
16784SOL    HW256189   4.034   8.217   9.028  0.2119  0.3141  0.2934
16785SOL     OW56190  10.352   8.260   9.019 -0.4630  0.3226 -0.2986
16785SOL    HW156191  10.405   8.199   9.070 -0.4024 -0.3129 -1.0875
16785SOL    HW256192  10.264   8.220   9.020 -0.4046  0.1739 -0.8869
16786SOL     OW56193   4.075  10.345   3.580  0.6228 -0.2081  0.0901
16786SOL    HW156194   4.088  10.266   3.527 -1.1579  0.2683 -1.1307
16786SOL    HW256195   4.114  10.322   3.665  0.9099 -2.0846 -0.4825
16787SOL     OW56196   7.595   9.669   8.061 -0.1136 -0.3734 -0.3568
16787SOL    HW156197   7.652   9.643   7.989 -0.7434  0.9521 -1.3820
16787SOL    HW256198   7.631   9.753   8.091 -0.9064 -0.0341 -0.3259
16788SOL     OW56199   7.204   2.663   1.708  0.4959  0.5260 -0.1990
16788SOL    HW156200   7.225   2.657   1.801 -1.3818 -0.2924  0.2370
16788SOL    HW256201   7.115   2.628   1.702  1.2431 -1.2259 -2.5760
16789SOL     OW56202   3.376   5.587   4.099  0.3808 -0.0840  0.0453
16789SOL    HW156203   3.361   5.518   4.034  0.2375  1.2693 -1.4377
16789SOL    HW256204   3.471   5.602   4.097  0.2523  0.7209 -0.7138
16790SOL     OW56205   6.919   3.613   5.581  0.0703  0.3078 -0.5013
16790SOL    HW156206   6.889   3.525   5.605  1.7830  0.7675  4.5059
16790SOL    HW256207   6.841   3.668   5.589 -0.4894 -0.3552 -1.2243
16791SOL     OW56208   8.395   4.600   3.275  0.3224  0.0501  0.2860
16791SOL    HW156209   8.336   4.668   3.246  0.4236 -0.1542 -0.4226
16791SOL    HW256210   8.429   4.561   3.194 -0.5025 -1.5099  0.6472
16792SOL     OW56211   7.408   7.578   7.118  0.1578  0.5918 -0.4642
16792SOL    HW156212   7.432   7.638   7.189  1.1116 -0.4345  0.1116
16792SOL    HW256213   7.320   7.606   7.093  0.1016  1.4698  0.5947
16793SOL     OW56214   3.368   8.436   9.153  0.1861  0.2159 -0.7568
16793SOL    HW156215   3.398   8.460   9.066 -0.8696  1.2202 -0.8550
16793SOL    HW256216   3.343   8.344   9.146  0.2113  0.2633 -1.4787
16794SOL     OW56217   5.865   8.720   8.770  0.4926 -0.1494 -0.5832
16794SOL    HW156218   5.901   8.787   8.827 -0.6719 -0.2090  0.2609
16794SOL    HW256219   5.922   8.644   8.783  1.6835  0.5703 -1.3751
16795SOL     OW56220  10.657   1.651   5.858 -0.4370 -0.7301 -0.0583
16795SOL    HW156221  10.643   1.742   5.833 -0.3680 -0.0136  2.3009
16795SOL    HW256222  10.686   1.608   5.777  0.4258  1.5275 -1.0218
16796SOL     OW56223   1.062   6.554   9.807 -0.1387 -0.4927  0.4108
16796SOL    HW156224   1.028   6.613   9.874  1.9585  0.5054  0.6554
16796SOL    HW256225   1.081   6.472   9.853 -1.5291 -0.8681  0.3812
16797SOL     OW56226   4.785   3.372   0.936  0.0007 -0.1696 -0.0824
16797SOL    HW156227   4.826   3.423   0.866  1.6252  1.3945  1.8708
16797SOL    HW256228   4.852   3.367   1.004 -1.1346 -2.5458  0.9639
16798SOL     OW56229   0.742   9.424   7.396 -0.2785  0.1971  0.3305
16798SOL    HW156230   0.717   9.495   7.337 -1.2675  0.5263  1.1200
16798SOL    HW256231   0.659   9.387   7.426  0.1652  0.5466  2.1186
16799SOL     OW56232   7.749   2.810   8.852  0.2666  0.3664 -0.0735
16799SOL    HW156233   7.715   2.892   8.887  0.9259  0.3980  0.4969
16799SOL    HW256234   7.788   2.833   8.768  1.0585  0.7615  0.3974
16800SOL     OW56235   0.692   1.737   1.681 -0.0036 -0.6167 -0.1930
16800SOL    HW156236   0.755   1.791   1.633 -0.0136 -1.4606 -1.1929
16800SOL    HW256237   0.669   1.668   1.620  0.2275 -1.9266  1.1462
16801SOL     OW56238   1.161   5.161   9.235  0.8619  0.5845 -0.1656
16801SOL    HW156239   1.225   5.101   9.273 -0.7962 -1.0422  0.1663
16801SOL    HW256240   1.139   5.122   9.151 -1.3283 -0.1363  0.6856
16802SOL     OW56241   9.533   7.885   5.522  0.4083 -0.5044  0.1325
16802SOL    HW156242   9.555   7.824   5.451 -0.4132 -0.4101 -0.2185
16802SOL    HW256243   9.480   7.952   5.480  0.4846 -0.0743  0.7127
16803SOL     OW56244   1.815   3.917   6.682 -0.1037 -0.0273 -0.1790
16803SOL    HW156245   1.837   3.880   6.597 -0.1800 -1.5258  0.4271
16803SOL    HW256246   1.720   3.910   6.688  0.0139 -1.3054  0.6044
16804SOL     OW56247   0.513   2.773   3.843 -0.7705  0.2244 -0.3451
16804SOL    HW156248   0.582   2.826   3.883  0.4279  0.2091 -2.2619
16804SOL    HW256249   0.448   2.837   3.815 -0.8567  0.3755  0.1871
16805SOL     OW56250   0.461   1.668   4.338  0.0823 -0.9656 -0.4748
16805SOL    HW156251   0.510   1.663   4.256 -0.4604 -2.0787 -0.7535
16805SOL    HW256252   0.490   1.592   4.388  0.3534 -0.3310  0.3412
16806SOL     OW56253   0.741   3.451   4.687  0.7095 -0.2892  0.0503
16806SOL    HW156254   0.764   3.408   4.604  0.2307  0.0886 -0.2856
16806SOL    HW256255   0.792   3.404   4.753 -0.3234 -1.8778 -0.2053
16807SOL     OW56256   1.602   4.601   2.021 -0.2013 -0.4652  0.2718
16807SOL    HW156257   1.542   4.527   2.030  2.0375 -2.1500  3.2184
16807SOL    HW256258   1.667   4.571   1.957 -1.0978  0.3836 -1.0799
16808SOL     OW56259   0.666   9.766   9.935 -0.3506  0.2614  0.6118
16808SOL    HW156260   0.605   9.731   9.870 -0.3899 -0.9350  1.2734
16808SOL    HW256261   0.716   9.833   9.887  1.2652 -2.1812 -1.3900
16809SOL     OW56262   4.868   9.424   9.456 -0.2264 -0.2466  0.3560
16809SOL    HW156263   4.822   9.502   9.425 -0.0741 -0.3576 -0.1697
16809SOL    HW256264   4.803   9.354   9.450 -0.1402 -0.3068  0.0857
16810SOL     OW56265   4.648   6.704   0.909  0.3021  0.6167 -0.1211
16810SOL    HW156266   4.648   6.690   1.003  0.8660 -0.6934 -0.2954
16810SOL    HW256267   4.614   6.622   0.872  3.6751 -0.4787 -1.1958
16811SOL     OW56268   4.946   6.562   1.671 -0.1330  0.4896  0.0709
16811SOL    HW156269   5.038   6.586   1.667 -0.5695  2.1650 -1.4483
16811SOL    HW256270   4.942   6.473   1.635  0.8308  0.5997 -0.3221
16812SOL     OW56271   0.527   7.190   2.345 -0.4169  0.1036  0.2718
16812SOL    HW156272   0.597   7.252   2.325 -0.9534 -0.0068 -2.2766
16812SOL    HW256273   0.570   7.105   2.347 -0.0400  0.2999  1.6388
16813SOL     OW56274   0.151   7.852   3.803 -0.1802 -0.2345  0.0149
16813SOL    HW156275   0.119   7.923   3.859  0.5777  0.2228 -0.1214
16813SOL    HW256276   0.212   7.803   3.858 -0.0794 -0.2916 -0.1474
16814SOL     OW56277   1.658   1.408  10.242  0.1690  0.2630 -0.0298
16814SOL    HW156278   1.662   1.390  10.148 -2.4587  0.5068 -0.2678
16814SOL    HW256279   1.689   1.498  10.251  1.8066 -0.2240 -0.4205
16815SOL     OW56280   7.907   4.700   1.860 -0.1211  0.5987 -0.1186
16815SOL    HW156281   7.956   4.716   1.779  0.3490 -1.4816 -0.3077
16815SOL    HW256282   7.818   4.684   1.831 -0.2541  1.2792 -0.0845
16816SOL     OW56283  10.197   1.896   5.789 -0.1994  0.4924  0.9332
16816SOL    HW156284  10.247   1.823   5.825  3.3025  2.8294  1.2944
16816SOL    HW256285  10.227   1.903   5.698 -2.4090  0.0057  0.1026
16817SOL     OW56286   7.207   6.363   2.817  0.0605  0.6925 -0.0653
16817SOL    HW156287   7.138   6.425   2.842  1.2041  1.5884  1.0238
16817SOL    HW256288   7.279   6.419   2.788  0.3139 -0.2243 -1.2699
16818SOL     OW56289   6.367   7.086   3.768 -0.2190  0.9558  0.5885
16818SOL    HW156290   6.307   7.012   3.756  0.8775  0.0260  0.7757
16818SOL    HW256291   6.443   7.064   3.715  0.4526  1.5753  1.2837
16819SOL     OW56292  10.536   2.222   9.879 -0.2628  0.4019  0.3314
16819SOL    HW156293  10.554   2.227   9.973  0.5293  0.6518  0.1747
16819SOL    HW256294  10.583   2.144   9.850 -0.1741  0.5508  0.0719
16820SOL     OW56295   8.513   3.810   4.145  0.0379 -0.0785 -1.1308
16820SOL    HW156296   8.478   3.744   4.084 -0.0362 -0.3828 -0.7595
16820SOL    HW256297   8.471   3.791   4.228  0.6320 -0.0711 -0.8226
16821SOL     OW56298   3.160   7.303   4.356  0.1790  0.1204 -0.0860
16821SOL    HW156299   3.150   7.269   4.445  1.6600  0.7843  0.3678
16821SOL    HW256300   3.114   7.387   4.357  1.4353  0.8225  0.5092
16822SOL     OW56301   2.245   3.424  10.695 -0.0970 -0.2945  0.6302
16822SOL    HW156302   2.237   3.412  10.601  1.2121 -0.3865  0.5101
16822SOL    HW256303   2.326   3.377  10.718  0.8719  1.6691  1.4144
16823SOL     OW56304   6.606   0.466   3.741 -1.0343 -0.0820  0.0062
16823SOL    HW156305   6.544   0.522   3.789 -0.3687  0.6606  0.0102
16823SOL    HW256306   6.691   0.488   3.778 -0.3856  1.1221 -2.0548
16824SOL     OW56307   5.799   2.022   4.238 -0.3079  0.1490 -0.0550
16824SOL    HW156308   5.791   2.109   4.279 -3.9525  0.8189 -1.7512
16824SOL    HW256309   5.889   1.995   4.257  0.8905  4.0753  0.9199
16825SOL     OW56310   9.144   2.411   0.047 -0.2868 -0.3590  0.3833
16825SOL    HW156311   9.191   2.488   0.078  1.3506 -0.5743 -1.3947
16825SOL    HW256312   9.075   2.446  -0.009 -1.2447 -0.1229  1.6529
16826SOL     OW56313   5.545   4.872   4.646  0.0414 -0.7508  0.1827
16826SOL    HW156314   5.554   4.779   4.629  1.9413 -0.7954  1.1135
16826SOL    HW256315   5.634   4.907   4.637 -0.1250  0.4775  2.3902
16827SOL     OW56316   2.584   9.914   1.650 -0.4220 -0.0511  0.3816
16827SOL    HW156317   2.568   9.938   1.742  1.6987 -2.8244  1.6323
16827SOL    HW256318   2.669   9.954   1.631 -0.9768  0.7313 -0.5101
16828SOL     OW56319   2.319   6.294   0.610  0.2681  0.7595  0.3955
16828SOL    HW156320   2.281   6.332   0.531  1.0751 -0.6627 -0.7283
16828SOL    HW256321   2.376   6.224   0.578  2.3287  1.5218  2.0976
16829SOL     OW56322   1.307   8.582   6.760 -0.0628 -0.0047  0.2963
16829SOL    HW156323   1.316   8.651   6.694  0.4704 -1.0703 -0.7966
16829SOL    HW256324   1.251   8.620   6.827 -1.2330  0.8917 -1.1240
16830SOL     OW56325   5.047   9.960   1.568 -0.5591  0.2438  0.5951
16830SOL    HW156326   5.099   9.983   1.644  0.6894  1.8589 -0.6947
16830SOL    HW256327   5.106   9.908   1.512 -1.8083 -1.9423  1.1784
16831SOL     OW56328   2.528   4.016   6.809 -0.5303  0.1829  0.0535
16831SOL    HW156329   2.486   4.100   6.792  0.7717  0.7107 -0.6836
16831SOL    HW256330   2.581   4.031   6.888 -1.8418 -0.5395  1.1084
16832SOL     OW56331   3.218   0.376   4.945  0.7172 -0.2920  0.7517
16832SOL    HW156332   3.286   0.308   4.947  0.5132 -0.7924 -2.7010
16832SOL    HW256333   3.211   0.399   4.852 -3.0430  0.5828  1.1167
16833SOL     OW56334   1.807   0.460  10.205  0.0785 -0.1053 -0.0794
16833SOL    HW156335   1.732   0.405  10.227  1.3152 -2.2660 -0.9668
16833SOL    HW256336   1.794   0.482  10.113  1.1368 -1.5857 -0.6123
16834SOL     OW56337   3.553   7.061   2.447 -0.1046  0.5137  0.2713
16834SOL    HW156338   3.501   7.057   2.527 -0.0489 -0.9572  0.2659
16834SOL    HW256339   3.491   7.081   2.378 -0.5048 -0.1943  0.4142
16835SOL     OW56340   3.263   3.683   5.317 -0.2403  0.3415 -0.9362
16835SOL    HW156341   3.320   3.737   5.372 -1.4944 -1.6278  2.5364
16835SOL    HW256342   3.323   3.622   5.274  0.5256 -2.1170  3.1349
16836SOL     OW56343   2.446  10.240   5.268 -0.3065 -0.0145 -0.0003
16836SOL    HW156344   2.352  10.233   5.280 -0.2309 -1.0999  0.0743
16836SOL    HW256345   2.457  10.289   5.186 -0.9000  1.3448  0.7058
16837SOL     OW56346   9.437   1.968   6.162 -0.5704  0.2405 -0.2212
16837SOL    HW156347   9.460   2.000   6.075  0.5358 -0.9714 -0.4126
16837SOL    HW256348   9.343   1.950   6.158 -0.6117  0.6114 -1.0179
16838SOL     OW56349   3.059   2.366   3.606 -0.0903 -0.0730  0.1296
16838SOL    HW156350   3.047   2.358   3.701 -2.0732  1.7283  0.1064
16838SOL    HW256351   3.123   2.436   3.596  0.9151 -0.9701  0.1127
16839SOL     OW56352   6.435   5.328   8.388  0.5084  0.3151 -0.4366
16839SOL    HW156353   6.494   5.373   8.448 -1.3115  0.2684  1.4794
16839SOL    HW256354   6.416   5.393   8.320  2.6249  0.3530 -1.0703
16840SOL     OW56355   2.765   7.602   0.422 -0.5240  0.0332  0.1682
16840SOL    HW156356   2.723   7.595   0.508  0.0852  0.8716  0.5481
16840SOL    HW256357   2.804   7.690   0.421  0.5975 -0.4469 -0.4592
16841SOL     OW56358   8.866   3.673   7.849 -0.5547 -0.5027  0.6179
16841SOL    HW156359   8.775   3.691   7.826  0.0333  2.0241 -0.0637
16841SOL    HW256360   8.896   3.609   7.784 -1.0060  1.0017 -1.1431
16842SOL     OW56361   9.602   9.144   3.932  0.5321  0.2416  0.2277
16842SOL    HW156362   9.621   9.143   4.025 -0.0355  0.2821  0.3475
16842SOL    HW256363   9.568   9.232   3.915 -0.5653 -0.1621  0.2364
16843SOL     OW56364   6.619   7.612   0.776 -0.3196  0.0931  0.0711
16843SOL    HW156365   6.577   7.667   0.710 -0.7154 -0.7021 -0.3489
16843SOL    HW256366   6.564   7.534   0.780  0.3031 -0.3253  0.5792
16844SOL     OW56367   2.206  10.711   9.539 -0.2605  0.4175 -0.0829
16844SOL    HW156368   2.286  10.707   9.487  0.0423  0.6587  0.3596
16844SOL    HW256369   2.190  10.620   9.565  0.2951  0.4676  0.4587
16845SOL     OW56370   8.944   1.656   5.356  0.5095  0.1666 -0.3844
16845SOL    HW156371   8.990   1.739   5.346  0.9734 -0.2424 -1.9138
16845SOL    HW256372   8.927   1.627   5.267 -0.6471 -0.8427  0.1379
16846SOL     OW56373   9.071   9.895   4.547  0.0792 -0.2181 -0.3495
16846SOL    HW156374   9.046   9.942   4.627 -1.5420 -3.2889  1.1251
16846SOL    HW256375   9.008   9.924   4.481 -0.4595  0.1562  0.3132
16847SOL     OW56376   4.838   8.094   6.321 -0.2954  0.2088  0.1671
16847SOL    HW156377   4.923   8.104   6.279  0.5145  0.1625  1.7256
16847SOL    HW256378   4.831   8.001   6.341 -0.1038  0.4150  1.2443
16848SOL     OW56379  10.289   5.544   3.953  0.2104  0.3380 -0.4973
16848SOL    HW156380  10.210   5.597   3.942  0.4366  0.5851 -0.9420
16848SOL    HW256381  10.315   5.520   3.864 -0.3095 -1.1524 -0.2797
16849SOL     OW56382   9.111   0.109   7.789  0.4175  0.3845  0.1179
16849SOL    HW156383   9.197   0.066   7.794  0.6684  0.8747  0.1121
16849SOL    HW256384   9.065   0.062   7.719  0.9813  0.6339 -0.4284
16850SOL     OW56385   9.325   9.469   4.901  0.1352 -0.3168 -0.3909
16850SOL    HW156386   9.326   9.486   4.996 -0.4492  1.4119 -0.6519
16850SOL    HW256387   9.324   9.374   4.893  2.4095 -0.5762  1.3173
16851SOL     OW56388   7.591   2.354   7.074  0.5187  0.3217  0.1798
16851SOL    HW156389   7.563   2.384   6.987  1.4596  0.8574  0.0481
16851SOL    HW256390   7.657   2.287   7.056 -0.1249 -0.4158  0.4896
16852SOL     OW56391   4.035   0.708   1.611  0.2485 -0.0986  0.0695
16852SOL    HW156392   3.985   0.647   1.666  1.7917 -0.3363  1.2829
16852SOL    HW256393   4.062   0.777   1.671  0.7262  0.4189 -0.7281
16853SOL     OW56394   6.525   6.732   5.648 -0.3264 -0.5392  0.1026
16853SOL    HW156395   6.541   6.823   5.673  0.2603 -0.0395 -1.8355
16853SOL    HW256396   6.435   6.731   5.618 -0.8200 -0.9807  1.5383
16854SOL     OW56397   6.114   0.967   2.205 -0.0722 -0.0386 -0.8773
16854SOL    HW156398   6.138   1.034   2.141  1.2914 -0.1209 -0.4812
16854SOL    HW256399   6.026   0.940   2.179 -0.6678  1.9026 -1.0154
16855SOL     OW56400   4.593   7.198   7.905  0.4027  0.1926  0.1124
16855SOL    HW156401   4.596   7.180   7.811  0.0701  0.8407 -0.0306
16855SOL    HW256402   4.506   7.234   7.921  1.6115  3.5720 -0.0344
16856SOL     OW56403   6.667   6.097   4.110 -0.4546  0.3008 -0.1591
16856SOL    HW156404   6.631   6.129   4.028 -2.0779  0.1926  0.4731
16856SOL    HW256405   6.592   6.058   4.156  0.0023  1.9402  2.1583
16857SOL     OW56406   6.817   5.888   6.433 -0.1806  0.0573  0.5118
16857SOL    HW156407   6.886   5.878   6.367 -0.6402  0.2329 -0.0001
16857SOL    HW256408   6.751   5.943   6.391 -0.1568  0.7543  1.3705
16858SOL     OW56409   2.636   3.269   1.550  0.5029 -0.2534  0.9390
16858SOL    HW156410   2.712   3.213   1.567  0.5245 -0.8921 -1.0393
16858SOL    HW256411   2.563   3.208   1.539  0.7057 -0.0634 -2.2031
16859SOL     OW56412   3.165   3.082   3.193 -0.4705  0.4524  0.1383
16859SOL    HW156413   3.165   3.075   3.289  0.1969  1.6981  0.2589
16859SOL    HW256414   3.073   3.097   3.170 -0.8783 -1.4284  0.4198
16860SOL     OW56415   6.714   2.740  10.320  0.2586  0.0367 -0.2022
16860SOL    HW156416   6.653   2.764  10.250 -0.7817  0.0577  0.6854
16860SOL    HW256417   6.788   2.701  10.274  0.1968  1.2500 -1.4019
16861SOL     OW56418   2.534  10.003   1.888  0.2064  0.4582 -0.5291
16861SOL    HW156419   2.586  10.007   1.969 -0.1605  1.1908 -0.3217
16861SOL    HW256420   2.477   9.927   1.900 -0.6853  1.2451  0.4346
16862SOL     OW56421   6.663   6.729   4.126 -0.1753 -0.1737  0.4897
16862SOL    HW156422   6.582   6.681   4.142  0.8960 -1.9111  0.9785
16862SOL    HW256423   6.720   6.666   4.082  0.9613  0.9789  0.2446
16863SOL     OW56424   2.069   6.516   8.010 -0.1744  0.4847 -0.1203
16863SOL    HW156425   2.110   6.446   7.959  1.3780  1.7014 -0.6404
16863SOL    HW256426   2.075   6.486   8.101 -0.7359 -0.6166 -0.4281
16864SOL     OW56427   7.569   4.784   7.641  0.0225  0.4873 -0.5535
16864SOL    HW156428   7.591   4.794   7.548 -1.3222 -0.0486 -0.9548
16864SOL    HW256429   7.475   4.801   7.645  0.0954  0.6597  0.7442
16865SOL     OW56430   2.485   7.916   4.270  0.2024 -0.7421  0.3798
16865SOL    HW156431   2.478   8.001   4.227  1.8246 -0.5273  0.4992
16865SOL    HW256432   2.564   7.876   4.233 -0.6664 -2.3282  0.1246
16866SOL     OW56433   0.866   0.658   0.465  0.3767 -0.6223 -0.3102
16866SOL    HW156434   0.868   0.679   0.559 -0.8157 -0.9682 -0.1922
16866SOL    HW256435   0.817   0.730   0.425  2.2730  0.3913 -0.9435
16867SOL     OW56436   9.652   2.965   9.917 -0.0199  0.2005 -0.1638
16867SOL    HW156437   9.625   2.873   9.914 -4.7421  1.3227 -2.8730
16867SOL    HW256438   9.720   2.973   9.850  0.4768 -1.2947  0.1410
16868SOL     OW56439   3.423   7.863   7.179  1.0484 -0.1295 -0.1776
16868SOL    HW156440   3.418   7.773   7.146  0.3760 -0.7642  1.5504
16868SOL    HW256441   3.349   7.908   7.138  0.5412 -0.7536  0.0351
16869SOL     OW56442   6.965   7.016   5.972 -0.4064 -0.1869  0.1793
16869SOL    HW156443   6.947   7.061   6.055 -2.4124  1.7667 -1.1830
16869SOL    HW256444   6.946   7.082   5.905  2.7139 -1.1502 -1.8695
16870SOL     OW56445   6.418   6.628   4.154  0.2257  0.2859  0.4017
16870SOL    HW156446   6.375   6.545   4.178  0.7994 -0.0028  0.4489
16870SOL    HW256447   6.351   6.676   4.107 -0.4292  0.2013  1.2148
16871SOL     OW56448   6.242   0.889   3.072 -0.8489 -0.4252 -0.3729
16871SOL    HW156449   6.265   0.810   3.121  1.0270 -0.4790 -1.2651
16871SOL    HW256450   6.323   0.915   3.029 -2.0304  0.6043 -2.0745
16872SOL     OW56451   3.823   1.967  10.409  0.2803 -0.2988  0.0318
16872SOL    HW156452   3.844   1.881  10.372 -1.2729 -1.1317  0.9940
16872SOL    HW256453   3.738   1.990  10.371 -0.3364 -0.1997  1.3950
16873SOL     OW56454   3.329   3.183   6.731  0.3711  0.1374  0.1339
16873SOL    HW156455   3.238   3.192   6.703  0.9333  0.5163 -1.7097
16873SOL    HW256456   3.338   3.246   6.803 -1.0009 -0.4721  0.8814
16874SOL     OW56457   3.734   8.372   1.728  0.5333  1.1274 -0.4297
16874SOL    HW156458   3.653   8.343   1.686  0.0967  1.0016  0.4719
16874SOL    HW256459   3.723   8.349   1.820  1.5853  1.1429 -0.2887
16875SOL     OW56460   1.909   0.232   1.335 -0.1830 -0.3835  0.2548
16875SOL    HW156461   1.891   0.193   1.249 -0.3020  1.5802 -0.6597
16875SOL    HW256462   1.826   0.224   1.382  0.4061 -3.2968  1.0380
16876SOL     OW56463   5.410   9.496   3.130  0.0393 -0.0811  0.0404
16876SOL    HW156464   5.353   9.568   3.105 -1.5731 -1.0848  0.6797
16876SOL    HW256465   5.394   9.484   3.224 -0.5924 -1.9731 -0.2644
16877SOL     OW56466  10.172   0.453   1.390  0.0068 -0.2401  0.3156
16877SOL    HW156467  10.175   0.368   1.347  0.4021  0.2935 -0.7476
16877SOL    HW256468  10.139   0.434   1.478  0.6090 -1.5650  0.2904
16878SOL     OW56469   9.701   1.868   0.308 -0.4102 -0.5791 -0.4730
16878SOL    HW156470   9.701   1.912   0.223  1.0657  0.2398 -0.0857
16878SOL    HW256471   9.686   1.937   0.371  0.9784 -0.7516  0.0829
16879SOL     OW56472   4.002   3.454   3.204 -0.3533  0.7733 -0.4835
16879SOL    HW156473   4.012   3.539   3.160  0.0484  1.6461  1.1996
16879SOL    HW256474   4.022   3.390   3.136  0.0906  2.0429 -1.6127
16880SOL     OW56475   2.628   4.774   2.234 -0.2792 -0.1537  0.1859
16880SOL    HW156476   2.683   4.803   2.308 -0.1966  0.8730 -0.2645
16880SOL    HW256477   2.594   4.855   2.197  0.5494 -0.5658 -1.5834
16881SOL     OW56478   7.628   7.088   1.289 -0.5024 -0.3968  0.0087
16881SOL    HW156479   7.590   7.171   1.318  1.1216  0.0601  0.9473
16881SOL    HW256480   7.603   7.025   1.357 -0.3703 -0.3160  0.1315
16882SOL     OW56481   4.596  10.645   4.609  0.2018 -0.6175  0.0704
16882SOL    HW156482   4.674  10.589   4.606  1.8558  1.4055  1.7198
16882SOL    HW256483   4.620  10.722   4.558 -2.1554 -1.4097 -2.4499
16883SOL     OW56484   4.657   3.328   0.055 -0.7085 -0.4168 -0.1155
16883SOL    HW156485   4.693   3.398   0.111 -1.0565 -0.2721 -0.0710
16883SOL    HW256486   4.632   3.259   0.117 -0.8780 -0.3519 -0.1107
16884SOL     OW56487   0.221  10.666   0.508 -0.2388  0.0141  0.3216
16884SOL    HW156488   0.283  10.595   0.493 -1.5009 -1.0256 -0.2678
16884SOL    HW256489   0.226  10.720   0.429 -1.0541 -0.8673 -0.3604
16885SOL     OW56490   6.027   0.454   6.947  0.2362 -0.2739 -0.0279
16885SOL    HW156491   6.103   0.407   6.913  0.7263 -0.5201  1.3439
16885SOL    HW256492   6.000   0.404   7.024  0.3651  1.2792  1.0849
16886SOL     OW56493   3.817   9.911   0.846 -0.5521 -0.5434 -0.7150
16886SOL    HW156494   3.735   9.940   0.807 -0.4845 -0.4164 -0.7627
16886SOL    HW256495   3.805   9.816   0.859 -1.3123 -0.2776  0.7236
16887SOL     OW56496   2.822   4.659  10.672  0.5053 -0.5470 -0.3271
16887SOL    HW156497   2.901   4.712  10.669 -0.1249  0.3724 -1.3918
16887SOL    HW256498   2.826   4.604  10.594 -1.0379  1.2454 -1.7466
16888SOL     OW56499   7.283   4.994   3.649  0.0979  0.0385  0.2260
16888SOL    HW156500   7.334   5.059   3.696  1.1167 -0.2775 -0.3989
16888SOL    HW256501   7.348   4.936   3.610 -0.7818 -1.1627  0.4964
16889SOL     OW56502   3.853   8.005   3.666  0.3544  0.2514  0.0194
16889SOL    HW156503   3.935   7.967   3.634  0.4282  0.0865  0.4018
16889SOL    HW256504   3.874   8.096   3.686  0.4620  0.1910  0.1815
16890SOL     OW56505   3.522   8.814  10.110  0.3356  0.5435 -0.1517
16890SOL    HW156506   3.444   8.760  10.124  0.8357 -0.0073  0.5916
16890SOL    HW256507   3.587   8.777  10.169  1.4358  0.4466 -1.3905
16891SOL     OW56508   0.254   7.444   3.254 -0.0930 -0.1372  0.2413
16891SOL    HW156509   0.297   7.359   3.254 -0.1428 -0.1614 -0.3561
16891SOL    HW256510   0.308   7.498   3.313  0.3568 -0.3645  0.0399
16892SOL     OW56511   2.158   7.752   9.405  0.5426  0.1354  0.0858
16892SOL    HW156512   2.246   7.778   9.434  0.6762 -0.4572  0.2127
16892SOL    HW256513   2.113   7.726   9.485  1.0006 -1.7682 -0.2364
16893SOL     OW56514   8.461   0.248   3.261 -0.1236  0.0574  0.6259
16893SOL    HW156515   8.450   0.209   3.174  2.5631  0.2825  0.0734
16893SOL    HW256516   8.468   0.174   3.320  0.1752 -0.1856  0.2946
16894SOL     OW56517   6.578   7.380   6.243 -0.5944  0.7194  0.6155
16894SOL    HW156518   6.667   7.379   6.209 -0.1352  1.1303  1.7361
16894SOL    HW256519   6.566   7.294   6.283 -0.9955  0.3765 -0.2226
16895SOL     OW56520   5.684   5.790   9.569 -0.2380 -0.3641  0.3964
16895SOL    HW156521   5.751   5.850   9.535  0.2431 -1.1024  0.0292
16895SOL    HW256522   5.715   5.703   9.545 -0.3928 -0.8514  1.8349
16896SOL     OW56523   1.639   7.141   1.582 -0.2621  0.2073  0.5808
16896SOL    HW156524   1.703   7.148   1.653  1.9451 -1.2068 -1.1538
16896SOL    HW256525   1.644   7.226   1.538  2.1856 -0.5737 -0.8510
16897SOL     OW56526   7.594   5.782   3.963 -0.8413 -0.4116 -0.1638
16897SOL    HW156527   7.582   5.822   3.876 -1.1886  2.0425  0.9304
16897SOL    HW256528   7.671   5.726   3.953 -1.0480 -0.4219 -2.1255
16898SOL     OW56529   0.189   7.300   4.248 -0.0937 -0.4367 -0.1262
16898SOL    HW156530   0.186   7.283   4.154 -0.6284 -0.6186 -0.0827
16898SOL    HW256531   0.188   7.395   4.255 -3.4046 -0.3242 -0.2707
16899SOL     OW56532   4.331   6.156   7.047  0.2704  0.1587 -0.5653
16899SOL    HW156533   4.403   6.202   7.090  0.2545  0.3876 -0.7853
16899SOL    HW256534   4.291   6.221   6.990 -0.9784  0.4306  0.5871
16900SOL     OW56535   9.389   2.160   7.072 -0.3939  0.1116  0.5053
16900SOL    HW156536   9.296   2.182   7.074 -0.5062 -0.0686 -1.1807
16900SOL    HW256537   9.418   2.187   6.985  1.6590  2.0998  1.7127
16901SOL     OW56538   6.802   0.667   8.144 -0.1760  0.7122  0.3228
16901SOL    HW156539   6.896   0.682   8.156  0.6451 -1.8410 -1.8723
16901SOL    HW256540   6.779   0.720   8.067 -0.0088 -0.2772 -0.4188
16902SOL     OW56541   7.333   6.081   4.710 -0.1631  0.5883  0.0861
16902SOL    HW156542   7.375   6.017   4.653 -0.0825  1.7571 -1.2100
16902SOL    HW256543   7.352   6.050   4.798 -0.2797 -1.2674 -0.4837
16903SOL     OW56544   7.489   1.727  10.518 -0.0180 -0.5743 -0.5646
16903SOL    HW156545   7.491   1.711  10.612  1.1055 -0.1020 -0.5030
16903SOL    HW256546   7.411   1.781  10.505  0.8706  1.0062  0.3766
16904SOL     OW56547   1.027   3.337   6.338 -0.4061 -0.1142 -0.0528
16904SOL    HW156548   0.948   3.389   6.342 -0.1998  0.3456 -1.4497
16904SOL    HW256549   1.065   3.344   6.426 -0.2794  2.2623 -0.2497
16905SOL     OW56550   7.133   6.425   9.519  0.2940 -0.1769  0.0405
16905SOL    HW156551   7.167   6.494   9.575  2.6411 -0.3466 -1.0858
16905SOL    HW256552   7.107   6.470   9.439 -0.5744 -0.3009  0.2368
16906SOL     OW56553   4.877   9.861   7.505  0.7866 -0.4331  0.2865
16906SOL    HW156554   4.895   9.767   7.502  0.1004 -0.6683  2.2880
16906SOL    HW256555   4.928   9.893   7.580 -1.5501  0.1390  1.7374
16907SOL     OW56556   0.863   3.200   1.578 -0.0497  0.2223  0.0655
16907SOL    HW156557   0.819   3.211   1.662 -1.0733 -0.4067 -0.3733
16907SOL    HW256558   0.869   3.106   1.565  1.1449  0.2888 -0.0533
16908SOL     OW56559   5.085   0.119   6.378  0.5016  0.2873  0.8009
16908SOL    HW156560   5.003   0.071   6.375  1.1295 -0.7587 -1.3274
16908SOL    HW256561   5.071   0.195   6.321  0.6874  0.6772  1.2677
16909SOL     OW56562   0.016   9.372   9.458  0.2098  0.0554  0.3171
16909SOL    HW156563   0.065   9.339   9.534  1.0810  1.4344  0.4071
16909SOL    HW256564   0.067   9.448   9.429 -0.2342 -0.3052 -1.5208
16910SOL     OW56565   9.432   0.512   2.129  0.3790  0.2213 -0.0623
16910SOL    HW156566   9.358   0.480   2.078  0.2387  2.0826 -1.1127
16910SOL    HW256567   9.507   0.507   2.069  1.1856 -1.7126  1.0120
16911SOL     OW56568   6.026   7.336   2.003  0.3994 -0.6352  0.2292
16911SOL    HW156569   6.070   7.404   2.054  0.7094  0.6680 -1.6696
16911SOL    HW256570   5.938   7.371   1.989  0.3124 -0.9952 -0.1257
16912SOL     OW56571   8.318   1.888   8.086 -0.5101 -0.4584  0.0147
16912SOL    HW156572   8.252   1.955   8.069 -0.6479 -0.8595 -1.1332
16912SOL    HW256573   8.355   1.912   8.171 -0.7915  0.8712 -0.2092
16913SOL     OW56574   8.234   5.263   5.250  0.5304 -0.8788  0.7698
16913SOL    HW156575   8.205   5.352   5.272  1.3092 -0.9251  2.0889
16913SOL    HW256576   8.167   5.206   5.288 -0.0181 -0.8756 -0.1557
16914SOL     OW56577   9.618   5.896   1.045  0.3395  0.2805  0.3143
16914SOL    HW156578   9.529   5.881   1.078  1.1905 -0.0719  2.6706
16914SOL    HW256579   9.619   5.989   1.023 -0.8233  0.1258 -0.4942
16915SOL     OW56580   1.825   7.624   0.083  0.0215 -0.2118  0.3560
16915SOL    HW156581   1.881   7.618   0.005 -0.9529  0.9153 -0.4706
16915SOL    HW256582   1.807   7.533   0.107 -0.3673 -0.6004 -1.2764
16916SOL     OW56583   2.821   2.450  10.033 -0.0881  0.3852 -0.3311
16916SOL    HW156584   2.891   2.392  10.004 -1.1770 -1.1635  0.0494
16916SOL    HW256585   2.866   2.519  10.082  1.2408 -0.0345 -0.9289
16917SOL     OW56586  10.391   8.250   1.173 -0.1387  0.4258 -0.1642
16917SOL    HW156587  10.351   8.219   1.091 -1.7877  1.9506  0.0038
16917SOL    HW256588  10.476   8.284   1.146 -0.0293 -0.4662 -0.9982
16918SOL     OW56589   0.739   9.638   3.342 -0.0824 -0.0806 -0.0042
16918SOL    HW156590   0.700   9.550   3.337 -1.3240  0.5114 -1.4337
16918SOL    HW256591   0.665   9.696   3.357  0.7288  0.7596  0.8810
16919SOL     OW56592   6.872   6.052   5.456  0.0175  0.1422 -0.1144
16919SOL    HW156593   6.918   5.978   5.495 -1.7535 -0.4843  0.8950
16919SOL    HW256594   6.864   6.030   5.363 -0.9521 -1.2157  0.2609
16920SOL     OW56595   7.794   3.441  10.536  0.0340 -1.0488 -0.0326
16920SOL    HW156596   7.836   3.385  10.601 -1.3301 -0.5100  1.3704
16920SOL    HW256597   7.801   3.529  10.572 -0.8901 -0.7632 -0.5251
16921SOL     OW56598   5.846   3.148   6.040  0.0669 -0.2944  0.3711
16921SOL    HW156599   5.837   3.238   6.008  1.4157 -0.2314  0.0880
16921SOL    HW256600   5.764   3.129   6.084 -0.9550  0.4455 -1.1352
16922SOL     OW56601   5.409   3.682   2.298 -0.5970 -0.4888  0.6136
16922SOL    HW156602   5.444   3.749   2.356  0.8068  1.8168 -2.5702
16922SOL    HW256603   5.466   3.606   2.312  3.6457  1.8757 -1.5688
16923SOL     OW56604   6.165   8.005   2.070  0.3521 -0.2609 -0.1567
16923SOL    HW156605   6.116   7.923   2.079  1.2031 -0.7549  0.0557
16923SOL    HW256606   6.189   8.008   1.977  0.2409 -0.1968 -0.1844
16924SOL     OW56607   5.090   7.997   3.409  0.3043 -0.0879  0.3094
16924SOL    HW156608   5.088   8.036   3.322  1.5469 -2.7360 -1.0448
16924SOL    HW256609   5.101   7.903   3.393 -0.4644 -0.8178  3.3281
16925SOL     OW56610   9.276   1.400   8.360  0.3049  0.4122  0.3177
16925SOL    HW156611   9.312   1.487   8.345  1.9145 -0.2351  0.2553
16925SOL    HW256612   9.296   1.351   8.280 -1.5840  0.2619 -0.1193
16926SOL     OW56613   6.533   4.823   9.554 -0.7505 -0.1454 -0.0709
16926SOL    HW156614   6.551   4.901   9.501 -1.6353 -0.7825 -1.3853
16926SOL    HW256615   6.587   4.833   9.632 -0.7486  1.7092 -0.2716
16927SOL     OW56616   5.125   2.604   0.720 -0.3631  0.0466  0.6903
16927SOL    HW156617   5.111   2.662   0.645  0.0141  0.2270  0.7593
16927SOL    HW256618   5.091   2.653   0.795  1.4525  0.9056  1.0172
16928SOL     OW56619   5.881   0.851   2.124  0.6258  0.1104 -0.0996
16928SOL    HW156620   5.850   0.778   2.071  0.8277  0.4561 -0.7054
16928SOL    HW256621   5.802   0.899   2.148  0.5513  0.0770 -0.2774
16929SOL     OW56622   8.766   2.153   5.986  0.3719 -0.3976 -0.4303
16929SOL    HW156623   8.806   2.105   5.913  3.7606  0.0175  0.9612
16929SOL    HW256624   8.760   2.243   5.955 -0.5045 -0.6340 -0.9932
16930SOL     OW56625   0.379   9.310  10.619 -0.0243 -0.3246  0.2915
16930SOL    HW156626   0.428   9.234  10.586 -1.3258 -1.1002  0.0971
16930SOL    HW256627   0.289   9.295  10.590 -0.8115  0.0340  2.3900
16931SOL     OW56628   4.312   6.835   6.799  0.0961 -0.3337  0.5111
16931SOL    HW156629   4.405   6.846   6.782 -0.3282  3.2909 -0.4493
16931SOL    HW256630   4.287   6.758   6.747  2.2906 -0.5481 -0.3452
16932SOL     OW56631   5.103  10.212   0.640  0.1460 -0.2763  0.3955
16932SOL    HW156632   5.036  10.181   0.578 -0.2187 -0.5714  0.9276
16932SOL    HW256633   5.053  10.257   0.708  0.4012 -1.2557  1.2567
16933SOL     OW56634   1.308  10.540   3.278  0.0069  0.1572 -0.2047
16933SOL    HW156635   1.267  10.612   3.325 -0.1709 -0.0858  0.0105
16933SOL    HW256636   1.401  10.562   3.278  0.0727 -0.0804  0.6861
16934SOL     OW56637   9.354  10.291   3.501  0.1267 -0.6354  0.0776
16934SOL    HW156638   9.299  10.232   3.553 -1.6396  1.0128  0.1794
16934SOL    HW256639   9.297  10.319   3.429  0.7859  1.2200  0.2420
16935SOL     OW56640   0.764   4.709   9.297 -0.3891  0.2460  0.0343
16935SOL    HW156641   0.690   4.650   9.280  0.1023 -0.9019  1.6000
16935SOL    HW256642   0.838   4.650   9.312  1.6172  1.3348 -4.0782
16936SOL     OW56643   5.897   2.328   4.261  0.0507  0.5743 -0.1590
16936SOL    HW156644   5.944   2.275   4.325 -0.4518  1.0628  0.6212
16936SOL    HW256645   5.946   2.410   4.256  0.1794  0.4798 -0.5287
16937SOL     OW56646   6.567   4.401  10.249 -0.6914 -0.3004 -0.5393
16937SOL    HW156647   6.581   4.325  10.193 -0.8605  0.4854 -1.7005
16937SOL    HW256648   6.635   4.463  10.221  0.2278 -0.4504  1.2256
16938SOL     OW56649   1.164   3.734   9.550  0.9703 -0.8915  0.3140
16938SOL    HW156650   1.180   3.794   9.622  1.6095 -1.4871  0.6859
16938SOL    HW256651   1.143   3.790   9.476 -1.7484 -0.3127  1.4034
16939SOL     OW56652   0.027   1.549   5.115  0.1258  0.1510  0.5909
16939SOL    HW156653  -0.044   1.609   5.090  0.5406  0.0034 -1.0829
16939SOL    HW256654   0.083   1.545   5.037  1.0611 -1.0521  1.2904
16940SOL     OW56655   1.611   6.618   2.673  0.1773  0.0105  0.0211
16940SOL    HW156656   1.564   6.582   2.748 -2.6676  1.6493 -0.8473
16940SOL    HW256657   1.657   6.695   2.708  0.3306 -0.2504  0.4055
16941SOL     OW56658   0.251   1.339   9.608 -0.0999 -0.4916 -0.8044
16941SOL    HW156659   0.194   1.381   9.672  0.4423  1.2090 -1.4004
16941SOL    HW256660   0.301   1.276   9.660 -0.8099 -0.3138  0.1418
16942SOL     OW56661   9.830   5.824   0.453 -0.2063  0.2404 -0.6773
16942SOL    HW156662   9.872   5.874   0.383  0.2370  1.7362  0.6022
16942SOL    HW256663   9.878   5.741   0.455  2.0086  1.4460 -0.0404
16943SOL     OW56664   2.282   8.456   3.869 -0.7581  0.1453 -0.6003
16943SOL    HW156665   2.347   8.514   3.906  0.9059 -2.0904  0.2354
16943SOL    HW256666   2.294   8.462   3.774  1.3475 -0.8566 -0.4473
16944SOL     OW56667   1.926   9.184   6.566  0.0919 -0.0257 -0.1215
16944SOL    HW156668   2.006   9.171   6.618  0.5595 -1.3038 -1.1087
16944SOL    HW256669   1.947   9.147   6.480 -0.1110  3.3141 -1.7889
16945SOL     OW56670   3.404   2.037   0.971 -0.1088 -0.0405  0.4457
16945SOL    HW156671   3.358   1.993   0.900  0.5165  0.9126 -0.5659
16945SOL    HW256672   3.496   2.030   0.950  0.0073  1.8827  0.1514
16946SOL     OW56673   7.731   8.741   0.919 -0.2003 -0.0228  0.3377
16946SOL    HW156674   7.765   8.727   1.007  0.7001 -0.8185 -0.1160
16946SOL    HW256675   7.804   8.718   0.861 -1.1014 -0.5529 -0.6354
16947SOL     OW56676   2.924   6.327   3.790 -0.5770 -0.1632 -0.1130
16947SOL    HW156677   2.989   6.330   3.860 -1.8040  1.4378  1.0274
16947SOL    HW256678   2.847   6.369   3.827 -1.4881  0.1361 -2.2152
16948SOL     OW56679  10.517   4.907   8.609  0.1126  0.3190  0.2825
16948SOL    HW156680  10.557   4.839   8.662 -1.0386  0.5599  1.5257
16948SOL    HW256681  10.500   4.979   8.670 -0.9066  0.7567 -0.4754
16949SOL     OW56682   0.267  10.278   5.046  0.5398  0.3026  0.5632
16949SOL    HW156683   0.179  10.300   5.016  0.6541  0.0808  0.0377
16949SOL    HW256684   0.259  10.269   5.141 -0.4187 -1.5797  0.3394
16950SOL     OW56685   4.452   5.191   8.886  0.0774 -0.8152  0.1377
16950SOL    HW156686   4.514   5.228   8.949  0.0910 -2.3175  1.0679
16950SOL    HW256687   4.480   5.225   8.801  0.9784  0.0680  0.7677
16951SOL     OW56688   8.303   9.652   5.095  0.2758 -0.0681  0.0503
16951SOL    HW156689   8.316   9.560   5.118 -0.1061 -0.2270 -0.3606
16951SOL    HW256690   8.323   9.700   5.176 -1.1554 -0.6242  0.7661
16952SOL     OW56691   0.813   0.595   9.265  0.3676 -0.2297 -0.1542
16952SOL    HW156692   0.886   0.535   9.251  1.3488  1.0684 -0.7858
16952SOL    HW256693   0.746   0.565   9.203  1.9953  1.1011 -2.7427
16953SOL     OW56694   7.934   9.645   0.532  0.4839  0.1639  0.2011
16953SOL    HW156695   8.011   9.680   0.489  0.6967  1.0361  1.2423
16953SOL    HW256696   7.891   9.721   0.572  0.2146 -0.5603  1.3672
16954SOL     OW56697   5.566   5.121   2.525  0.5856  0.1618  0.1796
16954SOL    HW156698   5.562   5.187   2.455  0.4946  0.8233  0.8004
16954SOL    HW256699   5.502   5.151   2.590 -1.3452 -1.8979 -0.6512
16955SOL     OW56700   2.305   3.272   5.344 -0.0134 -0.4499  0.2942
16955SOL    HW156701   2.337   3.203   5.402  0.6039  0.2107  0.7527
16955SOL    HW256702   2.231   3.310   5.390  0.8583  0.4891  0.9642
16956SOL     OW56703   9.163   8.089   7.577 -0.2542 -0.0295  0.1310
16956SOL    HW156704   9.210   8.043   7.647 -0.4275 -0.5018 -0.0624
16956SOL    HW256705   9.081   8.040   7.567 -0.9888  1.0293  0.7575
16957SOL     OW56706   6.023   1.488   4.458 -0.4842  0.4400  0.2565
16957SOL    HW156707   5.942   1.502   4.410 -0.5711  0.4638  0.4092
16957SOL    HW256708   6.077   1.565   4.439 -0.9763  1.0203  1.1276
16958SOL     OW56709   9.648   5.744  10.343  0.4241  0.0787 -0.7997
16958SOL    HW156710   9.560   5.711  10.362  0.1619  1.1980  0.0797
16958SOL    HW256711   9.677   5.782  10.426  2.2416 -1.3138 -0.7481
16959SOL     OW56712   1.073   4.943   7.195 -0.1688 -0.1661 -0.2910
16959SOL    HW156713   1.088   4.982   7.109 -0.4853 -0.5055 -0.5047
16959SOL    HW256714   1.075   4.848   7.179  1.4510 -0.2801  0.3611
16960SOL     OW56715   9.867   4.436   0.179  0.0322  0.1654  0.1573
16960SOL    HW156716   9.913   4.520   0.175 -2.5251  1.6413 -0.0192
16960SOL    HW256717   9.890   4.401   0.266  2.5765  0.0749 -0.4591
16961SOL     OW56718  10.325   9.556   4.336  0.1698  1.0006  0.6419
16961SOL    HW156719  10.394   9.517   4.283 -0.3194 -0.5749  1.1086
16961SOL    HW256720  10.312   9.643   4.298  1.2241  0.6824 -0.5214
16962SOL     OW56721   5.306   9.566   6.722  0.3920  0.3500 -0.1021
16962SOL    HW156722   5.236   9.501   6.716  0.7847  0.0061 -1.1226
16962SOL    HW256723   5.272   9.631   6.783 -0.9130  0.2874 -0.7202
16963SOL     OW56724   0.461   0.696   2.631  0.0232 -0.1063 -0.8665
16963SOL    HW156725   0.546   0.676   2.670 -1.4938 -1.5126  1.9942
16963SOL    HW256726   0.412   0.740   2.701 -2.6919 -2.2964 -1.2258
16964SOL     OW56727   4.173   4.714   1.266  0.1452 -0.1558 -0.5793
16964SOL    HW156728   4.130   4.631   1.245  0.4740 -0.4442 -0.1531
16964SOL    HW256729   4.115   4.782   1.231  0.9019 -0.6013 -2.8868
16965SOL     OW56730   7.722   2.959   7.254 -0.5195 -0.4357 -0.2722
16965SOL    HW156731   7.636   2.992   7.232 -0.4178  0.3130  0.3872
16965SOL    HW256732   7.706   2.871   7.290 -0.9325 -0.5649 -0.7696
16966SOL     OW56733   5.968   6.482   1.350 -0.7079  0.3085 -0.2044
16966SOL    HW156734   5.883   6.463   1.391 -0.8171  0.0645 -0.5380
16966SOL    HW256735   6.029   6.488   1.423 -0.9297  0.0262  0.0062
16967SOL     OW56736   0.206  10.097   0.843  0.1850  0.0104 -0.4858
16967SOL    HW156737   0.149  10.137   0.909 -0.9368  0.7191 -1.8359
16967SOL    HW256738   0.199  10.003   0.859 -1.5264  0.0729 -0.7217
16968SOL     OW56739  10.724   5.145   2.378  0.5845  0.4789 -0.2414
16968SOL    HW156740  10.636   5.183   2.386  0.0804 -0.1126 -2.1961
16968SOL    HW256741  10.740   5.102   2.462 -1.3820 -0.1500 -0.1347
16969SOL     OW56742   6.437   9.763   1.639 -0.7376 -0.5008 -0.2203
16969SOL    HW156743   6.493   9.822   1.589 -1.1911 -0.3674 -0.5787
16969SOL    HW256744   6.487   9.745   1.719 -0.4066  0.0193 -0.3019
16970SOL     OW56745   1.075   2.935   0.392  0.3762 -0.2216 -0.2033
16970SOL    HW156746   1.166   2.907   0.400 -0.0843 -1.4445  1.1415
16970SOL    HW256747   1.049   2.907   0.304  1.4190  0.5656 -0.7767
16971SOL     OW56748   9.048   5.277   1.608  0.9572  0.8118  0.7599
16971SOL    HW156749   9.007   5.294   1.524  2.4346 -0.0435 -0.1711
16971SOL    HW256750   8.975   5.254   1.666 -0.2453  2.8629  0.1458
16972SOL     OW56751   0.851   2.953   4.941  0.3589  0.5076  0.1661
16972SOL    HW156752   0.912   2.896   4.988  0.8577  2.3564  1.8841
16972SOL    HW256753   0.765   2.914   4.958  0.7425 -0.1634  0.6427
16973SOL     OW56754   0.387  10.575   7.155  0.1157 -0.0602 -0.4080
16973SOL    HW156755   0.385  10.504   7.218 -1.2188 -0.7413 -1.1827
16973SOL    HW256756   0.443  10.543   7.084 -0.1158 -0.1635 -0.5462
16974SOL     OW56757   6.044   4.826   7.915  0.6075 -0.2858  0.3638
16974SOL    HW156758   6.012   4.887   7.982 -0.7703  0.4540 -0.9110
16974SOL    HW256759   6.134   4.807   7.941  0.8117  1.6694  1.2429
16975SOL     OW56760   7.214   4.180   3.691  0.5655  0.0305  0.8972
16975SOL    HW156761   7.224   4.093   3.654 -0.7374  0.0085  0.5712
16975SOL    HW256762   7.120   4.192   3.701  0.6117  1.9396 -0.3975
16976SOL     OW56763   8.367   1.397   2.800  0.0087 -0.5884 -0.4153
16976SOL    HW156764   8.379   1.482   2.843  0.7880 -1.3421  0.8947
16976SOL    HW256765   8.348   1.420   2.709  0.7693  0.9745 -0.2219
16977SOL     OW56766   8.870   1.388   7.899  0.0465 -0.0172 -0.4351
16977SOL    HW156767   8.835   1.300   7.903 -1.9466  0.7658  1.2254
16977SOL    HW256768   8.794   1.444   7.883  1.2210  1.4316 -1.2407
16978SOL     OW56769   0.180   1.738   2.151  0.1638 -0.4479  0.3934
16978SOL    HW156770   0.208   1.679   2.081 -0.8942  0.2402 -0.6546
16978SOL    HW256771   0.137   1.682   2.214 -0.4375 -0.8688 -0.3772
16979SOL     OW56772   0.441   3.598   6.390 -0.0620 -1.1601  0.1075
16979SOL    HW156773   0.448   3.578   6.297  1.0063  1.6991 -0.5244
16979SOL    HW256774   0.358   3.644   6.399  0.7894  0.4342  0.1268
16980SOL     OW56775   4.363   8.744   1.886 -0.6615  0.2762 -0.8855
16980SOL    HW156776   4.381   8.701   1.802  0.3663 -0.2849 -0.4038
16980SOL    HW256777   4.416   8.823   1.885  1.4806 -1.0203  0.2412
16981SOL     OW56778   2.230  10.384   9.420  0.2793  0.1620  0.1608
16981SOL    HW156779   2.174  10.403   9.495 -2.6379 -0.6415 -1.6049
16981SOL    HW256780   2.301  10.331   9.455 -0.6985  0.2297  2.4087
16982SOL     OW56781   5.711   0.338   9.574 -0.2153  0.2682  0.1442
16982SOL    HW156782   5.674   0.250   9.573  2.3851 -0.9558  1.7690
16982SOL    HW256783   5.656   0.387   9.635 -2.1854  0.1022 -1.4016
16983SOL     OW56784   6.383   4.139   1.320  0.1289 -0.5501 -0.5848
16983SOL    HW156785   6.365   4.052   1.356  0.4550 -0.5051 -0.3062
16983SOL    HW256786   6.298   4.184   1.325 -0.0692 -0.8879 -0.8440
16984SOL     OW56787   4.111   7.331   8.871  0.3733  0.0264  0.0144
16984SOL    HW156788   4.124   7.249   8.823 -0.2390 -0.4863  0.7053
16984SOL    HW256789   4.108   7.399   8.803  0.7575 -0.5384 -0.5719
16985SOL     OW56790   4.116   4.161   3.956  0.4149 -0.4167  0.0961
16985SOL    HW156791   4.042   4.186   4.011  0.5273 -0.7820  0.4176
16985SOL    HW256792   4.161   4.243   3.936  0.0508 -0.2201  0.0854
16986SOL     OW56793   7.708   5.739   6.371 -0.0657 -0.2503 -0.6203
16986SOL    HW156794   7.622   5.700   6.360  0.0785 -0.0706 -2.8388
16986SOL    HW256795   7.766   5.683   6.319  1.5369 -1.3660  2.1297
16987SOL     OW56796   2.894   8.120   0.805  0.0090 -0.4509  0.1824
16987SOL    HW156797   2.815   8.172   0.822 -1.0800 -1.0052 -2.6321
16987SOL    HW256798   2.939   8.168   0.736  2.0247 -0.3543  1.4813
16988SOL     OW56799  10.168  10.264   6.085 -0.2534 -0.0516 -0.2337
16988SOL    HW156800  10.087  10.223   6.116 -0.2896  0.1008 -0.1235
16988SOL    HW256801  10.158  10.356   6.110 -0.4227  0.1369 -0.9835
16989SOL     OW56802   7.161   0.923  10.163 -0.0744 -0.1745 -0.0113
16989SOL    HW156803   7.094   0.982  10.197 -0.2192 -0.8984  1.0038
16989SOL    HW256804   7.209   0.893  10.241  0.5957 -0.6706 -0.5967
16990SOL     OW56805   7.976   0.107   9.548  0.1371  0.2417  0.4560
16990SOL    HW156806   8.039   0.091   9.478 -0.3279  1.7542 -0.3566
16990SOL    HW256807   8.024   0.088   9.628  0.7506 -1.3004 -0.2345
16991SOL     OW56808   4.896   0.477   2.299 -0.7189  0.0979 -0.4416
16991SOL    HW156809   4.863   0.556   2.342  0.9630 -1.1651  3.5389
16991SOL    HW256810   4.822   0.445   2.248 -2.6732  2.1686  0.9092
16992SOL     OW56811   2.153   3.289   4.012 -0.3519  0.7396  0.0893
16992SOL    HW156812   2.157   3.229   3.939 -0.2998  2.4812 -1.4104
16992SOL    HW256813   2.065   3.279   4.048 -0.3444 -0.1959 -0.1386
16993SOL     OW56814   0.426   6.239   3.078 -0.5159 -0.1073  0.6351
16993SOL    HW156815   0.429   6.172   3.010  0.1538 -0.7071  1.2339
16993SOL    HW256816   0.507   6.288   3.067 -1.0552  0.6888  0.1316
16994SOL     OW56817   4.848   4.654   9.807 -0.2827  0.1051  0.0280
16994SOL    HW156818   4.831   4.707   9.729 -0.5730  1.2529  0.8499
16994SOL    HW256819   4.854   4.564   9.774 -0.0071  0.6130 -1.3654
16995SOL     OW56820   4.800   4.375   9.961 -0.2619  0.4193  0.0167
16995SOL    HW156821   4.715   4.330   9.956 -0.4785  0.8382 -0.2017
16995SOL    HW256822   4.861   4.309   9.990 -0.3004 -0.3879 -1.6163
16996SOL     OW56823   8.905   7.796   6.139  0.2238  0.1990  0.1291
16996SOL    HW156824   8.959   7.717   6.139  0.9710  0.6988  0.4440
16996SOL    HW256825   8.816   7.765   6.155  0.5674 -0.5340  0.6553
16997SOL     OW56826   6.670   6.935   5.245 -0.4676  0.2488  0.4686
16997SOL    HW156827   6.690   6.872   5.176  0.6937  1.2741 -0.1745
16997SOL    HW256828   6.595   6.897   5.291  0.3074 -1.6849  0.2465
16998SOL     OW56829   6.684   0.508  10.077  0.5941  0.0710  0.3282
16998SOL    HW156830   6.633   0.445  10.127 -0.1846  1.3847  1.2548
16998SOL    HW256831   6.747   0.455  10.028  1.0173 -1.3098  2.2800
16999SOL     OW56832   4.902   2.508   4.566 -0.4160 -0.9332  0.8648
16999SOL    HW156833   4.906   2.578   4.500  0.2755 -2.0017 -0.2644
16999SOL    HW256834   4.919   2.553   4.649  1.5352  0.0587  0.0083
17000SOL     OW56835   5.578   0.334   8.579 -0.1405 -0.3066  0.2026
17000SOL    HW156836   5.532   0.276   8.518 -1.1533  0.1245  0.5333
17000SOL    HW256837   5.638   0.383   8.523  0.5497 -1.4689 -0.1202
17001SOL     OW56838   4.686   5.800   0.785  0.0625  0.2571 -0.3568
17001SOL    HW156839   4.624   5.869   0.807  0.5767  0.6572 -0.1238
17001SOL    HW256840   4.758   5.846   0.742  0.1509 -0.2125 -0.7186
17002SOL     OW56841   0.072   3.437   6.081 -0.3407 -0.8623 -0.5514
17002SOL    HW156842   0.034   3.355   6.050  0.2768 -0.6284 -1.9974
17002SOL    HW256843   0.040   3.503   6.021  0.1227 -0.2226 -0.1116
17003SOL     OW56844   5.816   7.730   0.336  0.7127 -0.8809 -0.2271
17003SOL    HW156845   5.880   7.797   0.313  1.6625 -1.7000 -0.0569
17003SOL    HW256846   5.733   7.761   0.299  1.2819  0.0144 -0.7747
17004SOL     OW56847   0.309  10.292   8.648 -0.0927 -0.0172  0.0547
17004SOL    HW156848   0.279  10.302   8.557  1.6729 -0.0864 -0.5788
17004SOL    HW256849   0.404  10.280   8.640  0.0499 -0.3122  1.9044
17005SOL     OW56850   7.946   7.406   1.321  0.3705 -0.2810  0.5070
17005SOL    HW156851   7.918   7.326   1.277  0.9741 -1.3598  2.0079
17005SOL    HW256852   8.040   7.393   1.337  0.5722  0.9094  0.4296
17006SOL     OW56853  10.508   5.971  10.313 -0.0923  0.1725  0.3672
17006SOL    HW156854  10.416   5.992  10.326  0.2804  1.6753  0.7904
17006SOL    HW256855  10.532   5.918  10.389 -0.4551  0.3014  0.5711
17007SOL     OW56856  10.647   5.354   9.169  0.0244  0.4449  0.5708
17007SOL    HW156857  10.717   5.294   9.196 -0.9844 -0.3659  1.4592
17007SOL    HW256858  10.684   5.441   9.184  1.5094  0.0858 -0.7561
17008SOL     OW56859   2.069   9.765   8.782  0.5667  0.3110 -0.3847
17008SOL    HW156860   2.078   9.857   8.806  0.9844  0.2087 -0.1390
17008SOL    HW256861   2.015   9.766   8.703 -0.3354  0.6884  0.2264
17009SOL     OW56862   4.229   1.014   9.147  0.2033  0.0741 -0.4528
17009SOL    HW156863   4.241   1.100   9.107  1.8120 -0.4190 -1.1187
17009SOL    HW256864   4.314   0.994   9.187 -0.0199 -1.3353 -0.6217
17010SOL     OW56865   1.224   7.180   9.953 -0.7471 -0.4318 -0.0930
17010SOL    HW156866   1.173   7.254   9.987 -1.9121 -0.9957 -0.5535
17010SOL    HW256867   1.165   7.105   9.961  0.1212 -1.1623 -0.3960
17011SOL     OW56868   8.428   3.322   8.287  0.8189 -0.2573  0.3378
17011SOL    HW156869   8.457   3.275   8.209 -1.0686 -0.1298 -0.4831
17011SOL    HW256870   8.382   3.399   8.254 -1.7000 -1.1717  1.4785
17012SOL     OW56871   8.290   2.795   5.976  0.0365 -0.8438  0.0794
17012SOL    HW156872   8.212   2.769   6.025 -0.2388  0.3846  0.3257
17012SOL    HW256873   8.281   2.752   5.891  0.3199 -2.6763  0.9300
17013SOL     OW56874   3.200  10.420   8.357 -0.0971  0.0110  0.1441
17013SOL    HW156875   3.133  10.486   8.373 -0.2897 -0.2063  0.2378
17013SOL    HW256876   3.175  10.380   8.274 -0.7205 -0.8368  0.7179
17014SOL     OW56877   3.755   0.957   9.703  0.7837 -0.5987  0.6217
17014SOL    HW156878   3.836   1.008   9.695  0.8982 -0.8695 -0.0111
17014SOL    HW256879   3.772   0.877   9.654  0.4672 -1.0827  1.2911
17015SOL     OW56880   8.230   7.264   3.913 -0.3000  0.6423 -0.8343
17015SOL    HW156881   8.207   7.226   3.998  1.1671  1.7243  0.1019
17015SOL    HW256882   8.206   7.197   3.849  1.8043 -1.7269  0.6810
17016SOL     OW56883   0.862   8.457   4.802 -0.9030  0.6350  0.1759
17016SOL    HW156884   0.928   8.521   4.830  1.1764 -1.3293  0.1045
17016SOL    HW256885   0.868   8.456   4.707 -0.3021 -0.2158  0.2072
17017SOL     OW56886   1.939   9.328   9.947 -0.1216  0.0550 -0.5700
17017SOL    HW156887   2.020   9.350   9.900 -0.0314  1.2937  0.1257
17017SOL    HW256888   1.878   9.398   9.924  0.2899  1.3869  2.0166
17018SOL     OW56889   2.793  10.382   5.030  0.0041  0.2987 -0.3437
17018SOL    HW156890   2.725  10.354   4.968 -0.1409  0.3202 -0.1953
17018SOL    HW256891   2.757  10.461   5.071  0.6691  1.0793 -1.2070
17019SOL     OW56892   7.226   2.618   8.319  0.4074  0.4463  0.0399
17019SOL    HW156893   7.265   2.685   8.263  1.1608  0.6147  0.7510
17019SOL    HW256894   7.154   2.583   8.267  1.9981 -0.4686 -1.6786
17020SOL     OW56895   4.863   7.551   8.814 -0.2803  0.0035  1.0136
17020SOL    HW156896   4.809   7.512   8.883  0.4005  1.1402  2.2394
17020SOL    HW256897   4.874   7.642   8.841  1.9657 -0.1040  0.6349
17021SOL     OW56898   9.071   3.613   6.202 -0.0754 -0.0019 -0.7430
17021SOL    HW156899   8.976   3.608   6.213 -0.1903 -1.2295 -1.9514
17021SOL    HW256900   9.098   3.523   6.184  1.8876 -0.4086  3.2027
17022SOL     OW56901   6.188   0.405   7.894  0.5306 -0.2175 -0.1401
17022SOL    HW156902   6.150   0.409   7.806  0.3547  0.5623 -0.0299
17022SOL    HW256903   6.208   0.312   7.907 -1.7651 -0.7546 -0.0265
17023SOL     OW56904  10.429   0.254   2.188 -0.1581  0.2719  0.4231
17023SOL    HW156905  10.424   0.221   2.099  2.3080  0.3174  0.2026
17023SOL    HW256906  10.340   0.241   2.223 -1.2035  0.2948 -1.9996
17024SOL     OW56907   0.188   2.011   2.056 -0.2658  0.4188  0.0639
17024SOL    HW156908   0.109   2.066   2.053 -0.4667  0.0877 -1.3115
17024SOL    HW256909   0.158   1.929   2.096  0.1770  1.4502  2.7328
17025SOL     OW56910   5.535   4.533   8.555 -0.2172  0.3142  0.6653
17025SOL    HW156911   5.535   4.629   8.553 -2.0534  0.3437  0.0617
17025SOL    HW256912   5.528   4.511   8.648 -0.1777  0.7677  0.7798
17026SOL     OW56913   8.790   3.223   1.737  0.2664  0.1115  0.5656
17026SOL    HW156914   8.824   3.256   1.821 -1.3269  1.3515  0.7832
17026SOL    HW256915   8.749   3.140   1.760 -2.6398  1.7134  1.6865
17027SOL     OW56916   0.103   9.003   2.447 -0.0388 -0.0543 -0.1863
17027SOL    HW156917   0.103   8.997   2.542 -1.4947  0.1748 -0.1555
17027SOL    HW256918   0.017   8.969   2.421  0.1128  0.4315 -1.3806
17028SOL     OW56919   3.709   3.666   2.815 -0.4541  0.3767 -0.5946
17028SOL    HW156920   3.723   3.734   2.881 -0.3807  0.3680 -0.6008
17028SOL    HW256921   3.727   3.710   2.732  1.7766 -0.1940 -0.4877
17029SOL     OW56922  10.311   2.250   4.839  0.5907 -0.1016  0.3016
17029SOL    HW156923  10.254   2.327   4.843  0.3082 -0.2624 -0.4567
17029SOL    HW256924  10.252   2.175   4.844  0.5667 -0.2851 -1.7984
17030SOL     OW56925   4.849  10.653  10.364  0.1717 -0.0208  0.7963
17030SOL    HW156926   4.888  10.657  10.277  0.2376 -1.4869  0.7238
17030SOL    HW256927   4.828  10.743  10.386  3.0727  0.7840  0.6044
17031SOL     OW56928   6.819   1.462   5.407 -0.0575  0.3781 -0.1426
17031SOL    HW156929   6.767   1.510   5.471 -2.7375 -0.8131 -1.2610
17031SOL    HW256930   6.876   1.528   5.368 -1.6959  2.1198  0.2272
17032SOL     OW56931   5.939   7.603   7.748  0.2583 -0.4269  0.0472
17032SOL    HW156932   5.874   7.534   7.734  1.5616 -1.6772 -0.1847
17032SOL    HW256933   5.917   7.640   7.834  0.3840 -2.1879  0.8877
17033SOL     OW56934   5.735   4.026   0.174  0.6456 -0.4728 -0.0143
17033SOL    HW156935   5.674   4.049   0.104  0.4724 -1.6914 -0.2861
17033SOL    HW256936   5.761   3.935   0.155 -0.5071 -1.3566  2.2604
17034SOL     OW56937   2.564   9.644  10.674 -0.0620 -0.2461  0.0571
17034SOL    HW156938   2.530   9.554  10.681 -0.1348 -0.4276 -1.9232
17034SOL    HW256939   2.654   9.633  10.645  0.1907  0.3237  0.6173
17035SOL     OW56940   7.369   9.088   7.712 -0.3461  0.0174  0.6150
17035SOL    HW156941   7.406   9.139   7.784 -0.7717 -0.7313  1.3805
17035SOL    HW256942   7.386   9.141   7.634 -0.8413  1.3504  1.3898
17036SOL     OW56943   0.802   2.239   7.593  0.0941 -0.0726 -0.4947
17036SOL    HW156944   0.788   2.152   7.557  1.6757 -0.9523  0.8768
17036SOL    HW256945   0.894   2.258   7.577 -0.6607  2.3498 -2.7124
17037SOL     OW56946   7.095   8.457   7.811  0.0443  0.2847  0.6229
17037SOL    HW156947   7.046   8.400   7.751  1.9987 -0.4614 -0.3663
17037SOL    HW256948   7.085   8.416   7.897  0.8820 -1.2692  0.0344
17038SOL     OW56949   3.285   9.890   3.478  0.2649 -0.7986  0.1408
17038SOL    HW156950   3.224   9.963   3.485 -1.0808 -2.0166  1.9972
17038SOL    HW256951   3.369   9.926   3.505 -0.1191  0.3267 -0.0977
17039SOL     OW56952   6.566   5.020   6.729  0.3133 -0.5501 -0.1934
17039SOL    HW156953   6.605   4.942   6.769  0.7486  0.1664  0.8107
17039SOL    HW256954   6.639   5.064   6.686  0.7744  0.9733  1.9763
17040SOL     OW56955   9.500   0.186   2.218  0.4530  0.3830  0.2578
17040SOL    HW156956   9.413   0.226   2.217 -0.0816 -0.7332 -0.6498
17040SOL    HW256957   9.484   0.093   2.206  1.6768 -0.1137  2.0533
17041SOL     OW56958   5.228   0.958   5.586  0.0770 -0.1184 -0.5640
17041SOL    HW156959   5.176   1.014   5.527  1.2207  0.6484 -0.8767
17041SOL    HW256960   5.213   0.869   5.553 -2.1190 -0.0908  0.2040
17042SOL     OW56961   3.900   7.635  10.207 -0.4489  0.5612 -0.4158
17042SOL    HW156962   3.990   7.604  10.202 -0.6949 -0.3278  0.4498
17042SOL    HW256963   3.883   7.674  10.121  1.9250  4.0740  0.4854
17043SOL     OW56964   8.906   1.353   1.229 -0.7401 -0.7864  0.0112
17043SOL    HW156965   8.813   1.332   1.228 -0.8234 -0.4073 -0.3204
17043SOL    HW256966   8.947   1.275   1.267 -1.1022 -1.3252 -0.6716
17044SOL     OW56967   7.869   7.268   2.672 -0.2673  0.3097  0.4982
17044SOL    HW156968   7.928   7.303   2.740  3.1947 -0.9398 -1.6206
17044SOL    HW256969   7.844   7.345   2.621  0.3538  0.7574  0.8544
17045SOL     OW56970   9.046   7.537   4.807  0.5355  1.0467 -0.1876
17045SOL    HW156971   9.009   7.483   4.877 -0.2732  1.0860 -0.5738
17045SOL    HW256972   9.050   7.625   4.844 -1.0915  1.3202 -0.5951
17046SOL     OW56973   1.746  10.277   9.866 -0.1498  0.1234  0.1582
17046SOL    HW156974   1.809  10.291   9.795 -0.9545  2.2882 -0.2003
17046SOL    HW256975   1.681  10.217   9.828  2.5313 -3.7764  1.1621
17047SOL     OW56976   2.205   1.304   5.850  0.5727  0.1264  0.4025
17047SOL    HW156977   2.235   1.223   5.807  0.7211  0.2363  0.2996
17047SOL    HW256978   2.217   1.287   5.943 -0.8571 -0.5716  0.4922
17048SOL     OW56979   2.505   4.624   5.257  0.7581  0.9980 -0.3102
17048SOL    HW156980   2.425   4.600   5.305  0.6511  2.2890  0.2035
17048SOL    HW256981   2.526   4.712   5.288  2.1937  0.8212 -0.6997
17049SOL     OW56982   6.291   0.947   1.962 -0.5854  0.4772 -0.2905
17049SOL    HW156983   6.323   0.912   1.879 -0.7872 -0.5360  0.0515
17049SOL    HW256984   6.218   0.889   1.987 -0.9119  1.1209  0.3004
17050SOL     OW56985   6.554   6.455   7.183 -0.5191 -0.4856  0.1826
17050SOL    HW156986   6.482   6.515   7.165 -2.2100 -2.3365  0.3757
17050SOL    HW256987   6.517   6.392   7.245  1.6228 -0.9030  1.1322
17051SOL     OW56988   3.784   7.989   3.179  0.0638 -0.0706 -0.1642
17051SOL    HW156989   3.779   7.912   3.237  0.8456 -1.4270 -1.8253
17051SOL    HW256990   3.861   8.037   3.209  1.4421 -1.6290 -1.0206
17052SOL     OW56991   7.787   9.240   6.694  0.5303  0.6238 -0.1779
17052SOL    HW156992   7.876   9.272   6.680  1.1238 -1.2199 -0.8861
17052SOL    HW256993   7.752   9.229   6.606  0.4548 -0.8860  0.0195
17053SOL     OW56994   5.171   1.471   2.641 -0.0373  0.0441 -0.4343
17053SOL    HW156995   5.248   1.432   2.601 -0.2420  0.2881 -1.0725
17053SOL    HW256996   5.206   1.527   2.711  0.4538  1.0162 -1.4322
17054SOL     OW56997   3.484   4.544   3.342 -0.0598  0.1849 -0.4667
17054SOL    HW156998   3.447   4.456   3.334 -1.7170  0.9376 -1.8454
17054SOL    HW256999   3.410   4.602   3.326  1.6142  1.8098 -2.9847
17055SOL     OW57000  10.558   8.600   0.593  0.8973  0.6030  0.1444
17055SOL    HW157001  10.536   8.693   0.583  0.1776  0.3475 -0.7645
17055SOL    HW257002  10.474   8.555   0.582  1.6383 -0.3464 -2.2257
17056SOL     OW57003   8.036   5.932  10.222  0.4182 -0.4198 -0.1278
17056SOL    HW157004   8.065   5.940  10.131  2.9585 -0.4120  0.6249
17056SOL    HW257005   7.959   5.990  10.227  0.6503  0.1246 -2.0755
17057SOL     OW57006   0.607   2.719   9.992  0.4516  0.1253 -0.1791
17057SOL    HW157007   0.531   2.663   9.975  1.1010 -2.4501  3.9902
17057SOL    HW257008   0.669   2.697   9.921 -1.5278  0.2168 -2.0450
17058SOL     OW57009   7.236   1.448   3.134  0.3168 -0.5751 -0.1166
17058SOL    HW157010   7.279   1.363   3.128  0.8614 -0.4575  1.5139
17058SOL    HW257011   7.274   1.488   3.213 -2.2846 -0.1691  1.0368
17059SOL     OW57012   9.141   7.564   1.057 -0.3864 -0.0515 -0.1830
17059SOL    HW157013   9.209   7.609   1.007 -0.8130 -1.2915 -1.9655
17059SOL    HW257014   9.189   7.520   1.128  0.4387  0.4450 -0.4160
17060SOL     OW57015   1.010   8.362   0.080 -0.1887 -0.1893  0.0541
17060SOL    HW157016   1.012   8.453   0.053 -1.5645 -0.0953  0.1975
17060SOL    HW257017   0.950   8.320   0.019  1.0174 -1.1861 -0.4967
17061SOL     OW57018   1.187   8.621   2.807  0.5069  0.0297 -0.3250
17061SOL    HW157019   1.174   8.605   2.714  1.3901 -1.0231 -0.2865
17061SOL    HW257020   1.216   8.712   2.812 -0.5335  0.4140 -0.9622
17062SOL     OW57021   8.486  10.645   1.934 -0.2187 -0.5070 -0.2313
17062SOL    HW157022   8.544  10.708   1.891 -1.8986  0.1671 -1.6486
17062SOL    HW257023   8.543  10.571   1.955  1.4681  0.7611 -0.0768
17063SOL     OW57024  10.690   3.826   8.320  0.4559  0.5399 -0.4560
17063SOL    HW157025  10.636   3.764   8.368  0.9294  0.9656  0.6932
17063SOL    HW257026  10.634   3.861   8.251 -0.2220 -0.1746 -0.2672
17064SOL     OW57027  10.354  10.386   3.418 -0.7823 -0.7599  0.5969
17064SOL    HW157028  10.386  10.313   3.366 -0.1022 -0.3727  0.4470
17064SOL    HW257029  10.342  10.457   3.355 -0.1609 -0.3526  0.9218
17065SOL     OW57030   4.693   8.360   9.283 -0.3697 -0.1490 -0.0151
17065SOL    HW157031   4.665   8.448   9.258 -1.6664 -0.1701  1.2359
17065SOL    HW257032   4.707   8.364   9.377  1.5085 -0.8164 -0.2138
17066SOL     OW57033   9.369   2.214   1.110 -0.0491  0.1753  0.0490
17066SOL    HW157034   9.276   2.224   1.091 -0.4612  0.0724  1.8830
17066SOL    HW257035   9.378   2.236   1.202  1.8598  0.8012 -0.2417
17067SOL     OW57036   1.347   9.494   2.073  0.2030 -0.4239 -0.0655
17067SOL    HW157037   1.315   9.404   2.081 -0.8536 -0.2956 -2.1546
17067SOL    HW257038   1.323   9.535   2.156  1.2121 -2.1774  1.1653
17068SOL     OW57039   1.346   0.500   2.667 -0.1822 -0.1386  0.0498
17068SOL    HW157040   1.379   0.479   2.755 -0.0823 -0.5908 -0.0929
17068SOL    HW257041   1.352   0.595   2.662  3.2190 -0.2670 -0.7599
17069SOL     OW57042  10.118   4.239   3.910 -0.1636  0.5945 -0.1871
17069SOL    HW157043  10.155   4.245   3.998 -1.5961 -1.0108  0.5913
17069SOL    HW257044  10.186   4.197   3.858  0.6104  1.3369  0.2006
17070SOL     OW57045  10.048   9.576   9.816 -0.2420 -0.6482  0.7648
17070SOL    HW157046   9.988   9.638   9.858  0.8813  0.7376  0.4070
17070SOL    HW257047  10.000   9.544   9.739 -0.9546 -0.4849  1.1328
17071SOL     OW57048   0.075   6.673  10.376  0.5973 -0.3703 -0.3511
17071SOL    HW157049   0.089   6.590  10.330  1.2011 -0.3339 -0.2343
17071SOL    HW257050   0.141   6.674  10.445  1.0838  0.5518 -0.8228
17072SOL     OW57051   7.014   1.212   5.012 -0.0523 -0.4997  0.1117
17072SOL    HW157052   6.983   1.134   5.057 -1.3866  0.1644  0.3738
17072SOL    HW257053   6.938   1.271   5.008  0.5199  0.2107 -1.3609
17073SOL     OW57054   3.909   6.150   7.915 -0.3439 -0.0672 -0.3883
17073SOL    HW157055   3.861   6.121   7.993 -1.3446 -0.0049 -0.9602
17073SOL    HW257056   3.977   6.085   7.903  0.7152  0.6455  1.3219
17074SOL     OW57057   5.198   0.957   2.219  0.2165 -0.2605  0.2275
17074SOL    HW157058   5.159   0.878   2.255  1.0308 -0.8382 -0.1162
17074SOL    HW257059   5.164   0.961   2.129 -1.1250  0.7041  0.7370
17075SOL     OW57060   5.581  10.711   8.482 -0.3985 -0.0548 -0.0332
17075SOL    HW157061   5.511  10.777   8.481 -1.1361 -0.8188  0.3521
17075SOL    HW257062   5.573  10.666   8.398 -0.0618  0.1600 -0.1846
17076SOL     OW57063   6.715   9.673   7.337 -0.0634 -0.4582  0.2804
17076SOL    HW157064   6.625   9.685   7.368 -0.4722 -0.3702 -0.9057
17076SOL    HW257065   6.745   9.761   7.316  1.1019 -0.1797  2.6848
17077SOL     OW57066   2.525   9.587   1.096  0.2073 -0.3146  0.0149
17077SOL    HW157067   2.496   9.675   1.069  2.9283  0.4260 -0.7908
17077SOL    HW257068   2.496   9.530   1.025  0.1777  0.2828 -0.4665
17078SOL     OW57069   0.069   4.934   2.608  0.4045 -0.4377  0.1758
17078SOL    HW157070   0.025   4.866   2.659 -0.6553 -0.1249 -0.3041
17078SOL    HW257071   0.112   4.989   2.674  0.2254 -0.8460  0.6404
17079SOL     OW57072   2.690   2.583   7.939  0.3432 -0.6808 -0.0053
17079SOL    HW157073   2.761   2.532   7.902  2.8542  1.1741  1.9091
17079SOL    HW257074   2.731   2.664   7.968 -2.4971  0.3277  1.6165
17080SOL     OW57075   8.393   0.265   5.235 -0.1223  0.1824  0.1954
17080SOL    HW157076   8.438   0.217   5.165 -0.1617  0.9628 -0.3833
17080SOL    HW257077   8.447   0.343   5.249  0.6895 -0.6822  2.0858
17081SOL     OW57078   3.633   3.997   8.486 -0.1727  0.2973  0.0551
17081SOL    HW157079   3.703   4.034   8.433  1.0834  0.9888  2.0908
17081SOL    HW257080   3.658   3.905   8.498 -0.1195  0.3022 -0.0200
17082SOL     OW57081   2.503   2.899   9.068 -0.2052 -0.2195  0.3638
17082SOL    HW157082   2.509   2.937   8.981 -1.1442 -1.1076 -0.1227
17082SOL    HW257083   2.514   2.973   9.128  2.0341  0.1626 -0.4573
17083SOL     OW57084   9.525   4.715   4.237  0.2719  0.0564 -0.1739
17083SOL    HW157085   9.552   4.624   4.224  0.7178  0.3028 -1.0508
17083SOL    HW257086   9.454   4.710   4.301 -0.9566 -1.0928 -1.5558
17084SOL     OW57087   1.707  10.060   8.107  0.3309 -0.3552  0.2326
17084SOL    HW157088   1.708   9.998   8.034 -2.1856 -0.4697  0.1994
17084SOL    HW257089   1.629  10.113   8.093  0.9460  1.0553  1.7260
17085SOL     OW57090   3.936   7.120  10.368  0.6243 -0.5390 -0.6010
17085SOL    HW157091   3.939   7.042  10.314  0.9645  0.7144 -2.5046
17085SOL    HW257092   3.849   7.157  10.351  0.9902  0.2254 -0.8644
17086SOL     OW57093   0.258   9.858   4.144 -0.4155 -0.1015 -0.2660
17086SOL    HW157094   0.249   9.920   4.072 -0.7682 -1.4971 -1.4694
17086SOL    HW257095   0.314   9.902   4.208 -2.3632  2.3078 -0.0869
17087SOL     OW57096   3.679   6.790   2.375  0.2401  0.6799  0.3600
17087SOL    HW157097   3.634   6.827   2.298  0.1090  0.7246  0.4564
17087SOL    HW257098   3.667   6.857   2.443  1.4913  1.2465  0.0521
17088SOL     OW57099   6.371   9.919   1.995 -0.1738 -0.3534  0.3996
17088SOL    HW157100   6.331   9.984   2.054 -0.6212 -0.0622 -0.1988
17088SOL    HW257101   6.305   9.850   1.987 -0.8109  0.3714 -0.9962
17089SOL     OW57102   5.092   0.097   0.861 -0.0841  0.0997  0.4672
17089SOL    HW157103   5.173   0.052   0.835  0.5179  1.8407 -0.9101
17089SOL    HW257104   5.097   0.181   0.815 -1.5847  1.1901  2.2182
17090SOL     OW57105   8.275   9.434   3.854  0.3228  0.1275  0.5818
17090SOL    HW157106   8.212   9.363   3.869  0.6778 -0.3026  0.0965
17090SOL    HW257107   8.226   9.514   3.873 -0.1149 -0.2411  1.0372
17091SOL     OW57108   1.234   2.349   4.850  0.1818 -0.0347  0.4533
17091SOL    HW157109   1.283   2.273   4.882 -0.5721 -1.0754 -0.7320
17091SOL    HW257110   1.161   2.358   4.911 -0.9611 -1.6812 -0.5901
17092SOL     OW57111   1.063   5.998   6.097 -0.2659  0.2582 -0.6200
17092SOL    HW157112   1.056   6.061   6.169 -1.3778 -1.5388  0.9658
17092SOL    HW257113   1.144   5.950   6.116 -0.8908 -0.6489 -0.1350
17093SOL     OW57114   8.204   4.011  10.626 -0.0122 -0.1318  0.0516
17093SOL    HW157115   8.118   4.054  10.634  0.2547  0.4614 -0.2007
17093SOL    HW257116   8.229   3.991  10.716  0.8295  2.2213  0.4021
17094SOL     OW57117  10.161   2.327   4.341  0.3075 -0.0450  0.6398
17094SOL    HW157118  10.238   2.291   4.384  0.9681 -1.2821 -1.4436
17094SOL    HW257119  10.090   2.267   4.365  0.1642  0.5185  1.7189
17095SOL     OW57120   6.616   1.593  10.678  0.0217  0.2130  0.6433
17095SOL    HW157121   6.703   1.630  10.694  0.1361  0.2526 -0.0558
17095SOL    HW257122   6.562   1.628  10.749  0.8465 -0.7908  1.8117
17096SOL     OW57123   2.339   5.747   4.603  0.2748 -0.1488 -0.0239
17096SOL    HW157124   2.407   5.698   4.558  1.2962  1.1713  0.0360
17096SOL    HW257125   2.345   5.717   4.694  1.0737  0.2820  0.0677
17097SOL     OW57126   0.662   3.665   3.421  0.0280  0.4684  0.0627
17097SOL    HW157127   0.738   3.675   3.365 -0.9166  2.7005 -0.9273
17097SOL    HW257128   0.619   3.585   3.390 -0.5397  1.7062 -2.5632
17098SOL     OW57129   8.365   0.112   2.144 -0.4066  0.1502  0.3283
17098SOL    HW157130   8.395   0.070   2.064 -1.0748  0.1553  0.0670
17098SOL    HW257131   8.347   0.039   2.204 -1.6373  0.0365 -0.1496
17099SOL     OW57132  10.348   9.781   0.906 -0.8424  0.6170  0.4377
17099SOL    HW157133  10.363   9.861   0.956  0.0519  0.3476  0.6163
17099SOL    HW257134  10.366   9.710   0.968 -0.6154  0.2777 -0.0110
17100SOL     OW57135   6.004   7.006   7.027  0.0270  0.1317  0.3982
17100SOL    HW157136   5.914   6.985   7.053 -0.6042 -0.3254 -1.9547
17100SOL    HW257137   6.039   7.054   7.102 -2.4447  1.0605  1.0737
17101SOL     OW57138   3.121   8.668   2.413 -0.8943  0.5983 -0.4077
17101SOL    HW157139   3.150   8.730   2.480 -1.9565  1.7415 -0.9822
17101SOL    HW257140   3.060   8.717   2.359 -0.1805 -0.3425 -2.1489
17102SOL     OW57141   4.871   3.716  10.514 -0.2273  0.2478 -0.7292
17102SOL    HW157142   4.816   3.793  10.529 -0.2484  0.1550 -0.3070
17102SOL    HW257143   4.932   3.742  10.445  0.5682  1.0599  0.2581
17103SOL     OW57144   1.112   5.919   9.332 -0.0062  0.4137 -0.2800
17103SOL    HW157145   1.194   5.915   9.382  0.1927 -0.8584 -0.6673
17103SOL    HW257146   1.120   5.847   9.269  0.0369  2.3628 -2.6008
17104SOL     OW57147   4.612   2.468   1.399 -0.1400  0.2265  0.1446
17104SOL    HW157148   4.560   2.490   1.321 -1.5731  1.9936  1.5078
17104SOL    HW257149   4.661   2.548   1.418  3.0648 -1.3098 -0.9521
17105SOL     OW57150   6.112   7.333   9.067  0.0752 -0.0102  0.3747
17105SOL    HW157151   6.117   7.367   8.977 -0.2592 -0.2655  0.2569
17105SOL    HW257152   6.195   7.361   9.107  0.8101 -0.9790 -0.4008
17106SOL     OW57153   4.629   1.191   0.731 -0.1069 -0.2221  0.0324
17106SOL    HW157154   4.652   1.238   0.811  1.0680  0.9147 -0.9297
17106SOL    HW257155   4.535   1.173   0.740 -0.1050  0.3372  1.4233
17107SOL     OW57156   2.375   9.805   7.294 -0.0302  0.1118  0.0015
17107SOL    HW157157   2.374   9.866   7.220  0.7348  0.1785  0.0415
17107SOL    HW257158   2.467   9.780   7.303 -0.1137  0.1403  0.9633
17108SOL     OW57159   3.950   2.015   7.632 -0.4616  0.0800 -0.2012
17108SOL    HW157160   3.897   1.976   7.562 -0.2441  0.7656 -0.7712
17108SOL    HW257161   4.027   1.959   7.638  1.3627  1.9897 -3.1480
17109SOL     OW57162   0.856  10.430   0.392  0.6472  0.1820  0.1049
17109SOL    HW157163   0.831  10.441   0.484 -0.4991  1.0444 -0.2861
17109SOL    HW257164   0.881  10.338   0.385  1.8588  0.3573  1.5166
17110SOL     OW57165   6.935   5.491   4.069 -0.3922 -0.3158 -0.0157
17110SOL    HW157166   6.852   5.531   4.041  0.1488  0.4634 -0.5387
17110SOL    HW257167   6.942   5.411   4.015 -0.5986 -0.1605 -0.2770
17111SOL     OW57168   9.963   8.346   8.773  0.2491 -0.0700  0.5420
17111SOL    HW157169  10.045   8.370   8.816  0.8954 -1.3687  0.0780
17111SOL    HW257170   9.955   8.407   8.700  1.6072 -0.8803 -0.3296
17112SOL     OW57171   4.158   6.257   2.689  0.5998  0.0725 -0.4520
17112SOL    HW157172   4.173   6.295   2.776  3.2334  0.5816 -1.0433
17112SOL    HW257173   4.084   6.307   2.654  0.0223  0.4242  1.1528
17113SOL     OW57174   4.134   3.547   9.765 -0.2283 -0.4897  0.2535
17113SOL    HW157175   4.074   3.614   9.729  0.9424 -0.3706 -1.6115
17113SOL    HW257176   4.082   3.467   9.767 -1.1926  0.1275  1.0837
17114SOL     OW57177   8.386   8.354   8.651 -0.0297  0.1576 -0.0457
17114SOL    HW157178   8.413   8.439   8.615  1.4557 -0.5113 -0.5767
17114SOL    HW257179   8.422   8.353   8.739  1.2071 -0.4810 -0.5374
17115SOL     OW57180   4.776   1.675   5.342 -0.0311 -0.4690 -0.3450
17115SOL    HW157181   4.683   1.670   5.363 -0.2921 -0.3483 -1.3766
17115SOL    HW257182   4.816   1.599   5.385 -0.1686  0.7751  2.1029
17116SOL     OW57183   3.893   1.061  10.370 -0.0301 -0.0461  0.4445
17116SOL    HW157184   3.968   1.084  10.316  2.0805 -0.5229  2.9500
17116SOL    HW257185   3.849   0.990  10.323  1.5090 -0.2320 -0.7591
17117SOL     OW57186  10.200   7.325   2.977  0.4275  0.0551  0.3566
17117SOL    HW157187  10.127   7.295   3.029  0.7088 -0.8053  0.2672
17117SOL    HW257188  10.245   7.245   2.949  0.1705  0.4740 -1.3712
17118SOL     OW57189   5.248   6.517   6.200 -0.2412  0.3658  0.0849
17118SOL    HW157190   5.232   6.481   6.287 -1.2792 -1.4743 -0.7939
17118SOL    HW257191   5.340   6.496   6.182 -0.3059 -0.1464  0.3376
17119SOL     OW57192   7.715   5.931   2.199  0.3373 -0.4295 -0.1925
17119SOL    HW157193   7.658   5.937   2.122 -0.5071  0.2823  0.4738
17119SOL    HW257194   7.685   5.852   2.245 -0.7002  0.3791  0.5853
17120SOL     OW57195   6.858   0.165   3.519  0.4008  0.1958  0.0070
17120SOL    HW157196   6.888   0.187   3.607 -2.0632  2.6340  0.3766
17120SOL    HW257197   6.776   0.117   3.532  0.0689  0.4689 -0.9101
17121SOL     OW57198   9.427   7.213  10.334 -0.3180 -0.0333  0.1626
17121SOL    HW157199   9.388   7.290  10.294 -0.4803 -0.7114 -1.0163
17121SOL    HW257200   9.354   7.152  10.346  0.0514 -0.5964 -0.3619
17122SOL     OW57201   7.967   1.062   1.747 -0.3310 -0.0753 -0.2133
17122SOL    HW157202   7.923   0.977   1.751  0.5714 -0.5291  0.4810
17122SOL    HW257203   8.027   1.055   1.673 -1.0075  0.3464 -0.8144
17123SOL     OW57204   7.028   2.178   8.486 -0.4573 -0.0172 -0.1799
17123SOL    HW157205   6.965   2.246   8.461 -0.5531  0.5414  1.4615
17123SOL    HW257206   7.094   2.181   8.417 -0.7113  1.4102 -0.4052
17124SOL     OW57207   8.113   5.509   5.311 -0.0609  0.0342 -0.0573
17124SOL    HW157208   8.036   5.546   5.354  0.2245  1.0041 -0.3534
17124SOL    HW257209   8.173   5.488   5.383  0.5199  1.8902  0.0508
17125SOL     OW57210   1.331   3.218   2.442  0.1733  0.8104  0.7815
17125SOL    HW157211   1.264   3.149   2.448 -0.4024  0.5949 -4.0517
17125SOL    HW257212   1.414   3.171   2.449 -0.2260 -0.1519 -0.5081
17126SOL     OW57213   2.179   7.339   3.914  0.6915 -0.4988 -0.1082
17126SOL    HW157214   2.189   7.302   4.002  0.1427  1.0955  0.6469
17126SOL    HW257215   2.175   7.433   3.928 -3.1484 -0.3002 -1.4294
17127SOL     OW57216   7.523   6.190   5.250 -0.4490  0.6431 -0.4769
17127SOL    HW157217   7.531   6.097   5.271  0.4000  0.2372 -2.3713
17127SOL    HW257218   7.433   6.199   5.219 -0.8934  0.7230  0.7681
17128SOL     OW57219   8.603   0.890   3.223  0.1615 -0.6125 -0.5005
17128SOL    HW157220   8.683   0.940   3.240  0.0096  0.0626 -1.6809
17128SOL    HW257221   8.587   0.841   3.304  0.9110  0.4376  0.2972
17129SOL     OW57222   8.173   2.881   4.576  0.1122 -0.1882 -0.6199
17129SOL    HW157223   8.212   2.794   4.572  0.3537 -0.1102 -0.1417
17129SOL    HW257224   8.131   2.884   4.662 -3.4664 -1.2945 -2.1548
17130SOL     OW57225   5.846   3.741   4.174  0.2676  0.4046  0.0557
17130SOL    HW157226   5.905   3.783   4.111  0.8431  1.7652  1.4306
17130SOL    HW257227   5.786   3.810   4.200  0.0063 -0.1489  0.9589
17131SOL     OW57228   4.169  10.030   0.091  0.5963 -0.3062 -0.3205
17131SOL    HW157229   4.081  10.046   0.056  0.5677  1.1270  0.3407
17131SOL    HW257230   4.179   9.935   0.090 -0.9401 -0.4803 -0.4478
17132SOL     OW57231   0.905   9.434   0.001 -0.0871 -0.1332  0.2932
17132SOL    HW157232   0.995   9.423  -0.031 -0.2360  0.1332 -0.2220
17132SOL    HW257233   0.911   9.415   0.095  0.9436  2.0542  0.7255
17133SOL     OW57234   8.266   7.804   4.787 -0.0321  0.3065 -0.5513
17133SOL    HW157235   8.242   7.894   4.808  0.1065  0.1893  0.1121
17133SOL    HW257236   8.226   7.788   4.701 -3.4628 -0.3261  1.0210
17134SOL     OW57237   4.542   3.588   3.784 -0.7760 -0.1199 -0.2819
17134SOL    HW157238   4.508   3.499   3.782  1.0599 -0.8502 -1.2618
17134SOL    HW257239   4.516   3.626   3.700 -2.0411  0.4956  0.3617
17135SOL     OW57240   2.240   5.004   4.934 -0.3146 -0.4949 -0.7684
17135SOL    HW157241   2.252   5.000   4.839  0.7612 -0.8874 -0.6304
17135SOL    HW257242   2.275   4.921   4.966  2.4043  0.9178  0.2362
17136SOL     OW57243   5.124  10.442   4.860 -0.3600  0.1754  0.0069
17136SOL    HW157244   5.202  10.497   4.853 -0.4751  0.3520  0.1046
17136SOL    HW257245   5.149  10.371   4.919  0.1814 -0.5640 -1.0693
17137SOL     OW57246   7.426   8.343   9.727  0.4658  0.5416 -0.2138
17137SOL    HW157247   7.350   8.402   9.722  0.2276  0.3295  0.6910
17137SOL    HW257248   7.395   8.270   9.780  0.9471 -0.1131 -0.8275
17138SOL     OW57249   0.700   2.231   0.766  0.1978  0.2163 -0.4202
17138SOL    HW157250   0.751   2.312   0.771 -0.0150  0.4161 -1.3677
17138SOL    HW257251   0.756   2.165   0.807  1.8513  0.1140 -2.6902
17139SOL     OW57252   8.642  10.306   4.283  0.0961 -0.3158  0.2162
17139SOL    HW157253   8.616  10.393   4.312 -0.4075 -0.2906 -0.2642
17139SOL    HW257254   8.564  10.272   4.238  0.3471 -0.9383  0.2343
17140SOL     OW57255   7.642   0.322   1.759 -0.1720  0.3894  0.7492
17140SOL    HW157256   7.584   0.248   1.741  0.5766  0.2941 -1.6249
17140SOL    HW257257   7.729   0.283   1.768 -0.0015  0.8389  1.1091
17141SOL     OW57258   3.101   8.101   6.563 -0.5133 -0.3123 -0.0048
17141SOL    HW157259   3.176   8.158   6.550 -0.1767 -1.0305 -1.3851
17141SOL    HW257260   3.054   8.139   6.638  0.1563  1.2462 -0.3457
17142SOL     OW57261   0.645  10.237   2.958  0.1294  0.0414  0.4631
17142SOL    HW157262   0.673  10.243   3.049  0.2299  0.9065  0.3800
17142SOL    HW257263   0.615  10.325   2.936 -1.5319 -0.5496  0.1878
17143SOL     OW57264   9.459   2.246   8.462 -0.0051  1.3236  0.2661
17143SOL    HW157265   9.543   2.208   8.439 -1.2695 -1.7022  0.2273
17143SOL    HW257266   9.423   2.278   8.379  0.6418  1.7041  0.1248
17144SOL     OW57267   5.457   5.561   7.026  0.5064  0.7554 -0.0349
17144SOL    HW157268   5.539   5.566   7.075  0.1451  1.7702  0.4997
17144SOL    HW257269   5.401   5.503   7.077  0.4660  1.0554  0.2695
17145SOL     OW57270   6.116   1.771   8.073 -0.5460  0.1741 -0.5586
17145SOL    HW157271   6.131   1.741   7.983 -0.7593  0.1601 -0.5892
17145SOL    HW257272   6.187   1.733   8.123 -0.3654  0.2678 -0.7412
17146SOL     OW57273   7.051   1.707   1.935  0.6811 -0.1229  0.0225
17146SOL    HW157274   7.057   1.757   2.016  0.2037 -0.0455  0.0137
17146SOL    HW257275   7.130   1.729   1.887 -0.2048  1.7922 -0.6441
17147SOL     OW57276   6.498   3.506   1.957  0.1565  0.0662 -0.2907
17147SOL    HW157277   6.492   3.494   2.052 -0.2695  0.1444 -0.3077
17147SOL    HW257278   6.557   3.436   1.928  0.7872  0.4237  0.1093
17148SOL     OW57279   1.824   3.601   2.790  0.0317  0.1024 -0.3026
17148SOL    HW157280   1.829   3.682   2.840  0.2214  2.2352 -3.5162
17148SOL    HW257281   1.893   3.608   2.725 -1.0192 -1.8656 -1.7389
17149SOL     OW57282   0.753   7.073  10.560  0.4956 -0.1917 -0.5400
17149SOL    HW157283   0.708   7.026  10.490  2.2560  0.5747 -2.2949
17149SOL    HW257284   0.705   7.155  10.569 -0.2685 -0.6615 -0.1745
17150SOL     OW57285   8.069   7.216   1.676 -0.4851  0.0513 -0.0820
17150SOL    HW157286   8.056   7.284   1.742 -0.8755 -0.1582  0.0578
17150SOL    HW257287   8.085   7.136   1.726  1.5151  0.3128 -0.2373
17151SOL     OW57288   7.324   2.678   5.354  0.0498 -0.1486 -0.1343
17151SOL    HW157289   7.279   2.608   5.402  0.0826 -0.8816 -1.1447
17151SOL    HW257290   7.359   2.635   5.276  0.8349  0.8195 -0.3307
17152SOL     OW57291   3.444   6.940   3.840  0.0059  0.3837 -0.8289
17152SOL    HW157292   3.509   6.895   3.786  0.6048  0.2294  0.0163
17152SOL    HW257293   3.486   7.021   3.867 -0.1014  0.2298 -0.1805
17153SOL     OW57294  10.722   2.322   1.386 -0.2790  0.0811 -0.6250
17153SOL    HW157295  10.736   2.234   1.420 -1.1250  0.6017  1.2126
17153SOL    HW257296  10.627   2.328   1.372 -0.1356  0.4422 -1.5415
17154SOL     OW57297   2.944   3.028   6.632 -0.3889 -0.1397  0.4100
17154SOL    HW157298   2.949   3.080   6.712  1.4389 -0.0639  0.2949
17154SOL    HW257299   3.034   3.025   6.600 -1.3224  1.6887 -2.8476
17155SOL     OW57300  10.482   0.741   6.987  0.4997  0.1071 -0.2617
17155SOL    HW157301  10.492   0.650   7.012  0.4891 -0.7834 -3.1034
17155SOL    HW257302  10.517   0.791   7.061 -0.1228 -2.1292  1.6442
17156SOL     OW57303   4.105   8.422   3.847  0.3894 -0.4918  0.2775
17156SOL    HW157304   4.190   8.448   3.885  2.3470 -1.5757 -2.9312
17156SOL    HW257305   4.080   8.498   3.794 -0.0194 -0.6527  0.2449
17157SOL     OW57306   6.173   3.638   0.330  0.3351 -0.2261  0.9464
17157SOL    HW157307   6.190   3.732   0.327  1.5196 -0.3638  2.3219
17157SOL    HW257308   6.178   3.610   0.239  0.0502  1.0198  0.5231
17158SOL     OW57309   2.781   5.095   5.114  0.1448 -0.0137 -0.0551
17158SOL    HW157310   2.793   5.177   5.162  2.1244 -0.7963  0.9185
17158SOL    HW257311   2.828   5.108   5.032  2.7511 -0.9344  1.1554
17159SOL     OW57312   5.037   8.035   4.792 -0.0917 -0.4810  0.1111
17159SOL    HW157313   5.112   7.982   4.764  1.4474  1.7669 -0.2541
17159SOL    HW257314   5.006   8.077   4.711 -0.6869 -0.1115  0.5256
17160SOL     OW57315   3.483   3.971   9.424  0.2518  0.0815 -0.2654
17160SOL    HW157316   3.398   3.955   9.383  0.1677  3.2250 -1.5630
17160SOL    HW257317   3.535   3.894   9.403 -1.9455 -1.5096 -0.2106
17161SOL     OW57318   8.059   0.316   0.542  0.2570 -0.8174  0.4841
17161SOL    HW157319   8.031   0.313   0.451  0.3724  1.8349  0.2962
17161SOL    HW257320   8.154   0.305   0.538  0.5479  1.4473  0.0133
17162SOL     OW57321   1.770   3.864   9.058  0.6106  0.2354  0.1874
17162SOL    HW157322   1.767   3.822   8.973 -0.7798  0.4114  0.1189
17162SOL    HW257323   1.703   3.932   9.053  0.2705  0.0289  1.5308
17163SOL     OW57324   6.526   4.765   8.347  0.6020  0.2153 -0.1527
17163SOL    HW157325   6.476   4.812   8.280  1.9534 -0.1867 -1.5040
17163SOL    HW257326   6.603   4.820   8.363  0.2159  0.3945  1.2391
17164SOL     OW57327   2.968   9.606  10.186 -0.5496  0.0469  0.2808
17164SOL    HW157328   2.916   9.574  10.259 -0.5655 -0.4512  0.0519
17164SOL    HW257329   2.946   9.699  10.180 -0.1169  0.2297  1.2725
17165SOL     OW57330   4.272   7.044   7.142 -0.0797  0.1040  0.4075
17165SOL    HW157331   4.215   7.052   7.066 -2.0857 -0.9961  1.6893
17165SOL    HW257332   4.360   7.032   7.106 -0.9974 -0.6037 -1.7248
17166SOL     OW57333   3.632   8.555   9.744  0.3681  0.0516 -0.9571
17166SOL    HW157334   3.636   8.535   9.650 -0.4399 -0.5505 -0.8721
17166SOL    HW257335   3.718   8.592   9.764  1.6772 -2.5961 -1.2861
17167SOL     OW57336   7.417   3.729   6.342  0.3305 -0.3565  0.2226
17167SOL    HW157337   7.354   3.667   6.305  0.9436 -1.0984  0.4012
17167SOL    HW257338   7.366   3.808   6.359  0.0727  0.1374 -2.4785
17168SOL     OW57339   8.694   9.939   3.926 -0.2806 -0.0480 -0.5196
17168SOL    HW157340   8.655   9.852   3.916 -0.1444 -0.0112 -1.4533
17168SOL    HW257341   8.647   9.994   3.863  0.8433  0.1360 -1.2276
17169SOL     OW57342   0.932   3.640   1.074  0.1262  0.4532 -0.4553
17169SOL    HW157343   0.858   3.582   1.091 -0.3402  1.2405  0.2517
17169SOL    HW257344   0.897   3.708   1.017  0.4594  0.5088 -0.5987
17170SOL     OW57345   3.537   1.640   5.168  0.1233 -0.1120  0.0890
17170SOL    HW157346   3.498   1.662   5.252 -0.9549 -0.2674 -0.3611
17170SOL    HW257347   3.630   1.628   5.188 -0.5098 -3.4049  1.9387
17171SOL     OW57348   2.280   9.248   2.565 -0.0955 -0.0238  0.2074
17171SOL    HW157349   2.280   9.168   2.619  1.4339 -1.1941 -1.4318
17171SOL    HW257350   2.215   9.231   2.497 -1.2334  1.0108  0.9887
17172SOL     OW57351   5.548   5.484   1.462 -0.3298 -0.5791  0.4039
17172SOL    HW157352   5.557   5.577   1.480 -0.1950 -0.8697  1.9633
17172SOL    HW257353   5.636   5.455   1.440 -0.2771 -0.4350  0.4224
17173SOL     OW57354   2.216   3.926   7.006  0.9437 -0.5807 -0.7143
17173SOL    HW157355   2.300   3.906   7.046  0.6157 -1.3788 -0.4034
17173SOL    HW257356   2.151   3.882   7.061  0.2642  0.5018 -0.6104
17174SOL     OW57357   2.046   3.981   9.032 -0.0297  0.1096  0.1771
17174SOL    HW157358   2.003   4.060   9.000 -0.9850  0.7332  2.7865
17174SOL    HW257359   1.975   3.926   9.066  0.5838 -2.0476 -1.6911
17175SOL     OW57360   4.371   6.333   8.069  0.4783 -0.7217  0.0298
17175SOL    HW157361   4.431   6.357   8.140  1.2602 -0.0960 -0.8084
17175SOL    HW257362   4.339   6.417   8.036 -0.3327 -1.0327  0.0185
17176SOL     OW57363   1.307   0.354   4.870  0.5523 -0.1132  0.5361
17176SOL    HW157364   1.382   0.295   4.869  0.4078 -0.2977  0.3432
17176SOL    HW257365   1.321   0.411   4.794  0.7421  0.1653  0.7798
17177SOL     OW57366   8.430  10.475   1.373 -0.2137  0.2852  0.3258
17177SOL    HW157367   8.368  10.548   1.380 -0.7240  0.3282 -2.9606
17177SOL    HW257368   8.376  10.397   1.387 -0.8950  0.3646 -1.5944
17178SOL     OW57369   8.173   5.378   0.126 -0.2955  0.2268  0.2703
17178SOL    HW157370   8.126   5.437   0.184 -1.3589 -0.9325  0.6465
17178SOL    HW257371   8.118   5.299   0.123  0.0637  0.0068 -1.7895
17179SOL     OW57372   1.496   0.980   1.465  0.4097 -0.6519  0.5455
17179SOL    HW157373   1.522   1.032   1.389  0.9186 -1.9965 -0.2348
17179SOL    HW257374   1.462   0.898   1.427 -0.6581 -0.7665  1.7204
17180SOL     OW57375   5.569   1.521   1.247  0.3362 -0.5822 -0.7002
17180SOL    HW157376   5.479   1.502   1.222  0.4451 -0.8136 -0.9275
17180SOL    HW257377   5.575   1.491   1.338 -0.0176  0.1231 -0.4387
17181SOL     OW57378   7.603  10.018  10.519 -0.4052  0.4341 -0.7018
17181SOL    HW157379   7.541  10.073  10.567 -0.8332  0.7086 -1.5480
17181SOL    HW257380   7.549   9.950  10.479  0.0275 -0.1630 -0.2909
17182SOL     OW57381   2.093   6.282   9.306  0.0762 -0.0917  0.6179
17182SOL    HW157382   2.172   6.244   9.346  0.1604 -0.3348  0.2297
17182SOL    HW257383   2.086   6.237   9.222 -1.0855 -0.8517  1.1024
17183SOL     OW57384   6.931   2.980   1.568  0.0972  0.5072  0.1045
17183SOL    HW157385   7.002   3.027   1.524  0.3637  0.5255  0.5467
17183SOL    HW257386   6.956   2.888   1.561 -0.7077  0.3586 -1.2654
17184SOL     OW57387   4.583   9.404   6.108  0.3338  0.0122 -0.2842
17184SOL    HW157388   4.534   9.447   6.038  1.1495 -1.2352 -1.6701
17184SOL    HW257389   4.533   9.423   6.188 -1.7494 -0.2057 -1.4709
17185SOL     OW57390   6.308   9.148   5.270  0.5038 -0.6379  0.1195
17185SOL    HW157391   6.350   9.141   5.184  0.2716  0.0603 -0.0534
17185SOL    HW257392   6.312   9.059   5.305  1.8488 -0.6541 -0.0240
17186SOL     OW57393   3.393   9.498   1.703 -0.3117  0.4180 -0.0032
17186SOL    HW157394   3.314   9.443   1.704  0.6998 -1.1188  1.0832
17186SOL    HW257395   3.404   9.523   1.612 -2.2850  1.0342 -0.1119
17187SOL     OW57396   3.545   7.755   5.409 -0.4362 -0.3154 -0.1733
17187SOL    HW157397   3.571   7.679   5.356  0.3283  1.6085 -2.8103
17187SOL    HW257398   3.450   7.761   5.397 -0.3502 -0.2475 -0.8578
17188SOL     OW57399  10.217   0.183   2.512 -0.2228  0.0001 -0.1195
17188SOL    HW157400  10.202   0.091   2.493 -0.6508  0.1632 -0.6100
17188SOL    HW257401  10.129   0.223   2.510 -0.0017  0.4913 -0.3720
17189SOL     OW57402   3.491   4.753   7.051  0.5476 -0.4043 -0.2210
17189SOL    HW157403   3.526   4.818   6.990 -0.0893 -0.2265 -0.4084
17189SOL    HW257404   3.403   4.733   7.017  1.0199 -1.9461 -0.6284
17190SOL     OW57405   7.308   6.419   3.820 -0.2269  0.1513  0.3157
17190SOL    HW157406   7.340   6.329   3.810  0.0634  0.3332 -0.4359
17190SOL    HW257407   7.322   6.439   3.913 -1.7039 -1.0988  0.8639
17191SOL     OW57408   1.300   3.444  10.249 -0.2311  0.0782  0.5971
17191SOL    HW157409   1.219   3.398  10.273 -0.2210 -0.2633  0.0168
17191SOL    HW257410   1.361   3.375  10.226 -0.2853  0.3705 -0.5034
17192SOL     OW57411   1.876   9.019   9.988  0.1439 -0.0767  0.0804
17192SOL    HW157412   1.824   9.089   9.948  0.6080  0.0834 -0.2640
17192SOL    HW257413   1.857   8.942   9.935  1.2997  0.2960 -0.9165
17193SOL     OW57414   7.796   3.277   1.874  0.5163 -0.5415 -0.4358
17193SOL    HW157415   7.708   3.278   1.912  0.2896  0.3822 -0.9737
17193SOL    HW257416   7.786   3.319   1.788  1.7159  0.7041  0.0084
17194SOL     OW57417   0.477   2.300   3.582 -0.3475 -0.4083  0.5747
17194SOL    HW157418   0.535   2.370   3.613 -1.8292  0.5571  1.2916
17194SOL    HW257419   0.526   2.258   3.511  0.1397  2.1580 -0.7464
17195SOL     OW57420   5.256   9.770   5.803 -0.1050 -0.3995  0.0592
17195SOL    HW157421   5.299   9.755   5.888  0.5897 -1.2533 -0.4304
17195SOL    HW257422   5.182   9.709   5.802 -0.3389 -0.1223  0.2013
17196SOL     OW57423  10.055   6.834  10.383  0.2919  0.0690  0.4867
17196SOL    HW157424  10.118   6.801  10.319  0.3002 -0.1411  0.6032
17196SOL    HW257425   9.974   6.847  10.333  0.1901 -0.4523  0.5122
17197SOL     OW57426   7.602   6.705   7.594 -0.3654 -0.2370 -0.1414
17197SOL    HW157427   7.576   6.746   7.677 -0.2263 -1.6918  0.6510
17197SOL    HW257428   7.523   6.705   7.541 -0.5104  0.5060  0.0668
17198SOL     OW57429   6.561   8.492   3.364  0.2735 -0.0216  0.0937
17198SOL    HW157430   6.612   8.461   3.289  0.8444 -1.6334  1.0925
17198SOL    HW257431   6.590   8.437   3.437 -1.8623 -0.0242  1.0128
17199SOL     OW57432   4.458   3.624   7.384 -0.3936 -0.5794  0.2995
17199SOL    HW157433   4.489   3.544   7.426  2.8317  1.5355  2.4103
17199SOL    HW257434   4.535   3.657   7.337 -1.3881  1.6208  0.1126
17200SOL     OW57435   8.326   2.479   0.634  0.4065  0.4774  0.0147
17200SOL    HW157436   8.413   2.508   0.605  1.8054 -0.2000  3.0870
17200SOL    HW257437   8.270   2.493   0.558  3.3299  0.1598 -2.4209
17201SOL     OW57438   8.444  10.612   5.037  0.2016 -0.1488  0.4644
17201SOL    HW157439   8.377  10.585   5.100  1.2814 -1.1911  1.1953
17201SOL    HW257440   8.428  10.706   5.026 -2.3867 -0.6119 -0.6321
17202SOL     OW57441   7.588   6.487  10.320  0.0454  0.2321 -0.5517
17202SOL    HW157442   7.604   6.544  10.245  1.1531  2.3858  1.2232
17202SOL    HW257443   7.527   6.421  10.287 -1.2522  2.3787 -2.7597
17203SOL     OW57444   2.704   7.362   6.597  0.1191 -0.0506 -0.2111
17203SOL    HW157445   2.691   7.345   6.504  1.2677  2.9791 -1.0495
17203SOL    HW257446   2.633   7.422   6.621  1.2757  1.2508  0.1282
17204SOL     OW57447   2.633   8.389   3.022 -0.3208 -0.8461  0.3849
17204SOL    HW157448   2.722   8.382   3.057 -0.2929 -0.6993  0.3404
17204SOL    HW257449   2.613   8.482   3.024  0.1349 -0.6842 -1.1302
17205SOL     OW57450   6.410   9.564   5.053 -0.1010  0.3773 -0.2313
17205SOL    HW157451   6.317   9.585   5.040 -0.3048 -0.5013 -0.2800
17205SOL    HW257452   6.422   9.480   5.008  1.1147  1.2612 -1.6318
17206SOL     OW57453   9.597   9.236   8.245 -0.5197 -0.6303  0.7452
17206SOL    HW157454   9.659   9.167   8.220 -0.8430 -0.5381 -0.3677
17206SOL    HW257455   9.639   9.317   8.215 -1.7368 -0.6774 -1.1984
17207SOL     OW57456   0.198  10.128   3.752 -0.8463  0.2456  0.3712
17207SOL    HW157457   0.130  10.106   3.688  0.3669 -1.2957 -0.4728
17207SOL    HW257458   0.177  10.217   3.780 -2.5797  0.2036 -0.6484
17208SOL     OW57459   7.032   1.807  10.531  0.2079  0.4247 -0.0123
17208SOL    HW157460   7.052   1.725  10.485 -0.4271 -0.8961  1.9479
17208SOL    HW257461   6.939   1.821  10.517  0.5938  1.7462 -1.6650
17209SOL     OW57462   2.685   3.231   2.855 -0.2387  0.2040 -0.1545
17209SOL    HW157463   2.713   3.294   2.789  0.7401  0.3896  0.4038
17209SOL    HW257464   2.634   3.166   2.807  0.2634  0.4558 -1.0487
17210SOL     OW57465   9.821   9.123   5.907 -0.4769 -0.2486  0.0014
17210SOL    HW157466   9.837   9.193   5.971 -0.4018 -0.1531 -0.1198
17210SOL    HW257467   9.826   9.167   5.822  0.5964 -0.5870 -0.1272
17211SOL     OW57468   3.387   0.279   3.139 -0.2410  0.6548 -0.0648
17211SOL    HW157469   3.417   0.354   3.088  0.4577  1.2696  1.2076
17211SOL    HW257470   3.466   0.227   3.154 -0.8167 -0.7352 -1.4838
17212SOL     OW57471  10.647   2.096   2.106 -0.6055  0.2989 -0.3883
17212SOL    HW157472  10.648   2.165   2.172  0.5554 -0.9737  1.0005
17212SOL    HW257473  10.620   2.018   2.153 -0.1874 -0.5626 -1.5225
17213SOL     OW57474   3.207   0.682   6.855  0.7959 -0.2440  0.4434
17213SOL    HW157475   3.263   0.635   6.792  2.1253  0.9386  0.7097
17213SOL    HW257476   3.140   0.618   6.878  0.1817 -0.6985 -2.2478
17214SOL     OW57477   5.047   2.609   2.376  0.3240  0.3624  0.3104
17214SOL    HW157478   5.135   2.590   2.343 -0.1096 -1.5434  0.1309
17214SOL    HW257479   5.031   2.699   2.350  2.0550  0.6170 -0.0235
17215SOL     OW57480   1.945   6.151   3.585 -0.4720  0.3075  0.3297
17215SOL    HW157481   2.038   6.133   3.596 -0.1163  0.9458 -1.3369
17215SOL    HW257482   1.906   6.066   3.564 -0.1625  0.1473  0.3972
17216SOL     OW57483   0.496   1.397   2.746 -0.1516  0.3249  0.0732
17216SOL    HW157484   0.439   1.378   2.821  0.2899  0.7738  0.5290
17216SOL    HW257485   0.516   1.311   2.708 -0.2437  0.0820  0.5688
17217SOL     OW57486   9.540   9.517   6.402 -0.2645  0.2127  0.4948
17217SOL    HW157487   9.447   9.539   6.391 -0.2166 -0.3276 -1.5005
17217SOL    HW257488   9.539   9.426   6.434 -0.4326  0.1653  0.3603
17218SOL     OW57489   4.553   6.080  10.303 -0.0955  0.6189 -0.4080
17218SOL    HW157490   4.551   6.027  10.224  1.0361 -1.2329  0.7448
17218SOL    HW257491   4.471   6.059  10.348  0.3787 -0.2159  0.0756
17219SOL     OW57492   4.144   0.683   5.129 -0.3207  0.3583 -0.0531
17219SOL    HW157493   4.069   0.731   5.092 -0.9843 -1.2053 -0.8259
17219SOL    HW257494   4.195   0.656   5.053  0.0160 -0.1917  0.3620
17220SOL     OW57495   1.517   2.648   6.771  0.7804  0.1776 -0.3122
17220SOL    HW157496   1.525   2.616   6.861  1.5637 -0.6278 -0.6604
17220SOL    HW257497   1.573   2.590   6.719  0.1507  0.4774 -1.3618
17221SOL     OW57498   4.086   5.210   7.900 -0.0715  0.6329  0.3858
17221SOL    HW157499   4.030   5.285   7.882 -0.0160  0.2677 -1.6440
17221SOL    HW257500   4.040   5.136   7.859  1.3815  0.1598 -0.4631
17222SOL     OW57501   4.641   1.248   7.675 -0.5426  0.9691 -0.5365
17222SOL    HW157502   4.732   1.277   7.659 -0.6184  0.5215 -1.9917
17222SOL    HW257503   4.636   1.236   7.769  1.1136  0.4046 -0.4743
17223SOL     OW57504   1.230  10.095   8.299  0.2553  0.2794 -0.0173
17223SOL    HW157505   1.307  10.149   8.317 -0.5557  1.3850  0.2437
17223SOL    HW257506   1.158  10.143   8.339 -0.2585 -2.0360  2.0453
17224SOL     OW57507   7.664   1.430   1.668  0.0927 -0.0986 -0.3964
17224SOL    HW157508   7.676   1.453   1.760  1.8813 -0.2782 -0.5604
17224SOL    HW257509   7.621   1.507   1.630  0.7098  0.5955  0.2762
17225SOL     OW57510   7.504   1.785   8.213 -0.3983  0.1779 -0.2730
17225SOL    HW157511   7.584   1.736   8.232 -0.3383  0.1324 -0.6416
17225SOL    HW257512   7.436   1.741   8.266  0.1269  1.2415  1.3483
17226SOL     OW57513   3.529   2.476   0.178 -0.1940  0.3316 -0.6671
17226SOL    HW157514   3.450   2.452   0.227  0.9644 -0.8547  0.7254
17226SOL    HW257515   3.592   2.408   0.200  0.4132 -0.2918 -3.9033
17227SOL     OW57516   9.993   6.710   0.248 -0.0842  0.0039 -0.0690
17227SOL    HW157517   9.994   6.616   0.229  2.7555 -0.1242  0.2844
17227SOL    HW257518  10.039   6.750   0.174 -2.7818  1.4152 -1.1188
17228SOL     OW57519   0.637   3.803   6.695  0.7272 -0.2568  0.0096
17228SOL    HW157520   0.677   3.726   6.735  1.3297  0.0285 -0.0425
17228SOL    HW257521   0.708   3.866   6.687  0.2501  0.2845 -0.0062
17229SOL     OW57522   4.124  10.035  10.143 -0.0930  0.1087  0.3954
17229SOL    HW157523   4.094   9.991  10.064  1.5909 -1.5858  0.6376
17229SOL    HW257524   4.050  10.091  10.169 -0.3886  1.4425 -2.8358
17230SOL     OW57525   8.293   1.364   1.015 -0.5129  0.3006  0.1348
17230SOL    HW157526   8.217   1.411   1.048 -1.0484  0.0969 -0.7551
17230SOL    HW257527   8.344   1.431   0.970  0.1867  0.5669  1.2879
17231SOL     OW57528   8.509   4.261   6.283 -0.5350  0.1581  0.2782
17231SOL    HW157529   8.596   4.285   6.316 -0.5236  1.0946 -0.3823
17231SOL    HW257530   8.452   4.333   6.311 -0.6505  0.6484 -1.1345
17232SOL     OW57531   9.561   3.531   6.116  0.3257 -0.2602 -0.3577
17232SOL    HW157532   9.587   3.546   6.025 -0.5926  1.0301 -0.4408
17232SOL    HW257533   9.586   3.612   6.161  0.6606 -0.8406  0.5211
17233SOL     OW57534   0.032   9.473   1.444 -0.3073  0.0811 -0.5692
17233SOL    HW157535   0.125   9.461   1.464 -0.2446  2.1452  0.7282
17233SOL    HW257536  -0.009   9.391   1.472  0.6629  0.5368  2.5521
17234SOL     OW57537   8.259  10.158   1.350  0.1336  0.3353 -0.3017
17234SOL    HW157538   8.240  10.233   1.406 -0.6738  0.0068 -0.1166
17234SOL    HW257539   8.237  10.187   1.262 -2.6056 -0.4245  0.0362
17235SOL     OW57540   8.050   1.748   2.961  0.1582 -0.3272 -0.0506
17235SOL    HW157541   8.038   1.835   2.922  1.4102  0.0058  0.2459
17235SOL    HW257542   8.069   1.767   3.053  1.0121 -0.8849 -0.1118
17236SOL     OW57543   3.248   3.651  10.535  0.3651  0.2679  0.4069
17236SOL    HW157544   3.207   3.735  10.512 -1.9323 -1.1599 -1.1937
17236SOL    HW257545   3.240   3.647  10.631 -1.2595  1.0809  0.3543
17237SOL     OW57546   8.546   6.565   2.512  0.0901 -0.5407 -0.2359
17237SOL    HW157547   8.476   6.623   2.481 -0.1649 -0.5884  0.2354
17237SOL    HW257548   8.516   6.477   2.489  0.4484 -0.4947 -0.8954
17238SOL     OW57549   5.059   9.072   1.683 -0.0754  0.4102 -0.7953
17238SOL    HW157550   5.147   9.043   1.707 -1.4995 -1.8652  2.3610
17238SOL    HW257551   5.035   9.016   1.610  0.4809 -0.1983 -0.5282
17239SOL     OW57552   6.374  10.548  10.605  0.3194  0.0404  0.1715
17239SOL    HW157553   6.317  10.579  10.676 -1.1199  0.3596 -1.0428
17239SOL    HW257554   6.365  10.453  10.606  0.0119  0.0679  0.2135
17240SOL     OW57555   0.322   9.577   3.130 -0.4155 -0.3567 -0.4580
17240SOL    HW157556   0.319   9.562   3.035 -2.7049 -0.4568 -0.4374
17240SOL    HW257557   0.304   9.671   3.140  0.6332 -0.1760 -0.1220
17241SOL     OW57558   2.784   1.043   1.636 -0.0057 -0.0246 -0.2789
17241SOL    HW157559   2.810   0.970   1.580 -0.8556 -2.2390  2.0265
17241SOL    HW257560   2.699   1.017   1.672 -0.3995  2.1803  0.5581
17242SOL     OW57561   5.896   4.541   8.494 -0.1745  0.0503 -0.0233
17242SOL    HW157562   5.894   4.445   8.490 -2.7502  0.0365  0.0387
17242SOL    HW257563   5.959   4.560   8.564  2.0003 -1.4692 -1.4454
17243SOL     OW57564   1.479   8.886   4.465  0.2728 -0.4104  0.5292
17243SOL    HW157565   1.411   8.823   4.437 -0.0129  0.3214 -0.5162
17243SOL    HW257566   1.436   8.971   4.458  0.9197 -0.0330  1.0987
17244SOL     OW57567   7.964   4.989   1.833 -0.0500 -0.8139 -0.5092
17244SOL    HW157568   7.929   5.005   1.920  0.3121 -0.0100 -0.5030
17244SOL    HW257569   8.006   4.903   1.840 -0.2434 -0.8702  0.0328
17245SOL     OW57570   5.399   3.339   2.242  0.3674  0.0019 -0.3692
17245SOL    HW157571   5.347   3.349   2.322  1.8800 -0.2655  0.6984
17245SOL    HW257572   5.474   3.397   2.255 -0.0725  1.0896 -2.2737
17246SOL     OW57573   4.873   5.517   9.729  0.3031 -0.1571 -0.1295
17246SOL    HW157574   4.899   5.460   9.801  0.8176 -1.1819 -1.0989
17246SOL    HW257575   4.950   5.570   9.711 -0.5687  1.8600  1.6314
17247SOL     OW57576   4.577   6.335   9.672  0.1311  0.1668 -0.7919
17247SOL    HW157577   4.526   6.322   9.752  3.6824 -1.9055  1.4202
17247SOL    HW257578   4.611   6.248   9.651  4.7822  1.6204 -0.4177
17248SOL     OW57579   1.896   2.940   6.957 -0.2166  0.0558  0.4375
17248SOL    HW157580   1.808   2.919   6.988  0.5489 -1.6679  1.6221
17248SOL    HW257581   1.883   2.974   6.869 -1.8952 -3.1386 -0.7063
17249SOL     OW57582  10.121   5.662  10.398 -0.1550 -0.5400  0.1862
17249SOL    HW157583  10.193   5.601  10.383 -0.3024 -0.6538 -0.0773
17249SOL    HW257584  10.052   5.632  10.338  0.3505  0.8492 -1.1709
17250SOL     OW57585   9.299   2.774   3.629 -0.2897 -0.1774 -0.0560
17250SOL    HW157586   9.255   2.720   3.695  0.4521 -0.2508  0.3941
17250SOL    HW257587   9.387   2.788   3.664 -0.1799  0.5725 -0.5947
17251SOL     OW57588   9.729   2.766   8.972 -0.1315 -0.1906  0.1630
17251SOL    HW157589   9.713   2.860   8.974  1.4915  0.1192  0.0993
17251SOL    HW257590   9.760   2.749   8.883 -0.9155 -0.8859  0.0114
17252SOL     OW57591   8.397   4.155   5.145 -0.3076  0.1931  0.0194
17252SOL    HW157592   8.399   4.136   5.052 -0.6312  0.0517  0.0389
17252SOL    HW257593   8.306   4.140   5.170  0.3909 -3.1650  1.0722
17253SOL     OW57594   3.164   9.644   1.466 -0.6096  0.1280  0.0034
17253SOL    HW157595   3.157   9.739   1.455 -2.5322  0.5501  3.4276
17253SOL    HW257596   3.074   9.612   1.458 -0.3228 -1.0522  1.0706
17254SOL     OW57597   2.168   2.199   6.097 -0.2902  0.4847 -0.0052
17254SOL    HW157598   2.185   2.291   6.075 -0.3927  0.4790 -0.1122
17254SOL    HW257599   2.251   2.155   6.081  0.0536  0.7370  1.0535
17255SOL     OW57600   9.105   1.026   5.487  0.1537  0.5353 -0.2303
17255SOL    HW157601   9.168   1.091   5.456  1.0040 -0.1042  0.1089
17255SOL    HW257602   9.024   1.076   5.502 -0.0217  1.0320 -2.4976
17256SOL     OW57603   9.253   4.230   0.937 -0.5979  0.3814  0.2442
17256SOL    HW157604   9.302   4.245   1.018  0.9550 -1.4104 -0.2900
17256SOL    HW257605   9.296   4.287   0.873 -0.6651  0.4621  0.2703
17257SOL     OW57606   0.984   1.930   4.047 -0.0121 -0.1355  0.1899
17257SOL    HW157607   1.053   1.925   4.114  0.7825 -1.1980 -0.6749
17257SOL    HW257608   0.934   1.850   4.060 -2.1808  1.3597  1.8837
17258SOL     OW57609   7.388   3.543   7.480 -0.1563 -0.0179 -0.0067
17258SOL    HW157610   7.403   3.449   7.483  0.8431  0.1593  1.0277
17258SOL    HW257611   7.339   3.563   7.560  0.7855  0.5136  0.4584
17259SOL     OW57612   1.726   3.953   9.725 -0.5289 -0.3627  0.5291
17259SOL    HW157613   1.763   4.009   9.658 -0.6746 -0.2385  0.5532
17259SOL    HW257614   1.642   3.924   9.690  0.4474 -2.2759 -0.4153
17260SOL     OW57615   5.199   3.091   2.270 -0.2193 -0.1679 -0.3873
17260SOL    HW157616   5.241   3.153   2.329 -0.9329  0.9661 -1.0538
17260SOL    HW257617   5.253   3.012   2.277  0.6022  0.4552  0.5965
17261SOL     OW57618   4.685   8.208   8.317  0.5402  0.4077 -0.5531
17261SOL    HW157619   4.693   8.281   8.378 -0.1766  1.1273 -1.2918
17261SOL    HW257620   4.685   8.130   8.373  0.8892  0.9870  0.2774
17262SOL     OW57621  10.113   3.950  10.441  0.1915  0.0279  0.1999
17262SOL    HW157622  10.033   3.998  10.420  1.4354  1.6574 -1.0068
17262SOL    HW257623  10.091   3.858  10.423 -1.4182  0.4144  0.0127
17263SOL     OW57624   0.753   4.315  10.623 -0.6704  0.2439  0.0367
17263SOL    HW157625   0.737   4.409  10.615 -1.4803 -0.0337 -3.0535
17263SOL    HW257626   0.841   4.302  10.585 -0.2684 -0.1827  1.0846
17264SOL     OW57627   4.669   9.625   1.723 -0.1440  0.1587  0.3796
17264SOL    HW157628   4.731   9.666   1.662  1.5386 -1.8336  0.6231
17264SOL    HW257629   4.655   9.692   1.791  1.9513  0.6546  0.4116
17265SOL     OW57630  10.169   5.961   0.593  0.4307 -0.0611  0.5028
17265SOL    HW157631  10.177   6.008   0.676  1.1857  1.8573 -0.5965
17265SOL    HW257632  10.127   6.024   0.534 -0.9988 -1.7237 -0.3315
17266SOL     OW57633   1.373   2.225  10.591  0.3914  0.5407 -0.3438
17266SOL    HW157634   1.368   2.202  10.498 -0.8500 -1.5904  0.1820
17266SOL    HW257635   1.295   2.277  10.607 -1.2522 -1.8740  0.1118
17267SOL     OW57636   7.653   8.418   1.935 -0.1431  1.0606 -0.7322
17267SOL    HW157637   7.585   8.427   2.002  0.6378 -1.2870  0.4617
17267SOL    HW257638   7.623   8.475   1.864 -1.9494  2.1963  0.8331
17268SOL     OW57639   3.760   1.202   9.086  0.6314  0.5950  0.8785
17268SOL    HW157640   3.771   1.124   9.141  1.2005  0.1728  0.1825
17268SOL    HW257641   3.766   1.169   8.996 -3.1830  0.7662  0.3931
17269SOL     OW57642  10.194   5.148   4.454  0.0319 -0.4772 -0.0903
17269SOL    HW157643  10.168   5.099   4.533 -1.3372 -0.1349 -0.3007
17269SOL    HW257644  10.205   5.080   4.387  0.9224 -0.7436  0.3155
17270SOL     OW57645   1.963   2.574   4.739  0.0497 -0.3638  0.6334
17270SOL    HW157646   2.054   2.594   4.721  0.2034  1.0020  2.6036
17270SOL    HW257647   1.915   2.653   4.713 -0.4526 -0.7066  0.4982
17271SOL     OW57648  10.443  10.291   6.637 -0.5184  0.1047  0.3784
17271SOL    HW157649  10.476  10.379   6.657  0.6658  0.3788 -2.3262
17271SOL    HW257650  10.514  10.233   6.661  0.1458  0.2637 -1.0929
17272SOL     OW57651   3.461   9.924   2.169 -0.6032 -0.3984  0.0340
17272SOL    HW157652   3.552   9.894   2.177 -0.3221  0.4494  0.0640
17272SOL    HW257653   3.437   9.952   2.258 -1.2866 -1.6853  0.2813
17273SOL     OW57654   0.698   8.407   3.181 -0.2154  1.0054  0.0687
17273SOL    HW157655   0.609   8.399   3.148  0.3127  0.4702 -1.2809
17273SOL    HW257656   0.748   8.340   3.134  0.7612  0.8173  1.3118
17274SOL     OW57657   2.119   3.282   0.749  0.2008 -0.2438 -0.1108
17274SOL    HW157658   2.197   3.233   0.725  1.1235 -0.5188  3.0268
17274SOL    HW257659   2.150   3.352   0.806 -1.9542 -1.7511  3.1836
17275SOL     OW57660   7.416   8.445   4.811 -0.0939  0.2008 -0.0542
17275SOL    HW157661   7.376   8.385   4.748  0.4932 -1.2590  0.8942
17275SOL    HW257662   7.343   8.479   4.862 -0.3267 -0.8240  0.3130
17276SOL     OW57663   9.171   9.555   3.187  0.1674 -0.3891 -0.0201
17276SOL    HW157664   9.266   9.545   3.185 -0.0304 -3.1493  0.4808
17276SOL    HW257665   9.141   9.508   3.109 -0.8458 -0.4232  0.3840
17277SOL     OW57666   1.168   4.320   1.713 -0.4347  0.1921  0.2903
17277SOL    HW157667   1.219   4.400   1.724 -0.7763  0.3455  0.8201
17277SOL    HW257668   1.232   4.253   1.692 -0.0911  0.5077  0.3224
17278SOL     OW57669   4.975   3.926   3.272  0.3147  0.3860  0.1591
17278SOL    HW157670   4.961   3.856   3.336  2.1906  0.4034  0.6489
17278SOL    HW257671   4.958   4.007   3.321 -0.2796  0.3440  0.0349
17279SOL     OW57672   8.918   8.952   3.560 -0.1643  0.1720 -0.1999
17279SOL    HW157673   8.989   8.913   3.611 -1.2263 -0.7622  0.6354
17279SOL    HW257674   8.847   8.963   3.623 -1.3160 -0.4586 -1.3433
17280SOL     OW57675   2.923   7.810   0.572  0.0257  0.0508  0.0239
17280SOL    HW157676   3.005   7.784   0.614 -0.0638 -1.0183 -0.4390
17280SOL    HW257677   2.855   7.763   0.621 -0.3438  1.0519  0.5073
17281SOL     OW57678   2.908   5.031   5.948  0.0869 -0.3046  0.1850
17281SOL    HW157679   2.870   5.030   5.860 -1.0698  0.0164  0.6590
17281SOL    HW257680   2.940   5.121   5.959  0.4867 -0.4214 -0.0052
17282SOL     OW57681   5.454   9.110   9.660  0.1165  0.3300 -0.2354
17282SOL    HW157682   5.447   9.113   9.565  1.1055 -0.3968 -0.3468
17282SOL    HW257683   5.502   9.190   9.683  0.9355 -0.0809 -0.4720
17283SOL     OW57684   5.767   0.052   4.398 -0.6287  0.6114 -0.2845
17283SOL    HW157685   5.723   0.132   4.426  1.6866  1.7348  0.4548
17283SOL    HW257686   5.700   0.002   4.352 -2.2632  2.8164 -0.4620
17284SOL     OW57687   3.724   1.968   7.162  0.4423 -0.3304 -0.0452
17284SOL    HW157688   3.655   1.980   7.228 -0.3941  0.2141 -0.9782
17284SOL    HW257689   3.692   2.016   7.086  0.6262 -2.2177 -1.3869
17285SOL     OW57690   4.185   0.751   9.212  0.1192  0.0238  0.2829
17285SOL    HW157691   4.187   0.839   9.174  0.1315 -1.3558 -3.2876
17285SOL    HW257692   4.103   0.749   9.263  0.2811  2.1335  0.7247
17286SOL     OW57693   4.897   4.105   9.260 -0.3442 -0.0869 -0.1207
17286SOL    HW157694   4.963   4.058   9.208  0.5416  1.3349 -0.3570
17286SOL    HW257695   4.896   4.060   9.344  2.1399  0.7869  0.4652
17287SOL     OW57696   2.495   1.950   5.194  0.2987  0.2564 -0.5749
17287SOL    HW157697   2.513   1.857   5.179 -0.2502 -0.1563  1.1003
17287SOL    HW257698   2.554   1.974   5.266  0.1168  1.1026 -0.6970
17288SOL     OW57699   3.409   4.006   6.383  0.1276 -0.0673 -0.4512
17288SOL    HW157700   3.486   3.991   6.328  0.6780  0.5321  0.1287
17288SOL    HW257701   3.438   3.984   6.471 -0.9369 -1.6502 -0.4552
17289SOL     OW57702   9.619   0.132   4.248  0.0080 -0.1612 -0.1846
17289SOL    HW157703   9.589   0.094   4.165  0.9458  0.9489 -1.0594
17289SOL    HW257704   9.544   0.183   4.279  0.4349  1.4204 -1.6245
17290SOL     OW57705   6.047   3.137   7.348  0.0758  0.2821  0.3169
17290SOL    HW157706   5.982   3.068   7.363  0.9160 -0.1184  2.5335
17290SOL    HW257707   6.008   3.193   7.282 -1.0471 -1.7914 -0.8674
17291SOL     OW57708   6.144   6.381   0.858  0.3693  0.2744  0.6468
17291SOL    HW157709   6.127   6.439   0.932  0.8574  1.1036  0.1166
17291SOL    HW257710   6.103   6.425   0.784 -0.6010 -0.8212  0.4984
17292SOL     OW57711   2.328   3.922   8.913  0.0410 -0.1892  0.1418
17292SOL    HW157712   2.236   3.909   8.933 -0.1753 -0.7854 -1.1708
17292SOL    HW257713   2.359   3.982   8.982 -1.2478 -0.1712  0.7355
17293SOL     OW57714   2.735   3.030   7.309  0.1890  0.0080 -0.3894
17293SOL    HW157715   2.811   2.983   7.344 -0.1344  0.4766  1.0063
17293SOL    HW257716   2.676   2.961   7.279  1.4078 -0.3476 -2.0769
17294SOL     OW57717   5.973   5.114   0.703  0.1258 -0.3932  0.2752
17294SOL    HW157718   5.985   5.181   0.636  1.7614  0.6831  1.5478
17294SOL    HW257719   5.899   5.145   0.755  1.8214  1.3824  1.8066
17295SOL     OW57720   8.933   9.404   8.090 -0.1633  0.0901  0.2679
17295SOL    HW157721   8.914   9.493   8.062  1.0066  0.3210  0.1539
17295SOL    HW257722   8.914   9.351   8.012  0.4886  0.4200 -0.1317
17296SOL     OW57723   1.935   0.142   7.134 -0.2014 -0.5436  0.0265
17296SOL    HW157724   1.957   0.201   7.062  0.2701  1.3533  1.6379
17296SOL    HW257725   1.915   0.058   7.091 -0.5133  0.6513 -2.3266
17297SOL     OW57726   4.688   7.491   8.572 -0.5989 -0.0063  0.0194
17297SOL    HW157727   4.609   7.519   8.619 -1.2684  1.5099 -1.9028
17297SOL    HW257728   4.758   7.547   8.607 -0.9014  0.4648 -0.1272
17298SOL     OW57729   4.383   1.902   2.061  0.3760 -0.6246  0.2314
17298SOL    HW157730   4.397   1.989   2.023 -1.4655 -0.8629 -1.1505
17298SOL    HW257731   4.465   1.855   2.046  1.4845  0.8958  1.1940
17299SOL     OW57732   5.042  10.135   4.208  0.0610 -0.6357  0.8731
17299SOL    HW157733   4.965  10.188   4.190 -0.0539 -0.9685  0.3853
17299SOL    HW257734   5.089  10.185   4.275  0.0463  0.1769  0.3031
17300SOL     OW57735   0.057   4.247   6.965 -0.3767  0.0809 -0.4963
17300SOL    HW157736   0.075   4.329   6.919 -0.0783  0.0239 -0.4809
17300SOL    HW257737   0.030   4.274   7.053  1.3156  0.1250  0.0548
17301SOL     OW57738   9.998   3.408   6.301  0.1504 -0.2701  0.7331
17301SOL    HW157739  10.022   3.433   6.212 -1.0901 -1.4383  0.0385
17301SOL    HW257740  10.028   3.318   6.310  0.8875  0.0544  1.7614
17302SOL     OW57741   0.411   1.101   7.200  0.2271  0.0759  0.1910
17302SOL    HW157742   0.428   1.007   7.187 -2.6819 -0.6198  0.6838
17302SOL    HW257743   0.399   1.110   7.294  0.8891  1.0386  0.1875
17303SOL     OW57744   6.964   5.931   4.528 -0.3495  0.2604  0.1897
17303SOL    HW157745   6.899   5.960   4.464 -0.6743  1.3545  0.9781
17303SOL    HW257746   7.025   6.005   4.534  1.3132 -0.9522 -0.9427
17304SOL     OW57747   6.194   0.193  10.157 -0.0913 -0.1551  0.2824
17304SOL    HW157748   6.169   0.253  10.087  0.2895  0.7740  0.9267
17304SOL    HW257749   6.235   0.120  10.112 -1.1284 -0.2395 -0.5607
17305SOL     OW57750  10.587  10.478   5.411 -0.0280  0.0280  0.2050
17305SOL    HW157751  10.564  10.557   5.460  0.7465  0.6746 -0.4410
17305SOL    HW257752  10.668  10.448   5.451 -1.5235 -1.8829  2.0603
17306SOL     OW57753  10.253   3.459   6.428  0.1667 -0.3540 -0.2375
17306SOL    HW157754  10.159   3.449   6.445  0.5175 -0.3778  2.0530
17306SOL    HW257755  10.272   3.398   6.357 -1.7136  0.4307 -1.4970
17307SOL     OW57756   0.169   9.261   2.018 -0.3317  0.2657  0.1751
17307SOL    HW157757   0.193   9.348   2.050  1.6637  0.5241 -1.7193
17307SOL    HW257758   0.215   9.201   2.076  1.4967  0.6595 -0.7814
17308SOL     OW57759   1.485   4.435   2.994  0.6441 -0.1473 -0.2797
17308SOL    HW157760   1.506   4.379   2.919  1.6720  0.2057 -0.2665
17308SOL    HW257761   1.394   4.413   3.015  0.2446 -0.0716 -1.7863
17309SOL     OW57762  10.449   0.360  10.416 -0.4607 -0.3674 -0.9589
17309SOL    HW157763  10.383   0.400  10.360 -1.8359  1.0014  1.4371
17309SOL    HW257764  10.501   0.433  10.449 -0.6133 -0.9301  0.6219
17310SOL     OW57765   5.336  10.065   7.161  0.2194  0.3262  0.4915
17310SOL    HW157766   5.336   9.972   7.140  1.5137  0.4019  0.0416
17310SOL    HW257767   5.328  10.068   7.257 -3.8244 -0.0700  0.3505
17311SOL     OW57768   6.492   4.692   9.282  0.3156 -0.3968  0.2436
17311SOL    HW157769   6.527   4.761   9.337  0.8894  0.4757 -1.1568
17311SOL    HW257770   6.565   4.665   9.227 -0.4778 -0.5320 -0.7871
17312SOL     OW57771   8.144   8.265   9.626 -0.3198  0.6461 -0.6378
17312SOL    HW157772   8.223   8.315   9.605 -0.3913  0.7800 -0.5870
17312SOL    HW257773   8.105   8.246   9.540  0.5511 -0.6999 -0.7534
17313SOL     OW57774   5.305   9.741   4.631  0.2218  0.0003  0.0467
17313SOL    HW157775   5.400   9.744   4.622  0.4434  0.4506  2.0821
17313SOL    HW257776   5.278   9.833   4.630  0.0069 -0.0409  1.1359
17314SOL     OW57777   3.453  10.182   5.417  0.1661 -0.0023  0.0537
17314SOL    HW157778   3.446  10.254   5.354  1.1467 -0.8594 -1.0979
17314SOL    HW257779   3.393  10.116   5.385 -1.4137  0.5941  1.6143
17315SOL     OW57780  10.585   2.456   5.807 -0.3967 -0.6682  0.3969
17315SOL    HW157781  10.550   2.407   5.882 -0.4380  0.1891  0.9499
17315SOL    HW257782  10.654   2.400   5.773 -0.4832 -1.1495  0.9745
17316SOL     OW57783   4.170   9.275   3.340 -0.4981  0.1440 -0.5138
17316SOL    HW157784   4.087   9.231   3.359  0.2567  0.2306  4.2065
17316SOL    HW257785   4.159   9.363   3.377  1.5958  0.1596  0.1917
17317SOL     OW57786   9.341   5.072   5.186 -0.3912  0.1101 -0.2178
17317SOL    HW157787   9.270   5.043   5.244 -0.1154  2.6730  1.6381
17317SOL    HW257788   9.319   5.164   5.167  1.5727  0.4756 -0.9457
17318SOL     OW57789   1.679   0.222   4.613 -0.1786  0.2015  0.0727
17318SOL    HW157790   1.768   0.188   4.609  0.3917  1.5917  0.3299
17318SOL    HW257791   1.629   0.155   4.660  0.8275 -0.3990  0.2937
17319SOL     OW57792   1.141   7.400   3.488 -0.1553 -0.6574  0.0016
17319SOL    HW157793   1.200   7.353   3.429  2.7053  0.8715  1.4000
17319SOL    HW257794   1.146   7.491   3.458  1.1920  0.1225  2.3023
17320SOL     OW57795   4.300   9.029   0.481  0.3923 -0.8374  0.3358
17320SOL    HW157796   4.361   8.958   0.499 -0.7718 -1.4378  2.0916
17320SOL    HW257797   4.285   9.024   0.386  1.7096 -1.7601  0.1506
17321SOL     OW57798   4.816   1.233   8.346  0.0812 -0.2397  0.4754
17321SOL    HW157799   4.821   1.161   8.409 -0.6507  1.6628  2.8814
17321SOL    HW257800   4.879   1.297   8.378  0.0114  0.6003 -1.0146
17322SOL     OW57801   9.925   9.633   0.552 -0.0668 -0.1797 -0.0173
17322SOL    HW157802   9.907   9.552   0.600 -0.0716 -0.8105 -1.0408
17322SOL    HW257803   9.988   9.680   0.606 -0.6766 -0.4812  0.9860
17323SOL     OW57804   6.868   5.314   4.601  0.0840 -0.4278 -0.2728
17323SOL    HW157805   6.914   5.242   4.644 -2.4739 -2.0842 -0.0858
17323SOL    HW257806   6.787   5.275   4.568  0.1956  1.6130 -3.3629
17324SOL     OW57807   4.494   1.600  10.468 -0.0979  0.2966  0.1462
17324SOL    HW157808   4.585   1.596  10.439 -0.5753 -0.4402 -1.3542
17324SOL    HW257809   4.494   1.665  10.538  1.5493  0.4066  0.0822
17325SOL     OW57810   1.707   5.351   1.110  0.1378 -0.3329  0.1572
17325SOL    HW157811   1.672   5.288   1.174 -1.0100 -0.1009 -0.2167
17325SOL    HW257812   1.690   5.436   1.149  0.8475 -0.2193  0.2354
17326SOL     OW57813   7.701   6.132   3.452  0.0465  0.5201 -0.3759
17326SOL    HW157814   7.746   6.107   3.371 -0.1294 -0.0164 -0.3099
17326SOL    HW257815   7.620   6.174   3.422  0.3182  0.9853 -0.4833
17327SOL     OW57816   2.955  10.644   6.234 -0.4781  0.4672  0.3012
17327SOL    HW157817   2.985  10.669   6.322 -1.9195  1.7258  0.4696
17327SOL    HW257818   2.901  10.718   6.205 -0.3118 -0.0818 -1.5162
17328SOL     OW57819   5.363   0.795   2.532 -0.1154  0.6345  0.2268
17328SOL    HW157820   5.271   0.789   2.508  0.8150  0.1900 -4.1367
17328SOL    HW257821   5.372   0.736   2.607 -3.3478  0.8607  0.9313
17329SOL     OW57822   9.475   1.475   9.575  0.2111 -0.1048  0.3495
17329SOL    HW157823   9.552   1.419   9.569  0.4482  0.3367 -0.9736
17329SOL    HW257824   9.486   1.522   9.658  0.9813 -0.6048  0.5404
17330SOL     OW57825   7.385   5.633   4.072 -0.6603 -0.8181  0.1351
17330SOL    HW157826   7.452   5.694   4.042 -0.9977 -0.9960 -1.0236
17330SOL    HW257827   7.401   5.553   4.022 -1.0171 -1.2615  0.7053
17331SOL     OW57828   3.040   2.871   2.929  0.2344 -0.0547  0.0287
17331SOL    HW157829   3.050   2.776   2.934 -0.2816 -0.1642 -0.7154
17331SOL    HW257830   3.127   2.904   2.908  0.4217 -0.3614  0.3220
17332SOL     OW57831   8.028   4.948   4.529  1.0598  0.6355 -0.0807
17332SOL    HW157832   8.091   4.929   4.459  2.2318  2.5085  0.4137
17332SOL    HW257833   8.079   4.942   4.610 -0.2083 -1.2002  0.6741
17333SOL     OW57834   1.825   7.895   0.678  0.3183 -0.1566 -0.2698
17333SOL    HW157835   1.847   7.810   0.639  1.7460  0.6388 -1.3115
17333SOL    HW257836   1.736   7.883   0.712 -0.7386 -1.2068 -3.0505
17334SOL     OW57837   1.180   3.616   3.516  0.1061  0.7241  0.1751
17334SOL    HW157838   1.148   3.534   3.479  2.4619  0.2614 -1.0923
17334SOL    HW257839   1.134   3.626   3.599  1.1005 -2.9164  1.3338
17335SOL     OW57840   4.456   9.414  10.622 -0.0576 -0.0870  0.2444
17335SOL    HW157841   4.389   9.415  10.690 -2.4606 -1.5639 -1.9291
17335SOL    HW257842   4.438   9.492  10.569  1.6147  0.8959  1.0308
17336SOL     OW57843   2.317   8.103   9.969  0.7550  0.3748  0.1684
17336SOL    HW157844   2.408   8.084   9.945  0.0320  0.3121 -2.8923
17336SOL    HW257845   2.275   8.017   9.976  0.6933  0.4375  0.6130
17337SOL     OW57846   3.403   1.531   2.014  0.1072  0.6781  0.0771
17337SOL    HW157847   3.431   1.597   2.077  0.0694  0.8803 -0.1139
17337SOL    HW257848   3.320   1.498   2.047  0.1413  0.7068  0.1898
17338SOL     OW57849   2.319   8.120   1.061 -0.3168 -0.7039 -0.1784
17338SOL    HW157850   2.375   8.110   1.138 -0.2892  0.7929  0.0316
17338SOL    HW257851   2.365   8.073   0.992  2.2650  1.9444 -0.4871
17339SOL     OW57852   3.110   3.279   0.832  0.3218 -0.1025  0.1833
17339SOL    HW157853   3.084   3.192   0.863 -2.2357 -0.1135 -1.6470
17339SOL    HW257854   3.156   3.262   0.750 -2.1442  0.2458 -1.3695
17340SOL     OW57855   4.226   2.611   6.604  0.1834  0.2915  0.4070
17340SOL    HW157856   4.217   2.619   6.699 -3.0565 -1.0248  0.3633
17340SOL    HW257857   4.137   2.621   6.570  0.8393 -1.5989 -2.2652
17341SOL     OW57858   1.418   8.869   5.123  0.5012 -0.1243 -0.6079
17341SOL    HW157859   1.453   8.950   5.087 -1.5425 -0.2490 -3.1734
17341SOL    HW257860   1.379   8.824   5.048  1.1319 -3.2935  0.7905
17342SOL     OW57861   8.362   8.189   4.087  0.1712 -0.9626 -0.6146
17342SOL    HW157862   8.438   8.245   4.104  0.9171 -1.4004 -2.2788
17342SOL    HW257863   8.293   8.226   4.141  1.2639  0.1627  0.0668
17343SOL     OW57864   3.950   8.176   1.947 -0.0561 -0.5372 -0.4749
17343SOL    HW157865   3.945   8.246   2.013  1.5369 -0.5035 -0.3665
17343SOL    HW257866   3.867   8.184   1.899 -0.4923  0.5572  0.3997
17344SOL     OW57867   4.373   9.886   4.969  0.4434 -0.2736  0.2742
17344SOL    HW157868   4.441   9.887   4.901 -0.2202 -0.9716 -0.4297
17344SOL    HW257869   4.295   9.854   4.923  0.1080 -1.2630  1.4916
17345SOL     OW57870   8.980   4.383   5.056 -0.2741 -0.4064  0.1455
17345SOL    HW157871   8.985   4.348   5.145 -2.7885  0.1243  0.5833
17345SOL    HW257872   8.897   4.429   5.054 -0.4179 -0.6413 -2.5912
17346SOL     OW57873   0.129   1.264   9.930  0.0230 -0.2974  0.7284
17346SOL    HW157874   0.168   1.238  10.014 -1.3400 -1.7538  0.9581
17346SOL    HW257875   0.078   1.188   9.903  1.4935 -0.3986 -2.1420
17347SOL     OW57876   0.068   2.341   3.261  0.3048  0.1547  0.1990
17347SOL    HW157877  -0.009   2.300   3.222  0.5176  0.4278 -0.5263
17347SOL    HW257878   0.132   2.270   3.268  0.4036  0.1931 -0.3243
17348SOL     OW57879   4.765   0.258   7.650  0.0725  0.4405  0.1379
17348SOL    HW157880   4.724   0.278   7.566 -1.2585  2.4893  1.1859
17348SOL    HW257881   4.743   0.167   7.667 -0.4756  0.2955 -1.2771
17349SOL     OW57882   3.553   7.296   8.949 -0.0819  0.1407  0.2885
17349SOL    HW157883   3.520   7.291   8.859 -0.9752 -0.7666  0.6440
17349SOL    HW257884   3.632   7.242   8.949 -0.8448 -1.0205  0.3461
17350SOL     OW57885   9.167   3.011   3.133 -0.7443  0.3975  0.2568
17350SOL    HW157886   9.170   2.945   3.202  1.2725  0.3211  0.1534
17350SOL    HW257887   9.115   2.972   3.063 -0.3514 -0.7084  0.5708
17351SOL     OW57888   1.123   7.287   1.518  0.0706  0.5654 -0.1868
17351SOL    HW157889   1.182   7.253   1.585  0.2469  1.3977  0.0920
17351SOL    HW257890   1.171   7.277   1.436 -0.3074 -0.8366 -0.2640
17352SOL     OW57891   8.547   9.454   3.829 -0.2436 -0.5214  0.4993
17352SOL    HW157892   8.584   9.432   3.915  0.4345 -0.6482  0.1806
17352SOL    HW257893   8.452   9.446   3.841 -0.0843 -2.7355  0.6589
17353SOL     OW57894   1.103   3.988   4.873  0.2777  0.2210 -0.2986
17353SOL    HW157895   1.130   3.927   4.942  0.5140  0.9748  0.2823
17353SOL    HW257896   1.025   4.031   4.907  0.1480  0.2980 -0.6797
17354SOL     OW57897   9.493   6.592   2.047  0.5135  0.1471  0.2770
17354SOL    HW157898   9.589   6.593   2.037  0.6858 -3.1919  0.5468
17354SOL    HW257899   9.479   6.595   2.141  0.4746 -1.1567  0.3275
17355SOL     OW57900   1.410   9.526   8.923 -0.3180  0.3887  0.2433
17355SOL    HW157901   1.414   9.494   8.833 -0.0015  0.8526  0.0904
17355SOL    HW257902   1.498   9.513   8.958 -0.4600  0.1377  0.5134
17356SOL     OW57903   6.704   5.452   2.478 -0.3759 -0.4590  0.4053
17356SOL    HW157904   6.642   5.379   2.484  0.7904 -1.4149  1.6185
17356SOL    HW257905   6.773   5.430   2.541  0.7118  1.0356 -0.1952
17357SOL     OW57906   4.141   3.985   3.403  0.0879  0.3081 -0.1279
17357SOL    HW157907   4.129   4.033   3.320 -0.2671  0.1683 -0.1584
17357SOL    HW257908   4.219   3.931   3.388  1.7734  2.3896  0.6153
17358SOL     OW57909   1.819   9.019   1.104 -0.0053  0.0733 -0.2173
17358SOL    HW157910   1.759   9.065   1.163  0.4487 -0.7422  0.9166
17358SOL    HW257911   1.884   8.980   1.162  0.7309 -0.3615 -1.3093
17359SOL     OW57912   1.918   2.706   1.201 -0.1559 -0.5757  0.0936
17359SOL    HW157913   1.912   2.754   1.118 -0.8084 -0.8082  0.0087
17359SOL    HW257914   2.001   2.658   1.194  1.6594  2.1599  1.0414
17360SOL     OW57915   6.187   5.686   7.153  1.3177 -0.0959  0.3068
17360SOL    HW157916   6.180   5.780   7.138  2.1981  0.0677  0.8690
17360SOL    HW257917   6.228   5.652   7.074 -0.0873 -0.1966 -0.4113
17361SOL     OW57918   6.300   9.795  10.298  0.3172  0.0321 -0.1606
17361SOL    HW157919   6.388   9.831  10.304  0.0116  0.7331  0.1862
17361SOL    HW257920   6.248   9.864  10.257 -0.4467  0.3371  1.2368
17362SOL     OW57921   2.266   5.594   4.302  0.3165  0.0349 -0.5473
17362SOL    HW157922   2.189   5.583   4.357 -0.7632 -2.0433 -2.3439
17362SOL    HW257923   2.299   5.681   4.325 -1.7196  0.4080  1.2814
17363SOL     OW57924   5.035   7.687   9.684  0.2416  0.0518  0.4888
17363SOL    HW157925   4.991   7.760   9.727 -0.3373 -0.1426  0.2377
17363SOL    HW257926   5.008   7.694   9.592  1.1064  0.2013  0.2440
17364SOL     OW57927   1.482   6.566   3.270  0.2739  0.0970 -0.3127
17364SOL    HW157928   1.555   6.525   3.224  0.3531 -0.6010  0.4009
17364SOL    HW257929   1.410   6.503   3.262  0.0240  0.3771 -0.2626
17365SOL     OW57930   1.504   0.478   4.087 -0.3509 -0.5604 -0.0954
17365SOL    HW157931   1.454   0.435   4.018 -0.4166 -0.9583  0.1988
17365SOL    HW257932   1.442   0.540   4.127 -0.0278  0.4042 -1.0446
17366SOL     OW57933   8.068   0.653   6.599 -0.0855 -0.2393 -0.3711
17366SOL    HW157934   8.161   0.634   6.587  0.1289 -1.1070  2.2118
17366SOL    HW257935   8.066   0.726   6.661 -1.0030 -3.4661  3.8177
17367SOL     OW57936   1.441   1.166   4.293  0.1000 -0.0130 -0.9664
17367SOL    HW157937   1.489   1.145   4.212  0.9036  0.0757 -0.5212
17367SOL    HW257938   1.492   1.235   4.334 -1.8371  2.0379 -1.7957
17368SOL     OW57939   2.225   0.385   8.199 -0.1988 -0.0236 -0.4223
17368SOL    HW157940   2.175   0.412   8.276  1.2148  0.5543  0.3282
17368SOL    HW257941   2.291   0.453   8.188  0.6239 -0.9126 -1.2021
17369SOL     OW57942   0.930   4.769   6.253  0.3559 -0.1737 -0.0875
17369SOL    HW157943   0.873   4.703   6.294 -0.1296  0.6425  0.5819
17369SOL    HW257944   0.959   4.823   6.326  1.2500 -0.0101 -0.5528
17370SOL     OW57945   6.678   5.299   6.913 -0.4288  0.4527  0.5647
17370SOL    HW157946   6.585   5.281   6.896 -0.7981  2.5873 -0.0749
17370SOL    HW257947   6.704   5.356   6.840  0.8123  1.5469  1.8112
17371SOL     OW57948   4.428   9.645   1.608  0.2116 -0.4013  0.7078
17371SOL    HW157949   4.518   9.623   1.585  0.7893 -1.1394  3.3299
17371SOL    HW257950   4.436   9.707   1.680 -1.4196  0.8838 -0.1396
17372SOL     OW57951   2.445   8.366   4.639  0.0190 -0.2691  0.2164
17372SOL    HW157952   2.470   8.398   4.726 -0.3603  0.7746 -0.0398
17372SOL    HW257953   2.500   8.289   4.625  0.3261 -0.2516  1.2384
17373SOL     OW57954   4.868   0.579   9.466 -0.0712  0.6166  0.0737
17373SOL    HW157955   4.923   0.516   9.419 -0.1265  0.7148 -0.1232
17373SOL    HW257956   4.928   0.651   9.486 -0.3241  1.1106 -0.8981
17374SOL     OW57957   6.119   9.286   9.459 -0.3131 -0.2147  0.7578
17374SOL    HW157958   6.051   9.295   9.393 -0.5495  0.0304  1.0310
17374SOL    HW257959   6.180   9.223   9.422  0.0718  0.6451 -0.1350
17375SOL     OW57960   8.798   4.461   5.568  0.2186  0.2866  0.5632
17375SOL    HW157961   8.807   4.366   5.566  4.4402  0.4445  2.1680
17375SOL    HW257962   8.768   4.480   5.657 -1.2318  0.4944  0.0531
17376SOL     OW57963   6.419   5.771   3.767  0.2448  0.4272  0.8517
17376SOL    HW157964   6.330   5.737   3.754  0.7419 -1.2566  1.6116
17376SOL    HW257965   6.474   5.714   3.714  0.9863  0.7716  1.2468
17377SOL     OW57966   5.071  10.327   6.208  0.1010 -0.2317  0.2441
17377SOL    HW157967   5.080  10.363   6.297  1.8764 -1.1979  0.5052
17377SOL    HW257968   4.984  10.288   6.207  0.5444 -1.3693  2.0330
17378SOL     OW57969   2.535  10.086   7.262  0.1151 -0.0727 -0.2836
17378SOL    HW157970   2.474  10.125   7.326  0.6028 -2.0132  1.4919
17378SOL    HW257971   2.619  10.126   7.282  0.2207 -0.5096  0.1968
17379SOL     OW57972   7.059  10.664   2.781 -0.4593 -0.3570 -0.0180
17379SOL    HW157973   7.085  10.581   2.741 -1.0792 -0.4078 -0.3244
17379SOL    HW257974   7.139  10.695   2.825  0.8326  0.6169 -2.7962
17380SOL     OW57975   2.752   5.245   7.955  0.3111  0.6987 -0.1045
17380SOL    HW157976   2.790   5.333   7.957  0.9423  0.5109 -1.9565
17380SOL    HW257977   2.660   5.260   7.933  0.2681  0.9101  0.2007
17381SOL     OW57978   6.040   1.317   1.599  0.0142  0.1314 -0.1745
17381SOL    HW157979   5.968   1.305   1.537  0.3640  1.4120 -0.8673
17381SOL    HW257980   6.057   1.229   1.634 -1.9621 -0.1776  0.1164
17382SOL     OW57981   8.114   4.343   6.745 -0.3728  0.2629  0.0494
17382SOL    HW157982   8.125   4.275   6.680 -4.2588  0.3951 -1.0192
17382SOL    HW257983   8.113   4.297   6.829 -1.6222 -0.8842 -0.5541
17383SOL     OW57984   8.134   9.993   5.802 -0.1098  0.1100  0.5719
17383SOL    HW157985   8.212  10.034   5.840  0.2919  0.3341 -0.4691
17383SOL    HW257986   8.098   9.940   5.873  1.2783 -0.4045  0.9190
17384SOL     OW57987   0.327   1.042   2.136  0.0179  0.3451  0.1417
17384SOL    HW157988   0.274   0.966   2.111  0.3797  0.0976  0.1253
17384SOL    HW257989   0.408   1.032   2.088 -0.5582  1.6321 -1.1776
17385SOL     OW57990   0.132   1.854   3.617 -0.0752 -0.1421 -0.1910
17385SOL    HW157991   0.125   1.803   3.536 -0.5171  0.3896 -0.4920
17385SOL    HW257992   0.219   1.893   3.614 -0.4918  0.7572 -0.9446
17386SOL     OW57993   9.141   0.505   2.821 -0.2539  0.5401 -0.3171
17386SOL    HW157994   9.208   0.561   2.784  1.2485 -0.7088  0.4181
17386SOL    HW257995   9.067   0.564   2.837  0.9389  2.1169 -0.3909
17387SOL     OW57996   7.256   7.017   5.013 -0.3386 -0.5253  0.4524
17387SOL    HW157997   7.256   6.922   5.002 -0.0160 -0.3731 -1.0375
17387SOL    HW257998   7.338   7.035   5.059  1.5728 -0.6815 -2.6295
17388SOL     OW57999   7.705   1.478   1.921 -0.4947 -0.8298 -0.2114
17388SOL    HW158000   7.701   1.464   2.016 -0.8558  2.7395  0.4082
17388SOL    HW258001   7.769   1.547   1.909 -0.1927 -1.4481 -2.6658
17389SOL     OW58002   0.601   8.899   6.741 -0.4329  0.2350  0.1093
17389SOL    HW158003   0.556   8.924   6.821 -3.0515  0.3658 -1.2890
17389SOL    HW258004   0.532   8.864   6.684  1.3320 -0.0245 -2.0237
17390SOL     OW58005   0.951   5.881   9.971 -0.1238 -0.6150 -0.8549
17390SOL    HW158006   0.979   5.799   9.929  1.2060 -1.9764  2.3526
17390SOL    HW258007   1.024   5.903  10.030 -1.9869  0.8888  1.0209
17391SOL     OW58008   2.623   8.751   2.123  0.4043 -0.4802  0.4666
17391SOL    HW158009   2.684   8.822   2.144 -0.5670  0.0876  1.4668
17391SOL    HW258010   2.554   8.759   2.189 -1.0625 -0.7344 -0.9987
17392SOL     OW58011   4.651   1.677   1.483 -0.5889  0.4758 -0.2040
17392SOL    HW158012   4.691   1.625   1.553 -0.3271  1.6013  0.5057
17392SOL    HW258013   4.587   1.732   1.528  1.0277  2.7366 -0.4762
17393SOL     OW58014   9.496   9.632  10.550 -0.1505 -0.3704 -0.6145
17393SOL    HW158015   9.574   9.610  10.498  0.4688  0.5830 -0.1296
17393SOL    HW258016   9.490   9.561  10.615 -0.3420 -1.0323 -1.3464
17394SOL     OW58017   1.595   7.084   2.495 -0.0499  0.2985  0.1191
17394SOL    HW158018   1.568   7.169   2.460 -1.3584 -0.2294 -0.2104
17394SOL    HW258019   1.513   7.037   2.509  0.6917 -1.4892 -1.1670
17395SOL     OW58020   8.744   4.027   6.484 -0.2578 -0.3506  0.1839
17395SOL    HW158021   8.839   4.034   6.497 -0.5732  1.3411  1.9992
17395SOL    HW258022   8.735   3.982   6.400  2.1427 -0.5370 -0.0504
17396SOL     OW58023   0.496   2.298   8.653  0.4208 -0.1289  0.3121
17396SOL    HW158024   0.563   2.258   8.708 -1.2847 -3.6230  0.1160
17396SOL    HW258025   0.512   2.263   8.565 -0.5132  0.5554 -0.1549
17397SOL     OW58026   4.451   9.116   6.494 -0.2630  0.6051 -0.2182
17397SOL    HW158027   4.526   9.145   6.546 -1.2527  2.1294  0.4128
17397SOL    HW258028   4.382   9.180   6.512 -1.1492  0.2878 -2.1951
17398SOL     OW58029   9.652   0.302   9.693 -0.3237  0.2854 -0.1027
17398SOL    HW158030   9.714   0.332   9.627  0.3750  0.6314  0.7023
17398SOL    HW258031   9.705   0.257   9.758 -1.1618 -1.2250 -0.4208
17399SOL     OW58032   9.247   7.231   9.505 -0.3880  0.0135 -0.2155
17399SOL    HW158033   9.315   7.164   9.511 -0.5464 -0.0997  0.3905
17399SOL    HW258034   9.166   7.185   9.527 -0.6435  0.1813 -0.7895
17400SOL     OW58035   0.700   3.641   7.784 -0.2755  0.1262 -0.1121
17400SOL    HW158036   0.641   3.645   7.709  0.8361  0.6671 -0.9933
17400SOL    HW258037   0.643   3.647   7.861 -1.4219 -0.3015 -0.9123
17401SOL     OW58038   5.263   6.504   7.880 -0.5673  0.8413  0.0720
17401SOL    HW158039   5.180   6.512   7.926  0.6240  2.0734  2.2022
17401SOL    HW258040   5.244   6.449   7.804 -3.1120  0.4246  0.9232
17402SOL     OW58041   3.484   9.554   3.526  0.3263  0.2941  0.4729
17402SOL    HW158042   3.558   9.613   3.539  0.4555 -0.0013  1.0897
17402SOL    HW258043   3.420   9.580   3.592 -1.2636  2.2923 -1.6902
17403SOL     OW58044   5.062   5.472   6.833 -0.7409  0.2431  0.0069
17403SOL    HW158045   5.021   5.396   6.876 -2.0022  0.2698 -1.1088
17403SOL    HW258046   5.147   5.439   6.804 -1.2363 -0.7299 -0.3818
17404SOL     OW58047   5.315   6.876   1.723 -0.3161  0.1796  0.2538
17404SOL    HW158048   5.346   6.825   1.649 -1.2449 -1.1245  0.7210
17404SOL    HW258049   5.282   6.957   1.684  0.4307  0.0781 -0.6026
17405SOL     OW58050   5.333   0.290   6.823  0.3664 -0.1179 -0.1900
17405SOL    HW158051   5.356   0.381   6.808  0.3245 -0.3417 -1.7599
17405SOL    HW258052   5.247   0.279   6.782  1.4176 -1.4084 -2.2560
17406SOL     OW58053   6.834   7.600   3.667  0.1526  0.7116  0.4223
17406SOL    HW158054   6.839   7.505   3.662  1.0909  0.7977 -0.4973
17406SOL    HW258055   6.789   7.617   3.750 -0.8289 -0.5386  0.1815
17407SOL     OW58056   3.659   4.899   8.781 -0.0328 -0.0404  0.3398
17407SOL    HW158057   3.639   4.812   8.745  0.3347  0.4458 -1.1302
17407SOL    HW258058   3.729   4.883   8.844  0.7005 -0.7145 -0.6112
17408SOL     OW58059   9.306  10.206  10.339 -0.0520  0.1343 -0.1355
17408SOL    HW158060   9.253  10.282  10.360  0.2703  0.1935  0.4929
17408SOL    HW258061   9.282  10.141  10.405  0.7026  0.1892  0.2046
17409SOL     OW58062   3.769   9.776   5.086  0.7659 -0.3601 -0.0027
17409SOL    HW158063   3.858   9.747   5.065  2.1271  1.4450  2.7698
17409SOL    HW258064   3.741   9.717   5.156  0.0315 -0.4452 -0.3591
17410SOL     OW58065  10.096   3.764   3.907  0.0419  0.5962  0.6699
17410SOL    HW158066  10.091   3.797   3.997 -2.0031  1.8886  0.1359
17410SOL    HW258067  10.079   3.841   3.853 -2.4262 -0.8005 -0.7059
17411SOL     OW58068   8.949   7.105  10.323 -0.1359 -0.1619 -0.1876
17411SOL    HW158069   8.962   7.059  10.240 -1.4706 -0.4992 -0.2189
17411SOL    HW258070   8.906   7.187  10.298 -1.9858 -0.9452  0.2842
17412SOL     OW58071  10.570   2.370  10.633 -0.2061 -0.7712  0.2010
17412SOL    HW158072  10.663   2.378  10.656 -0.4633 -0.2928  1.0982
17412SOL    HW258073  10.562   2.280  10.600  0.9823 -0.1598 -1.8926
17413SOL     OW58074   2.309  10.012   1.578 -0.2783  0.5477 -0.4838
17413SOL    HW158075   2.295  10.107   1.576  0.4159  0.6513 -0.8564
17413SOL    HW258076   2.398  10.002   1.610 -0.5355 -0.0093  0.0730
17414SOL     OW58077   6.320   3.573   1.276 -0.2882  0.0639 -0.1745
17414SOL    HW158078   6.370   3.494   1.299 -1.7748 -0.7321  0.4433
17414SOL    HW258079   6.287   3.605   1.359 -2.2359 -0.4367 -0.7156
17415SOL     OW58080  10.287   7.711   1.763  0.4518  0.5023 -0.1155
17415SOL    HW158081  10.352   7.760   1.813  0.5933  0.8140 -0.6025
17415SOL    HW258082  10.240   7.777   1.713  0.1342  0.2181 -0.1971
17416SOL     OW58083  10.065   1.890   9.885 -0.2794 -0.2829 -0.1655
17416SOL    HW158084  10.151   1.929   9.899 -0.1286 -0.7538  0.2593
17416SOL    HW258085  10.022   1.896   9.971 -0.8160  0.2897 -0.4672
17417SOL     OW58086   4.809   7.158   8.345  0.4095 -0.1373 -0.1146
17417SOL    HW158087   4.761   7.193   8.269 -1.1176 -2.3443 -0.2521
17417SOL    HW258088   4.762   7.193   8.421  0.4601  0.1311 -0.2042
17418SOL     OW58089   2.276   1.752   6.779  0.6799 -0.0177 -0.3389
17418SOL    HW158090   2.369   1.733   6.767  0.6864  0.8789 -2.2609
17418SOL    HW258091   2.272   1.805   6.858  1.7034 -0.6556  0.1634
17419SOL     OW58092   9.830   7.449   1.469 -0.0873 -0.1440 -0.5058
17419SOL    HW158093   9.887   7.389   1.517 -3.8703 -4.4243 -0.6679
17419SOL    HW258094   9.846   7.429   1.377 -0.6043 -0.1358 -0.6022
17420SOL     OW58095   5.449   5.045   1.537 -0.5570 -0.0180  0.0643
17420SOL    HW158096   5.529   5.005   1.572  1.2147  0.9469 -2.5450
17420SOL    HW258097   5.407   4.975   1.487 -0.7918 -0.2383  0.5630
17421SOL     OW58098   4.694   9.588   0.984 -1.0141 -0.3148  0.1064
17421SOL    HW158099   4.661   9.668   0.943 -2.4707  0.4553  2.5672
17421SOL    HW258100   4.761   9.556   0.924 -0.2872  2.8074 -0.9332
17422SOL     OW58101   3.834   0.624   8.709 -0.2625  0.0888  0.0129
17422SOL    HW158102   3.929   0.615   8.712 -0.3593 -0.6694  2.0026
17422SOL    HW258103   3.807   0.575   8.631  0.9302 -0.0623 -0.3146
17423SOL     OW58104   2.617   7.235   4.961  0.3552 -0.2937 -0.3054
17423SOL    HW158105   2.612   7.150   5.004  1.2870  0.7690  2.0671
17423SOL    HW258106   2.707   7.264   4.975 -0.6638  2.3378  1.5898
17424SOL     OW58107   9.976   6.114   2.968 -0.4909  0.0549 -0.1053
17424SOL    HW158108  10.030   6.114   2.889 -0.0668 -0.4587  0.1780
17424SOL    HW258109  10.038   6.098   3.039 -0.6943  1.6589  0.4722
17425SOL     OW58110   2.899   0.239   2.543 -0.0526  0.0646 -0.0006
17425SOL    HW158111   2.989   0.270   2.544 -0.2301  0.6165 -0.6400
17425SOL    HW258112   2.846   0.318   2.533 -0.6339 -0.2139  0.7669
17426SOL     OW58113   8.603   9.257   6.350  0.2899 -0.8924 -0.5645
17426SOL    HW158114   8.665   9.244   6.421 -1.0878 -0.5709  0.7465
17426SOL    HW258115   8.637   9.333   6.301  0.1653  0.2338  1.0298
17427SOL     OW58116   1.530  10.285   0.766  0.2554  0.2415 -0.2555
17427SOL    HW158117   1.477  10.228   0.710  1.7935  0.7879 -2.3864
17427SOL    HW258118   1.612  10.237   0.779  0.4487  0.7274  0.3706
17428SOL     OW58119   5.203   6.387   3.901 -0.6058 -0.0157  0.0509
17428SOL    HW158120   5.260   6.444   3.849  0.1240 -0.2464  0.5830
17428SOL    HW258121   5.210   6.420   3.990 -0.0204 -1.0379  0.4047
17429SOL     OW58122   5.078   7.764   7.686  0.1136  0.2667  0.3827
17429SOL    HW158123   5.026   7.700   7.734 -0.7398  0.9007  0.3246
17429SOL    HW258124   5.139   7.712   7.634 -2.7560 -0.7041 -2.2827
17430SOL     OW58125  10.187   0.160   8.045 -0.2574  0.1350 -0.0584
17430SOL    HW158126  10.179   0.230   7.980  1.9786  0.3986 -0.1208
17430SOL    HW258127  10.191   0.080   7.994 -0.6871  0.1422 -0.1076
17431SOL     OW58128   9.177   3.411   2.834  0.1156  0.3307  0.5206
17431SOL    HW158129   9.203   3.495   2.796  0.0149 -0.6789 -1.9267
17431SOL    HW258130   9.082   3.415   2.840 -0.2552 -0.6739 -2.6338
17432SOL     OW58131   6.978   0.638   6.115  0.1241  0.2160  0.0453
17432SOL    HW158132   7.061   0.683   6.099  1.0645 -1.4910 -0.1843
17432SOL    HW258133   6.961   0.590   6.034 -0.1648 -0.8260  0.7056
17433SOL     OW58134   1.831   8.863   1.401 -0.0352 -0.5473  0.1621
17433SOL    HW158135   1.766   8.828   1.340  0.9052 -1.4682 -0.3502
17433SOL    HW258136   1.797   8.842   1.487  0.3696 -2.6106 -0.1250
17434SOL     OW58137   3.871   1.737   0.555 -0.2182  0.3068  0.7270
17434SOL    HW158138   3.948   1.686   0.579  0.8716  1.8181  0.5521
17434SOL    HW258139   3.824   1.680   0.493  0.6535 -0.7040  0.9594
17435SOL     OW58140   7.894  10.193   2.943  0.1130 -0.0423 -0.0613
17435SOL    HW158141   7.914  10.159   3.030  0.4182  0.8868  0.2431
17435SOL    HW258142   7.970  10.168   2.890 -0.1181 -0.6960 -0.0914
17436SOL     OW58143   6.030   7.965   3.788  0.2739 -0.3082 -0.2401
17436SOL    HW158144   5.941   7.962   3.755  0.5554  1.1483 -1.2590
17436SOL    HW258145   6.080   7.907   3.730  0.6079  1.5987 -1.9745
17437SOL     OW58146   8.622   8.339  10.299  1.0272 -0.2951 -0.2763
17437SOL    HW158147   8.625   8.435  10.297 -0.8543 -0.1487 -3.3177
17437SOL    HW258148   8.683   8.313  10.229 -0.2309 -1.1418 -1.0941
17438SOL     OW58149   3.247   1.504   5.835 -0.5110 -0.2261 -0.1760
17438SOL    HW158150   3.272   1.414   5.815 -0.7443 -0.6677  1.3433
17438SOL    HW258151   3.299   1.558   5.775 -0.8307 -1.3733 -1.5422
17439SOL     OW58152   2.937   5.654   9.998 -0.1398  0.2507 -0.0033
17439SOL    HW158153   2.960   5.634  10.089 -1.1881 -1.4478 -0.0657
17439SOL    HW258154   3.014   5.628   9.947 -0.8724 -2.4008  0.0872
17440SOL     OW58155   8.818   9.235   6.155  0.2218  0.9287 -0.4187
17440SOL    HW158156   8.804   9.329   6.160  0.5696  0.9213  1.2752
17440SOL    HW258157   8.862   9.213   6.237 -0.2602 -0.7783 -0.5808
17441SOL     OW58158   8.148   0.068   2.467 -0.3189 -0.2797 -0.4530
17441SOL    HW158159   8.203   0.009   2.519  1.4153  1.0070 -0.7333
17441SOL    HW258160   8.147   0.029   2.379 -2.6926 -2.0892  0.2817
17442SOL     OW58161   9.228   7.040   0.338  0.1403 -0.2199  0.4855
17442SOL    HW158162   9.168   7.110   0.365  0.6105  0.1576  0.5757
17442SOL    HW258163   9.302   7.087   0.298  0.5565 -0.6521  0.7360
17443SOL     OW58164   1.480   6.139   1.205  0.7083  0.4311  0.0165
17443SOL    HW158165   1.508   6.160   1.116 -0.5777  0.0633 -0.5044
17443SOL    HW258166   1.461   6.045   1.202 -2.5150  0.9781 -0.2924
17444SOL     OW58167   8.660   0.294   7.490 -0.3788 -0.1958  0.1648
17444SOL    HW158168   8.693   0.380   7.462 -1.5084  0.0788 -0.3776
17444SOL    HW258169   8.667   0.295   7.585 -0.2813  0.4600  0.1557
17445SOL     OW58170  10.049   1.738   1.023 -0.7483 -0.1589  0.3694
17445SOL    HW158171  10.028   1.649   1.051  1.6200 -0.9777 -0.2312
17445SOL    HW258172  10.125   1.761   1.076 -0.9323  1.2826  0.0367
17446SOL     OW58173  10.621   4.323   4.415 -0.0828 -0.0636 -0.3235
17446SOL    HW158174  10.655   4.382   4.348  2.3376 -2.2089 -1.1905
17446SOL    HW258175  10.696   4.305   4.472 -0.5661 -2.4592 -0.3060
17447SOL     OW58176   8.496   2.866   2.835  0.3441 -0.1943  0.2601
17447SOL    HW158177   8.466   2.921   2.762 -0.0262 -0.8241 -0.0704
17447SOL    HW258178   8.525   2.929   2.901  0.7068  0.3889 -0.4323
17448SOL     OW58179   8.475   7.113   8.117  0.5103  0.5616  0.0043
17448SOL    HW158180   8.462   7.023   8.087 -0.0761  0.7836 -0.4252
17448SOL    HW258181   8.435   7.115   8.204  0.5212  0.4097  0.0127
17449SOL     OW58182   1.917   1.930   1.957  0.4797 -0.1272  0.5722
17449SOL    HW158183   1.974   1.853   1.961  0.4581 -0.0917  1.7793
17449SOL    HW258184   1.962   1.996   2.011 -0.5299  0.0138  1.2747
17450SOL     OW58185   9.329   1.647   4.566  0.2196  0.4032  0.2539
17450SOL    HW158186   9.287   1.733   4.564 -1.7304 -0.4933  0.1187
17450SOL    HW258187   9.308   1.613   4.653 -0.2612 -0.4861 -0.1993
17451SOL     OW58188   6.609   9.098   3.108 -0.9422  0.4149  0.3848
17451SOL    HW158189   6.605   9.146   3.025  0.1691  1.3269  0.8221
17451SOL    HW258190   6.587   9.008   3.085  0.1959  0.4658 -1.0668
17452SOL     OW58191  10.482   1.417  10.045  0.3583  0.6699  0.1782
17452SOL    HW158192  10.472   1.368  10.127  0.6686 -0.1087 -0.2401
17452SOL    HW258193  10.396   1.454  10.028  0.2625  0.7415  0.7954
17453SOL     OW58194   8.096   0.622   2.775  0.0776  0.2877  0.2315
17453SOL    HW158195   8.073   0.686   2.843  0.2275 -0.0191  0.5748
17453SOL    HW258196   8.093   0.672   2.693  0.0359  0.6961  0.4783
17454SOL     OW58197   7.263   7.441   0.461  0.1690 -0.9537  0.1076
17454SOL    HW158198   7.295   7.364   0.413  0.5820 -1.2383  0.8231
17454SOL    HW258199   7.172   7.420   0.481 -0.7708  0.1599 -2.5562
17455SOL     OW58200   9.600   2.112   9.605 -0.3600  0.5444 -0.2833
17455SOL    HW158201   9.569   2.093   9.516  0.3905 -1.0763 -0.2284
17455SOL    HW258202   9.524   2.098   9.661 -0.5813  0.6158 -0.5657
17456SOL     OW58203   2.720   8.574   9.717 -0.4956 -0.2433  0.0288
17456SOL    HW158204   2.698   8.662   9.687 -0.9144 -0.8023 -1.3883
17456SOL    HW258205   2.663   8.516   9.667  0.1236 -1.3530  0.5620
17457SOL     OW58206  10.346   8.853   3.531 -0.2601 -0.1514 -0.3332
17457SOL    HW158207  10.392   8.769   3.521 -0.7661 -0.4202 -0.4138
17457SOL    HW258208  10.327   8.880   3.441 -1.2719 -0.6057 -0.2662
17458SOL     OW58209   1.819   8.924   3.768  0.8143  0.3660  0.4075
17458SOL    HW158210   1.829   8.941   3.861  0.1714 -2.1846  1.0071
17458SOL    HW258211   1.733   8.959   3.746  0.7365  0.4870  0.8941
17459SOL     OW58212   7.964   6.808  10.535 -0.2436  0.0277 -0.4714
17459SOL    HW158213   7.987   6.715  10.527  0.7298  0.3526 -1.5805
17459SOL    HW258214   7.957   6.839  10.445 -1.3803  0.8548 -0.1202
17460SOL     OW58215   9.669   8.554   1.621 -0.3394  0.0007  0.0270
17460SOL    HW158216   9.699   8.645   1.620  0.0806 -0.1482 -0.8640
17460SOL    HW258217   9.745   8.504   1.650  0.4450 -0.4090 -2.4988
17461SOL     OW58218   0.131   3.312   9.467 -0.1614 -0.7612  0.0757
17461SOL    HW158219   0.164   3.363   9.541 -0.3968 -0.5744  0.0534
17461SOL    HW258220   0.161   3.223   9.484  0.1680 -0.6345  0.1676
17462SOL     OW58221   7.239   2.753   9.919  0.1068  0.2759  0.2552
17462SOL    HW158222   7.160   2.775   9.969  0.2365 -0.9024  1.0170
17462SOL    HW258223   7.301   2.722   9.985  0.8825  0.3108 -0.4492
17463SOL     OW58224   8.296   4.171   6.578  0.4775  0.0487  0.1745
17463SOL    HW158225   8.368   4.199   6.634  1.2467 -0.2450 -0.6581
17463SOL    HW258226   8.305   4.223   6.498  0.5697 -0.9389 -0.4715
17464SOL     OW58227   6.111   7.203   5.993  0.0889 -0.2355  0.1661
17464SOL    HW158228   6.163   7.281   5.971 -1.6688  0.5670 -1.3872
17464SOL    HW258229   6.154   7.132   5.946  1.8185 -0.3134  1.7419
17465SOL     OW58230   4.167   2.456   9.844 -0.1222  0.4163  0.1827
17465SOL    HW158231   4.175   2.460   9.939 -0.3080 -0.6109  0.2604
17465SOL    HW258232   4.074   2.442   9.829 -0.0364  0.1632 -0.1261
17466SOL     OW58233   6.093   0.199   8.911 -0.2674  0.0287 -0.4745
17466SOL    HW158234   6.051   0.281   8.937 -0.4774 -0.0676 -0.5057
17466SOL    HW258235   6.055   0.133   8.970 -0.2495 -0.0785 -0.5820
17467SOL     OW58236   7.372   8.318   2.306  0.1176  0.3706  0.5307
17467SOL    HW158237   7.383   8.331   2.400 -0.5051 -1.6761  0.9464
17467SOL    HW258238   7.416   8.235   2.287 -1.3174 -0.1876 -0.6086
17468SOL     OW58239   6.407  10.091   0.348 -0.2047 -0.1259  0.4343
17468SOL    HW158240   6.428  10.025   0.414 -1.6840 -0.4137  0.6569
17468SOL    HW258241   6.373  10.041   0.274  2.4309  0.1012 -1.0447
17469SOL     OW58242   1.954   7.698  10.486  0.0607 -0.6045  0.2523
17469SOL    HW158243   1.918   7.638  10.421  1.0077 -1.7848  0.8033
17469SOL    HW258244   2.031   7.654  10.521  1.3510  1.3312  0.0058
17470SOL     OW58245   0.841   5.524   4.388  0.4389  0.7131 -0.4161
17470SOL    HW158246   0.887   5.508   4.470  1.2030  0.6164 -0.8517
17470SOL    HW258247   0.907   5.510   4.320 -0.3126  0.2508 -1.0791
17471SOL     OW58248   2.526   7.180   0.564 -0.0748  0.1299 -0.4576
17471SOL    HW158249   2.546   7.243   0.495 -0.4572  0.5185 -0.2251
17471SOL    HW258250   2.606   7.129   0.575  0.0017  0.0951 -1.1550
17472SOL     OW58251   2.330   5.891   0.169 -0.1020 -0.1469 -0.0916
17472SOL    HW158252   2.381   5.870   0.247  0.9322  1.0869 -0.3805
17472SOL    HW258253   2.306   5.807   0.131  0.3678 -0.7549  0.9362
17473SOL     OW58254   2.487   8.498   0.181  0.2977 -0.0461  0.3801
17473SOL    HW158255   2.501   8.461   0.094 -1.4152  0.0024  0.0535
17473SOL    HW258256   2.529   8.436   0.240 -1.6700 -2.1136 -0.2179
17474SOL     OW58257   4.001   0.693   8.402  0.2228  0.4179 -0.4350
17474SOL    HW158258   3.968   0.739   8.325 -1.8057  0.6305  0.4676
17474SOL    HW258259   3.999   0.600   8.377 -0.9301  0.4420 -0.4984
17475SOL     OW58260   6.957   1.053   9.408  0.4141 -0.1369  0.3434
17475SOL    HW158261   6.907   0.993   9.462 -0.9330  0.8266  0.2238
17475SOL    HW258262   7.016   0.997   9.357 -1.3680 -1.4473 -0.3851
17476SOL     OW58263   3.919   1.465   0.139  0.3940 -0.5237  0.0313
17476SOL    HW158264   3.972   1.433   0.067  0.5924 -0.7412  0.2740
17476SOL    HW258265   3.961   1.430   0.218  0.9331  0.7598  0.3367
17477SOL     OW58266   9.748   3.677   8.884 -0.2675  0.1313  0.3445
17477SOL    HW158267   9.671   3.677   8.827  1.0136 -0.6293 -1.5055
17477SOL    HW258268   9.812   3.731   8.837  0.0878  1.4278  2.2384
17478SOL     OW58269   5.161  10.202  10.247 -0.3973  0.1341  0.1162
17478SOL    HW158270   5.187  10.121  10.291  0.3569  0.8278  0.9870
17478SOL    HW258271   5.099  10.173  10.180 -0.6347 -1.0923  0.8220
17479SOL     OW58272  10.599   2.630   0.024 -0.3073 -0.1933 -0.3512
17479SOL    HW158273  10.627   2.548  -0.015  1.4404  0.3704 -0.3689
17479SOL    HW258274  10.590   2.612   0.117 -0.7780 -0.6038 -0.4732
17480SOL     OW58275   4.914   5.717   7.700 -0.1933  0.2350 -0.4087
17480SOL    HW158276   4.940   5.627   7.720 -1.3818  0.1561  0.9144
17480SOL    HW258277   4.997   5.762   7.681  0.7342 -0.5117  1.5558
17481SOL     OW58278   2.955   0.559  10.512  0.2376  0.2319  0.2066
17481SOL    HW158279   2.915   0.496  10.572 -1.0778  0.3858 -0.4717
17481SOL    HW258280   2.908   0.641  10.529  1.4203  0.8522  0.5570
17482SOL     OW58281   9.523   9.174   9.713  0.3788 -0.6813 -0.2776
17482SOL    HW158282   9.464   9.230   9.764 -0.1797 -1.3354 -0.1847
17482SOL    HW258283   9.531   9.094   9.766  1.2794 -0.6419 -0.3394
17483SOL     OW58284   4.351   2.276   4.265 -0.2411  0.0778 -0.1035
17483SOL    HW158285   4.412   2.215   4.223 -2.2794 -1.7940 -0.4739
17483SOL    HW258286   4.295   2.306   4.194  0.9758  2.8655 -0.0265
17484SOL     OW58287   1.646   1.143   7.704 -0.3129 -0.1310 -0.0848
17484SOL    HW158288   1.592   1.075   7.665  0.1980 -1.0684  0.8009
17484SOL    HW258289   1.716   1.096   7.749 -0.0857  0.9582  0.7570
17485SOL     OW58290   1.177   3.720   7.585  0.5997  0.3205 -0.0133
17485SOL    HW158291   1.242   3.791   7.588  1.0556  0.0745 -2.1921
17485SOL    HW258292   1.094   3.763   7.605  0.8889  1.4957 -1.1654
17486SOL     OW58293   7.849   4.567   3.379 -0.0301 -0.0529 -0.8506
17486SOL    HW158294   7.895   4.535   3.302  0.2238 -0.7299 -0.4236
17486SOL    HW258295   7.913   4.623   3.423  0.0746 -0.2519 -0.7478
17487SOL     OW58296   2.442   3.834   2.602  0.2265  0.3317  0.0024
17487SOL    HW158297   2.524   3.876   2.625  0.2961 -0.3696  1.1611
17487SOL    HW258298   2.432   3.847   2.508  1.0341  1.4976  0.0698
17488SOL     OW58299   4.202   5.144   3.470  0.0610  0.1989  0.0950
17488SOL    HW158300   4.212   5.237   3.490 -0.6835  0.4957 -0.8326
17488SOL    HW258301   4.187   5.141   3.375 -1.0046 -0.7604  0.2665
17489SOL     OW58302   4.449   7.107   8.285 -0.0500 -0.1943  0.7246
17489SOL    HW158303   4.478   7.017   8.298  1.4004 -0.2035 -1.9441
17489SOL    HW258304   4.520   7.160   8.322  0.1522 -0.1668  0.2983
17490SOL     OW58305   6.822   2.755   6.109  0.4693  0.2374 -0.9648
17490SOL    HW158306   6.902   2.808   6.102 -0.5663  1.6603 -3.0148
17490SOL    HW258307   6.845   2.672   6.068  0.6329  1.0338 -2.5657
17491SOL     OW58308   4.088   0.193   1.082  0.1104 -0.3453  0.0607
17491SOL    HW158309   4.078   0.224   1.172  0.2968 -0.9550  0.3017
17491SOL    HW258310   4.015   0.133   1.069  1.2305 -1.8684  0.5334
17492SOL     OW58311   8.617   1.377   8.838  0.2521  0.2716 -0.1378
17492SOL    HW158312   8.665   1.300   8.868 -0.0740  0.8818  2.2145
17492SOL    HW258313   8.636   1.444   8.905 -1.6651  1.3617 -0.6187
17493SOL     OW58314   7.079   9.477   7.795  0.0525 -0.7264 -0.3765
17493SOL    HW158315   7.034   9.430   7.725 -0.2111 -0.1722 -0.5838
17493SOL    HW258316   7.109   9.559   7.754  0.4294 -0.6745 -0.0020
17494SOL     OW58317   8.135   5.774   8.709  0.3778  0.4306  0.0357
17494SOL    HW158318   8.221   5.810   8.688  0.2227  0.7130 -0.1127
17494SOL    HW258319   8.139   5.684   8.677  0.5162  0.5291 -0.2274
17495SOL     OW58320   8.212   2.869  10.294 -0.1344 -0.6190 -0.5751
17495SOL    HW158321   8.153   2.897  10.224  0.2299  0.1548 -0.5896
17495SOL    HW258322   8.182   2.917  10.371  0.3081 -0.4146 -0.5245
17496SOL     OW58323   4.150   0.531   6.772  0.4054  0.0703  0.5274
17496SOL    HW158324   4.176   0.439   6.781 -0.8070 -0.3711 -0.2902
17496SOL    HW258325   4.091   0.532   6.697 -1.3922  1.1267  1.8739
17497SOL     OW58326   9.657   1.133   5.253 -0.3463 -0.1002 -0.0605
17497SOL    HW158327   9.642   1.227   5.252  0.3232  0.0309  0.7767
17497SOL    HW258328   9.728   1.121   5.316  1.3238 -0.9158 -1.9793
17498SOL     OW58329  10.562   9.778   2.395  0.2264  0.8001  0.0166
17498SOL    HW158330  10.604   9.704   2.351 -1.4979  0.0320 -0.4325
17498SOL    HW258331  10.622   9.802   2.465  0.5521 -1.4290  0.5602
17499SOL     OW58332  10.490   2.534   1.495  0.4840 -0.0596 -0.4463
17499SOL    HW158333  10.427   2.589   1.541 -0.4471 -1.1247 -0.4068
17499SOL    HW258334  10.489   2.451   1.543  1.8467 -0.1408 -0.5116
17500SOL     OW58335   6.576   7.895   1.532 -0.3725  0.5461 -0.1039
17500SOL    HW158336   6.580   7.801   1.515 -0.6724  0.6005 -0.4957
17500SOL    HW258337   6.668   7.923   1.534 -0.3032  0.4572 -1.2428
17501SOL     OW58338   2.351   7.144   4.937 -0.0488 -0.4571  0.2405
17501SOL    HW158339   2.440   7.169   4.913  0.0154 -0.5267  0.3995
17501SOL    HW258340   2.319   7.094   4.862 -0.3015  0.3759 -0.2212
17502SOL     OW58341   2.450   0.694   1.313 -0.1598  0.4028  0.2128
17502SOL    HW158342   2.545   0.701   1.302  0.0268 -1.6008  0.2174
17502SOL    HW258343   2.414   0.751   1.245  1.0358  0.9572  0.0116
17503SOL     OW58344   8.842   0.059   7.303  0.1796  0.3174  0.5753
17503SOL    HW158345   8.840   0.087   7.211  0.9175  0.7087  0.6758
17503SOL    HW258346   8.876  -0.031   7.300 -1.2573 -0.2530  0.3421
17504SOL     OW58347   3.916   3.060   7.450 -0.6999 -0.2519 -0.0899
17504SOL    HW158348   3.877   3.146   7.465 -0.2895  0.1979 -1.4612
17504SOL    HW258349   3.923   3.021   7.537 -1.4462  0.8568  0.4827
17505SOL     OW58350   4.860   5.746   9.373  0.0790 -0.4610 -0.0827
17505SOL    HW158351   4.771   5.781   9.364  1.2857  2.5488 -1.5659
17505SOL    HW258352   4.880   5.711   9.286  0.7205 -0.1271 -0.0700
17506SOL     OW58353   9.162   8.311   1.835  0.2679  0.5356  0.0286
17506SOL    HW158354   9.199   8.346   1.753  0.6960 -3.0308 -1.4665
17506SOL    HW258355   9.070   8.335   1.831  0.7841  2.7220 -0.1044
17507SOL     OW58356   8.255   5.274   5.986  0.3982  0.0032  0.2618
17507SOL    HW158357   8.168   5.275   5.948  0.5185  2.4704 -0.1309
17507SOL    HW258358   8.263   5.189   6.027 -0.7415 -1.8228 -2.9481
17508SOL     OW58359   6.327   3.035   9.195 -0.1567  0.7105 -0.0664
17508SOL    HW158360   6.365   2.985   9.267  0.2394  0.5682 -0.3733
17508SOL    HW258361   6.392   3.103   9.175 -1.4498  2.5139  1.5364
17509SOL     OW58362  10.065   2.813   9.907 -0.1861 -0.2270 -0.2924
17509SOL    HW158363  10.160   2.809   9.909 -0.1925 -0.4949 -0.5752
17509SOL    HW258364  10.040   2.771   9.825 -0.5871 -1.0116  0.2203
17510SOL     OW58365   9.141   0.493   6.461 -0.5437 -0.0857 -0.2897
17510SOL    HW158366   9.091   0.465   6.538 -2.0653 -0.2813 -1.3014
17510SOL    HW258367   9.083   0.476   6.387  0.3880  1.2556 -1.3829
17511SOL     OW58368   7.763   4.858   6.424  0.1592  0.5888  0.7164
17511SOL    HW158369   7.686   4.906   6.455 -1.5099 -2.1440  1.1740
17511SOL    HW258370   7.810   4.833   6.504  0.0795  0.0625  0.6045
17512SOL     OW58371   1.233   2.809   4.836  0.0137  0.2534  0.4460
17512SOL    HW158372   1.153   2.779   4.794  0.4768 -1.1645  0.5254
17512SOL    HW258373   1.299   2.745   4.810  0.6825  0.2769  1.9687
17513SOL     OW58374   8.908   0.827   0.690 -0.3897  0.4103  0.3634
17513SOL    HW158375   8.884   0.770   0.764  2.1656 -0.3411  0.7172
17513SOL    HW258376   8.887   0.915   0.721 -1.7093 -0.0770  0.9585
17514SOL     OW58377   3.432   8.150   6.926 -0.0359  0.7210 -0.2859
17514SOL    HW158378   3.431   8.245   6.928  0.3726  0.8322 -2.4655
17514SOL    HW258379   3.518   8.125   6.959  0.3121  1.1951 -0.8109
17515SOL     OW58380   7.027   5.944   9.458 -0.1096  0.1326 -0.2975
17515SOL    HW158381   7.011   6.026   9.505  1.0440 -0.7739  1.8210
17515SOL    HW258382   6.942   5.899   9.457  0.0593 -0.3418  2.0644
17516SOL     OW58383   5.329   9.261   9.003  0.1540  0.4597 -0.1797
17516SOL    HW158384   5.337   9.226   8.914 -0.8335 -0.8979  0.2361
17516SOL    HW258385   5.296   9.350   8.991 -1.5274 -0.2619 -1.1425
17517SOL     OW58386   7.811   0.072   7.665 -0.0901  0.2794  0.0658
17517SOL    HW158387   7.811  -0.016   7.629 -1.3766  0.5219 -0.5964
17517SOL    HW258388   7.783   0.061   7.756  1.1335 -0.1206  0.4111
17518SOL     OW58389   7.691   9.786   3.752  0.7073  0.1567  0.0407
17518SOL    HW158390   7.735   9.751   3.830  0.8270 -0.2809 -0.2197
17518SOL    HW258391   7.655   9.708   3.709 -1.2154  0.5802  0.7748
17519SOL     OW58392   1.153   1.743   8.789 -0.9430  0.1060  0.1347
17519SOL    HW158393   1.162   1.654   8.757 -1.0062  0.5071 -1.0724
17519SOL    HW258394   1.062   1.751   8.817 -0.6403 -0.5366  1.3586
17520SOL     OW58395   1.795   2.109   3.974 -0.0349  0.0296  0.0862
17520SOL    HW158396   1.889   2.117   3.956  0.6109 -0.0330  2.9272
17520SOL    HW258397   1.786   2.023   4.015 -1.6194 -0.5917 -1.4709
17521SOL     OW58398   8.587   8.871   4.095 -0.0301 -0.5100  0.2055
17521SOL    HW158399   8.558   8.842   4.182  0.3256  0.3898  0.6389
17521SOL    HW258400   8.681   8.855   4.094 -0.1766 -1.3826 -0.3732
17522SOL     OW58401   1.644  10.260   1.148 -0.2810  0.9593 -0.4254
17522SOL    HW158402   1.696  10.338   1.168  0.2948  0.1964  1.2831
17522SOL    HW258403   1.706  10.187   1.155 -1.0706  0.2382 -0.7226
17523SOL     OW58404   6.343   4.226   4.244 -0.1049 -0.3273 -1.0682
17523SOL    HW158405   6.302   4.270   4.169  1.8540 -1.7559 -3.1098
17523SOL    HW258406   6.436   4.247   4.236  0.1887 -0.6520  0.9373
17524SOL     OW58407   3.380   6.373   8.437 -0.4065 -0.0939 -0.0122
17524SOL    HW158408   3.355   6.326   8.516  0.1187 -1.6321 -0.7268
17524SOL    HW258409   3.306   6.431   8.419 -0.7560 -0.0980  1.3027
17525SOL     OW58410  10.590   5.403   5.744  0.0665  0.0967  0.0407
17525SOL    HW158411  10.538   5.352   5.681  0.8839 -1.3816  0.5118
17525SOL    HW258412  10.633   5.337   5.798 -0.2086  1.3207  1.8523
17526SOL     OW58413   7.415   1.542   9.397  0.7099 -0.1976  0.1550
17526SOL    HW158414   7.356   1.468   9.405  0.0339  0.3994  0.8430
17526SOL    HW258415   7.414   1.564   9.304 -1.0961  0.5266  0.3043
17527SOL     OW58416  10.051   5.192   0.706 -0.0408 -0.2585 -0.1000
17527SOL    HW158417  10.011   5.119   0.659 -0.8828 -0.4436  0.8619
17527SOL    HW258418  10.026   5.178   0.798 -2.2874  2.4810 -0.1451
17528SOL     OW58419   1.031   9.599   8.899 -0.3507 -0.4282 -0.0367
17528SOL    HW158420   0.992   9.536   8.960 -0.1854 -0.0287  0.4832
17528SOL    HW258421   0.957   9.652   8.869 -0.3222 -0.1500  0.3812
17529SOL     OW58422  10.369   8.874   9.277 -0.1088 -0.0182 -0.0822
17529SOL    HW158423  10.317   8.824   9.340 -0.2581  1.9495  1.4560
17529SOL    HW258424  10.457   8.838   9.283 -0.3869 -0.6317  0.3591
17530SOL     OW58425   6.587   2.353   5.979 -0.2386  0.8208 -0.4765
17530SOL    HW158426   6.519   2.366   5.913 -1.0207  0.2000  0.1880
17530SOL    HW258427   6.539   2.333   6.059  0.7511 -0.2782 -0.1416
17531SOL     OW58428   4.789   2.055   1.575 -0.3911  0.3935  0.1678
17531SOL    HW158429   4.809   2.122   1.509  0.1761  0.4062  0.3436
17531SOL    HW258430   4.743   1.987   1.527  2.6191 -1.0371 -0.9544
17532SOL     OW58431   7.973   2.177   6.112  0.1000 -0.0241 -0.1277
17532SOL    HW158432   7.911   2.200   6.043 -0.7041  0.9166  0.8655
17532SOL    HW258433   7.972   2.082   6.115 -1.7992 -0.0328  0.2772
17533SOL     OW58434   7.284   6.517   1.210  0.1877 -0.0503  0.5281
17533SOL    HW158435   7.285   6.560   1.124 -2.6569 -0.1751  0.3212
17533SOL    HW258436   7.208   6.556   1.255 -1.4635 -3.4566  1.0312
17534SOL     OW58437   5.927   4.571   8.171 -0.0847  0.6966 -0.9822
17534SOL    HW158438   5.952   4.542   8.258  1.6383  2.4336 -0.8446
17534SOL    HW258439   5.942   4.665   8.172  1.2066  0.5910 -3.5429
17535SOL     OW58440   6.501   2.227   9.655 -0.4784 -0.0887  0.0420
17535SOL    HW158441   6.500   2.144   9.701  0.2942  0.8278  1.8097
17535SOL    HW258442   6.549   2.209   9.574  0.7969 -1.1067  0.9818
17536SOL     OW58443   6.236   5.730   7.959 -0.3928 -0.0297 -0.4911
17536SOL    HW158444   6.195   5.740   8.045 -0.2943  0.5178 -0.5001
17536SOL    HW258445   6.220   5.639   7.935 -2.0814  0.3034 -0.7512
17537SOL     OW58446   8.131   2.667   6.764 -0.2623  0.5319  0.2230
17537SOL    HW158447   8.214   2.716   6.770 -1.7150  3.4367 -1.2643
17537SOL    HW258448   8.136   2.623   6.679 -0.3448  0.9186  0.0161
17538SOL     OW58449   7.213   6.325   6.533 -0.1182 -0.1494  0.1680
17538SOL    HW158450   7.145   6.361   6.589 -1.4779 -0.8955 -0.9262
17538SOL    HW258451   7.267   6.400   6.508 -0.2234  0.3710  1.4599
17539SOL     OW58452  10.169   7.747   9.339  0.1776 -0.6092  0.1142
17539SOL    HW158453  10.116   7.675   9.306  0.9379 -0.4181 -1.6229
17539SOL    HW258454  10.178   7.807   9.265 -1.4158  1.9406  1.8254
17540SOL     OW58455   0.813   4.572   4.537  0.5001 -0.5581  0.1421
17540SOL    HW158456   0.764   4.491   4.520 -2.3741  1.0015  0.3917
17540SOL    HW258457   0.761   4.619   4.601  2.2972  1.3507  0.3096
17541SOL     OW58458   5.105   2.814   5.328  0.2506  0.0082 -0.1776
17541SOL    HW158459   5.102   2.908   5.346 -1.5669 -0.0477 -0.0033
17541SOL    HW258460   5.046   2.802   5.253  0.3880 -1.0099 -0.1390
17542SOL     OW58461   2.985   2.991   9.791 -0.7868  0.2617  0.5437
17542SOL    HW158462   3.040   2.936   9.737 -1.2625 -0.0407  0.3599
17542SOL    HW258463   3.045   3.033   9.852 -0.4611 -0.7610  0.9460
17543SOL     OW58464   5.270   8.688   6.791 -0.2061  0.7953  0.1006
17543SOL    HW158465   5.288   8.637   6.712  0.2369 -0.7835  1.1730
17543SOL    HW258466   5.213   8.633   6.843  0.1816  1.4521  1.2557
17544SOL     OW58467   7.645   2.776   5.803  0.0041 -0.1566 -0.6740
17544SOL    HW158468   7.740   2.784   5.813  0.1398  0.6590 -2.1863
17544SOL    HW258469   7.628   2.682   5.806  1.0238 -0.3927 -1.4644
17545SOL     OW58470   7.692   3.480   1.132 -0.1053 -0.3401 -0.3951
17545SOL    HW158471   7.599   3.493   1.113 -0.5511 -1.0327  1.1780
17545SOL    HW258472   7.724   3.566   1.158 -0.7087 -0.4275  0.6571
17546SOL     OW58473   3.305   3.975   0.363 -0.2735  0.3607 -0.3574
17546SOL    HW158474   3.288   4.068   0.349 -0.3772  0.0198 -2.8624
17546SOL    HW258475   3.228   3.943   0.410  0.0753  1.6185  1.1796
17547SOL     OW58476   9.887   7.884   9.081 -0.4034  0.2980  0.2887
17547SOL    HW158477   9.929   7.846   9.004 -0.4817  2.4500 -0.8820
17547SOL    HW258478   9.804   7.836   9.089  0.5546 -1.4015  0.3621
17548SOL     OW58479   8.229   4.611   1.975  0.3976 -0.2102  0.8137
17548SOL    HW158480   8.163   4.676   2.000  0.5828  0.2914  0.0648
17548SOL    HW258481   8.178   4.537   1.942  0.1951  0.1327  0.3390
17549SOL     OW58482   2.109   3.074   8.036 -0.1091 -0.3668 -0.2451
17549SOL    HW158483   2.099   2.979   8.033 -0.2307 -0.3560 -0.2061
17549SOL    HW258484   2.201   3.088   8.058  0.2199 -0.4653 -1.4641
17550SOL     OW58485   9.201   5.617   0.943  0.3328 -0.4216 -0.2264
17550SOL    HW158486   9.113   5.585   0.921  0.2468 -0.7451  0.5627
17550SOL    HW258487   9.247   5.541   0.977  0.9727 -0.2831 -0.7744
17551SOL     OW58488   1.667   8.969   1.942 -0.0857  0.5606  0.4681
17551SOL    HW158489   1.672   8.906   2.014  0.2955  2.7578  2.5181
17551SOL    HW258490   1.580   8.957   1.906 -1.0952  0.6870  2.6799
17552SOL     OW58491   3.924   9.716   1.516  0.6050 -0.3620 -0.1188
17552SOL    HW158492   3.886   9.696   1.431  1.2058 -3.7492  0.2580
17552SOL    HW258493   4.010   9.673   1.514  0.8588 -0.0640  1.9844
17553SOL     OW58494   5.856   3.330   4.353 -0.3053 -0.2990 -0.1497
17553SOL    HW158495   5.945   3.365   4.358 -0.2794 -0.4290  0.2887
17553SOL    HW258496   5.857   3.273   4.276  0.0312 -0.4285 -0.0484
17554SOL     OW58497   5.867   1.268   0.354 -0.4041  0.0764  0.4919
17554SOL    HW158498   5.948   1.237   0.313  0.8222  0.4450  2.5115
17554SOL    HW258499   5.888   1.357   0.383 -1.3014 -0.0731  1.6534
17555SOL     OW58500   1.714   1.261   4.426 -0.4721 -0.7152  0.8241
17555SOL    HW158501   1.755   1.347   4.415  0.8254 -1.3822  0.2398
17555SOL    HW258502   1.694   1.256   4.519 -0.8925  0.3589  0.8108
17556SOL     OW58503   3.518   4.708   6.713  0.8616  0.0244 -0.1318
17556SOL    HW158504   3.538   4.621   6.678  2.2569 -0.2516  1.2429
17556SOL    HW258505   3.583   4.721   6.782 -0.2335  1.5804  0.6446
17557SOL     OW58506   0.549   8.186   0.187 -0.3014 -0.4022  0.3044
17557SOL    HW158507   0.487   8.249   0.148  0.2652  1.0954  1.6841
17557SOL    HW258508   0.565   8.122   0.118 -1.3025  0.6984 -1.0133
17558SOL     OW58509   2.966   2.085   0.246  0.3779  0.0753 -0.2032
17558SOL    HW158510   2.978   2.144   0.320  2.0065 -1.2280  0.6566
17558SOL    HW258511   2.923   2.008   0.283 -0.8334  0.2806 -1.1060
17559SOL     OW58512   0.757   7.237   8.777  0.5043 -0.6850  0.3787
17559SOL    HW158513   0.735   7.144   8.786  0.8510 -1.0196 -1.6447
17559SOL    HW258514   0.834   7.237   8.720  0.9263  0.8273  0.9171
17560SOL     OW58515   4.317   6.989   0.124 -0.2074 -0.1395  0.5417
17560SOL    HW158516   4.347   7.015   0.036 -0.8276 -0.2351  0.2976
17560SOL    HW258517   4.358   6.903   0.138  2.3796  1.1428  1.6159
17561SOL     OW58518   1.769   3.056   4.152 -0.1740 -0.3291 -0.6266
17561SOL    HW158519   1.843   3.000   4.172 -0.5103 -0.3035  0.7715
17561SOL    HW258520   1.705   3.038   4.221 -0.2473  1.8655 -0.0585
17562SOL     OW58521   2.807   6.232   2.596  0.2306  0.2862  0.6257
17562SOL    HW158522   2.787   6.274   2.680 -1.5783 -1.2553  1.0405
17562SOL    HW258523   2.813   6.139   2.618 -0.8497 -0.2078 -1.0223
17563SOL     OW58524   7.941   1.384   6.005  0.3991  0.0015 -0.4270
17563SOL    HW158525   7.935   1.368   6.100  1.5342 -1.1920 -0.5232
17563SOL    HW258526   7.948   1.297   5.967  0.5361  0.4972 -1.5639
17564SOL     OW58527  10.289   3.869   8.727  0.3698 -0.2220 -0.1522
17564SOL    HW158528  10.300   3.958   8.760 -1.1855 -0.0253 -0.1150
17564SOL    HW258529  10.201   3.867   8.689  0.3561 -1.7500 -0.1210
17565SOL     OW58530   8.171   4.477   4.440  0.2836 -0.0924 -0.2990
17565SOL    HW158531   8.204   4.393   4.471 -2.4990 -1.1845 -0.0591
17565SOL    HW258532   8.236   4.541   4.471  1.6311 -1.9430  0.8959
17566SOL     OW58533   6.125   6.646   4.581  0.2654 -0.0335 -0.1338
17566SOL    HW158534   6.141   6.716   4.519  0.8586  0.2431  0.3209
17566SOL    HW258535   6.159   6.679   4.664 -0.1713 -0.5444  0.2590
17567SOL     OW58536   0.256   4.768   2.894 -0.2673 -0.4528 -0.6457
17567SOL    HW158537   0.304   4.850   2.902  0.5341 -0.9842  0.1170
17567SOL    HW258538   0.165   4.795   2.876  0.0634  0.5813 -0.8220
17568SOL     OW58539   6.368   4.231   6.121  0.1941 -0.4187 -0.7845
17568SOL    HW158540   6.335   4.147   6.153  1.2140 -0.3579  0.5187
17568SOL    HW258541   6.289   4.277   6.091 -0.8888 -0.5343  1.6158
17569SOL     OW58542   6.942   2.292   3.977  0.3060  0.0415  0.1964
17569SOL    HW158543   6.989   2.357   4.030  0.2608 -2.5297  3.7683
17569SOL    HW258544   6.850   2.316   3.987  0.4232  2.0021 -2.4327
17570SOL     OW58545   6.423   0.552   3.937  0.1261  0.2329 -0.7340
17570SOL    HW158546   6.330   0.552   3.959 -0.0828  1.1458 -1.5582
17570SOL    HW258547   6.462   0.487   3.995 -0.5571  1.7930  1.5755
17571SOL     OW58548  10.341   1.544   1.057 -0.4712  0.3609 -0.3785
17571SOL    HW158549  10.277   1.517   1.123 -0.3721 -1.1652 -0.8725
17571SOL    HW258550  10.425   1.521   1.095 -0.4836 -2.3010 -1.7172
17572SOL     OW58551   2.028   2.395   8.261  0.1191  0.2587  0.1059
17572SOL    HW158552   1.937   2.389   8.233  0.0457 -0.4901  0.4578
17572SOL    HW258553   2.024   2.387   8.357  0.5291  0.5034  0.1433
17573SOL     OW58554   4.531   2.458   8.934  0.0711  0.0289  0.8839
17573SOL    HW158555   4.551   2.386   8.873  2.1339  0.7031  0.6721
17573SOL    HW258556   4.492   2.415   9.010  2.4876 -1.5438  1.3418
17574SOL     OW58557   8.400   9.241   3.143 -0.3681  0.3476  0.3007
17574SOL    HW158558   8.337   9.312   3.151  1.1543  2.1739 -2.1802
17574SOL    HW258559   8.394   9.214   3.051  1.1080 -0.7113  0.4763
17575SOL     OW58560   9.905   6.516  10.329  0.3472  0.3554  0.1082
17575SOL    HW158561   9.868   6.588  10.381 -1.2022 -0.5747  0.3522
17575SOL    HW258562   9.830   6.479  10.283  0.9874 -1.4883  0.4551
17576SOL     OW58563   9.950   4.729   1.020 -0.6336  0.0613 -0.1758
17576SOL    HW158564   9.959   4.718   0.925 -2.5158  2.7329 -0.7601
17576SOL    HW258565   9.907   4.648   1.049  0.1339 -0.8733 -1.5141
17577SOL     OW58566   9.670   0.868   2.162 -0.3524  0.4535  0.3236
17577SOL    HW158567   9.672   0.842   2.253  1.3262 -0.3747  0.0723
17577SOL    HW258568   9.580   0.901   2.149 -0.9146 -0.3160  1.9852
17578SOL     OW58569   9.539   4.771   3.276 -0.2757 -0.3013  0.1972
17578SOL    HW158570   9.607   4.750   3.340 -0.8603  0.6933  1.1635
17578SOL    HW258571   9.587   4.779   3.193  0.4279 -2.0621  0.3782
17579SOL     OW58572   6.074   3.013   1.388  0.2451  0.3428  0.4708
17579SOL    HW158573   6.048   2.959   1.462  1.5151 -0.0292  0.6768
17579SOL    HW258574   6.115   3.090   1.427  2.3662 -0.5710  0.2352
17580SOL     OW58575   2.717   3.117   2.507 -0.3429 -0.1987  0.0326
17580SOL    HW158576   2.671   3.128   2.590  0.5844 -1.5538  0.7624
17580SOL    HW258577   2.791   3.179   2.513 -0.4044 -0.1322  0.1147
17581SOL     OW58578   3.017  10.623   0.360  0.3422  0.5477 -0.6025
17581SOL    HW158579   2.967  10.542   0.356  2.0571 -0.5859 -0.0411
17581SOL    HW258580   2.950  10.692   0.363 -1.1732 -0.8871  0.2797
17582SOL     OW58581   4.119  10.134   1.998  0.4968  0.0831  0.5102
17582SOL    HW158582   4.024  10.144   1.989  0.5219 -0.5597 -0.6404
17582SOL    HW258583   4.149  10.112   1.910  2.2996  4.5038 -0.2629
17583SOL     OW58584   8.212   2.632   7.091  0.2434  0.4303  0.0777
17583SOL    HW158585   8.249   2.665   7.173 -0.1714 -3.3670  2.0730
17583SOL    HW258586   8.126   2.674   7.085 -0.4025 -0.2985  2.5805
17584SOL     OW58587  10.048   6.676   9.043  0.6383 -0.4559  0.3381
17584SOL    HW158588  10.115   6.711   9.101 -1.5426  0.6188  2.3863
17584SOL    HW258589   9.978   6.648   9.101 -1.6096  0.4666 -1.7386
17585SOL     OW58590   6.466   9.273   8.886 -0.2455  0.0107 -0.2109
17585SOL    HW158591   6.389   9.232   8.927 -0.0764  0.9633  1.1436
17585SOL    HW258592   6.541   9.233   8.930 -0.0439  0.7736  0.1575
17586SOL     OW58593   9.726   0.722   0.258 -0.3077 -0.1946 -0.0441
17586SOL    HW158594   9.751   0.774   0.181 -1.2095 -0.3101 -0.4327
17586SOL    HW258595   9.712   0.634   0.224  0.3453 -0.4994  0.4576
17587SOL     OW58596   1.951   0.785  10.216  0.1340 -0.3655 -0.0057
17587SOL    HW158597   2.045   0.780  10.231  0.1041  0.3161  0.4138
17587SOL    HW258598   1.936   0.874  10.184 -0.3948 -0.3990  0.1370
17588SOL     OW58599   8.718   3.397   9.140 -0.4779 -0.8061 -0.2773
17588SOL    HW158600   8.729   3.397   9.235  1.2500 -0.8529 -0.4421
17588SOL    HW258601   8.651   3.462   9.123 -0.8017 -0.7888  0.9763
17589SOL     OW58602   2.261   3.762   4.638  0.7542  0.0372  0.2907
17589SOL    HW158603   2.249   3.732   4.547 -1.7976  0.7686  0.3006
17589SOL    HW258604   2.250   3.683   4.690  2.0622 -0.3580  0.0073
17590SOL     OW58605   7.491   3.449   0.894  0.2635  0.4389 -0.3913
17590SOL    HW158606   7.431   3.434   0.967 -0.3463 -0.4728 -1.0548
17590SOL    HW258607   7.436   3.489   0.826  0.5514  0.1932 -0.7733
17591SOL     OW58608   1.112   0.366   6.129 -0.0655  0.2374  0.2906
17591SOL    HW158609   1.130   0.294   6.069 -1.2907  1.5102 -1.7477
17591SOL    HW258610   1.021   0.353   6.155  0.0919  0.3615  0.9207
17592SOL     OW58611  10.564   9.347   3.619  0.4164 -0.4933 -0.0354
17592SOL    HW158612  10.567   9.253   3.635 -0.0350 -0.7389 -1.2305
17592SOL    HW258613  10.537   9.386   3.703  1.7877 -1.3020  0.7996
17593SOL     OW58614   6.161   5.580  10.225  0.1739 -0.6145  0.2912
17593SOL    HW158615   6.158   5.640  10.300 -1.8066  1.7169 -1.5103
17593SOL    HW258616   6.069   5.557  10.209  0.6433 -1.8341 -0.8707
17594SOL     OW58617   0.604   4.026   5.036  0.7649  0.2456 -0.4493
17594SOL    HW158618   0.548   3.950   5.021  1.2535 -1.0306  3.2354
17594SOL    HW258619   0.545   4.101   5.032 -0.8380 -0.8685  0.9853
17595SOL     OW58620   3.393   3.275   3.535 -0.3055 -0.0220  0.0459
17595SOL    HW158621   3.299   3.284   3.519 -0.0204  1.4003 -0.9399
17595SOL    HW258622   3.403   3.300   3.627 -0.6830  1.5173 -0.3124
17596SOL     OW58623   4.844   5.117   2.108  0.7618  1.0786 -0.0866
17596SOL    HW158624   4.937   5.124   2.085  0.5311  1.2158 -1.0329
17596SOL    HW258625   4.798   5.158   2.034 -0.0730  0.4896  0.0924
17597SOL     OW58626  10.175   5.683   0.614 -0.3106  0.2203  0.0909
17597SOL    HW158627  10.133   5.691   0.699  0.5517  0.2332  0.5310
17597SOL    HW258628  10.172   5.772   0.577  0.1359  0.4148  0.5134
17598SOL     OW58629   5.176  10.414   8.021  0.0857 -0.2448 -0.5271
17598SOL    HW158630   5.172  10.477   8.093  1.4895 -1.1571  0.4084
17598SOL    HW258631   5.208  10.465   7.946 -0.9321  0.6132 -0.3866
17599SOL     OW58632   2.681   4.494   2.984  0.4328  0.2256 -0.3674
17599SOL    HW158633   2.728   4.571   2.952 -0.5247 -0.1347 -2.8825
17599SOL    HW258634   2.723   4.420   2.940  0.2207 -0.5351  0.6746
17600SOL     OW58635   7.844   9.016   7.413  0.4424 -0.2115 -0.5305
17600SOL    HW158636   7.894   9.097   7.402  1.4419 -0.9337 -1.6746
17600SOL    HW258637   7.814   8.995   7.324  0.9976 -1.5600 -0.4229
17601SOL     OW58638   7.466   1.265   0.804  0.3642 -0.2343 -0.0737
17601SOL    HW158639   7.544   1.210   0.798  2.0720  1.9462  0.5234
17601SOL    HW258640   7.462   1.291   0.896 -1.3408 -0.6173 -0.0096
17602SOL     OW58641  10.144   0.894   9.960  0.0987 -0.2107  0.2605
17602SOL    HW158642  10.089   0.874   9.883 -0.2748  0.0662  0.4522
17602SOL    HW258643  10.228   0.922   9.923 -0.7910  2.1625 -0.1405
17603SOL     OW58644   0.928   1.870   1.175 -0.7266  0.2818  0.0339
17603SOL    HW158645   0.859   1.831   1.121 -0.2353  1.7648 -1.8024
17603SOL    HW258646   0.887   1.945   1.217 -0.6975  0.0617  0.4625
17604SOL     OW58647   5.771   0.432   2.548 -0.3705  0.7585 -0.5528
17604SOL    HW158648   5.844   0.492   2.559 -1.0115  1.7022 -1.2648
17604SOL    HW258649   5.769   0.414   2.454  0.3838 -1.1419 -0.2463
17605SOL     OW58650   1.119   7.487  10.236 -0.5624 -0.7000 -0.2949
17605SOL    HW158651   1.126   7.395  10.262 -0.5984 -0.8365 -0.7646
17605SOL    HW258652   1.201   7.526  10.265  0.3077 -1.3188 -1.8552
17606SOL     OW58653   4.520   8.017   7.058  0.4205 -0.3217 -0.4643
17606SOL    HW158654   4.476   8.101   7.070  0.8588 -0.2976  1.1361
17606SOL    HW258655   4.604   8.027   7.104  1.3881 -0.9470 -1.9990
17607SOL     OW58656   4.230   2.531   4.331 -0.1793  0.5337  0.2176
17607SOL    HW158657   4.247   2.491   4.416 -0.7595 -0.4245 -0.0949
17607SOL    HW258658   4.299   2.498   4.275 -0.8366 -0.3336 -0.1185
17608SOL     OW58659   5.610   0.664   6.157 -0.1785 -0.3029 -0.6310
17608SOL    HW158660   5.702   0.654   6.132  0.0447 -0.2981  0.1594
17608SOL    HW258661   5.562   0.659   6.074  0.6560  1.4162 -1.2769
17609SOL     OW58662   1.010   4.618   4.708 -0.0726  0.3245  0.4940
17609SOL    HW158663   0.950   4.600   4.636  0.8927  1.1593 -0.5628
17609SOL    HW258664   1.087   4.564   4.690  0.1005  0.3933  1.0096
17610SOL     OW58665   3.768   7.078   6.522 -0.1243  0.2023 -0.3225
17610SOL    HW158666   3.856   7.101   6.493  0.0485 -0.1004 -0.0553
17610SOL    HW258667   3.724   7.045   6.444  1.0279 -2.6733  0.1321
17611SOL     OW58668   3.947   2.319   2.263  0.5462  0.2471 -0.1700
17611SOL    HW158669   3.859   2.358   2.262  0.1953 -0.5264 -0.7501
17611SOL    HW258670   3.959   2.291   2.354  1.3137  2.7674  0.5660
17612SOL     OW58671   8.061  10.494   3.892  0.3744  0.5212  0.2791
17612SOL    HW158672   7.998  10.470   3.959  1.1291 -0.0130  0.8152
17612SOL    HW258673   8.045  10.433   3.820  1.7293 -1.1419  1.3031
17613SOL     OW58674   5.477  10.449   1.026  0.0613 -0.0741  0.0864
17613SOL    HW158675   5.497  10.399   0.947 -0.6526 -0.9888  0.4736
17613SOL    HW258676   5.560  10.456   1.072  0.1906 -0.8244 -0.0232
17614SOL     OW58677   8.461   0.167   5.875  0.3235  0.4087 -0.4522
17614SOL    HW158678   8.420   0.100   5.930  1.7455  0.8192  1.2214
17614SOL    HW258679   8.442   0.250   5.921 -0.4825  1.0594 -1.8951
17615SOL     OW58680   6.072   5.522   1.002 -0.1527 -0.5276  0.6593
17615SOL    HW158681   6.094   5.561   0.918  1.4503 -3.3384 -0.3484
17615SOL    HW258682   5.982   5.492   0.992 -1.0836  1.8112  1.1386
17616SOL     OW58683   5.226   4.457   9.460 -0.4671  0.2307  0.1460
17616SOL    HW158684   5.182   4.534   9.424 -3.2817 -1.1858  0.2891
17616SOL    HW258685   5.233   4.474   9.553 -1.7205  0.0708  0.2828
17617SOL     OW58686   9.167   5.656   2.729  0.3818 -0.3075  0.2389
17617SOL    HW158687   9.161   5.726   2.794  0.5356 -0.6629  0.6391
17617SOL    HW258688   9.098   5.595   2.754  0.9962 -0.8722  0.5859
17618SOL     OW58689   0.919   3.405   4.450 -0.4669 -0.2059  0.4126
17618SOL    HW158690   0.922   3.482   4.394 -0.1311 -0.3479  0.2330
17618SOL    HW258691   0.887   3.335   4.393  0.2544 -0.4407  0.2891
17619SOL     OW58692   9.995   2.086   4.324  0.1583  0.0864  0.2680
17619SOL    HW158693  10.017   2.059   4.414 -0.3150 -0.3764  0.2521
17619SOL    HW258694   9.969   2.004   4.281 -2.4704  0.6935  0.5482
17620SOL     OW58695   6.434   0.534   8.846 -0.4652  0.0226 -0.4318
17620SOL    HW158696   6.380   0.555   8.922  0.0325 -1.1418  0.2788
17620SOL    HW258697   6.484   0.614   8.830  0.2870 -0.0662  1.2321
17621SOL     OW58698   5.698   9.383   5.762 -0.0875  0.2970 -0.0986
17621SOL    HW158699   5.675   9.433   5.840 -2.1787 -1.4448  0.5015
17621SOL    HW258700   5.780   9.340   5.783 -1.5906 -1.7586  2.0386
17622SOL     OW58701   8.680   8.128   4.001  0.3021 -0.0557 -0.1174
17622SOL    HW158702   8.658   8.087   4.085 -2.2611  0.8769 -0.2356
17622SOL    HW258703   8.602   8.113   3.946  1.0372  1.2480 -1.5882
17623SOL     OW58704   9.864   0.095   4.343 -0.0501 -0.3967 -0.2647
17623SOL    HW158705   9.905   0.069   4.261  2.8857  0.0210  0.9611
17623SOL    HW258706   9.773   0.115   4.319  0.0127 -2.7267 -2.8938
17624SOL     OW58707   3.530   8.321   5.844 -0.0286 -0.7602  0.2257
17624SOL    HW158708   3.541   8.415   5.826 -1.7888 -0.6583 -0.5760
17624SOL    HW258709   3.569   8.277   5.769 -0.9887 -0.5720 -0.4046
17625SOL     OW58710   8.722   5.230   1.817  0.1791 -0.0514 -0.1355
17625SOL    HW158711   8.677   5.147   1.838  0.4936  0.4675  3.1820
17625SOL    HW258712   8.653   5.296   1.823  0.5763  0.2891  0.8755
17626SOL     OW58713   1.990   3.541   3.083 -0.4717  0.2281 -0.2566
17626SOL    HW158714   1.933   3.576   3.152 -1.0550 -0.1343 -0.5401
17626SOL    HW258715   2.038   3.616   3.050  0.1611  0.3392  0.8582
17627SOL     OW58716   6.454   3.116   7.510 -0.3169  0.7130 -0.5030
17627SOL    HW158717   6.518   3.046   7.521  0.6521  1.5555 -0.6555
17627SOL    HW258718   6.420   3.103   7.421 -0.5985  0.0821 -0.3131
17628SOL     OW58719   3.414   2.154   7.667  0.1805 -0.0392  0.0024
17628SOL    HW158720   3.415   2.151   7.763  1.8826 -2.1835 -0.0181
17628SOL    HW258721   3.321   2.153   7.644 -0.2441  0.0158  1.6183
17629SOL     OW58722   9.073   4.199   8.190 -0.5360 -0.0459 -0.1672
17629SOL    HW158723   9.073   4.282   8.143 -2.7561 -0.4446 -1.0284
17629SOL    HW258724   8.983   4.166   8.181 -0.0736 -1.9268  1.2473
17630SOL     OW58725   7.283   9.204   0.086  0.4945  0.0015  0.2997
17630SOL    HW158726   7.307   9.229  -0.004  2.0479 -0.8901  0.4288
17630SOL    HW258727   7.284   9.108   0.085 -0.7778 -0.0379  0.9628
17631SOL     OW58728   7.022   1.471   0.032  0.2646 -0.0279  0.3094
17631SOL    HW158729   7.105   1.437  -0.001 -0.1772 -0.7200 -0.1261
17631SOL    HW258730   7.041   1.561   0.059  0.7203  0.4830 -1.5625
17632SOL     OW58731  10.229   5.916  10.436 -0.2210 -0.3563  0.2444
17632SOL    HW158732  10.201   5.831  10.401 -1.4104 -0.3951  1.2405
17632SOL    HW258733  10.159   5.976  10.411  1.1935  0.6470 -1.5523
17633SOL     OW58734   8.712   4.726   5.716 -0.3992  0.2036 -0.6519
17633SOL    HW158735   8.767   4.764   5.648  0.4074 -1.7398 -1.1621
17633SOL    HW258736   8.731   4.777   5.794  2.4364 -0.5771 -0.7125
17634SOL     OW58737   8.793   6.673   1.150  0.1347  0.2895  0.2473
17634SOL    HW158738   8.736   6.650   1.224 -2.3971  2.1083 -0.9866
17634SOL    HW258739   8.853   6.738   1.186 -1.0884  1.1803  0.7485
17635SOL     OW58740   1.696   2.725   9.547  0.2038 -0.3207 -0.4941
17635SOL    HW158741   1.641   2.647   9.545 -0.2196 -0.0743  0.6945
17635SOL    HW258742   1.782   2.695   9.519 -0.1935 -1.0063 -0.9991
17636SOL     OW58743   5.905   4.183   7.037 -0.3858 -0.2458  0.6421
17636SOL    HW158744   5.910   4.203   7.130 -0.0863 -0.8201  0.7454
17636SOL    HW258745   5.857   4.258   7.000 -0.8144 -0.1852  1.3031
17637SOL     OW58746   5.842   6.119   4.222  0.2466  0.3795  0.0786
17637SOL    HW158747   5.871   6.083   4.307 -2.1222 -0.7664  0.4963
17637SOL    HW258748   5.905   6.084   4.159  0.5906 -0.8877  1.0690
17638SOL     OW58749   1.724   6.295   1.308 -0.0840 -0.6811  0.1895
17638SOL    HW158750   1.688   6.209   1.287  2.1329 -1.8561  0.8457
17638SOL    HW258751   1.721   6.300   1.404  2.2332 -1.2620  0.3616
17639SOL     OW58752   3.495   1.942   6.186 -0.1654 -0.0068  0.3682
17639SOL    HW158753   3.445   1.879   6.237  1.0364 -2.4053 -1.2534
17639SOL    HW258754   3.584   1.937   6.221  0.0534  0.4368 -0.1071
17640SOL     OW58755   2.579   9.468   7.210 -0.1186 -0.1281  0.4122
17640SOL    HW158756   2.623   9.488   7.293 -2.5276 -0.9371  2.0038
17640SOL    HW258757   2.511   9.405   7.234  0.8028 -2.5343 -2.6757
17641SOL     OW58758   5.405   1.618   6.548 -0.0001  0.1927 -0.2960
17641SOL    HW158759   5.389   1.572   6.631  2.7536 -0.8634 -0.2626
17641SOL    HW258760   5.393   1.550   6.482  0.4176  0.3712 -0.5541
17642SOL     OW58761   6.579   3.752   7.326 -0.3446  0.1217 -0.2951
17642SOL    HW158762   6.673   3.766   7.332 -0.0016 -1.2380 -2.0149
17642SOL    HW258763   6.568   3.684   7.260 -2.4962 -0.3635  0.4819
17643SOL     OW58764   9.134   6.822   1.354  0.0744 -0.1153  0.0812
17643SOL    HW158765   9.158   6.908   1.390 -0.8266  0.5182 -0.8104
17643SOL    HW258766   9.079   6.782   1.422 -2.0026  1.2671 -0.7046
17644SOL     OW58767   3.893   8.962   4.178 -0.7290 -0.4566 -0.5576
17644SOL    HW158768   3.947   8.987   4.103 -1.9403  0.8914 -1.0351
17644SOL    HW258769   3.956   8.950   4.250  0.1677  2.5809 -0.6862
17645SOL     OW58770   8.696  10.504   7.490  0.1182 -0.0493 -0.6106
17645SOL    HW158771   8.786  10.474   7.496  0.2853  0.2382 -1.5730
17645SOL    HW258772   8.673  10.495   7.397  0.0460  2.3528 -0.8891
17646SOL     OW58773   3.527   0.805   0.893  0.2026  0.1743 -0.2465
17646SOL    HW158774   3.519   0.743   0.821  0.0357  0.4757 -0.4893
17646SOL    HW258775   3.518   0.891   0.852  2.3441  0.4642 -0.2208
17647SOL     OW58776   4.485   7.875   0.898 -0.6949 -0.2043  0.1134
17647SOL    HW158777   4.421   7.917   0.840 -0.2330  0.4881  0.0961
17647SOL    HW258778   4.479   7.782   0.878 -1.5094 -0.1163 -0.0763
17648SOL     OW58779   7.473   6.217   6.476  0.0063  0.3103 -0.0493
17648SOL    HW158780   7.441   6.241   6.563 -2.5014  0.6805 -0.9905
17648SOL    HW258781   7.430   6.134   6.457  1.1689 -0.1780 -0.6447
17649SOL     OW58782   7.389   6.716   7.412 -0.0471 -0.7245 -0.5277
17649SOL    HW158783   7.309   6.746   7.369 -0.1700  2.1351  1.4024
17649SOL    HW258784   7.371   6.625   7.436 -2.2190 -0.5435 -1.2996
17650SOL     OW58785   0.810   0.837  10.654  0.1932 -0.1984 -0.9827
17650SOL    HW158786   0.830   0.796  10.738  0.3135  1.5951 -0.0897
17650SOL    HW258787   0.838   0.773  10.589  0.4637 -1.4663  0.3368
17651SOL     OW58788   9.903  10.162   0.924  0.4354 -0.4269  0.7942
17651SOL    HW158789   9.819  10.194   0.955 -0.0991 -1.1345  0.1115
17651SOL    HW258790   9.915  10.203   0.839  2.1297  1.9081  2.0226
17652SOL     OW58791   7.861   8.469   4.451  0.3003  0.2857  0.1162
17652SOL    HW158792   7.865   8.558   4.416 -2.4699  0.1895 -0.6300
17652SOL    HW258793   7.780   8.433   4.416  0.9165 -2.2513  1.1204
17653SOL     OW58794   4.075   2.567   0.831  0.2654 -0.1586 -0.0500
17653SOL    HW158795   4.166   2.592   0.811  0.5164 -0.4669  0.6500
17653SOL    HW258796   4.078   2.471   0.835  0.3556 -0.1185  1.8824
17654SOL     OW58797   5.408   1.648   5.326 -0.2098 -0.1494  0.2595
17654SOL    HW158798   5.465   1.604   5.263  0.5645  0.4025  0.5607
17654SOL    HW258799   5.338   1.687   5.273  0.2660  0.0506 -0.2275
17655SOL     OW58800   6.486   0.968   3.301  0.1360 -0.6022  0.4412
17655SOL    HW158801   6.527   0.900   3.248  0.7241  1.3475 -1.7626
17655SOL    HW258802   6.553   1.036   3.308 -0.9249  0.3853  1.3245
17656SOL     OW58803   5.860   2.524   1.055 -0.5360  0.3281 -0.3657
17656SOL    HW158804   5.783   2.578   1.070 -0.4812 -0.0517  1.5148
17656SOL    HW258805   5.854   2.455   1.121  0.6272 -0.6060 -1.1830
17657SOL     OW58806   2.761   1.674   1.097 -0.1173 -0.1949 -0.7853
17657SOL    HW158807   2.738   1.764   1.072  0.0574 -0.1978 -0.9608
17657SOL    HW258808   2.692   1.620   1.057 -2.1729  0.0954  2.0705
17658SOL     OW58809   9.845   2.095   6.837  0.1760 -0.1203  0.1352
17658SOL    HW158810   9.760   2.123   6.803  0.5776  0.2616 -0.5806
17658SOL    HW258811   9.867   2.017   6.786  0.5696  0.1860 -0.1714
17659SOL     OW58812   0.187   2.464   1.845  0.0168  0.2178 -0.3127
17659SOL    HW158813   0.100   2.449   1.809  0.0065 -2.7603  0.6997
17659SOL    HW258814   0.231   2.379   1.839  2.7559  1.5110 -0.4126
17660SOL     OW58815   3.653   8.766   6.991  0.5510 -0.0604 -0.7048
17660SOL    HW158816   3.670   8.846   6.940  1.3704 -0.0079 -0.3614
17660SOL    HW258817   3.571   8.733   6.956 -2.4838  3.4249  2.1648
17661SOL     OW58818   6.028   0.599  10.183  0.1584  0.3611 -0.2884
17661SOL    HW158819   5.935   0.613  10.199  0.0796  1.4278 -1.4980
17661SOL    HW258820   6.066   0.687  10.185  0.9970  0.0164 -0.5566
17662SOL     OW58821   7.785   7.336   5.045  0.9184 -0.1210 -0.1023
17662SOL    HW158822   7.824   7.327   5.132  1.5720 -0.9278 -0.4666
17662SOL    HW258823   7.760   7.247   5.020  4.4986 -0.6855 -2.4166
17663SOL     OW58824  10.357   2.721   3.424 -0.3771  0.5565 -0.3017
17663SOL    HW158825  10.397   2.802   3.457 -2.2646  1.6660 -0.5789
17663SOL    HW258826  10.307   2.687   3.499 -1.2192  0.7737 -0.7474
17664SOL     OW58827   9.243   5.034   6.686  0.0462  0.2803  0.0006
17664SOL    HW158828   9.161   5.041   6.638  0.7041 -0.9005 -1.3553
17664SOL    HW258829   9.271   5.125   6.699 -1.5116  0.7080  0.6184
17665SOL     OW58830   4.936   9.632   4.787 -0.4584 -0.2069  0.0840
17665SOL    HW158831   4.924   9.716   4.743 -1.2873  0.3763  1.3540
17665SOL    HW258832   5.023   9.602   4.761 -1.4560 -0.6585 -3.1637
17666SOL     OW58833   4.722   1.776   6.697  0.6375 -0.0071  0.1811
17666SOL    HW158834   4.666   1.826   6.637 -2.1854 -0.5708  2.1338
17666SOL    HW258835   4.728   1.831   6.775 -0.0296 -1.4040  1.2476
17667SOL     OW58836   7.659   8.802   8.852  0.1702  0.2537  0.4194
17667SOL    HW158837   7.667   8.747   8.774 -0.4960 -0.5169  0.8782
17667SOL    HW258838   7.744   8.797   8.895  0.5773  0.7756 -0.3123
17668SOL     OW58839   0.494   2.380   7.992  0.4276  0.1134  0.3647
17668SOL    HW158840   0.417   2.430   8.019 -0.6820 -1.5308  0.4148
17668SOL    HW258841   0.568   2.428   8.029 -0.6726  0.8792  1.6824
17669SOL     OW58842   0.374   2.945   4.320 -0.0175 -0.3223  0.8154
17669SOL    HW158843   0.341   2.856   4.308 -0.6172 -0.3750  2.5383
17669SOL    HW258844   0.306   3.001   4.283  0.9401 -0.5594 -1.4495
17670SOL     OW58845   8.933   8.924   6.986  0.6677  0.3866 -0.2705
17670SOL    HW158846   8.877   8.875   6.926  1.6071  1.1030 -1.7989
17670SOL    HW258847   8.988   8.857   7.028  0.2484 -0.0926 -0.4724
17671SOL     OW58848   8.116   6.653   0.993 -0.2324 -0.0972  0.2655
17671SOL    HW158849   8.199   6.691   0.963 -0.8326 -0.2482 -1.7897
17671SOL    HW258850   8.062   6.729   1.015  0.7169 -0.0199  2.5624
17672SOL     OW58851   3.818   9.309   4.388  0.2740 -0.2565  0.5011
17672SOL    HW158852   3.740   9.357   4.359  0.9785  0.9681  0.5791
17672SOL    HW258853   3.860   9.280   4.307 -0.6810 -1.6620  0.4719
17673SOL     OW58854   7.379   7.863   6.278  0.1375 -0.9583  0.1803
17673SOL    HW158855   7.387   7.784   6.332 -1.5522  0.2491  2.3631
17673SOL    HW258856   7.285   7.878   6.271  0.4113  0.8099 -0.2376
17674SOL     OW58857   9.227   2.897   5.289 -0.2483  0.4302  0.3712
17674SOL    HW158858   9.261   2.982   5.317  0.4002  0.8244 -1.4435
17674SOL    HW258859   9.212   2.908   5.195  1.8897 -2.0639 -0.3928
17675SOL     OW58860   5.969   3.919   4.782 -0.0653 -0.2076 -0.0706
17675SOL    HW158861   5.965   4.013   4.801  1.9017 -0.4884  2.1561
17675SOL    HW258862   6.036   3.911   4.714  0.3495 -0.0487  0.3148
17676SOL     OW58863   1.300   7.269   1.722 -0.5081  0.2764  0.0696
17676SOL    HW158864   1.226   7.298   1.775  0.2344  0.2118  1.1823
17676SOL    HW258865   1.359   7.345   1.721 -0.7878  0.4986 -1.2136
17677SOL     OW58866   1.538   8.153  10.527 -0.4087  0.3181  0.3735
17677SOL    HW158867   1.551   8.219  10.595  2.8204  1.2762 -0.9854
17677SOL    HW258868   1.513   8.074  10.575  0.2468  1.3328  2.5045
17678SOL     OW58869   7.909   6.700   7.948 -0.3241 -0.3552 -0.3857
17678SOL    HW158870   7.965   6.627   7.975 -1.3519 -0.9934  0.0962
17678SOL    HW258871   7.868   6.670   7.867 -1.1584 -0.5433  0.0979
17679SOL     OW58872   3.410   9.484   5.275 -0.2839  0.2163 -0.3846
17679SOL    HW158873   3.376   9.395   5.288 -0.1022  0.2142  0.0889
17679SOL    HW258874   3.359   9.538   5.336 -0.6519  0.5033 -0.9378
17680SOL     OW58875   4.500   5.423   3.040 -0.0833  0.1026 -0.3074
17680SOL    HW158876   4.542   5.370   3.109  2.1839  0.2536 -1.4787
17680SOL    HW258877   4.573   5.467   2.997 -1.2172 -1.0448 -3.7188
17681SOL     OW58878   0.163   8.442   8.757  0.2215  0.3074 -0.3590
17681SOL    HW158879   0.198   8.515   8.808  3.4577  0.6869 -2.8224
17681SOL    HW258880   0.213   8.366   8.787 -2.1429 -0.7440  1.1839
17682SOL     OW58881   9.443   4.290   0.714  0.3127  0.4383  0.5485
17682SOL    HW158882   9.467   4.339   0.635  0.5042 -1.5135 -0.6428
17682SOL    HW258883   9.411   4.206   0.683 -0.5846 -0.0204  2.5236
17683SOL     OW58884   9.282   6.695   9.778 -0.6484  0.1194  0.0279
17683SOL    HW158885   9.239   6.777   9.803 -0.2697  0.4500 -0.4005
17683SOL    HW258886   9.217   6.649   9.725 -0.1435  1.0478 -1.4241
17684SOL     OW58887   8.053   8.214   3.965  0.0790 -0.0644 -0.4802
17684SOL    HW158888   7.986   8.217   4.034 -0.1636 -0.8861 -0.6712
17684SOL    HW258889   8.006   8.182   3.888  0.0886  1.8002 -1.3414
17685SOL     OW58890   8.629   2.525   1.463  0.2213  0.0728 -0.4950
17685SOL    HW158891   8.550   2.563   1.425 -0.1448  1.1470  1.2195
17685SOL    HW258892   8.694   2.529   1.393 -0.6451  1.1768 -1.2730
17686SOL     OW58893   7.827   3.709  10.555  0.0460  0.0280  0.6066
17686SOL    HW158894   7.847   3.741  10.468 -0.3765  0.7038  0.7440
17686SOL    HW258895   7.764   3.772  10.590  0.7563  0.1814  1.6740
17687SOL     OW58896   8.319   2.929   9.419 -0.4100  0.7927  0.4656
17687SOL    HW158897   8.359   2.910   9.334  2.3764 -3.2086  2.3220
17687SOL    HW258898   8.387   2.975   9.468 -0.7489  0.2512  1.4711
17688SOL     OW58899   5.353   5.673   3.169 -0.0299 -0.5469  0.1023
17688SOL    HW158900   5.294   5.747   3.184  1.8684  1.0211  0.3159
17688SOL    HW258901   5.385   5.649   3.256  1.6735  0.4689 -0.1809
17689SOL     OW58902   7.277   6.834   6.444 -0.5710  0.7194 -0.2811
17689SOL    HW158903   7.273   6.873   6.356  0.6666  1.4975 -0.0226
17689SOL    HW258904   7.196   6.862   6.486 -1.3339  0.0636 -1.2704
17690SOL     OW58905   8.520   0.414  10.684  0.2221  0.4952 -0.4051
17690SOL    HW158906   8.612   0.411  10.658  0.3333  0.3467  0.0010
17690SOL    HW258907   8.515   0.486  10.746  0.1816  0.1332  0.0178
17691SOL     OW58908   5.014   6.426   9.010  0.0739 -0.0018  0.8659
17691SOL    HW158909   5.088   6.411   8.951 -2.0938 -0.1664 -2.0644
17691SOL    HW258910   5.015   6.352   9.070  2.3960  0.1620  1.0984
17692SOL     OW58911   0.107   9.698   0.042  0.2087 -0.1459 -0.1885
17692SOL    HW158912   0.108   9.767   0.108  0.0694 -1.8209  1.6910
17692SOL    HW258913   0.015   9.671   0.038  0.3343 -0.5352 -0.5393
17693SOL     OW58914   0.048   8.675   5.558  0.0864 -0.1248  0.1485
17693SOL    HW158915   0.062   8.738   5.629 -0.1883  0.5474 -0.3789
17693SOL    HW258916   0.013   8.597   5.602 -0.7884  0.5338  0.6790
17694SOL     OW58917   6.032   9.940   2.337 -0.2780 -0.5427 -0.5275
17694SOL    HW158918   6.124   9.911   2.339 -0.0450  0.0675  2.2708
17694SOL    HW258919   5.983   9.867   2.374 -0.5447  0.1215  0.4687
17695SOL     OW58920   6.186   8.383   2.490 -0.1296  0.0902 -0.6957
17695SOL    HW158921   6.229   8.418   2.412  1.7877 -0.6582 -0.0281
17695SOL    HW258922   6.232   8.424   2.563 -0.4864 -0.8018  0.0472
17696SOL     OW58923  10.151   8.060  10.194 -0.4368 -0.1871 -0.5047
17696SOL    HW158924  10.183   8.133  10.140 -0.0663 -0.4631 -0.6569
17696SOL    HW258925  10.162   8.090  10.284 -1.1469  0.3145 -0.5723
17697SOL     OW58926   6.925   3.271   5.898  0.3771 -0.5364 -0.2018
17697SOL    HW158927   6.872   3.221   5.961 -0.8363  0.1250 -0.6567
17697SOL    HW258928   6.889   3.246   5.813 -0.2984  1.1181 -0.4339
17698SOL     OW58929   8.024   1.356   3.233 -0.3388 -0.4029  0.1723
17698SOL    HW158930   7.986   1.423   3.290  0.0517 -0.8363  0.9580
17698SOL    HW258931   8.035   1.400   3.149 -2.6663 -0.2951 -0.1489
17699SOL     OW58932   8.711   7.367  10.429 -0.2423 -0.4629  0.3462
17699SOL    HW158933   8.698   7.303  10.498  0.9717  0.8156  1.8374
17699SOL    HW258934   8.627   7.373  10.385 -1.2686 -0.8114  2.1721
17700SOL     OW58935   9.530   3.966   3.532 -0.0561 -0.0297 -0.1001
17700SOL    HW158936   9.618   3.943   3.503  0.2246 -1.8782  1.8978
17700SOL    HW258937   9.476   3.893   3.503  0.2047 -1.8571  3.4309
17701SOL     OW58938  10.434   3.603   5.447  0.5849 -0.3419  1.1404
17701SOL    HW158939  10.517   3.579   5.490  0.7681  1.0171  1.6032
17701SOL    HW258940  10.452   3.592   5.354  0.8592 -1.3261  1.2995
17702SOL     OW58941   8.062   1.786   5.257  0.5505 -0.3660 -0.2169
17702SOL    HW158942   7.975   1.790   5.296 -0.4632  0.2075 -2.3601
17702SOL    HW258943   8.068   1.866   5.204  2.4512 -0.3266 -0.0018
17703SOL     OW58944   9.645   3.792   3.217 -0.0887 -0.5022 -0.1046
17703SOL    HW158945   9.661   3.727   3.149 -1.5852  0.3501 -1.3413
17703SOL    HW258946   9.557   3.824   3.199  0.8640  2.4077 -0.0200
17704SOL     OW58947   6.173   7.676   1.106 -0.1611 -0.1050  0.1856
17704SOL    HW158948   6.257   7.668   1.152 -1.2413 -0.8168  2.1537
17704SOL    HW258949   6.140   7.762   1.130 -0.1375  0.0636 -0.3665
17705SOL     OW58950  10.099   1.113   9.304 -0.1052 -0.0394 -0.1619
17705SOL    HW158951  10.159   1.038   9.306  1.0789  0.8955  0.8579
17705SOL    HW258952  10.154   1.187   9.277 -0.5845  0.9888  1.5215
17706SOL     OW58953   2.007   0.810   6.210  0.0537  0.1459 -0.0568
17706SOL    HW158954   2.091   0.782   6.245 -1.6482 -3.3581  1.7855
17706SOL    HW258955   2.001   0.767   6.124 -0.4313 -0.9678  0.5101
17707SOL     OW58956   2.779   5.960   7.646 -0.1796 -0.4478 -0.0430
17707SOL    HW158957   2.818   5.973   7.560  2.6640  0.8540  1.3097
17707SOL    HW258958   2.851   5.925   7.700 -1.6495 -0.4954  2.0026
17708SOL     OW58959   7.419   9.455   4.006  0.5797 -0.3338  0.5584
17708SOL    HW158960   7.324   9.453   3.994  0.3802  0.1003  1.9166
17708SOL    HW258961   7.438   9.379   4.061  0.9097  0.0566  0.9916
17709SOL     OW58962   2.215   8.130   7.341  0.3603 -0.2716 -0.3234
17709SOL    HW158963   2.245   8.212   7.380  1.9635 -0.6180 -0.7743
17709SOL    HW258964   2.286   8.103   7.283  0.6729 -2.8778  1.0991
17710SOL     OW58965   9.851   1.592  10.623  0.1531 -0.0352 -0.1040
17710SOL    HW158966   9.838   1.506  10.662 -1.6969  0.6085  0.8074
17710SOL    HW258967   9.774   1.606  10.568  0.7966  0.7366 -0.8532
17711SOL     OW58968   7.124   6.679   5.677 -0.5895 -0.4352  0.1020
17711SOL    HW158969   7.043   6.641   5.642 -1.0251 -0.6080  1.2388
17711SOL    HW258970   7.194   6.622   5.645 -1.0232 -0.8795 -0.0685
17712SOL     OW58971   6.936   8.642   2.608  0.4757  0.2530  0.6298
17712SOL    HW158972   6.939   8.735   2.585  0.8744  0.0973  0.0448
17712SOL    HW258973   6.878   8.603   2.542 -0.1507  0.1782  1.2121
17713SOL     OW58974   6.219   7.739   4.015 -0.2076  0.1193 -0.4428
17713SOL    HW158975   6.140   7.723   3.963  0.0362  1.3751 -1.2416
17713SOL    HW258976   6.284   7.767   3.951  0.0405  1.9138  0.5295
17714SOL     OW58977   0.146   1.589   5.387 -0.5562  0.1853  0.5340
17714SOL    HW158978   0.133   1.537   5.308  0.9700 -0.0200  0.4053
17714SOL    HW258979   0.114   1.676   5.363 -1.2135 -0.1655  0.0959
17715SOL     OW58980   8.135   1.931   6.992  0.2859  0.0746 -0.7192
17715SOL    HW158981   8.177   2.007   6.952 -0.7079  1.0560  0.0431
17715SOL    HW258982   8.175   1.926   7.079 -0.0353  0.0690 -0.5696
17716SOL     OW58983   1.326   0.377   3.435  0.6848 -0.5197 -0.0642
17716SOL    HW158984   1.248   0.333   3.400  0.9765 -0.7993 -0.3678
17716SOL    HW258985   1.389   0.306   3.450  0.9248 -0.2815  0.0593
17717SOL     OW58986  10.705   3.370   0.751  0.5358 -0.5636 -0.1727
17717SOL    HW158987  10.786   3.395   0.708 -0.0526 -0.1433 -1.0692
17717SOL    HW258988  10.733   3.322   0.829  1.6834  1.6742  0.8873
17718SOL     OW58989   2.727   7.439   4.323  0.0530  0.0336 -0.2725
17718SOL    HW158990   2.656   7.391   4.281 -0.8742  1.3085 -0.2498
17718SOL    HW258991   2.759   7.381   4.391 -0.5610 -0.8126 -0.6936
17719SOL     OW58992   9.231   4.994   0.582 -0.1348  0.5983 -0.1247
17719SOL    HW158993   9.240   5.072   0.527 -1.3450 -0.3032 -1.6842
17719SOL    HW258994   9.253   4.921   0.524  0.1250 -0.2974  1.0583
17720SOL     OW58995   5.282  10.460   9.870 -0.1628  1.2077  0.2497
17720SOL    HW158996   5.260  10.466   9.777  0.0208  1.8724  0.2439
17720SOL    HW258997   5.207  10.498   9.915 -0.1699  1.0571  0.3651
17721SOL     OW58998   9.725   7.288   9.384  0.4443  0.1525  0.3837
17721SOL    HW158999   9.786   7.325   9.320  1.1976 -1.8384 -0.1122
17721SOL    HW259000   9.642   7.282   9.337  0.4380  0.7020  0.3127
17722SOL     OW59001   3.176   5.716   2.653  0.9387  0.0211 -0.2414
17722SOL    HW159002   3.122   5.655   2.602  1.4388  1.1723 -2.2780
17722SOL    HW259003   3.266   5.695   2.627  1.2385  0.3807  0.4904
17723SOL     OW59004   6.100  10.419   6.136  0.6640 -0.2580 -0.2879
17723SOL    HW159005   6.094  10.343   6.194  2.1581  0.1564  0.4591
17723SOL    HW259006   6.119  10.492   6.195  0.3826  0.4976 -1.1218
17724SOL     OW59007   4.277   4.509   7.163 -0.0495  0.5376 -0.3019
17724SOL    HW159008   4.357   4.496   7.213  0.1957  1.5299 -0.3984
17724SOL    HW259009   4.262   4.426   7.119 -0.2694 -0.3586  1.3929
17725SOL     OW59010   9.910   8.788   2.149 -0.4687 -0.0489 -0.3891
17725SOL    HW159011   9.915   8.869   2.201  1.3332 -0.6230  0.4035
17725SOL    HW259012   9.958   8.809   2.068  0.8822 -0.5977  0.2445
17726SOL     OW59013   8.051   5.938   4.032  0.4300  0.1001 -0.7565
17726SOL    HW159014   8.035   6.032   4.022  3.3221  0.6701 -0.9077
17726SOL    HW259015   7.985   5.909   4.095 -1.4910  1.8723 -1.8259
17727SOL     OW59016   0.401   9.457   8.109 -0.3074  0.0839  0.3861
17727SOL    HW159017   0.317   9.420   8.086 -0.3681 -0.2069  1.0571
17727SOL    HW259018   0.461   9.382   8.113  0.2158  0.3850 -1.0141
17728SOL     OW59019   9.130   1.086   6.185 -0.2694 -0.0372 -0.1559
17728SOL    HW159020   9.083   1.116   6.108 -0.6348  2.3144  0.8863
17728SOL    HW259021   9.222   1.084   6.159 -0.1979  2.3130 -0.2737
17729SOL     OW59022   6.221   0.639   6.753 -0.0846 -0.1261  0.0566
17729SOL    HW159023   6.211   0.575   6.823  1.1492  0.8649  1.1830
17729SOL    HW259024   6.145   0.696   6.762  0.3135  0.2806  0.9097
17730SOL     OW59025   4.453   5.118  10.460  0.3808  0.3865 -0.1887
17730SOL    HW159026   4.363   5.148  10.446  0.5314  0.7291 -0.4369
17730SOL    HW259027   4.448   5.023  10.453 -0.2746  0.2560  1.5064
17731SOL     OW59028   4.827   9.767   1.543  0.1044 -0.1815  0.0996
17731SOL    HW159029   4.805   9.753   1.451  0.8987 -1.0541  0.0262
17731SOL    HW259030   4.898   9.830   1.541 -1.6682  1.9260  0.2888
17732SOL     OW59031   1.214   7.092   9.193  0.5556  0.4419 -0.1116
17732SOL    HW159032   1.296   7.050   9.217  0.5910  0.8457  0.4890
17732SOL    HW259033   1.201   7.160   9.259 -0.5621  0.0035  0.1457
17733SOL     OW59034   2.391   0.552   7.659 -0.4729  0.5140  0.6978
17733SOL    HW159035   2.306   0.596   7.652  0.1296  1.4629 -1.0262
17733SOL    HW259036   2.387   0.482   7.594 -0.0613  0.3081  0.8891
17734SOL     OW59037   5.413   7.729   5.562  0.1300  0.0291  0.0223
17734SOL    HW159038   5.470   7.661   5.526 -0.2345 -0.9319  1.2060
17734SOL    HW259039   5.403   7.706   5.655 -2.3167  0.0730 -0.1731
17735SOL     OW59040   0.659   8.091   1.431 -0.5362 -0.1870 -0.1565
17735SOL    HW159041   0.584   8.114   1.375 -0.9259 -1.1854 -0.0638
17735SOL    HW259042   0.660   8.158   1.498 -2.5235 -1.1613  0.9355
17736SOL     OW59043   9.401   4.024   5.493 -0.4003 -0.3905  0.3870
17736SOL    HW159044   9.469   4.045   5.557 -0.8705  2.0028  0.1665
17736SOL    HW259045   9.449   3.986   5.419  0.5525  0.0906  0.7364
17737SOL     OW59046   0.248   4.404   5.494  0.0131  0.3316  0.6990
17737SOL    HW159047   0.193   4.482   5.487 -0.7647 -0.2635 -0.0634
17737SOL    HW259048   0.204   4.339   5.440  1.1873 -0.3289  0.4982
17738SOL     OW59049   3.081   3.049   1.012 -0.3445 -1.0177 -0.4084
17738SOL    HW159050   3.089   3.015   1.101 -0.6903  0.3176  0.1588
17738SOL    HW259051   3.172   3.062   0.984 -0.2364  0.1477  0.4114
17739SOL     OW59052   5.752   6.546   6.113 -0.0002 -0.0282  0.1457
17739SOL    HW159053   5.717   6.617   6.059  0.7602  1.1552  1.1241
17739SOL    HW259054   5.753   6.583   6.202  0.0029 -1.4364  0.7474
17740SOL     OW59055   5.642   9.351   0.361  0.7464  0.6459 -0.4595
17740SOL    HW159056   5.568   9.290   0.354  0.7717  0.6598 -0.8562
17740SOL    HW259057   5.601   9.437   0.370  0.6739  0.9214 -2.7914
17741SOL     OW59058   5.490   3.993   4.372 -0.5663 -0.2737 -0.0898
17741SOL    HW159059   5.396   3.987   4.388 -0.8085 -2.6117 -1.8663
17741SOL    HW259060   5.526   3.912   4.408  0.4167 -0.4608 -1.4270
17742SOL     OW59061   9.502   4.252   6.952 -0.0417 -0.6367  0.5815
17742SOL    HW159062   9.505   4.291   7.039 -0.8701 -2.1635  1.3434
17742SOL    HW259063   9.587   4.208   6.943 -0.4270 -1.5267  1.1606
17743SOL     OW59064   5.984   4.256   0.534 -0.0813  0.3964 -0.0966
17743SOL    HW159065   6.067   4.300   0.513  0.3481 -0.0309  0.6923
17743SOL    HW259066   5.980   4.257   0.629  0.7010 -2.6030  0.0759
17744SOL     OW59067  10.081   8.619   9.093  0.7288  0.3279 -0.1594
17744SOL    HW159068  10.169   8.591   9.115  0.8604 -0.2329 -1.3543
17744SOL    HW259069  10.058   8.682   9.162  1.1018 -1.3509  1.5815
17745SOL     OW59070   8.346   1.172   4.877  0.1647  0.0917  0.0591
17745SOL    HW159071   8.371   1.256   4.914 -0.9931  0.5047 -0.0462
17745SOL    HW259072   8.380   1.107   4.938 -1.6584  0.7465  1.8697
17746SOL     OW59073   7.783   6.845   2.520  0.0107 -0.1359 -0.0023
17746SOL    HW159074   7.765   6.766   2.469  0.9433 -1.0971  1.0700
17746SOL    HW259075   7.819   6.907   2.457  0.9885 -1.2288 -0.5564
17747SOL     OW59076  10.123   6.949   3.479 -0.4869 -0.1453 -0.2784
17747SOL    HW159077  10.107   6.917   3.568  1.3562 -2.0724 -0.5477
17747SOL    HW259078  10.216   6.931   3.464 -1.3479 -2.9111 -3.6748
17748SOL     OW59079   7.962   3.304   4.628  0.3238  0.5781  0.0428
17748SOL    HW159080   7.912   3.318   4.708  2.4413  0.6056  1.4353
17748SOL    HW259081   8.046   3.270   4.658  1.0151  0.1491 -2.2201
17749SOL     OW59082   1.812   0.512   5.396  0.1285 -0.3550 -0.6019
17749SOL    HW159083   1.739   0.494   5.455  0.0385 -1.0400 -0.9014
17749SOL    HW259084   1.828   0.428   5.353  1.0157 -0.1778 -0.6274
17750SOL     OW59085   1.437   3.716  10.245  0.1682  0.4195 -0.7668
17750SOL    HW159086   1.379   3.640  10.244 -1.7811  1.5051  3.7937
17750SOL    HW259087   1.508   3.691  10.303  0.5870  1.4331 -0.8227
17751SOL     OW59088   7.617   4.633   3.486  0.3167  0.4409  0.0240
17751SOL    HW159089   7.571   4.549   3.487  0.0169  0.6031 -0.0005
17751SOL    HW259090   7.694   4.617   3.432  0.1472  0.2417 -0.1620
17752SOL     OW59091   8.236   8.886   3.256 -0.2207 -0.1830 -0.0897
17752SOL    HW159092   8.147   8.907   3.228  0.1141  0.4173 -0.7068
17752SOL    HW259093   8.265   8.818   3.195 -0.0708 -0.0179 -0.2014
17753SOL     OW59094   3.956   3.126   2.720 -0.2728  0.1570 -0.2096
17753SOL    HW159095   3.891   3.194   2.706 -0.1785  0.0345 -1.3287
17753SOL    HW259096   3.906   3.051   2.753 -0.4192  0.6424  0.7210
17754SOL     OW59097   7.533   4.280   6.529 -0.1709 -0.5056  0.5269
17754SOL    HW159098   7.620   4.265   6.565 -0.1364  1.6629  1.5502
17754SOL    HW259099   7.525   4.218   6.457  2.6686 -0.0029 -0.3414
17755SOL     OW59100   9.910   6.112   1.047  0.0722 -0.3581 -0.0909
17755SOL    HW159101   9.918   6.181   0.981  0.8921  1.3494  1.7008
17755SOL    HW259102   9.828   6.131   1.092 -0.1403 -1.1065 -0.1415
17756SOL     OW59103   4.823   1.748   2.220 -0.0012 -0.1499  0.8062
17756SOL    HW159104   4.824   1.818   2.154  0.0251 -0.3002  0.6495
17756SOL    HW259105   4.864   1.789   2.297  1.4166 -0.4548  0.2471
17757SOL     OW59106   5.011   7.913   6.004 -0.2835  0.7142 -0.5379
17757SOL    HW159107   4.986   7.996   6.045 -2.4398  0.2964 -0.8778
17757SOL    HW259108   5.023   7.853   6.078  1.1756  1.2628 -0.2974
17758SOL     OW59109   6.907   0.753   3.076 -0.5960  0.6485 -0.3877
17758SOL    HW159110   6.949   0.715   2.999 -0.3052  0.8096 -0.3072
17758SOL    HW259111   6.979   0.785   3.130 -0.3188 -3.5329  2.1902
17759SOL     OW59112  10.560   8.824   7.931 -0.4542 -0.2857 -0.1426
17759SOL    HW159113  10.587   8.786   8.015 -0.8516 -0.8583 -0.2610
17759SOL    HW259114  10.468   8.848   7.944 -0.1357  0.9079  0.0098
17760SOL     OW59115  10.141   0.198   4.005 -0.3439 -0.3177  0.0976
17760SOL    HW159116  10.233   0.185   4.028 -0.2987 -0.8494 -0.3856
17760SOL    HW259117  10.117   0.281   4.048  1.1305  1.3265 -2.0443
17761SOL     OW59118   8.830   4.845   9.841 -0.1636  0.0138  0.6082
17761SOL    HW159119   8.884   4.924   9.849 -0.2359 -0.1338  3.2711
17761SOL    HW259120   8.757   4.859   9.901  0.0547 -2.2261  1.4876
17762SOL     OW59121   0.972   9.978   5.701 -0.1553  0.3980 -0.3798
17762SOL    HW159122   0.893   9.966   5.649 -0.5583 -0.4576  0.3828
17762SOL    HW259123   1.001   9.889   5.722  0.9911  0.6963 -0.6043
17763SOL     OW59124   1.972   1.168   5.902  0.5031 -0.3630 -0.0399
17763SOL    HW159125   2.039   1.215   5.852  0.1833 -1.1640 -1.2485
17763SOL    HW259126   1.891   1.213   5.881  0.6650  0.8975  1.7830
17764SOL     OW59127   9.309   4.648   4.397  0.3830  0.6761  0.5846
17764SOL    HW159128   9.268   4.585   4.456  0.5059 -1.5131 -1.5022
17764SOL    HW259129   9.241   4.713   4.380 -1.1327 -0.9866 -0.1145
17765SOL     OW59130   4.113   6.816   5.478 -0.1705  0.1015 -0.2972
17765SOL    HW159131   4.116   6.726   5.444 -0.2494 -0.1717  0.4188
17765SOL    HW259132   4.020   6.838   5.482 -0.2212 -0.2986  0.8686
17766SOL     OW59133  10.140   3.723   7.863  0.4271  0.2361  0.0728
17766SOL    HW159134  10.186   3.643   7.838  1.5914  0.9378 -0.1264
17766SOL    HW259135  10.070   3.693   7.921  0.2958 -0.9954 -0.6844
17767SOL     OW59136   8.063   4.912   6.903  0.0323 -0.4366  0.3660
17767SOL    HW159137   8.031   4.866   6.981 -0.9421  0.4947  0.5345
17767SOL    HW259138   8.111   4.845   6.854 -2.4024 -1.9811 -0.0519
17768SOL     OW59139   8.751  10.124  10.505 -0.3738 -0.1804 -0.3894
17768SOL    HW159140   8.735  10.177  10.427 -0.9337  1.0303  0.5114
17768SOL    HW259141   8.815  10.059  10.477 -1.0721 -0.2301 -2.0425
17769SOL     OW59142   1.887   0.165   9.591 -0.1437  0.3000 -0.3092
17769SOL    HW159143   1.879   0.157   9.686 -1.5892 -1.2121 -0.4982
17769SOL    HW259144   1.981   0.173   9.575  0.0603  1.4477  1.2769
17770SOL     OW59145   1.056   6.773   9.206  0.8880  0.2872 -0.3401
17770SOL    HW159146   1.029   6.812   9.289  1.8301  2.4616 -0.9624
17770SOL    HW259147   1.071   6.848   9.148 -1.5653 -1.1407 -3.1365
17771SOL     OW59148  10.458   7.551   3.460  0.3252 -0.6396  0.2282
17771SOL    HW159149  10.478   7.481   3.522  2.1612  0.4740  0.9761
17771SOL    HW259150  10.509   7.529   3.382 -1.3289 -1.5947 -0.6309
17772SOL     OW59151   9.354   3.043   6.179  0.8374  0.3127  0.3586
17772SOL    HW159152   9.318   2.989   6.249  1.7456  0.1008  0.6788
17772SOL    HW259153   9.448   3.046   6.197  0.8251  1.9638  0.3322
17773SOL     OW59154   1.971   4.927   2.539 -0.1153  0.2912 -0.1206
17773SOL    HW159155   1.881   4.915   2.510 -0.5511  0.3033  1.2028
17773SOL    HW259156   1.971   5.012   2.583  0.6629  0.5151 -0.5289
17774SOL     OW59157   2.769  10.047   4.726 -0.6712 -0.2079 -0.0978
17774SOL    HW159158   2.849  10.085   4.760  0.6685 -1.5416 -1.5806
17774SOL    HW259159   2.702  10.114   4.741  0.2798  0.2056  2.8466
17775SOL     OW59160   3.993   2.577   3.103  0.3302 -0.3268 -0.1797
17775SOL    HW159161   3.983   2.494   3.150 -0.9474  0.5311  1.1601
17775SOL    HW259162   4.059   2.625   3.153 -1.5725  0.8936  1.2918
17776SOL     OW59163   2.849   2.117   9.122  0.2034  0.3713 -0.0383
17776SOL    HW159164   2.813   2.201   9.094 -1.3048  0.0415  0.7769
17776SOL    HW259165   2.788   2.086   9.190  1.1088 -1.0459  0.1787
17777SOL     OW59166   7.650   9.253   5.757  0.5152  0.6462 -0.3035
17777SOL    HW159167   7.586   9.318   5.784 -1.2525 -0.9809 -0.3852
17777SOL    HW259168   7.655   9.192   5.830 -0.8485 -1.2387 -1.6695
17778SOL     OW59169   5.006   2.140   8.042 -0.4834  0.0261 -0.5861
17778SOL    HW159170   5.011   2.235   8.037  1.2596 -0.0968 -1.8233
17778SOL    HW259171   5.060   2.117   8.117  1.4384 -0.1074 -1.9470
17779SOL     OW59172   8.951   4.376   8.853 -0.3439  0.2141 -0.3610
17779SOL    HW159173   8.962   4.374   8.758 -1.2462  0.6336 -0.4853
17779SOL    HW259174   8.951   4.469   8.875 -2.5328  0.2591 -0.2827
17780SOL     OW59175   6.099   7.564   4.762  0.3240 -0.0490  0.1604
17780SOL    HW159176   6.093   7.604   4.848 -0.4467 -0.3263  0.2496
17780SOL    HW259177   6.152   7.625   4.710 -1.6798  1.6920 -0.0223
17781SOL     OW59178   2.177   6.278   7.885 -0.0934  0.6226 -0.1566
17781SOL    HW159179   2.148   6.187   7.880  0.4590  0.4155  0.2411
17781SOL    HW259180   2.224   6.293   7.803 -0.8612  0.8010 -0.5728
17782SOL     OW59181   3.826   6.292   4.640  0.5941 -0.6272  0.3975
17782SOL    HW159182   3.865   6.242   4.568 -1.0433 -0.8827 -0.3748
17782SOL    HW259183   3.753   6.238   4.669 -0.5994  0.8206  0.2222
17783SOL     OW59184   0.559  10.683   9.402  0.5485 -0.2205  0.3014
17783SOL    HW159185   0.645  10.720   9.386  0.0588  0.6519 -0.3859
17783SOL    HW259186   0.577  10.596   9.438  1.7093  0.2502  0.9216
17784SOL     OW59187   7.952  10.219   0.289 -0.3566  0.3041  0.5841
17784SOL    HW159188   7.948  10.300   0.340  0.2189 -0.6813  2.2982
17784SOL    HW259189   8.018  10.166   0.334  0.2426 -0.6076 -1.2834
17785SOL     OW59190   4.277   3.767   1.375  0.2233 -0.3378 -0.2819
17785SOL    HW159191   4.337   3.694   1.366  0.7314  0.0423 -0.0347
17785SOL    HW259192   4.207   3.749   1.312  0.1113 -1.2559  0.1045
17786SOL     OW59193   4.124   9.263   9.513 -0.7563 -0.4454 -0.1215
17786SOL    HW159194   4.138   9.330   9.580  1.3348 -0.4552 -0.4614
17786SOL    HW259195   4.120   9.313   9.431 -0.0687 -0.6525 -0.2872
17787SOL     OW59196   7.369   9.778   1.299  0.5684  0.0034 -0.0691
17787SOL    HW159197   7.366   9.833   1.220  0.7176 -0.2506 -0.2515
17787SOL    HW259198   7.292   9.804   1.349  2.4708  3.0484  1.6129
17788SOL     OW59199   8.836   5.555   4.296  0.0394 -0.0120 -0.1215
17788SOL    HW159200   8.745   5.568   4.322 -0.1049  2.5569 -1.5329
17788SOL    HW259201   8.875   5.504   4.367 -1.9092  0.9098  1.7197
17789SOL     OW59202   6.954   5.123   7.745 -0.4244 -0.2008  0.0707
17789SOL    HW159203   7.029   5.106   7.689 -0.1036 -0.6967  0.6441
17789SOL    HW259204   6.879   5.095   7.693 -0.2512  0.5240 -0.6002
17790SOL     OW59205   3.258   7.356   3.263  0.4086  0.2738 -0.0701
17790SOL    HW159206   3.256   7.320   3.352 -0.9918 -2.0278 -0.9423
17790SOL    HW259207   3.323   7.426   3.267 -1.3087  1.9336  3.3460
17791SOL     OW59208   7.649   2.857   1.797  0.7293  0.1813  0.0041
17791SOL    HW159209   7.641   2.778   1.851  0.9634  0.6340  0.7193
17791SOL    HW259210   7.560   2.893   1.793  0.8121  0.4686  0.6029
17792SOL     OW59211   7.008   9.067  10.551 -1.1022 -0.0998  0.5043
17792SOL    HW159212   6.944   9.121  10.504 -0.8539  0.5063  0.8446
17792SOL    HW259213   7.066   9.035  10.483 -2.1772 -1.2557  0.0953
17793SOL     OW59214   8.385   8.630   3.759  0.2171  0.6725 -0.2205
17793SOL    HW159215   8.375   8.640   3.854 -0.2529  0.1977 -0.2164
17793SOL    HW259216   8.356   8.541   3.741  1.0562  0.4906 -0.7134
17794SOL     OW59217   8.552   9.183   9.048  0.3746 -0.0957  0.1620
17794SOL    HW159218   8.615   9.126   9.091  0.4459  0.9941  1.5863
17794SOL    HW259219   8.550   9.262   9.103  0.2389  1.2483 -1.6947
17795SOL     OW59220   5.150   6.789   3.790 -0.6735 -0.0945  0.3474
17795SOL    HW159221   5.096   6.855   3.832 -0.3033  1.5629 -1.6444
17795SOL    HW259222   5.240   6.819   3.803 -0.4332 -0.8045  0.3690
17796SOL     OW59223   7.153   0.478   3.083 -0.0613 -0.8445  0.2458
17796SOL    HW159224   7.139   0.420   3.157 -0.8707  0.8298  1.4864
17796SOL    HW259225   7.190   0.558   3.121 -1.5270  0.4817 -0.9599
17797SOL     OW59226   1.523   9.082   5.514 -0.0493 -0.2407 -0.1602
17797SOL    HW159227   1.509   8.990   5.534  1.5494 -1.0650 -2.4086
17797SOL    HW259228   1.578   9.115   5.585 -2.6209 -0.2363  2.0119
17798SOL     OW59229   0.659   0.385   4.400 -0.0998  0.5210 -0.3092
17798SOL    HW159230   0.687   0.364   4.489 -1.3623 -0.2515 -0.0722
17798SOL    HW259231   0.738   0.374   4.347  0.3331 -0.4001  0.4974
17799SOL     OW59232   5.820   4.617   7.271 -0.3253 -0.2573  0.0452
17799SOL    HW159233   5.731   4.649   7.259 -0.0239  1.3940  1.6794
17799SOL    HW259234   5.810   4.535   7.319 -0.9881  0.2222  0.7578
17800SOL     OW59235   5.752   6.882   7.072 -0.4555 -0.3455  0.0202
17800SOL    HW159236   5.715   6.856   7.156  1.3917 -0.4113  0.8462
17800SOL    HW259237   5.724   6.814   7.011 -2.5363  0.1524  0.3497
17801SOL     OW59238   4.194   9.939   3.280 -0.2730 -0.1140  0.0624
17801SOL    HW159239   4.190   9.945   3.185  0.3329 -0.4625  0.0118
17801SOL    HW259240   4.245   9.860   3.298 -2.0015 -1.1668  0.6902
17802SOL     OW59241   6.510   3.698   1.756 -0.3172  0.1013 -0.1368
17802SOL    HW159242   6.529   3.620   1.806  0.9203  0.1025 -0.5836
17802SOL    HW259243   6.456   3.752   1.814  1.5088  0.3453  1.3978
17803SOL     OW59244   5.919   8.513   5.567 -0.5017 -0.0285  0.2125
17803SOL    HW159245   5.924   8.499   5.661  1.3174  0.7727  0.2757
17803SOL    HW259246   5.829   8.488   5.544 -1.5614  1.3804  2.4113
17804SOL     OW59247   1.398   8.902   3.258 -0.1114 -0.8519 -0.0663
17804SOL    HW159248   1.335   8.949   3.313  1.0031  1.1381 -0.3730
17804SOL    HW259249   1.352   8.822   3.232 -1.7725 -0.4025  1.2743
17805SOL     OW59250   8.962   0.158   2.749  0.6211 -0.0980  0.5232
17805SOL    HW159251   8.905   0.222   2.792 -0.2047  0.7483 -1.6935
17805SOL    HW259252   8.994   0.203   2.671  0.4514 -2.1952 -0.8216
17806SOL     OW59253   3.329   3.900   8.959 -0.7611 -0.6423 -0.1514
17806SOL    HW159254   3.422   3.877   8.954 -0.3044  0.8761  0.5585
17806SOL    HW259255   3.297   3.891   8.870  0.4998  0.3920 -0.7512
17807SOL     OW59256   5.976   1.046   9.261  0.3862 -0.5231  0.0579
17807SOL    HW159257   5.904   1.100   9.292  0.8920  0.2821 -0.1569
17807SOL    HW259258   6.022   1.019   9.341  0.7636  0.2613  0.1160
17808SOL     OW59259   4.924   4.745   0.839  0.5897  0.4688 -0.0822
17808SOL    HW159260   4.935   4.651   0.855  0.0802  0.1979 -1.2482
17808SOL    HW259261   4.973   4.787   0.910  1.8882 -0.6681 -0.2666
17809SOL     OW59262   2.933   8.588   4.074 -0.2236 -0.2958 -0.1574
17809SOL    HW159263   2.953   8.681   4.065 -1.5201  0.1766  1.3134
17809SOL    HW259264   2.903   8.561   3.987 -1.7232  1.1758 -0.1419
17810SOL     OW59265   7.799   7.337  10.392 -0.2944  0.4671  0.1442
17810SOL    HW159266   7.838   7.256  10.424 -0.3607  0.4039  0.0644
17810SOL    HW259267   7.711   7.338  10.428 -1.3691 -0.9562 -2.2514
17811SOL     OW59268   1.339   6.732   0.862  0.2586  0.9209  0.1473
17811SOL    HW159269   1.381   6.647   0.851  0.3671  1.0569 -0.5139
17811SOL    HW259270   1.361   6.759   0.951 -0.8756 -0.3412  0.8482
17812SOL     OW59271   0.205   1.358   8.762 -0.5576  0.8099  0.4805
17812SOL    HW159272   0.226   1.373   8.855 -1.5898  0.8355  0.7236
17812SOL    HW259273   0.132   1.296   8.764 -0.5757  0.8029 -0.3195
17813SOL     OW59274   3.587   7.693   9.290 -0.0419 -0.5339  0.2559
17813SOL    HW159275   3.591   7.696   9.195 -2.0215 -0.1401  0.1333
17813SOL    HW259276   3.648   7.760   9.319 -0.5227  0.3966 -0.8067
17814SOL     OW59277   8.896   5.770   3.234 -0.2513 -0.4957  0.3467
17814SOL    HW159278   8.910   5.784   3.328  2.1133  0.8970 -0.1235
17814SOL    HW259279   8.944   5.690   3.215  1.6431  0.6763 -0.0844
17815SOL     OW59280   6.626   7.638   1.055 -0.2341 -0.6882  0.3830
17815SOL    HW159281   6.552   7.581   1.076  0.6271 -1.9480  0.1584
17815SOL    HW259282   6.625   7.646   0.960 -0.6862  0.1738  0.4488
17816SOL     OW59283  10.563   4.511   1.556  0.4771  0.3198  0.4811
17816SOL    HW159284  10.563   4.461   1.638  1.2093  0.5843  0.6511
17816SOL    HW259285  10.602   4.595   1.580 -0.3578  0.8269  0.1090
17817SOL     OW59286   0.146   9.177   1.127  0.2609 -0.1309  0.3012
17817SOL    HW159287   0.058   9.208   1.149  0.1537 -0.6182  0.5887
17817SOL    HW259288   0.198   9.256   1.116 -0.3257  0.1777 -0.3575
17818SOL     OW59289   3.381   7.063   4.281  0.0922  0.0786  0.5594
17818SOL    HW159290   3.298   7.030   4.249  0.0639  0.1101  0.5996
17818SOL    HW259291   3.360   7.101   4.367  0.2963 -0.6226  0.9242
17819SOL     OW59292   6.395   3.474   6.348 -0.6499  0.2992 -0.0339
17819SOL    HW159293   6.369   3.385   6.374 -0.7729  0.6848  1.2642
17819SOL    HW259294   6.394   3.473   6.253  2.6159 -2.0686 -0.2260
17820SOL     OW59295   6.303   9.518   3.487  0.0065 -0.1760  0.5191
17820SOL    HW159296   6.389   9.556   3.470 -0.7855  0.9827 -1.2471
17820SOL    HW259297   6.273   9.488   3.401 -1.8363  0.5487  0.8551
17821SOL     OW59298   7.049   1.987   6.395  0.4698 -0.2152  0.3584
17821SOL    HW159299   7.046   1.974   6.300 -0.9102  0.4998  0.2851
17821SOL    HW259300   7.143   1.981   6.416  0.8986  0.4605 -1.1622
17822SOL     OW59301   1.335   9.699   4.116 -0.0283 -0.0483 -0.2424
17822SOL    HW159302   1.400   9.768   4.099  0.4005 -0.5985 -0.9085
17822SOL    HW259303   1.275   9.705   4.041 -0.2850 -0.0636 -0.0376
17823SOL     OW59304   6.869   8.603   0.613  0.0236 -0.5596 -0.7862
17823SOL    HW159305   6.857   8.563   0.527 -1.5935 -0.0994 -0.8120
17823SOL    HW259306   6.957   8.578   0.640  1.7913  1.6996 -3.8447
17824SOL     OW59307   8.897   0.426   8.939 -0.7819  0.7266 -0.1735
17824SOL    HW159308   8.970   0.480   8.969 -0.6336  0.1632  0.5227
17824SOL    HW259309   8.857   0.394   9.020 -1.1687  0.2049 -0.5650
17825SOL     OW59310   0.367   2.672   0.066  0.1359 -0.0492  0.4305
17825SOL    HW159311   0.383   2.766   0.075  0.8425 -0.1379  0.1878
17825SOL    HW259312   0.290   2.655   0.120  0.8807  0.4048  1.6679
17826SOL     OW59313   7.811  10.280   6.587  0.5192 -0.4564  0.0072
17826SOL    HW159314   7.835  10.209   6.646  0.4728 -0.0903  0.4730
17826SOL    HW259315   7.753  10.336   6.639  0.8615  0.1252 -0.2245
17827SOL     OW59316   6.860   8.876   6.517  0.0575 -0.1144  0.1756
17827SOL    HW159317   6.786   8.830   6.557  0.5900 -2.0753 -0.9764
17827SOL    HW259318   6.869   8.838   6.430  3.3992 -1.1736  0.8276
17828SOL     OW59319   0.216   8.973   5.722 -0.0393 -0.2203 -0.4979
17828SOL    HW159320   0.247   8.912   5.789 -0.9182  0.2702  0.3895
17828SOL    HW259321   0.125   8.947   5.706 -0.1995  0.4105 -0.6336
17829SOL     OW59322   6.047   9.437   8.854  0.6717  0.0510 -0.0211
17829SOL    HW159323   6.033   9.509   8.915  0.3596 -0.5585  0.6465
17829SOL    HW259324   6.043   9.477   8.767 -0.6760  0.6594  0.3002
17830SOL     OW59325   1.055  10.084   1.992 -0.1766  0.4383 -0.4628
17830SOL    HW159326   1.103  10.007   2.023  0.3998  0.5438 -1.0824
17830SOL    HW259327   1.103  10.159   2.027 -0.2113  0.5375 -0.6252
17831SOL     OW59328   1.359   3.358   0.332 -0.5822 -0.2353 -0.0624
17831SOL    HW159329   1.408   3.347   0.414  2.3924  1.0024 -1.5065
17831SOL    HW259330   1.416   3.319   0.266 -3.3102 -2.0620 -1.5528
17832SOL     OW59331   8.954   3.420   3.264  0.5308 -0.2223  0.8185
17832SOL    HW159332   9.016   3.377   3.204 -1.3589 -1.1588 -0.5544
17832SOL    HW259333   8.891   3.463   3.207 -1.6183 -1.5346  2.0612
17833SOL     OW59334   4.236   7.704   4.944  0.4102  0.1660 -0.0806
17833SOL    HW159335   4.232   7.775   5.007  1.1628  0.7397 -0.6673
17833SOL    HW259336   4.166   7.645   4.970  0.8690  0.2529  1.4580
17834SOL     OW59337   3.043   6.399   8.721 -0.2182  0.1766 -0.5181
17834SOL    HW159338   3.023   6.438   8.806  3.1458 -0.3697  0.6841
17834SOL    HW259339   3.041   6.304   8.738 -0.7765  0.0203 -1.4136
17835SOL     OW59340   8.611   6.667   1.633 -0.7707 -0.3668 -0.1085
17835SOL    HW159341   8.700   6.632   1.626 -0.9693 -1.6025  2.4247
17835SOL    HW259342   8.619   6.740   1.695 -0.9687  2.0891 -2.7375
17836SOL     OW59343  10.293  10.447   7.957 -0.0236 -0.1485 -0.4931
17836SOL    HW159344  10.343  10.528   7.953 -1.9071  1.1061 -0.1657
17836SOL    HW259345  10.341  10.386   7.901  0.1647  1.9516 -2.8001
17837SOL     OW59346   7.627  10.483   3.179  0.1179 -0.3963 -0.0281
17837SOL    HW159347   7.661  10.518   3.097 -1.7618 -0.8961 -1.0916
17837SOL    HW259348   7.662  10.541   3.247  1.8405 -0.0611 -1.1376
17838SOL     OW59349   0.112   4.643   5.057  0.2086 -0.0515  0.1272
17838SOL    HW159350   0.132   4.633   4.964 -3.0819 -1.1017 -0.6272
17838SOL    HW259351   0.024   4.682   5.058 -0.9940 -2.5064  2.6545
17839SOL     OW59352   2.919   8.909   9.836 -0.7286 -0.1322  0.4325
17839SOL    HW159353   2.878   8.936   9.919 -1.7654 -0.6065  0.0953
17839SOL    HW259354   2.992   8.853   9.862 -0.0616  0.9839  1.0661
17840SOL     OW59355   6.255   2.502   9.272 -0.1027  0.5052  0.3444
17840SOL    HW159356   6.264   2.480   9.365  0.8520  0.3338  0.2178
17840SOL    HW259357   6.284   2.424   9.226 -2.9843 -0.3991 -0.1416
17841SOL     OW59358   1.141   4.540   2.122 -0.2450  0.2044 -0.5736
17841SOL    HW159359   1.179   4.569   2.205 -1.6926 -2.1082  1.0132
17841SOL    HW259360   1.049   4.563   2.128 -0.8718 -2.1279 -0.4073
17842SOL     OW59361   7.762   0.862   2.385  0.7031  0.0724 -0.3525
17842SOL    HW159362   7.697   0.808   2.340 -0.0299  0.6788 -0.0476
17842SOL    HW259363   7.794   0.807   2.456 -1.3442  0.5889  1.0783
17843SOL     OW59364   7.474   3.832   5.660  0.0042 -0.6476 -0.1267
17843SOL    HW159365   7.394   3.883   5.652 -0.7684 -1.9177 -0.7965
17843SOL    HW259366   7.493   3.831   5.754 -0.6848 -0.2342  0.0203
17844SOL     OW59367   0.833   2.094   9.012  0.4221 -0.6137  0.3587
17844SOL    HW159368   0.748   2.093   9.056 -0.0429  1.0443 -0.4191
17844SOL    HW259369   0.831   2.018   8.954  0.4900 -2.0119  2.0887
17845SOL     OW59370   2.550   4.659   8.543  0.1556 -0.1196 -0.1429
17845SOL    HW159371   2.537   4.566   8.561 -0.7417  0.0044 -0.1016
17845SOL    HW259372   2.586   4.662   8.454 -0.0058 -0.4944 -0.2229
17846SOL     OW59373   3.943   9.494   5.393  0.2933  0.4481 -0.1648
17846SOL    HW159374   3.986   9.417   5.354 -0.0260 -0.3513  1.0010
17846SOL    HW259375   4.013   9.541   5.438  0.4986  0.8916 -0.9208
17847SOL     OW59376   9.731   4.218   6.703  0.1694 -0.3053 -0.0261
17847SOL    HW159377   9.686   4.303   6.706 -1.9694 -1.3786 -0.2240
17847SOL    HW259378   9.808   4.234   6.647 -0.7687  1.2382 -0.9562
17848SOL     OW59379   6.489  10.068   8.642 -0.0792  0.1610  0.0490
17848SOL    HW159380   6.536   9.990   8.615  0.6840  0.0203  1.6820
17848SOL    HW259381   6.553  10.139   8.632 -0.4067  0.4108 -0.3245
17849SOL     OW59382   9.361   6.365   1.457  0.4701 -0.0633  0.4679
17849SOL    HW159383   9.312   6.388   1.536 -1.1928 -1.2767 -0.1520
17849SOL    HW259384   9.358   6.444   1.403 -2.2050 -0.5046 -0.1941
17850SOL     OW59385   7.269   9.158   1.821 -0.9336 -0.5307 -0.4439
17850SOL    HW159386   7.228   9.146   1.907  0.0861 -0.4530  0.0690
17850SOL    HW259387   7.309   9.245   1.826  0.3219 -1.0900 -0.4840
17851SOL     OW59388   3.345   4.202   3.938  0.0385 -0.3178 -0.1753
17851SOL    HW159389   3.340   4.294   3.965  0.3768  0.2585 -1.9622
17851SOL    HW259390   3.318   4.202   3.847 -0.4454 -2.0886 -0.0649
17852SOL     OW59391   2.020   3.302   9.857  0.5203 -0.5557  0.1213
17852SOL    HW159392   2.004   3.389   9.819  0.8699 -0.0176  1.1605
17852SOL    HW259393   2.030   3.244   9.781 -1.0674  0.0461 -0.5944
17853SOL     OW59394   8.212   2.909   2.509  0.4750 -0.5316 -0.3699
17853SOL    HW159395   8.123   2.938   2.485  0.0593 -1.4559  0.0074
17853SOL    HW259396   8.254   2.891   2.425 -0.1127 -1.2668 -0.5151
17854SOL     OW59397  10.224   3.311   0.904 -0.1437  0.7843 -0.1949
17854SOL    HW159398  10.179   3.226   0.906  0.3136  0.5515  0.2523
17854SOL    HW259399  10.281   3.306   0.827  1.3107 -0.0604  0.8933
17855SOL     OW59400   3.906   0.422   4.440 -0.2956  0.4740  0.2834
17855SOL    HW159401   3.897   0.411   4.345  0.3248 -0.1041  0.2901
17855SOL    HW259402   3.969   0.355   4.466 -0.5540  0.5537  1.1252
17856SOL     OW59403   0.508   1.914   0.250 -0.3656 -0.0910  0.3943
17856SOL    HW159404   0.530   1.851   0.182  1.2625 -0.1036  0.9011
17856SOL    HW259405   0.484   1.860   0.326 -0.9563 -0.0801  0.2201
17857SOL     OW59406   0.711   7.262   0.609 -0.1262  0.1947  0.2786
17857SOL    HW159407   0.679   7.174   0.627 -1.6307  0.6975  0.1400
17857SOL    HW259408   0.802   7.249   0.582 -0.1676 -1.2588  0.7736
17858SOL     OW59409   9.900   0.385   1.073 -0.1539 -0.1849  0.7075
17858SOL    HW159410   9.811   0.414   1.091 -0.2531  2.0989 -2.5989
17858SOL    HW259411   9.895   0.342   0.988  1.7905 -0.5496  0.7365
17859SOL     OW59412   1.425   7.418   8.614 -0.1487  0.4521 -0.0053
17859SOL    HW159413   1.496   7.367   8.654 -0.9211 -0.8111 -0.1993
17859SOL    HW259414   1.469   7.489   8.568  1.1304 -1.2882 -1.5865
17860SOL     OW59415   6.253   4.412   8.021  0.2924 -0.1384  0.0462
17860SOL    HW159416   6.188   4.389   8.087  1.2097 -0.6608  0.8057
17860SOL    HW259417   6.223   4.368   7.942 -0.6345  0.1926  0.2008
17861SOL     OW59418  10.379   7.976   7.501  0.1829 -0.4454  0.0866
17861SOL    HW159419  10.473   7.959   7.493  0.2962  0.2920 -0.1794
17861SOL    HW259420  10.360   8.041   7.434 -0.6007 -0.8766 -0.1226
17862SOL     OW59421   8.955   0.927   7.472 -0.4275  0.1896  0.3866
17862SOL    HW159422   8.976   1.017   7.449  1.3055 -0.2067  0.3029
17862SOL    HW259423   8.913   0.891   7.393 -2.5521  1.3018  0.9223
17863SOL     OW59424   4.104   8.528   2.195  0.3335  0.1182  0.3116
17863SOL    HW159425   4.146   8.542   2.111 -0.2870 -0.9916 -0.2032
17863SOL    HW259426   4.057   8.609   2.213 -2.2052 -0.7118 -1.9997
17864SOL     OW59427   9.575   0.054   2.588  0.1617 -0.7059 -0.3681
17864SOL    HW159428   9.547   0.062   2.679 -1.0506 -0.4219 -0.7506
17864SOL    HW259429   9.599   0.144   2.563 -2.2457 -0.2121 -1.1532
17865SOL     OW59430   2.266   3.200   1.869  0.4446 -0.4133 -0.5673
17865SOL    HW159431   2.222   3.246   1.797 -0.3734  0.0331  0.2050
17865SOL    HW259432   2.216   3.119   1.879  0.5630 -0.4786 -0.5095
17866SOL     OW59433   0.026   4.154  10.068  0.8290 -0.3823  0.2525
17866SOL    HW159434  -0.060   4.118  10.087 -0.5178  1.9317 -1.0685
17866SOL    HW259435   0.083   4.117  10.136 -1.0361 -2.3873  0.8535
17867SOL     OW59436   1.782   9.131   2.978 -0.0491  0.2906  0.2242
17867SOL    HW159437   1.707   9.142   3.037  0.6264 -2.0694  1.6860
17867SOL    HW259438   1.794   9.217   2.938 -2.3710  1.2295  1.3273
17868SOL     OW59439   9.176   3.258   5.583  0.3277  0.1986 -0.8220
17868SOL    HW159440   9.109   3.246   5.516  0.4688  0.8811 -1.0865
17868SOL    HW259441   9.257   3.230   5.542  0.2816 -0.2118 -0.6434
17869SOL     OW59442   5.843   4.817   4.937 -0.0374  0.3655 -0.3922
17869SOL    HW159443   5.827   4.910   4.957  0.5950  0.3675  0.1107
17869SOL    HW259444   5.758   4.775   4.952 -0.0482  0.6786  0.4558
17870SOL     OW59445   7.640   9.376   9.591 -0.0084  0.5894 -0.1851
17870SOL    HW159446   7.670   9.461   9.622 -1.0312  0.4745  1.1841
17870SOL    HW259447   7.586   9.396   9.514 -2.3053  1.4643  1.5497
17871SOL     OW59448   0.121  10.070   7.695 -0.4284  0.7974  0.2530
17871SOL    HW159449   0.155   9.990   7.735  0.2050  0.2266 -1.3418
17871SOL    HW259450   0.057  10.040   7.630 -0.0334  1.5528 -0.5148
17872SOL     OW59451   7.442  10.708   4.488 -0.3157 -0.2823  0.6262
17872SOL    HW159452   7.374  10.762   4.527 -0.3145 -1.0743  1.7895
17872SOL    HW259453   7.399  10.624   4.471 -1.2122  0.8371 -4.0468
17873SOL     OW59454   6.891   8.306   6.381  0.4305 -0.2186  0.0955
17873SOL    HW159455   6.834   8.328   6.308  0.2875 -0.6020  0.0901
17873SOL    HW259456   6.977   8.293   6.341  0.5301  0.3739  0.1053
17874SOL     OW59457   4.973   5.059   7.254 -0.1666 -0.0127  0.4954
17874SOL    HW159458   4.912   5.065   7.182  0.6952  1.3753 -0.1635
17874SOL    HW259459   4.929   5.006   7.320 -1.4106 -0.3561 -0.6022
17875SOL     OW59460   1.986   2.770   9.241 -0.5189  0.1924  0.5883
17875SOL    HW159461   2.003   2.835   9.309  1.6856  0.0976  0.1871
17875SOL    HW259462   2.067   2.766   9.190 -0.5868 -2.8287  0.5523
17876SOL     OW59463   4.207   8.253   7.831 -0.5202  0.1218  0.1687
17876SOL    HW159464   4.232   8.323   7.892 -0.3607 -0.2764  0.5636
17876SOL    HW259465   4.283   8.246   7.772 -0.9788  1.0213 -0.5602
17877SOL     OW59466   3.101   2.354   4.496  0.0281  0.9265  0.1905
17877SOL    HW159467   3.164   2.382   4.430 -0.5042  1.2774 -0.1781
17877SOL    HW259468   3.030   2.419   4.490  0.1502  1.1925  1.3738
17878SOL     OW59469   3.567   1.019   3.245  0.4030  0.4372 -0.3489
17878SOL    HW159470   3.491   1.059   3.203 -0.2939 -0.0588  0.4021
17878SOL    HW259471   3.555   0.925   3.233  0.7802  0.3442 -0.0403
17879SOL     OW59472   3.368   7.607   3.245 -0.3068  0.3077 -0.1041
17879SOL    HW159473   3.286   7.621   3.293 -0.6962 -0.2473 -0.5976
17879SOL    HW259474   3.346   7.625   3.154  0.6069  2.0524 -0.0084
17880SOL     OW59475   9.623   2.332   6.880  0.3102  0.3516 -0.3261
17880SOL    HW159476   9.700   2.388   6.871  2.0420 -1.6998  0.7466
17880SOL    HW259477   9.618   2.283   6.798  0.8135 -0.2376 -0.0201
17881SOL     OW59478   4.144   0.290   6.379  0.0481  0.0749  0.2335
17881SOL    HW159479   4.211   0.357   6.394 -0.8917  0.9931  0.4133
17881SOL    HW259480   4.124   0.298   6.286 -0.8101  0.7774  0.4651
17882SOL     OW59481   2.126   6.393   3.002  0.7430 -0.0035  1.0899
17882SOL    HW159482   2.078   6.410   3.083 -0.9828 -1.5837  0.4809
17882SOL    HW259483   2.106   6.301   2.981  1.9461  0.0737 -0.5992
17883SOL     OW59484   4.209   9.867   1.513 -0.4053 -0.1619  0.3467
17883SOL    HW159485   4.175   9.793   1.463  1.6950  0.3132 -2.0003
17883SOL    HW259486   4.299   9.843   1.534 -0.9246  0.0525  3.2902
17884SOL     OW59487   3.770   8.173   9.927  0.2062  0.1931  0.0774
17884SOL    HW159488   3.864   8.182   9.915 -0.0079  2.0446 -0.5135
17884SOL    HW259489   3.737   8.263   9.933 -2.0146 -0.0666 -4.1788
17885SOL     OW59490   1.731   2.706   9.146 -0.2390 -0.3692  0.2508
17885SOL    HW159491   1.735   2.797   9.172  0.8602 -0.1438 -0.6063
17885SOL    HW259492   1.820   2.673   9.158 -0.4747 -1.1468 -0.0346
17886SOL     OW59493   0.639   5.813   0.882 -0.4116  0.0298 -0.0482
17886SOL    HW159494   0.671   5.887   0.831  1.1979 -1.4576 -1.3410
17886SOL    HW259495   0.584   5.763   0.822 -0.2597 -0.6037  0.3244
17887SOL     OW59496   0.193   0.580   8.063  0.0187 -0.3396  0.1693
17887SOL    HW159497   0.201   0.543   7.976 -0.7234 -0.1041 -0.0103
17887SOL    HW259498   0.215   0.673   8.052 -0.5579 -0.2033  0.1301
17888SOL     OW59499   9.691   8.419  10.098  0.1262 -0.2042  0.7036
17888SOL    HW159500   9.781   8.444  10.082  0.1787  0.3372  1.7329
17888SOL    HW259501   9.650   8.418  10.012  1.1005 -0.4435  0.2284
17889SOL     OW59502   6.630   7.841   3.696 -0.2592 -0.3715 -0.4425
17889SOL    HW159503   6.616   7.928   3.733 -0.1368 -0.4990 -0.0928
17889SOL    HW259504   6.718   7.844   3.659 -0.0486 -0.5163  0.0492
17890SOL     OW59505   9.356   3.066   2.221 -0.1990  0.1714  0.4884
17890SOL    HW159506   9.333   3.119   2.297 -0.1077  1.2958 -0.2544
17890SOL    HW259507   9.291   2.995   2.222  0.9148 -0.9171  2.6435
17891SOL     OW59508   6.043   1.608   3.284 -0.1371  0.4325 -0.0154
17891SOL    HW159509   6.088   1.552   3.347 -0.0948 -1.0491 -1.2831
17891SOL    HW259510   5.950   1.587   3.295 -0.0113 -1.3536 -1.7124
17892SOL     OW59511   3.838   9.925   9.693  0.0175  0.1679  0.3119
17892SOL    HW159512   3.790   9.918   9.776  1.1063 -0.2062  0.9396
17892SOL    HW259513   3.773   9.956   9.630 -0.9357  0.0701  1.2137
17893SOL     OW59514   1.569   3.365   9.433  0.2371 -0.1502  0.4187
17893SOL    HW159515   1.486   3.398   9.468  0.3897 -0.0286  0.6711
17893SOL    HW259516   1.611   3.322   9.508 -0.6911 -2.4105 -0.2829
17894SOL     OW59517  10.466   2.277   3.578  0.4357 -0.3193  0.0619
17894SOL    HW159518  10.544   2.265   3.632  0.1269  0.7001  0.7580
17894SOL    HW259519  10.487   2.349   3.520  0.6409 -1.1951 -0.9820
17895SOL     OW59520   3.199   0.860   7.075 -0.2237 -0.6419 -0.3605
17895SOL    HW159521   3.211   0.808   6.996  0.3841 -0.3762 -0.4508
17895SOL    HW259522   3.282   0.851   7.122 -1.2722 -2.4723  1.2673
17896SOL     OW59523   5.991   2.876   0.744 -0.4086 -0.3015 -0.0180
17896SOL    HW159524   6.006   2.889   0.837 -3.0106  0.5359  0.3727
17896SOL    HW259525   6.048   2.804   0.720 -2.0915 -2.8965  3.0437
17897SOL     OW59526   3.350   7.151   7.213 -0.2937 -0.4318  0.0126
17897SOL    HW159527   3.350   7.244   7.193 -0.8003 -0.2715  0.7235
17897SOL    HW259528   3.436   7.120   7.186  0.2617  0.4557  0.7350
17898SOL     OW59529   1.674   5.224   5.139  0.1668 -0.2133  0.1757
17898SOL    HW159530   1.747   5.232   5.077  0.3581  1.2011  0.5516
17898SOL    HW259531   1.623   5.304   5.127 -0.8090 -0.7599  0.5837
17899SOL     OW59532   1.314   7.215   2.454 -0.0610  0.4455 -0.1002
17899SOL    HW159533   1.246   7.278   2.432  0.2094  0.4745 -0.8828
17899SOL    HW259534   1.396   7.265   2.449  0.0024  0.5253  1.2602
17900SOL     OW59535   4.320   5.655   5.855 -0.0993  0.7049  0.2904
17900SOL    HW159536   4.237   5.609   5.842  0.8717 -0.7479 -1.2468
17900SOL    HW259537   4.379   5.589   5.892  0.9073  1.0893 -0.5462
17901SOL     OW59538  10.540   1.873   4.046 -0.7000 -0.0217 -0.5645
17901SOL    HW159539  10.457   1.916   4.024 -0.4209  0.3625 -0.8963
17901SOL    HW259540  10.601   1.903   3.978 -0.0218  0.5501  0.2725
17902SOL     OW59541   9.782   0.658   2.029 -0.0205 -0.3921  0.8066
17902SOL    HW159542   9.731   0.733   2.062  1.1218  0.2417  1.2230
17902SOL    HW259543   9.764   0.588   2.091 -0.2086 -0.1014  1.0850
17903SOL     OW59544   8.244   6.724   9.707  0.0373 -0.0926  0.3446
17903SOL    HW159545   8.287   6.772   9.636  0.3416  0.0991  0.6536
17903SOL    HW259546   8.316   6.688   9.759 -0.1363  1.0698  1.4444
17904SOL     OW59547   4.607   4.895   5.313  0.1450 -0.1432  0.3178
17904SOL    HW159548   4.621   4.984   5.280 -1.2177  0.0802  0.2869
17904SOL    HW259549   4.608   4.840   5.234 -0.3680  0.0295  0.1888
17905SOL     OW59550   9.356   4.251   2.085  0.2002 -0.1254  0.4117
17905SOL    HW159551   9.329   4.243   2.176  1.8265 -0.9131  0.8487
17905SOL    HW259552   9.289   4.203   2.036 -0.4764 -0.0305  1.2188
17906SOL     OW59553   6.949   7.405   8.713  0.2365  0.5503  0.0703
17906SOL    HW159554   6.904   7.481   8.677 -1.1944 -0.1754  0.2850
17906SOL    HW259555   6.880   7.341   8.729  1.3635 -0.6480  0.2926
17907SOL     OW59556   9.648   4.321   7.655  0.3251 -0.0833  0.2169
17907SOL    HW159557   9.573   4.267   7.630 -1.1558  1.5829  0.8582
17907SOL    HW259558   9.724   4.268   7.632 -1.0314 -1.9313 -0.2546
17908SOL     OW59559   8.750   0.494   4.158 -0.3953  0.6378 -0.6712
17908SOL    HW159560   8.826   0.441   4.133 -0.9661 -0.5078 -0.0656
17908SOL    HW259561   8.787   0.580   4.181  0.7886 -0.0474  0.1166
17909SOL     OW59562   1.987   3.639  10.594  0.0060  0.5462 -0.1957
17909SOL    HW159563   2.002   3.727  10.559 -2.6457  1.2983  0.3149
17909SOL    HW259564   1.962   3.586  10.518  0.1578  0.6156 -0.2931
17910SOL     OW59565   3.120   2.795   8.292 -0.5745 -0.0318 -0.4051
17910SOL    HW159566   3.133   2.707   8.328 -1.0939  0.1578  0.2840
17910SOL    HW259567   3.032   2.792   8.254 -0.7219  0.2749 -0.0942
17911SOL     OW59568   3.606   9.779   6.487 -0.8649 -0.5037 -0.4557
17911SOL    HW159569   3.651   9.793   6.570 -2.6579 -0.8238  0.6273
17911SOL    HW259570   3.609   9.684   6.474  0.2370 -0.3839 -1.2899
17912SOL     OW59571   2.177  10.668   0.906 -0.6294  0.3149 -0.0115
17912SOL    HW159572   2.177  10.607   0.980 -0.9713 -0.2529 -0.4722
17912SOL    HW259573   2.106  10.730   0.926 -0.4491  0.4132  0.3341
17913SOL     OW59574   2.432   0.724   5.308  0.2924  0.1543 -0.4583
17913SOL    HW159575   2.365   0.780   5.268  0.3771 -0.7885 -2.0350
17913SOL    HW259576   2.501   0.785   5.336 -0.0938  0.9387 -1.1551
17914SOL     OW59577   4.584   9.263   4.721  0.1051  0.2838 -0.0228
17914SOL    HW159578   4.657   9.274   4.660  0.0591  0.1059 -0.1118
17914SOL    HW259579   4.517   9.218   4.669 -0.6511  1.7720 -0.3977
17915SOL     OW59580   5.948   2.648   8.688  0.0861 -0.3288 -0.5221
17915SOL    HW159581   5.981   2.571   8.735 -0.8342 -0.3893  0.0394
17915SOL    HW259582   6.006   2.720   8.716  0.7132 -0.7297 -0.7604
17916SOL     OW59583   5.385   3.312   1.946  0.3404 -0.5693  0.1832
17916SOL    HW159584   5.426   3.329   2.030  1.8458 -2.0393 -0.1910
17916SOL    HW259585   5.386   3.396   1.900 -1.0125  0.3839  1.7926
17917SOL     OW59586   6.495   7.546   6.863  0.1593 -0.6829 -0.3042
17917SOL    HW159587   6.537   7.603   6.799  1.1858 -1.0080  0.0552
17917SOL    HW259588   6.536   7.569   6.946 -1.0164 -0.4015  0.2183
17918SOL     OW59589   1.521   9.264   1.787  0.2300  0.1663  0.2660
17918SOL    HW159590   1.455   9.198   1.809  1.7454 -0.8093  2.0803
17918SOL    HW259591   1.482   9.347   1.816  0.0716 -0.4928  2.0280
17919SOL     OW59592   5.473  10.655   6.647 -0.1655 -0.2037 -0.2697
17919SOL    HW159593   5.414  10.613   6.710  1.7604 -1.1268  0.9913
17919SOL    HW259594   5.497  10.738   6.689 -0.8648  0.3869 -0.9899
17920SOL     OW59595   6.939   5.024   3.625 -0.3583  0.0232 -0.0623
17920SOL    HW159596   6.907   5.111   3.646 -0.4422 -0.0550  0.1379
17920SOL    HW259597   6.985   4.996   3.705  0.0647  0.0694 -0.2859
17921SOL     OW59598   7.023   1.603   5.092 -0.2475  0.5049  1.0293
17921SOL    HW159599   7.075   1.611   5.013  0.6329  2.1155  1.7292
17921SOL    HW259600   6.948   1.548   5.066  0.3591  0.4461 -0.7134
17922SOL     OW59601   6.126   6.122   0.370  0.5631 -0.1768 -0.1883
17922SOL    HW159602   6.198   6.166   0.415 -0.1318  2.4106 -1.3902
17922SOL    HW259603   6.149   6.128   0.277 -0.2264 -1.2122 -0.4707
17923SOL     OW59604   3.647   2.466   8.743 -0.1321 -0.3575  0.9777
17923SOL    HW159605   3.699   2.473   8.823  0.5995 -1.1491  0.5914
17923SOL    HW259606   3.679   2.537   8.687 -0.6882  0.2347  1.3995
17924SOL     OW59607   5.984   9.031   8.668 -0.2872  0.2358  0.0603
17924SOL    HW159608   6.066   9.068   8.700 -0.7497  0.1050  1.4349
17924SOL    HW259609   6.008   8.989   8.585  1.2545 -0.6877  0.9360
17925SOL     OW59610   3.849  10.197   6.797 -0.4258 -0.4253 -0.6472
17925SOL    HW159611   3.785  10.268   6.786 -0.4463  0.2746  2.7491
17925SOL    HW259612   3.847  10.178   6.891  2.4236 -2.2604 -0.8432
17926SOL     OW59613   9.279   1.451   7.925  0.1473  0.2096 -0.2740
17926SOL    HW159614   9.365   1.444   7.968  0.1847 -0.0046 -0.3840
17926SOL    HW259615   9.240   1.364   7.935  0.2746  0.0751 -0.9295
17927SOL     OW59616   8.216   2.595   4.003  0.1068 -0.6401  0.2164
17927SOL    HW159617   8.160   2.652   4.056 -0.0559 -0.8234  0.2474
17927SOL    HW259618   8.281   2.562   4.065 -0.0087 -0.7579  0.2755
17928SOL     OW59619   7.887   9.968   5.955  0.1812 -0.2759  0.3539
17928SOL    HW159620   7.880   9.878   5.924  0.2252 -0.2836  0.3646
17928SOL    HW259621   7.801   9.988   5.991  0.5134 -0.7190  1.4359
17929SOL     OW59622   2.841   0.055   8.948 -0.5815 -0.0243  0.0427
17929SOL    HW159623   2.899   0.124   8.982 -0.2138  0.1966 -0.9935
17929SOL    HW259624   2.776   0.102   8.896 -0.0793 -0.4690 -1.0249
17930SOL     OW59625   5.284   8.332   1.442  0.5540 -0.3485 -0.4417
17930SOL    HW159626   5.284   8.362   1.533 -0.0347 -0.9270 -0.2392
17930SOL    HW259627   5.252   8.408   1.392 -2.1366 -0.9408  0.2077
17931SOL     OW59628   2.819  10.410   0.420  0.3277 -0.5187  0.1571
17931SOL    HW159629   2.778  10.326   0.399 -0.5053  0.0964 -0.8019
17931SOL    HW259630   2.751  10.458   0.467  0.4813 -0.0522 -0.0910
17932SOL     OW59631   5.649   2.847   7.364  0.0030 -0.1631 -0.2732
17932SOL    HW159632   5.622   2.927   7.319  0.2131  0.5643  0.8567
17932SOL    HW259633   5.744   2.846   7.354 -0.0264 -0.4263 -0.5309
17933SOL     OW59634   1.966   8.973   9.206  0.1338 -0.0316  0.0208
17933SOL    HW159635   1.919   9.057   9.205 -1.3079 -0.8003  0.3759
17933SOL    HW259636   1.924   8.923   9.275  2.0831 -0.4738  0.9503
17934SOL     OW59637   2.440   8.347   9.796 -0.0339  0.7695  0.3308
17934SOL    HW159638   2.356   8.308   9.769  0.3112 -0.1946  0.6362
17934SOL    HW259639   2.492   8.348   9.716 -0.1300  0.8498  0.2676
17935SOL     OW59640   7.598   6.878   8.064  0.0384 -0.2835  0.2156
17935SOL    HW159641   7.609   6.973   8.060  1.7322 -0.4791 -1.1530
17935SOL    HW259642   7.633   6.853   8.149  0.3568  0.2493  0.2477
17936SOL     OW59643   7.393   3.742   3.390 -0.5287  0.0091 -0.2691
17936SOL    HW159644   7.369   3.664   3.440 -0.2595 -1.3575 -2.1810
17936SOL    HW259645   7.353   3.814   3.438 -1.4748 -1.3674  1.1129
17937SOL     OW59646   3.145   2.067  10.490 -0.2201 -0.4091  0.3329
17937SOL    HW159647   3.099   2.113  10.420 -0.6966  0.3034  1.0877
17937SOL    HW259648   3.225   2.034  10.450 -0.1242  0.6341 -0.3633
17938SOL     OW59649   1.070   6.409   7.279 -0.3141 -0.0551 -0.5981
17938SOL    HW159650   0.995   6.409   7.338 -0.3880 -0.3116 -0.6884
17938SOL    HW259651   1.132   6.470   7.319  1.6021 -3.5165  2.2908
17939SOL     OW59652   4.662   0.585   0.175  0.2247 -0.3461 -0.1135
17939SOL    HW159653   4.573   0.622   0.177 -0.0830 -1.1194  0.5861
17939SOL    HW259654   4.660   0.521   0.104 -0.3403 -1.7158  1.0843
17940SOL     OW59655   9.241  10.007   2.959  0.2013  0.1945 -0.1503
17940SOL    HW159656   9.313  10.011   3.022  2.2148  2.4195 -2.3702
17940SOL    HW259657   9.200   9.923   2.976  2.5627 -0.6802  2.0405
17941SOL     OW59658   6.220   8.299   3.949  0.0219  0.2789 -0.1972
17941SOL    HW159659   6.141   8.311   3.896 -1.0226 -0.1634  1.1963
17941SOL    HW259660   6.271   8.235   3.901 -0.2682  0.8556 -1.3218
17942SOL     OW59661   6.146   2.151   9.468  0.0207  0.4455  0.3056
17942SOL    HW159662   6.222   2.201   9.438 -0.1091 -0.2827 -1.3226
17942SOL    HW259663   6.070   2.201   9.437 -0.1516  0.6009  0.9711
17943SOL     OW59664   8.246   1.928   3.297 -0.3574  0.5442 -0.5306
17943SOL    HW159665   8.166   1.878   3.280 -1.2755  1.9028 -0.3710
17943SOL    HW259666   8.312   1.887   3.240 -0.9646 -1.0362 -0.1574
17944SOL     OW59667   3.184  10.145   8.403  0.0809  0.1335  0.2387
17944SOL    HW159668   3.093  10.121   8.418  0.0009 -0.9988 -1.6405
17944SOL    HW259669   3.182  10.239   8.389 -0.4952  0.4229  2.0377
17945SOL     OW59670   8.023   2.508   1.981  0.1234  0.1950 -0.0075
17945SOL    HW159671   7.964   2.453   1.930 -0.0331  0.8877 -0.5912
17945SOL    HW259672   8.099   2.519   1.924 -0.5077  1.8795 -0.5728
17946SOL     OW59673   9.638   3.777   8.404  0.1555 -0.1769  0.6903
17946SOL    HW159674   9.629   3.839   8.332 -0.8440 -1.6609 -0.5424
17946SOL    HW259675   9.732   3.767   8.415  0.3290  0.3695 -0.1567
17947SOL     OW59676   2.426   0.055   2.790 -0.5049 -0.8003  0.0562
17947SOL    HW159677   2.370   0.129   2.811 -0.0823 -0.1109 -1.1815
17947SOL    HW259678   2.501   0.093   2.745  0.1052 -1.9019  0.0980
17948SOL     OW59679   5.640   9.489   7.658  0.2124  0.0840 -0.3654
17948SOL    HW159680   5.644   9.584   7.652 -0.4305  0.0266 -2.9239
17948SOL    HW259681   5.578   9.463   7.590 -1.4367 -2.0643  1.7979
17949SOL     OW59682   4.022   8.159   6.818 -0.1329  0.5400  0.1188
17949SOL    HW159683   4.014   8.253   6.836  1.2791  0.7969 -0.4374
17949SOL    HW259684   3.936   8.133   6.787 -0.6130  1.5995  0.5261
17950SOL     OW59685  10.685   0.035   4.624  0.7345  0.7941  0.2475
17950SOL    HW159686  10.681  -0.020   4.546 -0.8446  1.3949 -0.1296
17950SOL    HW259687  10.770   0.079   4.618  1.6509 -0.9073  0.1186
17951SOL     OW59688   8.357   7.075   1.737  0.1912  0.0681  0.0668
17951SOL    HW159689   8.369   7.127   1.657  1.0378 -0.0099  0.1361
17951SOL    HW259690   8.379   7.135   1.808 -0.7110  0.1841  0.2632
17952SOL     OW59691   1.088   9.478   6.145  0.0454  0.8246  0.1176
17952SOL    HW159692   1.110   9.570   6.130  0.6578  0.3706 -2.0488
17952SOL    HW259693   1.058   9.446   6.060 -1.6080 -0.6252  1.1706
17953SOL     OW59694   7.372   7.667   5.564 -0.1018  0.6617 -0.4700
17953SOL    HW159695   7.297   7.613   5.589 -0.8600  1.8444 -0.1279
17953SOL    HW259696   7.441   7.604   5.543 -1.0108 -0.4353 -0.2409
17954SOL     OW59697   9.020   5.099   6.576 -0.3638  0.4446  0.2438
17954SOL    HW159698   8.999   5.122   6.486  0.1707 -0.8438 -0.2357
17954SOL    HW259699   8.960   5.152   6.629 -1.2332  0.6399 -0.8957
17955SOL     OW59700   9.269   2.472   8.220  0.3676 -0.2982  0.2220
17955SOL    HW159701   9.185   2.471   8.266  1.0339 -0.1190  1.4907
17955SOL    HW259702   9.308   2.556   8.243 -0.0659  0.6430 -2.2136
17956SOL     OW59703   3.565   7.447  10.345  0.0349  0.1554 -0.0458
17956SOL    HW159704   3.560   7.474  10.437  0.7378  0.1105  0.0148
17956SOL    HW259705   3.587   7.527  10.298 -0.2608  0.1647 -0.1704
17957SOL     OW59706   8.212  10.579   3.521 -0.4921  0.1244 -0.2368
17957SOL    HW159707   8.281  10.635   3.558  1.4633 -1.5424 -1.1550
17957SOL    HW259708   8.258  10.524   3.458 -2.8199 -0.6621 -1.3370
17958SOL     OW59709   9.317   5.342   2.970  0.3627  0.0933  0.1450
17958SOL    HW159710   9.246   5.288   3.006 -0.0044  0.1418 -0.4836
17958SOL    HW259711   9.385   5.279   2.945  1.2635  0.1461  2.2239
17959SOL     OW59712   7.420   8.357   9.209 -0.0708 -0.2803  0.4228
17959SOL    HW159713   7.417   8.293   9.279 -0.5309 -1.0152 -0.2553
17959SOL    HW259714   7.508   8.350   9.173 -0.5430 -1.5660 -0.5678
17960SOL     OW59715   5.868   3.767   5.029 -0.5556 -0.1114 -0.8061
17960SOL    HW159716   5.899   3.759   4.938 -0.3456  0.2048 -0.7652
17960SOL    HW259717   5.908   3.693   5.075 -0.4944 -0.1553 -0.9289
17961SOL     OW59718   3.782  10.425   1.392 -0.3396  0.8524  0.4970
17961SOL    HW159719   3.739  10.389   1.314  0.1226 -1.3934  1.2041
17961SOL    HW259720   3.872  10.391   1.388  0.0692  1.7707  1.3524
17962SOL     OW59721   7.236   3.463   7.254 -0.7131  0.2261  0.4624
17962SOL    HW159722   7.221   3.395   7.320 -0.0837  0.3648  0.7627
17962SOL    HW259723   7.274   3.536   7.304  0.3311  0.1178 -0.1397
17963SOL     OW59724   5.292   7.574   9.344  0.0110 -0.5588  0.2519
17963SOL    HW159725   5.278   7.594   9.251  3.1403 -1.5574 -0.5623
17963SOL    HW259726   5.292   7.659   9.387 -0.9858 -0.0383 -0.7147
17964SOL     OW59727   4.872   9.397  10.303  0.0965  0.1921 -0.5368
17964SOL    HW159728   4.947   9.351  10.340  0.2808 -0.1853 -1.3618
17964SOL    HW259729   4.856   9.470  10.363  0.9716  0.1345 -0.2274
17965SOL     OW59730   2.805   2.795   4.594 -0.1740 -0.6086  0.3330
17965SOL    HW159731   2.883   2.851   4.593 -0.3301 -0.3887  0.3839
17965SOL    HW259732   2.731   2.856   4.596 -0.3374 -0.8210  1.2616
17966SOL     OW59733   6.842   3.531   7.963  0.3944 -0.5255 -0.1260
17966SOL    HW159734   6.854   3.455   8.019  0.2271  0.2689  1.0222
17966SOL    HW259735   6.763   3.511   7.912 -0.1852 -0.7303  0.8363
17967SOL     OW59736   0.314   9.408   3.500 -0.2695 -0.7341 -0.0881
17967SOL    HW159737   0.237   9.355   3.519  0.4664 -1.7816  0.0815
17967SOL    HW259738   0.328   9.461   3.579 -1.2332  0.0277 -0.4049
17968SOL     OW59739   3.580   9.274   7.644  0.2264  0.5314 -0.1493
17968SOL    HW159740   3.511   9.336   7.625  0.8088  1.9740  2.1055
17968SOL    HW259741   3.642   9.284   7.572 -0.9506  0.6083 -1.1788
17969SOL     OW59742   6.549   3.168   9.226  0.5878 -0.0812  0.1190
17969SOL    HW159743   6.593   3.083   9.234  1.5181  0.5214  2.2682
17969SOL    HW259744   6.612   3.231   9.262 -1.0467  1.1820  0.8868
17970SOL     OW59745   5.387   4.852   0.447  0.4832  0.0735 -0.2256
17970SOL    HW159746   5.373   4.822   0.537 -0.1965 -0.8101 -0.6148
17970SOL    HW259747   5.471   4.814   0.422  1.6397  1.8829  0.6530
17971SOL     OW59748   3.702   5.109   6.050 -0.1690  0.1512 -0.2731
17971SOL    HW159749   3.738   5.141   6.134  0.0811  0.4878 -0.5058
17971SOL    HW259750   3.631   5.050   6.076 -1.3305  1.6772  0.1617
17972SOL     OW59751   5.486   4.465   2.923 -0.5608 -0.1777  0.2183
17972SOL    HW159752   5.398   4.442   2.951 -0.2824 -1.0819  0.4072
17972SOL    HW259753   5.476   4.497   2.833 -0.8582 -2.2252 -0.5367
17973SOL     OW59754   2.461   8.321   2.251  0.5860  0.0136  0.1123
17973SOL    HW159755   2.525   8.364   2.308 -0.5367  1.4500  0.3421
17973SOL    HW259756   2.452   8.233   2.288  3.2586 -0.6878 -0.6311
17974SOL     OW59757   4.136   8.094   4.863  0.1801 -0.5701 -0.4322
17974SOL    HW159758   4.126   8.034   4.789  0.7544 -1.5633  0.2643
17974SOL    HW259759   4.220   8.070   4.902 -0.8018 -1.1632  1.4845
17975SOL     OW59760   6.549   8.145   7.609  0.0212  0.2389 -0.2022
17975SOL    HW159761   6.482   8.125   7.675 -0.7592  1.5312 -0.5651
17975SOL    HW259762   6.591   8.061   7.592 -1.2948 -0.5496  0.2803
17976SOL     OW59763   0.889   5.750   2.341  0.1202 -0.4349 -0.0651
17976SOL    HW159764   0.876   5.706   2.425  0.9594 -1.1325 -0.2843
17976SOL    HW259765   0.896   5.679   2.277 -3.8373  0.0568 -1.3330
17977SOL     OW59766   9.000   4.009   0.789 -0.3806 -0.2356  0.4299
17977SOL    HW159767   9.024   3.917   0.788  0.7232  0.0312 -0.1766
17977SOL    HW259768   9.007   4.035   0.881  0.3771 -0.5051  0.4541
17978SOL     OW59769   1.074   2.489   6.128 -0.6627  0.4663 -0.3998
17978SOL    HW159770   1.041   2.401   6.140 -2.6509  1.1150 -0.7816
17978SOL    HW259771   1.028   2.542   6.193 -1.4674  1.6461 -1.8644
17979SOL     OW59772  10.350   4.521   7.186  0.0382  0.0314 -0.4302
17979SOL    HW159773  10.397   4.489   7.108 -0.0006 -0.2005 -0.3596
17979SOL    HW259774  10.395   4.602   7.209  0.8555 -0.5513  0.0571
17980SOL     OW59775   4.815   4.692   8.296  0.2263 -0.0998 -0.3884
17980SOL    HW159776   4.852   4.728   8.215 -1.6061  0.1847 -1.1599
17980SOL    HW259777   4.720   4.704   8.286 -0.2318 -2.2515  0.7304
17981SOL     OW59778   0.333   2.900   1.164 -0.2393 -0.2240  0.1945
17981SOL    HW159779   0.272   2.911   1.237 -0.6297 -2.6225  0.2903
17981SOL    HW259780   0.308   2.969   1.102  0.6294  2.4275  2.5583
17982SOL     OW59781   1.290   9.605   1.682 -0.0503 -0.2477 -0.2880
17982SOL    HW159782   1.280   9.554   1.602  0.8647 -1.4191  0.3061
17982SOL    HW259783   1.334   9.685   1.655  2.4331 -1.6260 -0.7000
17983SOL     OW59784   0.400  10.479   3.345  0.0882  0.1921  0.0060
17983SOL    HW159785   0.416  10.508   3.255  1.1184 -0.0717  0.1012
17983SOL    HW259786   0.351  10.552   3.384 -0.1761  0.4038 -0.7009
17984SOL     OW59787   3.126   0.241   0.149 -0.2374 -0.0988 -0.4336
17984SOL    HW159788   3.146   0.155   0.110 -2.3937 -0.3705 -1.0518
17984SOL    HW259789   3.036   0.233   0.180 -0.2124  1.7144  0.2206
17985SOL     OW59790   4.719   2.789   2.870 -0.4689  0.1475 -0.0619
17985SOL    HW159791   4.698   2.880   2.851 -1.9438 -0.4474 -1.4525
17985SOL    HW259792   4.815   2.788   2.878 -0.3651  1.6704 -0.8084
17986SOL     OW59793   3.814   1.493  10.570  0.1608 -0.1129  0.3858
17986SOL    HW159794   3.766   1.410  10.565  0.1249 -0.4082  3.6182
17986SOL    HW259795   3.753   1.552  10.614  1.0515  0.9520  0.2139
17987SOL     OW59796   0.721   2.590   6.506 -0.0886 -0.5512 -0.3806
17987SOL    HW159797   0.678   2.581   6.421 -1.2033 -1.5421  0.2448
17987SOL    HW259798   0.678   2.524   6.561  1.5169 -0.8440  0.5887
17988SOL     OW59799   7.176   9.721   4.846  0.0259 -0.3551  0.2577
17988SOL    HW159800   7.117   9.751   4.777 -0.4967 -1.1192  0.3525
17988SOL    HW259801   7.161   9.781   4.919  0.2487  0.1779 -0.1269
17989SOL     OW59802   2.309   0.393   2.044  0.2542  0.2304  0.0130
17989SOL    HW159803   2.285   0.321   2.102 -1.6576  1.1261  0.4067
17989SOL    HW259804   2.366   0.353   1.979  1.3724 -1.0824  1.6971
17990SOL     OW59805   6.482  10.694   8.529  0.4624 -0.1528  0.0257
17990SOL    HW159806   6.431  10.771   8.552  0.7088 -0.0050  0.0730
17990SOL    HW259807   6.488  10.644   8.611 -1.0701 -1.0375 -0.3380
17991SOL     OW59808   1.887   9.993   2.304  0.2229  0.4744 -0.5280
17991SOL    HW159809   1.976   9.974   2.330  0.3400  2.6842  0.9949
17991SOL    HW259810   1.895  10.026   2.214  0.7650 -0.3835 -0.8067
17992SOL     OW59811   7.736   7.615   5.727 -0.3099  0.0550 -0.3156
17992SOL    HW159812   7.820   7.621   5.773  0.0110 -2.1330 -0.4876
17992SOL    HW259813   7.757   7.640   5.637 -0.2668  1.3320  0.0348
17993SOL     OW59814   4.593   0.774   7.462 -0.0060 -0.1879  0.5210
17993SOL    HW159815   4.679   0.735   7.480  0.0904  0.1012  0.6828
17993SOL    HW259816   4.575   0.750   7.371  0.3638 -0.0259  0.4029
17994SOL     OW59817   9.211   4.617   6.766 -0.3484  0.8055 -0.2096
17994SOL    HW159818   9.116   4.611   6.759 -0.4768 -1.2412  2.1136
17994SOL    HW259819   9.240   4.527   6.780  1.8068  1.5490  0.5357
17995SOL     OW59820   4.668   4.460   9.251  0.0377  0.1136 -0.4852
17995SOL    HW159821   4.665   4.364   9.246  0.7533 -0.0075  0.9650
17995SOL    HW259822   4.657   4.479   9.344  1.4965  1.3556 -0.5348
17996SOL     OW59823   4.737   2.128   0.585  0.0313 -0.3361  0.1973
17996SOL    HW159824   4.677   2.141   0.511 -0.6775  2.9166  1.1857
17996SOL    HW259825   4.824   2.119   0.544 -0.5304 -0.0849 -1.1026
17997SOL     OW59826   3.460   8.318   1.626 -0.7747  0.0141  0.2981
17997SOL    HW159827   3.377   8.342   1.584 -0.2928  0.3948 -0.4753
17997SOL    HW259828   3.444   8.232   1.663 -1.3590 -0.1490 -0.3070
17998SOL     OW59829   4.811   3.723   6.581 -0.0184 -0.1721 -0.1797
17998SOL    HW159830   4.754   3.657   6.621 -1.4131  0.4914 -0.9798
17998SOL    HW259831   4.802   3.708   6.487  0.3466  0.5974 -0.3438
17999SOL     OW59832   2.681   0.592   0.959 -0.3465  0.6357  0.3804
17999SOL    HW159833   2.711   0.657   1.023  0.0949 -0.1332  0.9807
17999SOL    HW259834   2.755   0.581   0.900 -0.2712  0.4008  0.5149
18000SOL     OW59835   8.760   1.661   4.179  0.1425 -0.0523 -0.0054
18000SOL    HW159836   8.771   1.756   4.191 -1.1875  0.1835 -0.5470
18000SOL    HW259837   8.812   1.641   4.101  3.0677 -0.3818  1.8505
18001SOL     OW59838   6.825   8.022   1.535  0.1250  0.9199  0.2010
18001SOL    HW159839   6.914   7.985   1.538 -0.2466 -0.3370 -1.8562
18001SOL    HW259840   6.830   8.091   1.470 -0.5798  0.2096 -0.6371
18002SOL     OW59841   0.458   2.493   8.337 -0.3104 -0.4229 -0.3715
18002SOL    HW159842   0.415   2.504   8.253 -0.1826 -0.9366 -0.5115
18002SOL    HW259843   0.481   2.400   8.340  0.0614 -0.3239  0.0466
18003SOL     OW59844   6.905   5.258   1.499 -0.1366 -0.0340 -0.0779
18003SOL    HW159845   6.920   5.163   1.499 -1.9479 -0.3508 -0.2097
18003SOL    HW259846   6.840   5.272   1.568 -0.4718  0.9978 -0.5897
18004SOL     OW59847   6.920  10.520  10.284 -0.0359 -0.1512  0.3021
18004SOL    HW159848   6.952  10.438  10.321  1.0130 -0.0834 -0.4090
18004SOL    HW259849   6.829  10.526  10.315  0.3029 -0.8687  1.5083
18005SOL     OW59850   6.345   3.933   2.976 -0.3999  0.1286 -0.4402
18005SOL    HW159851   6.330   4.027   2.991  0.9685  0.7093 -2.3202
18005SOL    HW259852   6.436   3.919   3.002 -1.2152 -1.2465  1.9764
18006SOL     OW59853   2.573  10.274   6.792  0.5834  0.1124 -0.0601
18006SOL    HW159854   2.564  10.289   6.697 -1.7670 -0.1535  0.0716
18006SOL    HW259855   2.514  10.337   6.832 -0.7466 -1.7586  1.0590
18007SOL     OW59856   9.445   6.660   2.761  0.0417 -0.4026 -0.3379
18007SOL    HW159857   9.350   6.671   2.765 -0.1436 -1.7699 -0.2624
18007SOL    HW259858   9.469   6.691   2.674 -0.1061  2.1364  0.4546
18008SOL     OW59859   7.586   3.531   6.901  0.4456  0.7269 -0.0724
18008SOL    HW159860   7.580   3.626   6.904  2.8096  0.9358 -0.4765
18008SOL    HW259861   7.664   3.509   6.951 -0.6665 -1.1299  0.9981
18009SOL     OW59862   3.452   0.481   9.404 -0.1597 -0.2192 -0.4559
18009SOL    HW159863   3.488   0.471   9.493  1.7967  1.1639 -1.0425
18009SOL    HW259864   3.390   0.554   9.411 -1.8786 -1.6553  0.2300
18010SOL     OW59865   9.191   2.808   6.747  0.0436  0.0773 -0.0436
18010SOL    HW159866   9.170   2.900   6.730  0.0791  0.4258  1.6695
18010SOL    HW259867   9.285   2.807   6.760  0.1099 -0.2944 -0.5185
18011SOL     OW59868   2.359   3.803   6.714  0.0689 -0.2758  0.1085
18011SOL    HW159869   2.419   3.858   6.765 -1.5381 -0.2318  2.0844
18011SOL    HW259870   2.276   3.851   6.716 -0.9466 -1.9783  0.4955
18012SOL     OW59871   2.966   0.176   0.447 -0.6185 -0.0213  0.1225
18012SOL    HW159872   2.942   0.234   0.375 -0.1624  0.8371  0.6267
18012SOL    HW259873   3.057   0.201   0.468 -0.5450 -0.6614  0.5991
18013SOL     OW59874   1.252   4.121   9.139 -0.1954 -0.0238 -0.7915
18013SOL    HW159875   1.233   4.180   9.067 -1.9991 -0.8002 -0.9975
18013SOL    HW259876   1.287   4.177   9.208 -1.9234  1.3142 -0.9457
18014SOL     OW59877   0.032   2.612   4.683 -0.0504  0.5336 -0.1559
18014SOL    HW159878   0.047   2.699   4.719  1.2495  0.8899 -1.4518
18014SOL    HW259879  -0.005   2.628   4.596 -0.0771 -0.2143 -0.2868
18015SOL     OW59880   2.269  10.198   6.875  0.4305  0.0808 -0.0209
18015SOL    HW159881   2.316  10.122   6.842 -0.0099 -0.8252  1.3300
18015SOL    HW259882   2.176  10.177   6.862  0.2704 -0.0350  1.1953
18016SOL     OW59883   4.248   4.682   8.221 -0.2259  0.5047 -0.7007
18016SOL    HW159884   4.265   4.773   8.196  1.1746  0.5101  0.2127
18016SOL    HW259885   4.333   4.646   8.245 -0.5603 -1.4378 -2.1989
18017SOL     OW59886   7.195   7.229   6.190 -0.1716 -0.1247 -0.5931
18017SOL    HW159887   7.178   7.318   6.159  0.3577  0.5965  1.0325
18017SOL    HW259888   7.111   7.198   6.223 -0.0983  0.2683 -0.0243
18018SOL     OW59889   4.683   4.118   1.061  0.0005 -0.2787 -0.6510
18018SOL    HW159890   4.595   4.087   1.081 -0.1253 -0.7871 -1.8649
18018SOL    HW259891   4.702   4.184   1.127 -1.3413 -0.0778 -0.4537
18019SOL     OW59892   5.521   7.777   4.088  0.4168  0.1412 -0.3374
18019SOL    HW159893   5.565   7.843   4.034  1.2818 -0.2239 -0.1055
18019SOL    HW259894   5.583   7.704   4.091 -0.3113 -0.4766 -0.1656
18020SOL     OW59895   9.597   2.185   8.213 -0.4516 -0.2613 -0.1659
18020SOL    HW159896   9.634   2.119   8.271 -0.5463  1.0638  1.4676
18020SOL    HW259897   9.668   2.209   8.154  0.8256  0.9922  1.7931
18021SOL     OW59898   6.172   1.389   6.674  0.1388 -0.2113  0.2938
18021SOL    HW159899   6.247   1.340   6.710  0.4417  0.0476  0.0200
18021SOL    HW259900   6.136   1.331   6.607  1.8385  0.8161 -1.5907
18022SOL     OW59901   4.227   7.708   2.885 -0.0961  0.4144  0.4443
18022SOL    HW159902   4.313   7.702   2.926 -0.5712 -1.3388  1.2564
18022SOL    HW259903   4.225   7.636   2.822 -1.3537 -0.2740  1.2348
18023SOL     OW59904   3.150   7.949   7.385  0.4320  0.0953  0.5969
18023SOL    HW159905   3.217   8.010   7.416  1.6481 -0.3193 -1.0948
18023SOL    HW259906   3.194   7.864   7.383 -0.4675 -0.3795  0.4696
18024SOL     OW59907   9.765   8.003   4.500 -0.3235  0.8679 -0.6276
18024SOL    HW159908   9.698   7.985   4.435  0.2253  1.2323 -1.3150
18024SOL    HW259909   9.806   7.918   4.517 -0.4712  0.7716 -0.7585
18025SOL     OW59910   7.112   4.684   1.316  0.2501  0.4515  0.1631
18025SOL    HW159911   7.205   4.704   1.322  0.5928 -0.6580 -1.0616
18025SOL    HW259912   7.083   4.726   1.235 -0.1291  0.1106  0.1170
18026SOL     OW59913   6.918   1.130   2.146 -0.4084  0.1405  0.6582
18026SOL    HW159914   6.907   1.221   2.173  1.6200  0.2274  1.3645
18026SOL    HW259915   6.863   1.121   2.068 -0.0680  2.1635  0.1317
18027SOL     OW59916   1.538   0.802   7.238 -0.0809 -0.0822 -0.0201
18027SOL    HW159917   1.578   0.715   7.236 -1.6605 -0.8350 -1.3592
18027SOL    HW259918   1.612   0.862   7.229  1.0371 -1.2676  0.8885
18028SOL     OW59919   6.969   3.092  10.211 -0.1024  0.2160 -0.2594
18028SOL    HW159920   6.906   3.020  10.212  0.2885 -0.1307 -0.0111
18028SOL    HW259921   6.934   3.156  10.273 -1.0322  0.7540 -1.3129
18029SOL     OW59922   7.327   3.203   4.532  0.3236  0.3714  0.0373
18029SOL    HW159923   7.366   3.176   4.449  0.5333 -1.3069  0.6511
18029SOL    HW259924   7.401   3.232   4.586  0.1973  1.3760 -0.3082
18030SOL     OW59925   5.320   3.897   0.278 -0.9789  0.7867  0.4096
18030SOL    HW159926   5.387   3.854   0.224 -1.4641  1.3261 -0.6555
18030SOL    HW259927   5.289   3.970   0.224  0.1683  2.8305  2.3590
18031SOL     OW59928   5.251   1.795   3.953 -0.2877  0.6720  0.0512
18031SOL    HW159929   5.180   1.856   3.932  1.5982  1.6709 -4.4078
18031SOL    HW259930   5.226   1.714   3.910 -0.1922 -0.0440  1.2932
18032SOL     OW59931   3.931   4.902   8.627  0.0320  0.1683 -0.0140
18032SOL    HW159932   3.882   4.878   8.706  0.1870  0.3414  0.1361
18032SOL    HW259933   3.985   4.824   8.609 -2.2031 -1.1069 -1.7281
18033SOL     OW59934   1.805   7.497   2.470 -0.2543  0.2173 -0.4873
18033SOL    HW159935   1.858   7.458   2.540 -0.7315  0.7462  0.1781
18033SOL    HW259936   1.869   7.531   2.408  0.1855  0.1149 -0.0977
18034SOL     OW59937   0.772   7.953   3.906 -0.0386  0.0013  0.2940
18034SOL    HW159938   0.740   8.000   3.829 -1.0300  0.7703  1.1367
18034SOL    HW259939   0.762   7.861   3.884 -0.2430  0.2154 -0.5294
18035SOL     OW59940   5.754   5.983   6.568  0.1478 -0.8227  0.7119
18035SOL    HW159941   5.757   5.998   6.663 -1.6590 -1.2931  0.8841
18035SOL    HW259942   5.813   6.049   6.532  0.2294 -0.0839  2.1166
18036SOL     OW59943   5.954  10.584   1.821  0.5801  0.2642  0.2223
18036SOL    HW159944   6.004  10.620   1.895  0.2012  0.2618  0.4819
18036SOL    HW259945   5.987  10.495   1.810 -0.0271 -0.0792  1.0179
18037SOL     OW59946   4.750   5.206   0.181 -1.0566  0.7873  0.3807
18037SOL    HW159947   4.687   5.173   0.246 -1.0661  0.4806  0.2198
18037SOL    HW259948   4.701   5.208   0.099 -0.6481 -0.1965  0.0983
18038SOL     OW59949   7.628  10.326   9.085 -0.1565  0.3843  0.6801
18038SOL    HW159950   7.616  10.259   9.152 -2.1766 -0.1056 -0.0795
18038SOL    HW259951   7.603  10.408   9.128 -2.1425 -0.0247  0.4016
18039SOL     OW59952   0.642   5.831   1.958  0.2108  0.5286  0.0024
18039SOL    HW159953   0.673   5.861   2.043  1.8509 -0.1308 -0.3185
18039SOL    HW259954   0.628   5.911   1.907  2.3308  0.8707 -0.1186
18040SOL     OW59955   5.901   1.292  10.273  0.0571 -0.2340 -0.0220
18040SOL    HW159956   5.869   1.359  10.213 -1.9054 -1.4046 -0.3943
18040SOL    HW259957   5.955   1.235  10.219 -0.3129 -0.3420 -0.2766
18041SOL     OW59958   5.586   6.623   4.248  0.3356  0.5261  0.1719
18041SOL    HW159959   5.502   6.656   4.216  0.3708 -0.4833 -1.0235
18041SOL    HW259960   5.651   6.672   4.198  0.4897  1.4185  1.2070
18042SOL     OW59961   1.412   7.077   0.208 -0.0610 -0.3850  0.2853
18042SOL    HW159962   1.350   7.005   0.218  0.7391 -1.2512 -0.7645
18042SOL    HW259963   1.487   7.051   0.263 -0.3298  0.3362  1.0161
18043SOL     OW59964   3.259  10.161   8.654 -0.1244  0.7425 -0.5890
18043SOL    HW159965   3.190  10.212   8.695 -0.8726 -0.2505 -0.5767
18043SOL    HW259966   3.227  10.144   8.565  0.5620  1.1277 -0.9215
18044SOL     OW59967   3.828   2.894   2.726  0.3907 -0.3032  0.1099
18044SOL    HW159968   3.836   2.860   2.815  1.0405  0.0381  0.1895
18044SOL    HW259969   3.738   2.875   2.701  0.4394 -1.1364  0.5342
18045SOL     OW59970   8.007   4.597   8.353 -0.1750  0.3530 -0.1356
18045SOL    HW159971   7.917   4.609   8.382  0.3453  0.7429  1.4477
18045SOL    HW259972   8.049   4.682   8.367  0.8325 -0.2565  0.8125
18046SOL     OW59973   9.942   3.408   5.017  0.2684  0.3610  0.5488
18046SOL    HW159974   9.866   3.454   4.981  0.1524 -0.1385  0.1330
18046SOL    HW259975   9.920   3.315   5.010  1.3125  0.1565 -0.5354
18047SOL     OW59976   1.097   1.164   9.902 -0.3116 -0.4806 -0.1366
18047SOL    HW159977   1.029   1.121   9.851 -0.3626  0.4398 -0.8884
18047SOL    HW259978   1.061   1.169   9.991  0.0447 -2.6721  0.1779
18048SOL     OW59979  10.207   2.700   2.075  0.1309 -0.1530  0.1585
18048SOL    HW159980  10.181   2.735   2.161  0.3440 -0.0108  0.1671
18048SOL    HW259981  10.125   2.671   2.035  0.0067 -0.0479  0.3324
18049SOL     OW59982  10.438  10.410   1.950  0.4182  0.0364 -0.6259
18049SOL    HW159983  10.470  10.487   1.904  0.4096  0.3431 -0.1354
18049SOL    HW259984  10.433  10.438   2.042 -1.7298  0.1735 -0.7302
18050SOL     OW59985   5.589   2.437   3.655 -0.2625 -0.7665 -1.1365
18050SOL    HW159986   5.581   2.364   3.716  1.0811 -1.9707 -2.3264
18050SOL    HW259987   5.657   2.409   3.594  1.7087  2.2700 -0.5196
18051SOL     OW59988   6.063   5.603   9.460  0.3056 -0.3373 -0.5635
18051SOL    HW159989   6.040   5.510   9.458  0.6927 -0.4322 -1.8345
18051SOL    HW259990   6.140   5.608   9.516 -2.0337 -0.1570  2.9097
18052SOL     OW59991   1.776   7.157   5.078 -0.3973  0.1002 -0.0365
18052SOL    HW159992   1.823   7.081   5.114  0.8192  0.8147 -0.0466
18052SOL    HW259993   1.702   7.169   5.138  1.1899  0.8444  1.8986
18053SOL     OW59994   2.015   0.832   1.471 -0.6835 -0.4126  0.4692
18053SOL    HW159995   1.942   0.892   1.486 -1.1129 -0.7063 -0.4126
18053SOL    HW259996   2.092   0.888   1.467 -0.9410 -0.0345  0.7399
18054SOL     OW59997   5.514   8.826   4.280 -0.4729 -0.0949  0.2853
18054SOL    HW159998   5.534   8.774   4.202  0.4835 -1.4677  1.3912
18054SOL    HW259999   5.600   8.855   4.312 -0.9542  1.9359 -0.0944
18055SOL     OW60000   6.869  10.507   4.523 -0.3492 -0.2809 -0.2616
18055SOL    HW160001   6.840  10.479   4.436 -3.9988 -0.6753  0.8939
18055SOL    HW260002   6.964  10.517   4.515 -0.3624 -1.5772 -3.8898
18056SOL     OW60003   5.614   9.039  10.151  0.3194 -0.6242 -0.8897
18056SOL    HW160004   5.572   9.108  10.202  0.4057 -1.0137 -0.2784
18056SOL    HW260005   5.630   8.969  10.214  1.0382 -0.8514 -1.3072
18057SOL     OW60006   8.997   5.681   0.044 -0.0655 -0.3964 -0.2482
18057SOL    HW160007   8.960   5.610  -0.008  1.1488 -0.3550 -1.2225
18057SOL    HW260008   9.087   5.689   0.013  0.3748  0.3473  1.1436
18058SOL     OW60009   1.744  10.026   3.613  0.4963  0.3432 -0.2948
18058SOL    HW160010   1.706  10.104   3.574  0.2060  0.0428 -0.6121
18058SOL    HW260011   1.728   9.956   3.550  1.3703  0.1618 -0.3390
18059SOL     OW60012   5.999   0.385  10.400 -0.6269  0.1083 -0.4534
18059SOL    HW160013   5.967   0.464  10.444 -1.6423 -0.7990  0.5284
18059SOL    HW260014   5.927   0.359  10.342 -1.0811 -1.0574  0.5728
18060SOL     OW60015   6.447   2.866   5.075  0.5254 -0.0687 -0.1269
18060SOL    HW160016   6.471   2.959   5.079 -0.7037  0.2213  2.1997
18060SOL    HW260017   6.528   2.822   5.048  1.3070  1.6029 -0.6498
18061SOL     OW60018   2.665  10.164   0.408 -0.6138 -0.4600  0.0128
18061SOL    HW160019   2.663  10.071   0.388 -0.7864 -0.1900 -1.3177
18061SOL    HW260020   2.582  10.181   0.453 -0.6629 -0.9085  0.0879
18062SOL     OW60021   5.100   6.236   6.904  0.0229 -0.1306 -0.1038
18062SOL    HW160022   5.130   6.226   6.814 -0.8685 -0.5554 -0.3681
18062SOL    HW260023   5.148   6.168   6.953  0.6047  0.1890 -0.2284
18063SOL     OW60024   0.465   9.694   9.763 -0.0376 -0.0480  0.3195
18063SOL    HW160025   0.516   9.661   9.689  1.9736 -0.6514  1.8858
18063SOL    HW260026   0.396   9.629   9.775  0.6856 -0.8767  0.0657
18064SOL     OW60027   1.408   0.114   8.666  0.2078  0.4075 -0.0504
18064SOL    HW160028   1.382   0.092   8.577 -0.5273 -1.0705  0.4967
18064SOL    HW260029   1.491   0.068   8.678 -1.9019 -3.4158  1.4955
18065SOL     OW60030   0.692  10.033   5.068  0.3735 -0.9113 -0.3928
18065SOL    HW160031   0.651  10.098   5.010  1.6332 -0.8211 -1.2196
18065SOL    HW260032   0.727  10.085   5.140 -2.4531 -1.1569  1.3134
18066SOL     OW60033   5.690   1.183   9.688 -1.0061  0.1246 -0.0549
18066SOL    HW160034   5.614   1.128   9.706 -0.0648 -0.5172  2.3711
18066SOL    HW260035   5.660   1.272   9.709 -1.3335 -0.0072  0.0452
18067SOL     OW60036   9.568   1.216   1.253  0.0236  0.2296 -0.2444
18067SOL    HW160037   9.479   1.183   1.238  0.1005 -0.1293  0.0880
18067SOL    HW260038   9.617   1.189   1.176 -0.2899  0.9289 -0.7057
18068SOL     OW60039   9.863   3.775   5.781  0.5480  0.2635  0.1457
18068SOL    HW160040   9.945   3.730   5.762  1.9882  1.0654  3.5804
18068SOL    HW260041   9.855   3.842   5.713  0.6372 -2.2403 -2.4805
18069SOL     OW60042   2.114   6.476  10.309 -0.1152 -0.1506 -0.3508
18069SOL    HW160043   2.113   6.560  10.356  0.6218 -0.1510 -0.3179
18069SOL    HW260044   2.034   6.476  10.258 -0.6836  0.0785  0.5125
18070SOL     OW60045   0.885  10.381   0.800 -0.0320 -0.0733 -0.3404
18070SOL    HW160046   0.921  10.361   0.887 -0.5657  0.0979 -0.0706
18070SOL    HW260047   0.802  10.425   0.819  0.0793  0.4076 -0.9354
18071SOL     OW60048   6.818   2.948   0.591 -0.5094 -0.4152  0.1232
18071SOL    HW160049   6.875   3.025   0.592  0.4579 -1.0747 -1.2630
18071SOL    HW260050   6.755   2.966   0.521 -0.1897 -0.9289 -0.3042
18072SOL     OW60051  10.724   5.971   9.758  0.4289 -0.1201 -0.0403
18072SOL    HW160052  10.733   6.045   9.819 -1.0517  1.2182 -1.3634
18072SOL    HW260053  10.706   5.896   9.815  1.8603  0.5137  1.3334
18073SOL     OW60054   7.456  10.076   1.939  0.1641 -0.3494 -0.4187
18073SOL    HW160055   7.514  10.146   1.908 -0.3050 -0.1295 -0.8154
18073SOL    HW260056   7.502   9.995   1.917  1.2547 -0.1835  1.0760
18074SOL     OW60057   1.016   9.201   6.902  0.0344  0.0598  0.3136
18074SOL    HW160058   1.053   9.168   6.985 -0.5419 -0.9982  0.1671
18074SOL    HW260059   0.924   9.176   6.906 -0.5556  2.0875  0.3786
18075SOL     OW60060   7.427   7.261   6.974  0.0443 -0.0450 -0.7677
18075SOL    HW160061   7.332   7.256   6.959 -0.3817  0.4673  1.4338
18075SOL    HW260062   7.451   7.349   6.944 -0.1787 -0.1411 -1.2440
18076SOL     OW60063   8.013   0.077   4.914 -0.1465  0.3011  0.1896
18076SOL    HW160064   8.078   0.037   4.856  1.6728  0.9837  1.6473
18076SOL    HW260065   8.024   0.171   4.902  0.4687  0.4701  1.7876
18077SOL     OW60066   0.226   5.943   9.960 -0.1100 -0.0811 -0.4020
18077SOL    HW160067   0.140   5.910   9.988 -0.2488  0.2456 -0.4385
18077SOL    HW260068   0.263   5.871   9.909 -0.0489 -0.5078  0.2268
18078SOL     OW60069   5.147   3.032   6.732 -0.2759 -0.5915  0.2733
18078SOL    HW160070   5.141   3.051   6.825  1.4896  1.5372  0.0448
18078SOL    HW260071   5.238   3.051   6.710 -1.2448  1.6297 -2.3859
18079SOL     OW60072   0.720   0.758   2.774  0.2454 -0.3159 -0.2820
18079SOL    HW160073   0.743   0.749   2.867 -3.4555  0.7882  0.8934
18079SOL    HW260074   0.777   0.694   2.730  1.9332 -1.1044  2.7243
18080SOL     OW60075   2.502   5.999  10.363 -0.3470  0.4691  0.1623
18080SOL    HW160076   2.526   6.092  10.364 -0.8433  0.6448  2.9721
18080SOL    HW260077   2.433   5.991  10.428 -1.3437 -1.6665 -1.0328
18081SOL     OW60078   6.269   3.286   3.981  0.3401  0.9138  0.5607
18081SOL    HW160079   6.349   3.328   4.010  2.5829 -1.1954 -2.0380
18081SOL    HW260080   6.242   3.233   4.056  1.0846  1.9978  1.6321
18082SOL     OW60081   3.856   2.139   5.320 -0.4123 -0.5062  0.1563
18082SOL    HW160082   3.776   2.187   5.344 -0.8158  0.2769 -2.4767
18082SOL    HW260083   3.826   2.049   5.308 -0.8118 -0.3144 -0.3301
18083SOL     OW60084   3.374   6.017   5.068  0.1414 -0.1284  0.1003
18083SOL    HW160085   3.301   5.955   5.070  0.0452 -0.1184 -1.7610
18083SOL    HW260086   3.333   6.103   5.083 -0.2929 -0.0996 -1.1270
18084SOL     OW60087   2.639   8.504   3.558  0.2286  0.6710 -0.0717
18084SOL    HW160088   2.546   8.523   3.574 -0.0576  0.7130 -1.6185
18084SOL    HW260089   2.678   8.590   3.542  0.6984  0.7258  1.2550
18085SOL     OW60090   3.837   5.360   0.786 -0.1683  0.1517 -0.0436
18085SOL    HW160091   3.785   5.401   0.855 -0.6394 -0.0278 -0.2885
18085SOL    HW260092   3.827   5.266   0.802 -1.9807  0.0385 -1.5713
18086SOL     OW60093   2.904   7.742   9.263  0.4461 -0.2135  0.1799
18086SOL    HW160094   2.836   7.781   9.208  2.0886  0.9656 -1.1010
18086SOL    HW260095   2.938   7.669   9.210 -0.0940 -1.1106  1.0191
18087SOL     OW60096   6.021   4.554   9.687  0.0863  0.3862  0.0839
18087SOL    HW160097   6.060   4.620   9.629 -0.3798 -0.6525 -1.4653
18087SOL    HW260098   6.097   4.508   9.724  0.3899  0.6699 -0.1735
18088SOL     OW60099   8.320   7.004   4.523 -0.2082 -0.4194 -0.6946
18088SOL    HW160100   8.235   7.045   4.512  0.9308  2.0182 -1.1978
18088SOL    HW260101   8.310   6.945   4.598 -1.1959  3.3381  2.4157
18089SOL     OW60102   8.265   9.055   9.534  0.6973 -0.0617  0.0828
18089SOL    HW160103   8.334   9.017   9.481  2.1477  0.9479  1.1438
18089SOL    HW260104   8.231   8.982   9.586  0.3092 -0.7437 -1.0898
18090SOL     OW60105   3.918   5.895   3.431  0.6332  0.5304  0.0322
18090SOL    HW160106   4.007   5.925   3.448  1.3345  0.3438 -2.8357
18090SOL    HW260107   3.866   5.975   3.424  1.0813  0.7589 -0.7124
18091SOL     OW60108   8.779   2.316   1.055 -0.0967 -0.9079 -0.3981
18091SOL    HW160109   8.775   2.222   1.039  0.9439 -0.7701 -1.7009
18091SOL    HW260110   8.771   2.355   0.968  2.5085  0.0678 -0.2970
18092SOL     OW60111  10.224   8.514   8.423 -0.1286 -0.2293 -0.5933
18092SOL    HW160112  10.226   8.442   8.360 -1.4924 -1.3545  0.5769
18092SOL    HW260113  10.137   8.508   8.463  0.6056  0.5788  1.2265
18093SOL     OW60114   2.615   0.998   3.652  0.5204  0.1462  0.1576
18093SOL    HW160115   2.683   0.934   3.631  1.0059  0.2178  1.4387
18093SOL    HW260116   2.642   1.036   3.736 -0.5769  0.9059  0.1921
18094SOL     OW60117   7.265   8.693  10.587 -0.2326 -0.8666  0.1620
18094SOL    HW160118   7.223   8.607  10.580 -0.9366 -0.5510  0.5385
18094SOL    HW260119   7.352   8.673  10.623  0.2768 -1.6003 -1.3643
18095SOL     OW60120   7.154   8.181   0.368  0.1954  0.2894  0.5464
18095SOL    HW160121   7.060   8.187   0.351  0.0141  1.3530  1.7261
18095SOL    HW260122   7.179   8.094   0.337 -1.3381 -0.3275  0.9488
18096SOL     OW60123   7.234   7.802   9.786 -0.1933 -0.1138 -0.5115
18096SOL    HW160124   7.321   7.804   9.746  0.7459 -1.1837  1.3587
18096SOL    HW260125   7.250   7.775   9.877 -2.6593 -2.3404 -0.6347
18097SOL     OW60126   4.259   7.793   3.304 -0.1705 -0.3633  0.4635
18097SOL    HW160127   4.333   7.763   3.251 -0.7081  1.1055 -1.2129
18097SOL    HW260128   4.181   7.766   3.255 -0.6984  0.2149  0.9641
18098SOL     OW60129   1.828   4.610   0.283 -0.7782  0.1293  0.0393
18098SOL    HW160130   1.860   4.591   0.194 -1.1370 -0.9037  0.1231
18098SOL    HW260131   1.866   4.542   0.337 -1.3952  0.1486  0.5071
18099SOL     OW60132   0.282   3.069   0.951  0.0763 -0.1183 -0.5446
18099SOL    HW160133   0.226   3.147   0.947 -0.8851 -0.7919 -0.6266
18099SOL    HW260134   0.370   3.104   0.964 -0.2696  1.0042 -1.0053
18100SOL     OW60135  10.670   7.768   5.650 -0.3148  0.0860 -0.0172
18100SOL    HW160136  10.672   7.859   5.621  2.6985 -0.5810 -2.4390
18100SOL    HW260137  10.593   7.731   5.606 -0.5048  1.0356 -0.5137
18101SOL     OW60138   8.465   2.778   0.386  0.3847  0.2157 -0.3315
18101SOL    HW160139   8.444   2.864   0.424 -0.0873  0.2789 -0.7249
18101SOL    HW260140   8.421   2.778   0.301  0.2930 -0.4589 -0.2867
18102SOL     OW60141   4.543   0.353   6.234  0.8372  0.4078 -0.2949
18102SOL    HW160142   4.576   0.265   6.248  1.5284  0.6811 -0.1411
18102SOL    HW260143   4.547   0.366   6.139 -0.0525 -0.0125 -0.4020
18103SOL     OW60144   8.996   7.298   8.487 -0.0897  0.5231  0.1470
18103SOL    HW160145   8.932   7.227   8.479  0.5450  0.0870 -1.5662
18103SOL    HW260146   9.050   7.290   8.408  1.2062  1.7314  0.8683
18104SOL     OW60147   8.304   9.551   8.140 -0.2600  0.1026  0.1290
18104SOL    HW160148   8.396   9.529   8.154  0.2759  1.1287 -1.4413
18104SOL    HW260149   8.259   9.467   8.138  1.0489 -0.6208 -1.5655
18105SOL     OW60150   3.183   4.261   9.375 -0.1794 -0.5126 -0.6265
18105SOL    HW160151   3.104   4.254   9.429 -0.5319 -0.7779 -1.1636
18105SOL    HW260152   3.252   4.287   9.436 -0.8199  0.3930 -0.2622
18106SOL     OW60153   3.532  10.600   4.826  0.3088 -0.1947 -0.7206
18106SOL    HW160154   3.513  10.693   4.831 -1.4619 -0.3682 -2.7665
18106SOL    HW260155   3.534  10.571   4.918  2.6793  2.0960  0.0348
18107SOL     OW60156   4.936   6.878   2.647  0.1102  0.3934 -0.1350
18107SOL    HW160157   4.946   6.957   2.595 -0.0702  0.2076 -0.4523
18107SOL    HW260158   4.958   6.905   2.736 -0.5063  0.9355 -0.1405
18108SOL     OW60159   4.937  10.079   2.162  0.1139  0.2421 -0.4188
18108SOL    HW160160   4.854  10.121   2.185  0.4448  1.2649 -1.0148
18108SOL    HW260161   4.960  10.119   2.078  1.4698  0.3581 -0.0061
18109SOL     OW60162   5.927   7.906   7.286 -0.0433 -0.3481  0.2531
18109SOL    HW160163   5.835   7.882   7.278  0.2930 -2.6684  2.1157
18109SOL    HW260164   5.974   7.823   7.281  1.8381  0.6410  0.6274
18110SOL     OW60165   0.576  10.174   8.676 -0.0809 -0.4681  0.4186
18110SOL    HW160166   0.568  10.123   8.756 -0.4682 -2.7691 -0.9995
18110SOL    HW260167   0.624  10.253   8.702  0.4255 -1.4793  2.7376
18111SOL     OW60168   4.615   9.055   8.641 -0.6972 -0.0444  0.2092
18111SOL    HW160169   4.636   9.018   8.556  0.5512  0.2818  0.3518
18111SOL    HW260170   4.551   8.995   8.679 -0.9715 -0.3982 -0.7946
18112SOL     OW60171   1.944   8.119   0.569  0.0784 -0.5203 -0.4364
18112SOL    HW160172   1.881   8.161   0.510  0.2368  1.3297  0.6030
18112SOL    HW260173   1.896   8.047   0.609 -1.1436  0.3530 -0.2745
18113SOL     OW60174   7.044   4.537   6.708 -0.7791  0.5589 -0.1384
18113SOL    HW160175   7.054   4.446   6.680  2.1631  0.5864  0.5011
18113SOL    HW260176   7.073   4.589   6.633  0.0576  0.8465  0.3636
18114SOL     OW60177   1.836   0.001  10.447 -0.0892 -0.3762 -0.2139
18114SOL    HW160178   1.803   0.062  10.513  0.7661  1.2180 -1.1944
18114SOL    HW260179   1.809  -0.085  10.478  2.0981  0.0308  3.4153
18115SOL     OW60180   7.487   4.090   5.355  0.2298  0.6003  0.7195
18115SOL    HW160181   7.578   4.112   5.377  0.4031  1.0209 -0.3479
18115SOL    HW260182   7.485   4.086   5.260 -0.7163 -0.1505  0.7493
18116SOL     OW60183   8.582   8.335   3.759  0.1852 -0.0441  0.1026
18116SOL    HW160184   8.587   8.244   3.729 -0.1554 -1.1430  2.9709
18116SOL    HW260185   8.671   8.369   3.748  0.8784 -1.4843  0.9870
18117SOL     OW60186   5.633   5.946   2.768  0.2880  0.5731 -0.4954
18117SOL    HW160187   5.543   5.923   2.743  0.4824  0.7996 -1.4600
18117SOL    HW260188   5.632   6.042   2.774  0.7694  0.6730 -1.7944
18118SOL     OW60189   6.103   2.419   6.922  0.5387  0.5681  0.1224
18118SOL    HW160190   6.033   2.481   6.941 -0.2781 -0.1556 -0.5098
18118SOL    HW260191   6.176   2.449   6.977 -0.5314  0.8075  1.4650
18119SOL     OW60192   0.534   4.851   9.999  0.0549  0.0033  0.7238
18119SOL    HW160193   0.601   4.788   9.972  0.6478  0.6376  0.6906
18119SOL    HW260194   0.558   4.875  10.088  1.2480  1.9638 -0.0537
18120SOL     OW60195   6.300   7.384   8.376  0.5552 -0.3363  0.0943
18120SOL    HW160196   6.367   7.397   8.310  0.4186 -1.7853 -0.3546
18120SOL    HW260197   6.298   7.290   8.391  1.0347 -0.0171  2.6387
18121SOL     OW60198   1.879   2.364   9.679 -0.0370  0.0111  0.7504
18121SOL    HW160199   1.965   2.333   9.708  1.2223  2.5332  0.0009
18121SOL    HW260200   1.863   2.315   9.598  0.3751 -0.9517  1.2323
18122SOL     OW60201   9.445   0.163   0.241  0.6288  0.0565  0.0218
18122SOL    HW160202   9.368   0.218   0.227 -0.1939 -1.2708 -0.9263
18122SOL    HW260203   9.444   0.142   0.334 -0.2228 -0.0153  0.0027
18123SOL     OW60204   8.050   9.679   4.161  0.0130 -0.4108 -0.0822
18123SOL    HW160205   7.974   9.687   4.219 -1.2795 -0.2466 -1.7350
18123SOL    HW260206   8.086   9.592   4.181  0.1148 -0.0223  1.5319
18124SOL     OW60207  10.046   2.215   7.379 -0.3639  0.3336 -0.1674
18124SOL    HW160208  10.003   2.154   7.319 -1.2095  0.8648 -0.1073
18124SOL    HW260209  10.072   2.289   7.323 -0.9085  0.7060  0.0720
18125SOL     OW60210   6.309   3.602   6.588 -0.1918  0.0188  0.1082
18125SOL    HW160211   6.364   3.659   6.534 -0.3731 -0.8994 -1.0624
18125SOL    HW260212   6.323   3.515   6.553 -1.0112 -0.4760  0.9824
18126SOL     OW60213   0.414   3.134   0.458  0.4827  0.2105 -0.4624
18126SOL    HW160214   0.452   3.189   0.389  1.5654  0.3984  0.2492
18126SOL    HW260215   0.473   3.146   0.533 -1.2808  0.8893  0.8721
18127SOL     OW60216   5.806   5.026   2.328  0.0225  0.7006  0.0877
18127SOL    HW160217   5.766   5.110   2.349  1.4328  1.5597 -0.5669
18127SOL    HW260218   5.867   5.009   2.400  1.0183  1.1099 -0.6333
18128SOL     OW60219   6.389   8.926   1.912  0.0091 -0.4219 -0.0360
18128SOL    HW160220   6.322   8.991   1.888  0.8173  0.0374 -1.1111
18128SOL    HW260221   6.469   8.977   1.922  0.5298 -1.1836 -0.2807
18129SOL     OW60222   4.724   9.161   5.049 -0.3439  1.0400 -0.1130
18129SOL    HW160223   4.750   9.214   4.974 -0.8320 -0.5284 -1.4474
18129SOL    HW260224   4.784   9.086   5.048 -1.7670 -0.1474 -0.3389
18130SOL     OW60225   2.913   3.877   9.912 -0.4851  0.0969 -0.2802
18130SOL    HW160226   2.862   3.871   9.830  0.1360  0.2298 -0.6815
18130SOL    HW260227   2.971   3.952   9.898  0.4890 -0.6350 -0.1949
18131SOL     OW60228   0.429   4.763   7.343  0.2180  0.0894 -0.0246
18131SOL    HW160229   0.365   4.826   7.378  0.0472  0.1073 -0.3606
18131SOL    HW260230   0.469   4.808   7.269  1.3861  0.4804  0.8153
18132SOL     OW60231   6.068   0.573   8.539  0.4013  0.5700 -0.6270
18132SOL    HW160232   6.055   0.633   8.612 -0.1450  0.5634 -0.7206
18132SOL    HW260233   6.023   0.493   8.566 -0.4056  0.7981 -1.2720
18133SOL     OW60234   3.561   1.079   7.926 -0.5553  0.0430 -0.6691
18133SOL    HW160235   3.616   1.076   7.848 -0.9808  1.3533 -1.0446
18133SOL    HW260236   3.500   1.151   7.910  0.5488  1.6185  1.6413
18134SOL     OW60237   4.692   4.487   7.167  0.0558 -0.3262 -0.9401
18134SOL    HW160238   4.651   4.537   7.097 -0.2788 -1.1144 -1.3211
18134SOL    HW260239   4.618   4.453   7.219  0.2217 -1.4879 -1.4452
18135SOL     OW60240   7.199   7.462   8.797 -0.2539  0.1690  0.6733
18135SOL    HW160241   7.196   7.554   8.770 -2.1896  0.0076  0.1532
18135SOL    HW260242   7.107   7.434   8.795  0.3963 -2.0859 -0.2522
18136SOL     OW60243   5.374   0.943   9.100 -0.1755  0.2277 -0.1627
18136SOL    HW160244   5.462   0.918   9.127 -1.0678 -1.4930  1.3378
18136SOL    HW260245   5.322   0.937   9.179 -1.8570  0.2599 -1.2120
18137SOL     OW60246   1.412   9.297  10.610  0.4142 -0.8691 -0.3701
18137SOL    HW160247   1.468   9.371  10.586  1.5066 -2.1288 -1.9067
18137SOL    HW260248   1.434   9.229  10.547 -0.0571 -2.7688  1.4265
18138SOL     OW60249   1.076   2.261   0.884 -0.1899  0.1016  0.2528
18138SOL    HW160250   1.054   2.181   0.835 -4.7610  2.0371 -1.4015
18138SOL    HW260251   0.996   2.284   0.930  0.2515  4.6415 -0.7809
18139SOL     OW60252   4.359  10.002   7.100  0.2153 -0.0130  0.2534
18139SOL    HW160253   4.395   9.988   7.188 -2.8914 -0.6322  1.5379
18139SOL    HW260254   4.316   9.919   7.078 -1.0786  0.8948 -0.8285
18140SOL     OW60255   3.989   6.701   4.022 -0.3113  0.3641 -0.3449
18140SOL    HW160256   4.041   6.749   4.086  1.0869 -1.6165  0.0868
18140SOL    HW260257   4.042   6.703   3.942  0.5326 -1.6749  0.1019
18141SOL     OW60258   5.022   8.414   6.240 -0.1780 -0.5492  0.3194
18141SOL    HW160259   4.953   8.473   6.209  0.8497  1.5147  1.7168
18141SOL    HW260260   5.034   8.436   6.332  1.8802 -1.3056  0.2987
18142SOL     OW60261   3.263   2.515   2.786  0.1087 -0.2953 -0.7517
18142SOL    HW160262   3.339   2.529   2.843  0.0311 -2.0433 -0.1592
18142SOL    HW260263   3.189   2.511   2.846 -0.1093 -1.0670 -1.0604
18143SOL     OW60264   4.413   1.731   9.075 -0.2260  0.3291 -0.1642
18143SOL    HW160265   4.373   1.688   8.999 -1.2927 -0.2105  0.6855
18143SOL    HW260266   4.504   1.703   9.073 -0.7291 -1.4553 -0.0260
18144SOL     OW60267   5.333   6.199   3.182  0.2947  0.0864  0.7889
18144SOL    HW160268   5.422   6.195   3.146 -0.1572  2.8299 -0.9158
18144SOL    HW260269   5.346   6.212   3.276  1.6052 -1.3805  0.8621
18145SOL     OW60270  10.263   0.998   3.323 -0.0175 -0.4005 -0.0278
18145SOL    HW160271  10.249   0.989   3.417  1.4431 -0.8966  0.1620
18145SOL    HW260272  10.238   0.913   3.287  0.8289 -0.7086  0.1004
18146SOL     OW60273   7.128   8.482   0.797  0.0007 -0.0551  0.1743
18146SOL    HW160274   7.107   8.516   0.883 -0.2992  1.3601 -0.4365
18146SOL    HW260275   7.076   8.402   0.789 -1.4358  0.8195  0.5698
18147SOL     OW60276   1.450  10.681   0.537 -0.4519 -0.1201 -0.0084
18147SOL    HW160277   1.534  10.718   0.564 -0.7962  0.4088  0.3563
18147SOL    HW260278   1.469  10.589   0.521 -0.0190 -0.2559  1.1479
18148SOL     OW60279   6.564   3.939   8.614  0.0202  0.2384  0.2018
18148SOL    HW160280   6.629   3.999   8.579  0.5300  0.2632  1.1793
18148SOL    HW260281   6.549   3.969   8.704 -1.1292  0.0625  0.0833
18149SOL     OW60282   1.886   7.929   6.754  0.0911 -0.0503 -0.2147
18149SOL    HW160283   1.968   7.976   6.739 -0.2123 -0.0246 -1.9935
18149SOL    HW260284   1.899   7.885   6.838  2.1680 -0.5313 -0.7292
18150SOL     OW60285   0.764   1.519   7.850 -0.1810 -0.0994 -0.3054
18150SOL    HW160286   0.746   1.479   7.765 -1.4164 -0.5015  0.1114
18150SOL    HW260287   0.858   1.535   7.851 -0.2134  0.3672 -1.9406
18151SOL     OW60288   5.019   1.166   4.775 -0.4225  0.2878 -0.0702
18151SOL    HW160289   5.032   1.128   4.862  0.6544  0.7816 -0.0043
18151SOL    HW260290   5.084   1.123   4.720 -1.0142  0.0726 -0.6123
18152SOL     OW60291   7.948   4.044   3.160  0.2268 -0.1953  0.0111
18152SOL    HW160292   7.968   4.017   3.250 -0.7811  0.8524  0.5798
18152SOL    HW260293   7.989   4.130   3.151  0.0521 -0.1533 -0.4192
18153SOL     OW60294   4.082   9.911   1.058  0.0739 -0.4264  0.0524
18153SOL    HW160295   4.091   9.967   1.136 -0.4506  0.9341 -0.8260
18153SOL    HW260296   3.995   9.872   1.067 -0.2844  0.2915 -0.1810
18154SOL     OW60297   8.454   3.954  10.079  0.3746 -0.1107 -0.1773
18154SOL    HW160298   8.431   3.904  10.001 -0.8323 -1.0061  0.7280
18154SOL    HW260299   8.505   4.028  10.045 -1.5068  0.4552 -1.9964
18155SOL     OW60300   2.680   5.386   1.140 -0.2151  0.1105 -0.0068
18155SOL    HW160301   2.644   5.301   1.114  0.2800 -0.0871 -0.0471
18155SOL    HW260302   2.606   5.447   1.130 -0.5457 -0.2950 -0.0696
18156SOL     OW60303   6.693   3.603   1.434 -0.1043 -0.5838  0.2333
18156SOL    HW160304   6.740   3.586   1.516 -0.3666 -1.4542  0.2073
18156SOL    HW260305   6.755   3.580   1.365 -1.0259 -3.2976  0.1795
18157SOL     OW60306   7.646   5.303   3.199 -0.0407 -0.1787  0.3309
18157SOL    HW160307   7.668   5.250   3.275  0.1249 -0.7056 -0.0752
18157SOL    HW260308   7.558   5.277   3.175 -0.1034  0.0069  0.3574
18158SOL     OW60309   1.853   1.837   6.915  0.1751  0.1296  0.3448
18158SOL    HW160310   1.852   1.745   6.889  2.5732  0.5176 -1.4272
18158SOL    HW260311   1.863   1.834   7.011  0.2173 -1.4319  0.3184
18159SOL     OW60312   2.299   8.585   6.886  0.2338 -0.0709  0.2940
18159SOL    HW160313   2.258   8.612   6.805  0.0950 -0.0318  0.3784
18159SOL    HW260314   2.364   8.519   6.859  1.4380  1.2112 -0.0545
18160SOL     OW60315   9.221   2.660   5.032  0.0222  0.1143  0.4630
18160SOL    HW160316   9.181   2.745   5.010  1.3321  1.2261  2.1807
18160SOL    HW260317   9.148   2.598   5.028 -1.5439  1.7714  1.6900
18161SOL     OW60318   4.129   7.188  10.712 -0.0387 -0.2427 -0.4286
18161SOL    HW160319   4.100   7.176  10.621 -0.4620 -0.6641 -0.2464
18161SOL    HW260320   4.171   7.105  10.734 -0.6491 -0.4475  0.0088
18162SOL     OW60321   5.149   3.825   3.639 -0.6120  0.2319 -0.8511
18162SOL    HW160322   5.105   3.770   3.704 -1.1864  0.3640 -1.1221
18162SOL    HW260323   5.149   3.913   3.678 -1.0437  0.3298 -1.0704
18163SOL     OW60324   5.597   2.058   4.023 -0.5563  0.0814 -0.5071
18163SOL    HW160325   5.552   2.017   3.949  3.3594 -0.2633 -3.0085
18163SOL    HW260326   5.646   1.986   4.063 -1.8018  0.4815  1.8796
18164SOL     OW60327   7.393  10.103   5.753  0.3182  0.3768  0.5472
18164SOL    HW160328   7.357  10.112   5.842 -1.3024 -0.2343 -0.0109
18164SOL    HW260329   7.404  10.192   5.722  0.9160  0.5977  1.3524
18165SOL     OW60330   6.190   9.810   3.956 -0.1374  0.0981 -0.3479
18165SOL    HW160331   6.145   9.889   3.925  1.7722  1.1994 -0.4822
18165SOL    HW260332   6.210   9.761   3.877 -1.0604 -0.3960 -0.2878
18166SOL     OW60333   1.129   4.102   2.560 -0.6040  0.4052 -0.2189
18166SOL    HW160334   1.153   4.170   2.497 -1.0856  0.7258 -0.0519
18166SOL    HW260335   1.034   4.102   2.561 -0.6090 -0.2707 -0.2163
18167SOL     OW60336   6.024   0.065   7.617 -0.0038 -0.0606  0.3410
18167SOL    HW160337   6.107   0.085   7.660  0.1649  0.1842 -0.0927
18167SOL    HW260338   6.021  -0.031   7.612  0.0475 -0.0846  0.7506
18168SOL     OW60339   3.938   2.461   7.817  0.1176  0.3224  0.0931
18168SOL    HW160340   3.876   2.395   7.786 -0.6743  0.4851  1.2927
18168SOL    HW260341   4.007   2.460   7.751 -0.6827 -0.5349 -0.7781
18169SOL     OW60342   4.574   8.268   1.478  0.0531 -0.4529  0.1618
18169SOL    HW160343   4.649   8.327   1.477  0.0730 -0.4422 -1.9222
18169SOL    HW260344   4.610   8.183   1.452  0.1357 -1.6410  3.6616
18170SOL     OW60345   0.085   5.723   0.812 -0.1734  0.3878  0.4249
18170SOL    HW160346   0.082   5.741   0.718 -0.6562  1.2056  0.5866
18170SOL    HW260347  -0.003   5.745   0.843 -0.9719 -2.6132  0.6172
18171SOL     OW60348   3.834   7.124   3.832 -0.4700 -0.4685 -0.4134
18171SOL    HW160349   3.909   7.066   3.826  0.5360  0.7894 -0.3817
18171SOL    HW260350   3.817   7.151   3.742  0.2601  0.6341 -0.2370
18172SOL     OW60351   5.351   4.788   6.666 -0.1345  0.6207 -0.4287
18172SOL    HW160352   5.274   4.786   6.722  0.1638  1.2581  0.0219
18172SOL    HW260353   5.325   4.843   6.592  0.6867  3.1475  1.0144
18173SOL     OW60354   0.043   1.467   8.150  0.8211  0.4492  0.1267
18173SOL    HW160355   0.033   1.515   8.068  0.7398 -1.6852 -1.1901
18173SOL    HW260356   0.117   1.509   8.193 -0.4474  2.9761  0.0224
18174SOL     OW60357   7.520   7.843   3.781 -0.3363  0.2567 -0.3077
18174SOL    HW160358   7.537   7.803   3.695 -0.5195 -0.9600  0.2036
18174SOL    HW260359   7.444   7.795   3.815 -0.2160  0.6749  0.5628
18175SOL     OW60360   8.172   8.584   2.529 -0.1917 -0.1003 -0.5714
18175SOL    HW160361   8.122   8.663   2.508 -1.1095 -0.9109 -1.5156
18175SOL    HW260362   8.119   8.512   2.496  0.5034 -1.1469  0.5212
18176SOL     OW60363   3.749   2.178   5.992 -0.4487 -0.4117  0.0432
18176SOL    HW160364   3.799   2.245   5.945 -1.5684 -0.5751 -1.4711
18176SOL    HW260365   3.708   2.126   5.923 -1.7735 -0.9862  1.2054
18177SOL     OW60366   1.491   3.309  10.009  0.1242 -0.0905 -0.2957
18177SOL    HW160367   1.473   3.359   9.930  0.8760 -1.0231 -1.0923
18177SOL    HW260368   1.585   3.323  10.025  0.3817 -1.2957 -0.6139
18178SOL     OW60369   2.014   3.500   6.650 -0.1125 -0.4059 -0.1741
18178SOL    HW160370   2.014   3.462   6.738  1.0769  1.5179  0.7096
18178SOL    HW260371   1.925   3.485   6.618 -1.0787  0.2818  2.0042
18179SOL     OW60372   3.303   3.175   1.829  0.2622  0.1882  0.0377
18179SOL    HW160373   3.299   3.117   1.904 -1.4116  1.5960  1.1191
18179SOL    HW260374   3.322   3.261   1.866 -2.3357  1.2565 -0.8587
18180SOL     OW60375   3.653   6.314   6.324  0.0696 -0.7599  0.1269
18180SOL    HW160376   3.720   6.245   6.320  0.1739 -0.7043  0.7884
18180SOL    HW260377   3.577   6.272   6.362  0.3467 -0.3546  1.1577
18181SOL     OW60378   1.919   4.987  10.485 -0.2632 -0.0283  0.2334
18181SOL    HW160379   1.830   4.996  10.453 -0.1842 -2.4823 -0.9351
18181SOL    HW260380   1.939   4.894  10.475  1.7258  0.0654  2.4047
18182SOL     OW60381   6.609   3.679   9.672  0.5561 -0.0596 -0.3912
18182SOL    HW160382   6.625   3.697   9.765 -1.0221  0.0868 -0.1326
18182SOL    HW260383   6.605   3.766   9.631 -0.3469 -0.0614 -0.3131
18183SOL     OW60384   5.891   7.029   3.977 -0.2720 -0.3794 -0.4297
18183SOL    HW160385   5.839   6.982   3.913 -1.5615  0.4632 -0.0326
18183SOL    HW260386   5.836   7.103   4.003  0.4813 -0.3393  1.1598
18184SOL     OW60387   3.322   0.877   4.154  0.1260  0.3188  0.1739
18184SOL    HW160388   3.304   0.784   4.148  0.1718  0.2126  1.3333
18184SOL    HW260389   3.240   0.920   4.128  0.3173 -0.0139 -1.0268
18185SOL     OW60390   6.055   4.783   2.922  0.0994  0.0560  0.0644
18185SOL    HW160391   6.104   4.798   3.003  1.5488 -1.4065 -0.4749
18185SOL    HW260392   6.120   4.751   2.860 -0.9094  1.4523 -1.8239
18186SOL     OW60393   1.873   4.177   3.237  0.1069 -0.2363  0.3219
18186SOL    HW160394   1.850   4.201   3.327 -0.6307 -0.9639  0.3323
18186SOL    HW260395   1.791   4.148   3.197  0.6835 -1.2801 -0.1439
18187SOL     OW60396   0.573   0.463   7.544 -0.4414 -0.8096  0.0845
18187SOL    HW160397   0.627   0.482   7.621  0.9258 -1.2741 -0.7248
18187SOL    HW260398   0.483   0.479   7.573 -0.0003 -1.3994  1.9124
18188SOL     OW60399   2.327   3.171   7.347 -0.2292 -0.5589 -0.1688
18188SOL    HW160400   2.239   3.203   7.364 -0.6225 -1.3510 -0.6604
18188SOL    HW260401   2.372   3.180   7.431 -0.6802  0.1551 -0.0020
18189SOL     OW60402   4.295   3.185   8.335 -0.0601  0.1265  0.2605
18189SOL    HW160403   4.250   3.141   8.407  0.2607  0.6788  0.8148
18189SOL    HW260404   4.375   3.135   8.322 -1.3170 -1.5617 -1.5091
18190SOL     OW60405   3.709   3.768   3.265  0.5647 -0.1408  0.3824
18190SOL    HW160406   3.662   3.845   3.298 -1.1405 -0.6393 -0.7495
18190SOL    HW260407   3.686   3.698   3.326 -1.7207 -0.8077 -1.1223
18191SOL     OW60408   7.107   4.376  10.080 -0.2033  0.5424 -0.1226
18191SOL    HW160409   7.125   4.310  10.147  0.3128  0.1988 -0.5922
18191SOL    HW260410   7.018   4.357  10.050  0.4467 -0.8445 -1.2553
18192SOL     OW60411   2.433   5.065   1.397 -0.1783 -0.2047  0.7630
18192SOL    HW160412   2.526   5.061   1.374 -0.1647 -2.2599  0.9249
18192SOL    HW260413   2.427   5.134   1.463  1.2464 -0.1085  0.8168
18193SOL     OW60414   4.409  10.647  10.426 -0.0455  0.3790  0.0850
18193SOL    HW160415   4.394  10.681  10.338  0.6730  1.6810  0.4382
18193SOL    HW260416   4.330  10.598  10.446  0.0458 -0.5048 -1.5326
18194SOL     OW60417  10.431   1.220   0.011  0.5763 -0.0076 -0.5980
18194SOL    HW160418  10.410   1.263   0.094 -1.1130 -0.8484 -0.5353
18194SOL    HW260419  10.518   1.183   0.023  1.0993  1.4186  0.1460
18195SOL     OW60420   9.881   5.583  10.265 -0.8562 -0.2946  0.2014
18195SOL    HW160421   9.819   5.654  10.280 -1.9705 -1.5702  1.9146
18195SOL    HW260422   9.847   5.536  10.189 -1.4099 -0.3876  0.5099
18196SOL     OW60423   7.088   1.949   7.360  0.0613 -0.0816  0.2549
18196SOL    HW160424   7.104   2.042   7.345  1.4751 -0.4232 -0.4961
18196SOL    HW260425   7.035   1.922   7.286  3.6790 -0.8724 -2.2829
18197SOL     OW60426   8.389   1.891   1.539  0.3548  0.5739  0.8942
18197SOL    HW160427   8.390   1.940   1.456 -0.9252 -3.3009 -1.6609
18197SOL    HW260428   8.481   1.889   1.566  0.7095  2.5946  0.0660
18198SOL     OW60429   5.493   0.908   6.981  0.8985  0.3340  0.3803
18198SOL    HW160430   5.492   0.977   7.048  0.2894  0.5980  0.0997
18198SOL    HW260431   5.436   0.941   6.912  1.8888  0.2655 -0.4888
18199SOL     OW60432   2.653   9.081   9.513  0.6643  0.3267  0.6165
18199SOL    HW160433   2.651   8.987   9.531 -0.3692  0.1869 -0.1602
18199SOL    HW260434   2.562   9.108   9.516  0.6486  0.7710 -1.8636
18200SOL     OW60435   5.415   0.499  10.463  0.1340  0.2481 -0.6843
18200SOL    HW160436   5.448   0.588  10.456 -0.4303  0.3329 -2.9648
18200SOL    HW260437   5.329   0.501  10.422 -0.1868 -1.2172 -0.1625
18201SOL     OW60438   7.065   4.385   1.170  0.3849  0.4651  0.1315
18201SOL    HW160439   7.147   4.375   1.120  0.4573  0.7177  0.1982
18201SOL    HW260440   7.080   4.463   1.224  0.9350 -0.7367  1.7789
18202SOL     OW60441   6.434   6.136   2.840  0.9293  0.3737 -0.4011
18202SOL    HW160442   6.519   6.101   2.868  0.1618 -0.0939  1.5239
18202SOL    HW260443   6.370   6.091   2.895 -0.5360  1.1222 -1.4149
18203SOL     OW60444   8.584   5.437   9.212  0.6778 -0.4202 -0.0703
18203SOL    HW160445   8.495   5.443   9.245  1.4061 -0.2968  1.9920
18203SOL    HW260446   8.581   5.368   9.145 -0.6713 -1.3765  0.9397
18204SOL     OW60447  10.713   5.332   2.005 -0.1516 -0.0160 -0.4113
18204SOL    HW160448  10.748   5.250   2.038  2.9471  0.2632 -2.5847
18204SOL    HW260449  10.700   5.386   2.083  1.3779 -1.2722  0.7814
18205SOL     OW60450   6.962   3.369   1.268 -0.1943  0.5165 -0.0506
18205SOL    HW160451   6.954   3.274   1.268  0.8429  0.4163  0.0089
18205SOL    HW260452   6.877   3.400   1.235 -1.0180 -0.3661  1.1400
18206SOL     OW60453   3.975   6.155   9.520 -0.1386  0.3003 -0.3679
18206SOL    HW160454   3.936   6.169   9.606 -1.4709 -0.8200 -0.7652
18206SOL    HW260455   3.903   6.124   9.465  0.8678  0.1929 -1.6716
18207SOL     OW60456   1.835   3.854   7.925 -0.0871  0.1442 -0.4511
18207SOL    HW160457   1.753   3.884   7.886  0.0950  0.6528 -0.4523
18207SOL    HW260458   1.902   3.906   7.882  0.2627 -0.4501 -0.6305
18208SOL     OW60459   6.018   0.051   5.279 -0.3062  0.0444 -0.3215
18208SOL    HW160460   5.927   0.076   5.262  0.0226  0.9133 -0.8743
18208SOL    HW260461   6.049   0.015   5.195 -0.0486  0.0299 -0.2197
18209SOL     OW60462   8.853   7.405   4.584  0.0474  0.1773  0.0376
18209SOL    HW160463   8.790   7.449   4.527 -1.7920 -1.1288  0.9865
18209SOL    HW260464   8.834   7.440   4.671  1.3205  0.4853  0.2105
18210SOL     OW60465   0.718   2.073   5.115  0.1772 -0.0930  0.1009
18210SOL    HW160466   0.673   2.061   5.199 -1.0047  0.2120 -0.4563
18210SOL    HW260467   0.649   2.106   5.056  1.0074 -0.1878 -0.9529
18211SOL     OW60468   1.150   2.898   9.962 -0.2430 -0.5841  0.1018
18211SOL    HW160469   1.100   2.885  10.042  0.8909 -0.6139  0.8277
18211SOL    HW260470   1.226   2.949   9.989  0.2068 -0.6792 -0.9343
18212SOL     OW60471   6.737   8.900   4.583  0.0503 -0.2898  0.3739
18212SOL    HW160472   6.690   8.831   4.536 -3.4748  0.8074  1.9588
18212SOL    HW260473   6.686   8.979   4.565  1.3103  1.0189  2.2511
18213SOL     OW60474   7.971   6.967   9.678  0.3237 -0.3808 -0.0385
18213SOL    HW160475   7.918   7.038   9.713  1.3449  0.6445 -0.4973
18213SOL    HW260476   7.908   6.903   9.645 -0.6111  0.2528  0.4812
18214SOL     OW60477   5.494   6.658   2.650  0.3443 -0.2580  0.0666
18214SOL    HW160478   5.472   6.613   2.568  0.0246 -0.5465  0.3038
18214SOL    HW260479   5.570   6.610   2.684  0.0949 -0.5329  0.2451
18215SOL     OW60480   9.239   2.547   9.353  0.8289 -0.2401  0.7892
18215SOL    HW160481   9.146   2.536   9.370  0.0421  2.1319 -1.3760
18215SOL    HW260482   9.259   2.636   9.382  1.4972  0.5822 -1.8760
18216SOL     OW60483   2.033   3.657   7.059 -0.5452 -0.9339 -0.1873
18216SOL    HW160484   2.055   3.619   6.974  0.7650 -2.1610  0.6574
18216SOL    HW260485   2.063   3.593   7.123 -0.6174  0.3925  1.2422
18217SOL     OW60486   0.242   2.711   6.513  0.5666 -0.2282 -0.2283
18217SOL    HW160487   0.302   2.758   6.571  0.0988 -0.9471  0.8862
18217SOL    HW260488   0.228   2.627   6.556 -0.5837 -0.3983 -0.8785
18218SOL     OW60489   7.935   3.867   3.794 -0.2574  0.2138  0.8400
18218SOL    HW160490   7.948   3.840   3.885  0.6499 -1.1228  0.3444
18218SOL    HW260491   7.927   3.785   3.745 -1.1045  0.9172 -0.2478
18219SOL     OW60492   2.694   7.409   7.351  0.3521 -0.7307  0.0849
18219SOL    HW160493   2.730   7.335   7.303  0.3486  1.1229 -3.1044
18219SOL    HW260494   2.751   7.483   7.328 -1.8205  1.0117 -0.1054
18220SOL     OW60495   6.277   6.860  10.566 -0.0059 -0.3694 -0.2993
18220SOL    HW160496   6.188   6.893  10.556  0.1290 -0.0697 -0.5403
18220SOL    HW260497   6.322   6.890  10.487  0.1615 -0.9999 -0.4478
18221SOL     OW60498  10.130   9.472   2.373 -0.9531 -0.1595 -0.3227
18221SOL    HW160499  10.104   9.548   2.321  0.4936  0.7869  0.2466
18221SOL    HW260500  10.048   9.431   2.399 -1.8218  1.5572 -0.1685
18222SOL     OW60501   1.871   8.115   9.760  0.4049  0.5745  0.1742
18222SOL    HW160502   1.942   8.082   9.705 -0.5951 -1.6001  0.0541
18222SOL    HW260503   1.864   8.208   9.738  0.5431 -0.0418 -2.8531
18223SOL     OW60504   7.417   0.286   4.767 -0.0260 -0.8116 -0.1622
18223SOL    HW160505   7.363   0.339   4.825 -0.9112 -2.6996  0.8259
18223SOL    HW260506   7.504   0.286   4.808  0.0161 -0.0911 -0.2324
18224SOL     OW60507   8.505   2.460   6.754 -0.0714 -0.4185  0.6875
18224SOL    HW160508   8.560   2.537   6.771 -1.2239  0.3597  0.9571
18224SOL    HW260509   8.457   2.446   6.836 -1.4459 -0.1288 -0.0569
18225SOL     OW60510   3.314   9.594   3.739 -0.4854 -0.3710  0.1158
18225SOL    HW160511   3.227   9.621   3.709 -0.7389  0.1534  1.2926
18225SOL    HW260512   3.298   9.543   3.818  0.1209 -2.4437 -1.0029
18226SOL     OW60513   0.950   3.221   3.886  0.2082  0.1052  0.0519
18226SOL    HW160514   0.869   3.270   3.877 -0.6997 -1.0716  1.4117
18226SOL    HW260515   0.996   3.263   3.959 -0.4851 -0.8646  1.0946
18227SOL     OW60516   7.255   2.516   5.045  0.2724  0.4063 -0.4005
18227SOL    HW160517   7.299   2.600   5.030 -1.4643  2.2816  3.5431
18227SOL    HW260518   7.312   2.470   5.107  1.9977 -2.2528 -3.6673
18228SOL     OW60519   7.405   4.288  10.577  0.2335  0.4835 -0.2172
18228SOL    HW160520   7.490   4.263  10.615 -0.7286 -1.6922  0.7378
18228SOL    HW260521   7.350   4.308  10.653  0.0542  2.6953 -0.8559
18229SOL     OW60522   8.171   7.881   1.808 -0.0294  0.2651 -0.3483
18229SOL    HW160523   8.243   7.943   1.818  0.6912 -0.3991 -1.1792
18229SOL    HW260524   8.162   7.841   1.894  1.2857 -0.3460 -0.4727
18230SOL     OW60525   5.391   3.895   1.989 -0.1667  0.3071 -0.3537
18230SOL    HW160526   5.324   3.846   2.036  1.4187 -0.6593  1.0645
18230SOL    HW260527   5.351   3.918   1.906 -2.5202  0.5552  0.7816
18231SOL     OW60528  10.182   1.294   5.704  0.0230  0.4804 -0.2446
18231SOL    HW160529  10.248   1.318   5.770 -0.0021  1.8886 -0.6991
18231SOL    HW260530  10.200   1.203   5.684 -0.4625 -0.2724  2.2915
18232SOL     OW60531   6.104   4.104   7.277  0.4908 -0.3271  0.1652
18232SOL    HW160532   6.039   4.054   7.229 -1.6583  2.6676 -0.3324
18232SOL    HW260533   6.072   4.105   7.368  0.1283  0.6272  0.0418
18233SOL     OW60534   4.452   4.843   3.514 -0.6393 -0.3581 -0.3150
18233SOL    HW160535   4.361   4.813   3.509 -0.6694 -0.4706  0.6521
18233SOL    HW260536   4.448   4.922   3.567 -0.0536 -0.9703  0.6755
18234SOL     OW60537   0.283   8.669   0.925  0.8191 -0.0069  0.5363
18234SOL    HW160538   0.243   8.663   1.012 -0.6514  0.9701 -0.0473
18234SOL    HW260539   0.348   8.739   0.934  1.7472 -0.9073  1.2097
18235SOL     OW60540   6.042   8.568   3.102  0.6258 -0.5226 -0.2438
18235SOL    HW160541   5.971   8.631   3.112  0.9492  0.0915 -1.6397
18235SOL    HW260542   6.108   8.596   3.164 -0.5901 -1.5160  1.6030
18236SOL     OW60543   4.158   9.471   9.727 -0.1688 -0.3275 -0.3189
18236SOL    HW160544   4.233   9.434   9.773  0.4177 -0.0261 -1.0192
18236SOL    HW260545   4.196   9.526   9.659 -1.0312  1.0900  0.3112
18237SOL     OW60546   7.148   8.219   5.656  0.1241 -0.1841 -0.3377
18237SOL    HW160547   7.190   8.188   5.576 -0.3107 -2.5701  0.2785
18237SOL    HW260548   7.054   8.214   5.637 -0.0462 -2.2784  0.7459
18238SOL     OW60549   6.780  10.375   3.849  0.0076  0.3325 -0.2364
18238SOL    HW160550   6.874  10.387   3.836  0.0898  0.8789  0.7625
18238SOL    HW260551   6.741  10.454   3.813 -0.0777  0.1321 -0.5950
18239SOL     OW60552   1.673   8.110   9.312  0.6379  0.0186  0.1138
18239SOL    HW160553   1.726   8.030   9.317  1.0752  0.2471 -0.6950
18239SOL    HW260554   1.737   8.181   9.316  0.3108  0.3126  0.1257
18240SOL     OW60555   7.456  10.103   9.765 -0.6419  0.3569 -0.3507
18240SOL    HW160556   7.481  10.181   9.815 -0.8030  0.0447  0.2292
18240SOL    HW260557   7.536  10.079   9.717  0.2359 -0.6385  1.4953
18241SOL     OW60558   9.934   9.241   5.016  0.2280  0.4192 -0.3599
18241SOL    HW160559   9.870   9.172   5.031 -0.1843  0.4733 -1.7690
18241SOL    HW260560  10.017   9.204   5.048 -0.3323  0.0473  0.7301
18242SOL     OW60561   0.774  10.369   9.810  0.4744  0.0883  0.3115
18242SOL    HW160562   0.821  10.292   9.841  2.0461  0.9867  0.2615
18242SOL    HW260563   0.819  10.442   9.852 -0.7871  1.0064  0.1156
18243SOL     OW60564   2.720   1.491   8.103 -0.1927 -0.4172  0.1677
18243SOL    HW160565   2.686   1.406   8.075 -0.3431 -0.2820 -0.0633
18243SOL    HW260566   2.814   1.476   8.117 -0.2633 -0.6818  0.3735
18244SOL     OW60567   4.201  10.013   1.269  0.1325 -0.2667  0.6145
18244SOL    HW160568   4.234   9.980   1.353  0.4349 -1.2815  0.1095
18244SOL    HW260569   4.264  10.082   1.245  1.6848 -1.8541 -0.1004
18245SOL     OW60570   2.797   3.615   6.537 -0.2200 -0.3586  0.3547
18245SOL    HW160571   2.865   3.644   6.598  0.2385 -0.5244 -0.0668
18245SOL    HW260572   2.798   3.519   6.545 -1.1417 -0.3142  1.1243
18246SOL     OW60573   4.229   2.002   2.339 -0.0888  0.2906  0.3566
18246SOL    HW160574   4.292   1.983   2.270 -1.3800 -1.9732 -0.3144
18246SOL    HW260575   4.157   2.046   2.294 -1.6277 -2.5577 -0.1688
18247SOL     OW60576   0.169   2.228   8.183  0.1782  0.2146 -0.0549
18247SOL    HW160577   0.246   2.185   8.145 -1.5634 -0.0838 -3.7251
18247SOL    HW260578   0.111   2.155   8.207 -1.0685  0.2759 -2.4549
18248SOL     OW60579   1.956   4.098   7.828 -0.9686 -0.3496  0.0537
18248SOL    HW160580   2.038   4.140   7.853 -1.1600 -0.3251  0.6547
18248SOL    HW260581   1.890   4.166   7.837 -0.8892  0.0405 -1.7634
18249SOL     OW60582   7.706   3.922   0.213  0.1492 -0.5893 -0.0641
18249SOL    HW160583   7.716   4.014   0.236 -0.4291 -0.7358  0.8217
18249SOL    HW260584   7.794   3.893   0.190  0.1231  0.5358 -1.7992
18250SOL     OW60585   7.805   7.903   5.917 -0.2330 -0.6947 -0.2843
18250SOL    HW160586   7.796   7.979   5.975 -0.4923 -1.6013  0.8925
18250SOL    HW260587   7.884   7.859   5.947 -1.1741 -1.9939  0.3971
18251SOL     OW60588   4.287   2.658   9.605  0.2482 -0.0931  0.1222
18251SOL    HW160589   4.223   2.643   9.675  0.2502 -0.1676  0.1079
18251SOL    HW260590   4.371   2.665   9.651 -0.0498  2.4613  0.4094
18252SOL     OW60591   2.043   4.428   2.738 -0.2953  0.5738 -0.2947
18252SOL    HW160592   1.975   4.450   2.674  0.7817 -0.3077 -1.7991
18252SOL    HW260593   1.996   4.382   2.807 -1.3343  0.5797 -0.9657
18253SOL     OW60594   9.788   5.694   2.249 -0.3761  0.2425 -0.4578
18253SOL    HW160595   9.705   5.740   2.241 -1.1018 -1.0036 -0.3159
18253SOL    HW260596   9.854   5.763   2.244 -1.4540  1.5245  1.5258
18254SOL     OW60597   6.244   0.148   0.623  0.2166  0.3429  0.1519
18254SOL    HW160598   6.188   0.225   0.622  0.5154  0.6159  1.5902
18254SOL    HW260599   6.333   0.182   0.609  0.2261  0.1358 -0.2892
18255SOL     OW60600   6.619   7.254   9.618  0.2460 -0.0416 -0.0555
18255SOL    HW160601   6.577   7.330   9.577 -0.6644 -0.6834 -0.3513
18255SOL    HW260602   6.711   7.279   9.625 -0.1406  1.3753  0.5188
18256SOL     OW60603   5.056   7.358   1.632 -0.4681 -0.6235 -0.0868
18256SOL    HW160604   5.085   7.444   1.601  1.6386 -1.1516  0.2489
18256SOL    HW260605   4.987   7.378   1.695  0.2318  0.8572  0.2690
18257SOL     OW60606   4.367   6.976   5.503 -0.6812  0.1770  0.0912
18257SOL    HW160607   4.428   6.925   5.449  1.1380 -1.0593  3.0589
18257SOL    HW260608   4.288   6.921   5.508  0.3911 -1.3508  1.3118
18258SOL     OW60609  10.309   5.388   2.021  0.2207  0.2165 -0.1735
18258SOL    HW160610  10.289   5.356   1.933  0.2205 -0.6995  0.1451
18258SOL    HW260611  10.224   5.389   2.066  0.3446 -0.1709  0.0757
18259SOL     OW60612   5.007   5.473   7.755 -0.1464 -0.0187  0.5199
18259SOL    HW160613   5.036   5.434   7.837  3.2480 -0.9523 -0.9579
18259SOL    HW260614   5.076   5.453   7.692 -0.1297  4.8056 -1.4699
18260SOL     OW60615   8.453   1.872   5.263  0.8084  0.5880 -0.3089
18260SOL    HW160616   8.399   1.865   5.184  1.2330  2.8923 -0.8724
18260SOL    HW260617   8.397   1.838   5.333 -0.2225  0.1053 -1.3396
18261SOL     OW60618   5.419   5.435   5.318  0.0334 -0.0139 -0.1784
18261SOL    HW160619   5.417   5.407   5.227 -0.3175 -3.0264  0.6528
18261SOL    HW260620   5.328   5.435   5.346  0.1788  0.4004  0.3175
18262SOL     OW60621   4.530   1.334   3.039 -0.0124  0.0657 -0.5822
18262SOL    HW160622   4.582   1.255   3.052  0.6453  0.2026 -2.1141
18262SOL    HW260623   4.555   1.392   3.110  1.5774 -0.0781 -0.9813
18263SOL     OW60624   2.595   3.644   1.962 -0.9961 -0.0873 -0.5226
18263SOL    HW160625   2.668   3.705   1.975 -0.2969 -1.3772  2.2560
18263SOL    HW260626   2.635   3.558   1.957 -2.2277 -0.7559  0.3213
18264SOL     OW60627   1.974   8.464   4.543 -0.2498  0.3779 -0.7482
18264SOL    HW160628   1.931   8.527   4.485 -1.5670  2.1887  1.9989
18264SOL    HW260629   2.067   8.485   4.536 -0.3293  0.2538 -2.4759
18265SOL     OW60630   0.798   7.423   9.631  0.0145  0.8411  0.1124
18265SOL    HW160631   0.887   7.447   9.606  1.2216 -2.6020  0.6242
18265SOL    HW260632   0.774   7.486   9.699  2.3773  1.3068  0.5802
18266SOL     OW60633   6.431   0.023   3.120  0.0198  0.2030  0.0237
18266SOL    HW160634   6.350  -0.025   3.134  0.6579 -0.8887  0.1044
18266SOL    HW260635   6.476  -0.025   3.051  0.7861  0.5632  0.2601
18267SOL     OW60636   8.565   2.594   0.570 -0.1554 -0.2397  0.0713
18267SOL    HW160637   8.658   2.576   0.560 -0.1744 -0.1985 -0.1794
18267SOL    HW260638   8.550   2.674   0.520 -0.1383  0.2963  0.8970
18268SOL     OW60639   4.565   8.830   6.151  0.0734  0.1735 -0.1622
18268SOL    HW160640   4.578   8.888   6.077 -3.4537 -1.0940 -2.0074
18268SOL    HW260641   4.481   8.857   6.189  0.1079 -1.4035  1.1725
18269SOL     OW60642   9.354   5.043   4.593 -0.1440  0.1365  0.1194
18269SOL    HW160643   9.420   5.002   4.648  0.3824 -0.6939 -1.0765
18269SOL    HW260644   9.329   5.122   4.640  2.1441  0.7980  0.3678
18270SOL     OW60645   9.990   6.337   0.888  0.2205 -0.2911  0.2615
18270SOL    HW160646  10.067   6.374   0.845  1.2441 -1.1780  1.2445
18270SOL    HW260647   9.978   6.391   0.966  0.7971 -1.0610  0.9034
18271SOL     OW60648   7.676   3.579   9.547 -0.2122 -0.1211 -0.2505
18271SOL    HW160649   7.717   3.665   9.538 -0.4111 -0.1223 -1.2787
18271SOL    HW260650   7.707   3.530   9.471  0.6242 -1.2704  0.8017
18272SOL     OW60651   8.764  10.416   0.207 -0.1067 -0.4351  0.1905
18272SOL    HW160652   8.748  10.346   0.144  0.1848 -0.5008  0.1859
18272SOL    HW260653   8.763  10.373   0.292  0.9544 -0.6063  0.1277
18273SOL     OW60654   3.328   1.586  10.531 -0.1768 -0.1463  0.2026
18273SOL    HW160655   3.392   1.537  10.479 -0.3532 -0.4354  0.2560
18273SOL    HW260656   3.379   1.629  10.599 -0.0111 -0.1937  0.1064
18274SOL     OW60657   6.792   9.585   2.120 -0.9972 -0.3607 -0.3757
18274SOL    HW160658   6.740   9.623   2.050 -2.6168 -0.4895  0.7100
18274SOL    HW260659   6.833   9.660   2.163 -2.4238 -0.0046  0.3943
18275SOL     OW60660   8.691   0.115   8.894  0.1953  0.5839  0.5253
18275SOL    HW160661   8.683   0.205   8.924  1.9632  0.8422  0.2978
18275SOL    HW260662   8.656   0.117   8.804  0.6734  1.1433  0.3486
18276SOL     OW60663   2.939   4.643   1.943  0.3004  0.3469  0.2016
18276SOL    HW160664   2.892   4.598   2.013 -1.0337  0.8651 -0.3135
18276SOL    HW260665   2.874   4.702   1.905  0.3363 -1.3286 -2.7943
18277SOL     OW60666   4.664   6.705   5.892 -0.0618 -0.0500 -0.3660
18277SOL    HW160667   4.578   6.689   5.853  0.0272 -1.9451  0.1418
18277SOL    HW260668   4.705   6.769   5.834 -1.9352  1.1733 -0.4140
18278SOL     OW60669   4.572  10.596   1.890  0.4656  0.3070 -0.2225
18278SOL    HW160670   4.666  10.589   1.905  0.3221  0.8579  1.1094
18278SOL    HW260671   4.564  10.647   1.810  1.3075  0.9315  0.0760
18279SOL     OW60672   2.902  10.015   8.310  0.5672 -0.5241  0.3573
18279SOL    HW160673   2.941   9.928   8.311  2.1741  0.1661  0.4324
18279SOL    HW260674   2.898  10.039   8.217 -0.9634 -1.1124  0.2401
18280SOL     OW60675   7.565   1.737   4.594  0.2248 -0.5538 -0.1135
18280SOL    HW160676   7.488   1.790   4.577  0.1930 -0.9645 -1.3624
18280SOL    HW260677   7.639   1.795   4.574  0.1894 -0.9651 -1.5689
18281SOL     OW60678  10.528   6.297   9.341  0.4231  0.4828  0.2642
18281SOL    HW160679  10.545   6.217   9.390 -1.1484  0.7063  1.2337
18281SOL    HW260680  10.612   6.319   9.301  0.2314 -3.6489 -3.1651
18282SOL     OW60681   0.687   8.061   8.959 -0.0498  0.1927  0.1710
18282SOL    HW160682   0.667   7.998   8.890  0.2775 -2.2743  2.1408
18282SOL    HW260683   0.616   8.049   9.022  0.9049  0.5678  1.3536
18283SOL     OW60684   1.387   9.359   3.887  0.1951 -0.0922 -0.1070
18283SOL    HW160685   1.482   9.366   3.893  0.2994  0.6879 -1.9897
18283SOL    HW260686   1.365   9.403   3.805 -1.7816 -0.3916  0.2165
18284SOL     OW60687   4.062   1.250   1.145  0.1839  0.1254 -0.5122
18284SOL    HW160688   3.972   1.277   1.125  0.0242  0.6066  0.7489
18284SOL    HW260689   4.116   1.317   1.103 -0.0891  0.4025 -0.4308
18285SOL     OW60690   7.750   4.915  10.203 -0.2688  0.1285  0.0647
18285SOL    HW160691   7.758   4.903  10.108  0.0365  0.5494  0.0326
18285SOL    HW260692   7.729   4.828  10.236 -2.0348  0.2818 -0.5543
18286SOL     OW60693   5.471   6.077   0.881 -0.1120  0.5441 -0.1044
18286SOL    HW160694   5.549   6.122   0.913 -1.1740  1.5223  1.2003
18286SOL    HW260695   5.504   6.021   0.810  2.0011 -0.1696  1.3478
18287SOL     OW60696   0.522   3.285   1.521  0.6546 -0.2808 -0.6365
18287SOL    HW160697   0.562   3.244   1.598 -0.5904 -2.2788 -0.9516
18287SOL    HW260698   0.586   3.275   1.451  0.5911 -1.3017 -0.5696
18288SOL     OW60699   4.989  10.042   6.446  0.3230 -0.4670  0.3832
18288SOL    HW160700   4.896  10.063   6.450  0.6304  1.2062 -0.2517
18288SOL    HW260701   5.023  10.072   6.530  0.1846 -1.7664  0.9202
18289SOL     OW60702   3.998   4.194   2.286 -0.4626  0.1461 -0.5726
18289SOL    HW160703   4.024   4.212   2.195 -0.2118  0.7321 -0.3921
18289SOL    HW260704   3.905   4.172   2.280 -0.2285 -0.7571 -1.0837
18290SOL     OW60705  10.242   9.079   4.332  0.1157 -0.4919 -0.3669
18290SOL    HW160706  10.188   9.008   4.367 -0.2422  0.1862  0.4946
18290SOL    HW260707  10.180   9.135   4.285  0.1256  0.0912  0.3090
18291SOL     OW60708   4.931  10.084   0.408  0.4901  0.0483 -0.3333
18291SOL    HW160709   4.943  10.148   0.338 -0.1404 -0.2712 -0.7461
18291SOL    HW260710   4.842  10.099   0.440  0.6432 -0.0525  0.1509
18292SOL     OW60711   9.204   1.442   8.772  0.1671  0.4228  0.7100
18292SOL    HW160712   9.257   1.450   8.851  1.8629 -0.8989 -0.2513
18292SOL    HW260713   9.267   1.436   8.700 -1.2135 -1.8020 -0.4323
18293SOL     OW60714   0.875   7.099  10.162  0.0117 -0.0622 -0.1212
18293SOL    HW160715   0.873   7.176  10.220 -0.6085  0.7366 -1.1580
18293SOL    HW260716   0.886   7.025  10.222 -1.8440  0.6073  1.1757
18294SOL     OW60717   4.175   5.959   9.528 -0.1615 -0.6398  0.5056
18294SOL    HW160718   4.140   6.044   9.502 -1.1891 -1.0006  0.6813
18294SOL    HW260719   4.098   5.904   9.543  0.4820 -1.8105 -0.2792
18295SOL     OW60720  10.529   2.517   4.232 -0.0469 -0.0280  0.0160
18295SOL    HW160721  10.465   2.562   4.176 -1.6436 -1.0365  0.9445
18295SOL    HW260722  10.595   2.484   4.171 -0.4480  0.9761 -0.9941
18296SOL     OW60723   8.002   8.152   7.590 -0.2859 -0.9648  0.4167
18296SOL    HW160724   7.936   8.087   7.567 -1.8904  1.1284 -1.3276
18296SOL    HW260725   8.085   8.115   7.560 -1.2555 -1.8876 -1.2340
18297SOL     OW60726   1.168   8.669   9.604  0.3186  0.2307  0.0228
18297SOL    HW160727   1.218   8.745   9.634 -0.2422  0.1162  1.2932
18297SOL    HW260728   1.218   8.637   9.528  0.5496  1.8571 -0.5560
18298SOL     OW60729   6.164   3.975   5.009  0.4439 -0.0885  0.0253
18298SOL    HW160730   6.193   3.894   5.051  0.6870 -0.3494 -0.6464
18298SOL    HW260731   6.081   3.951   4.966 -1.1824  0.7917  2.4406
18299SOL     OW60732  10.167   6.034   5.326 -0.0333 -0.0964  0.1298
18299SOL    HW160733  10.138   5.963   5.268 -0.9274  0.6960 -0.4106
18299SOL    HW260734  10.091   6.054   5.380  0.0314  0.8259 -0.1021
18300SOL     OW60735   2.231   9.174   8.319 -0.4875  0.1450 -0.1636
18300SOL    HW160736   2.309   9.222   8.345 -1.0161  0.4408  0.9218
18300SOL    HW260737   2.165   9.198   8.383 -1.3132 -0.5480 -0.7259
18301SOL     OW60738   8.373   2.155   0.512 -0.1213  0.2255  0.2477
18301SOL    HW160739   8.375   2.161   0.417  0.9859 -0.2951  0.2187
18301SOL    HW260740   8.450   2.205   0.541 -0.5565  0.5428  0.8747
18302SOL     OW60741   3.435   7.295   4.829  0.1679  0.3044  0.5481
18302SOL    HW160742   3.494   7.337   4.892  2.1914 -1.7610  0.1432
18302SOL    HW260743   3.443   7.349   4.750  1.0590  0.4159  0.7020
18303SOL     OW60744   9.373   0.973   4.751  0.7938 -0.0047 -0.4720
18303SOL    HW160745   9.423   0.905   4.706 -0.2543 -0.2480 -1.2866
18303SOL    HW260746   9.354   1.038   4.684  1.0012  0.6611  0.0967
18304SOL     OW60747   5.008   2.017   4.162 -0.4730 -0.2331 -0.3019
18304SOL    HW160748   4.981   2.108   4.170  0.5323 -0.0350  1.6518
18304SOL    HW260749   5.037   2.008   4.071  1.0644  1.9297 -0.1222
18305SOL     OW60750   7.015   2.035   0.050  0.6206  0.0941  0.2161
18305SOL    HW160751   7.015   1.955  -0.004 -2.7773 -0.5622  0.9522
18305SOL    HW260752   7.009   2.003   0.140  0.8765  1.1915  0.6298
18306SOL     OW60753   2.259  10.341   4.483 -0.1303  0.1431  0.5014
18306SOL    HW160754   2.296  10.252   4.489  0.1431 -0.0841 -2.6775
18306SOL    HW260755   2.290  10.385   4.562  2.3637 -1.6862  0.6785
18307SOL     OW60756   3.622   4.006   0.498 -0.3300  0.1627 -0.2595
18307SOL    HW160757   3.688   3.937   0.503  2.1077  2.4188  2.3905
18307SOL    HW260758   3.542   3.965   0.532  1.1727 -1.2598  1.8259
18308SOL     OW60759   4.922   5.903   0.708 -0.3420  0.2713 -0.3522
18308SOL    HW160760   4.986   5.873   0.773 -0.3936 -0.6507 -0.7104
18308SOL    HW260761   4.947   5.994   0.691  0.1458  0.2881  0.3841
18309SOL     OW60762   0.887   3.874   9.337  0.0086 -0.2649 -0.2905
18309SOL    HW160763   0.825   3.942   9.310  0.5119 -0.7155 -2.7694
18309SOL    HW260764   0.910   3.828   9.256  2.1470 -1.3320  0.8345
18310SOL     OW60765   7.580   5.381   2.355 -0.3764  0.5255 -0.1784
18310SOL    HW160766   7.622   5.297   2.375 -0.5375 -0.1663 -2.4815
18310SOL    HW260767   7.486   5.365   2.368 -0.3900  0.4107 -0.4196
18311SOL     OW60768   6.842   9.759   4.161  0.1021 -0.1384 -0.0196
18311SOL    HW160769   6.917   9.751   4.102 -0.8528 -1.0608 -1.1699
18311SOL    HW260770   6.799   9.841   4.136  1.5638  1.2331  1.7169
18312SOL     OW60771  10.248   7.258   2.139  0.1474  0.5250 -0.6322
18312SOL    HW160772  10.187   7.236   2.069 -0.5801  0.3751  0.0331
18312SOL    HW260773  10.334   7.261   2.096 -0.0386 -1.2300 -1.2239
18313SOL     OW60774   8.118   6.630   4.664 -0.4323 -0.2775  0.1266
18313SOL    HW160775   8.205   6.669   4.674 -0.7240  0.0003  2.0798
18313SOL    HW260776   8.081   6.673   4.587  0.5332  0.8589  0.2662
18314SOL     OW60777   0.878   7.453  10.369  0.2385 -0.3630 -0.4158
18314SOL    HW160778   0.881   7.544  10.396 -1.4855 -0.3503 -0.1600
18314SOL    HW260779   0.961   7.438  10.324  0.2134  1.5592 -1.1810
18315SOL     OW60780   8.930  10.071   4.375 -0.3579  0.6372 -0.5148
18315SOL    HW160781   8.857  10.009   4.369 -1.1426  1.5902 -1.5306
18315SOL    HW260782   8.890  10.152   4.407  0.5151  0.8246  0.1462
18316SOL     OW60783  10.486   3.166   1.305  0.5268  0.0841 -0.4435
18316SOL    HW160784  10.519   3.217   1.231  4.5603 -0.1864  0.8880
18316SOL    HW260785  10.532   3.082   1.298 -1.0362 -0.9613  0.9468
18317SOL     OW60786   6.495   6.536   3.738 -0.7000  0.4168  0.2480
18317SOL    HW160787   6.485   6.498   3.825  0.6662  1.7167  1.0225
18317SOL    HW260788   6.510   6.461   3.680  2.0108 -0.3310  1.7237
18318SOL     OW60789  10.661   1.490   9.629 -0.2477  0.1751 -0.3105
18318SOL    HW160790  10.731   1.551   9.653 -0.1544  0.0760 -0.3293
18318SOL    HW260791  10.654   1.497   9.534 -1.4422  1.4709 -0.1592
18319SOL     OW60792   3.956   7.163   4.778  0.1508 -0.1423 -0.4669
18319SOL    HW160793   4.021   7.199   4.838  0.1749  0.5831 -0.9223
18319SOL    HW260794   3.889   7.126   4.835 -0.1486  1.1166  0.0265
18320SOL     OW60795   1.407   1.346   9.300 -0.1352  0.2839 -0.4943
18320SOL    HW160796   1.465   1.385   9.366  0.7215  0.0720 -1.0962
18320SOL    HW260797   1.375   1.420   9.250 -1.6167  0.5514  0.7711
18321SOL     OW60798   0.413   6.198   3.820 -0.5831 -0.1190  0.1413
18321SOL    HW160799   0.507   6.204   3.837 -0.2270  4.7162 -1.9681
18321SOL    HW260800   0.405   6.129   3.754  1.5638 -0.4420  0.1473
18322SOL     OW60801   3.096   5.914  10.447  0.1976 -0.6033  0.5318
18322SOL    HW160802   3.040   5.843  10.477  1.6229 -0.6213  3.5193
18322SOL    HW260803   3.176   5.871  10.419  0.9113 -0.2911  1.9709
18323SOL     OW60804   0.783   4.594   6.459  0.2869 -0.2121 -0.2913
18323SOL    HW160805   0.758   4.530   6.526 -1.8844  0.6518 -0.1990
18323SOL    HW260806   0.807   4.673   6.508 -0.3400  0.1094 -0.4971
18324SOL     OW60807   5.234   3.867   6.510  0.4438  0.0258 -0.0341
18324SOL    HW160808   5.290   3.900   6.580 -0.4113  0.3749  0.5064
18324SOL    HW260809   5.152   3.843   6.554  0.1735 -0.4908 -0.7972
18325SOL     OW60810   1.495   0.206   8.988 -0.4464  0.3828 -0.3047
18325SOL    HW160811   1.424   0.143   8.974 -0.9869  0.5081  1.6165
18325SOL    HW260812   1.574   0.152   8.990 -0.5621  0.1333 -1.5081
18326SOL     OW60813   9.615  10.136   8.309 -0.1349 -0.2966  0.6743
18326SOL    HW160814   9.539  10.191   8.327  1.7862  2.4293  0.9962
18326SOL    HW260815   9.655  10.175   8.232  3.2644  1.1129  2.9455
18327SOL     OW60816   2.164   3.146   6.853  0.2103  0.7536  0.0446
18327SOL    HW160817   2.252   3.124   6.822 -0.6664  0.0459 -2.0612
18327SOL    HW260818   2.151   3.091   6.930  0.7536 -0.8314 -0.9649
18328SOL     OW60819   5.085   5.982   9.094  0.1728 -0.2887 -0.1560
18328SOL    HW160820   5.165   5.928   9.092 -1.0331 -2.1379 -0.4664
18328SOL    HW260821   5.090   6.029   9.177  1.1475 -1.0883  0.2639
18329SOL     OW60822  10.376   7.393   6.668  0.1617 -0.3453 -0.1304
18329SOL    HW160823  10.454   7.409   6.721  0.0690  1.8083 -0.5434
18329SOL    HW260824  10.390   7.307   6.629  2.3748  0.0387 -0.2938
18330SOL     OW60825   2.878   7.389   4.078 -0.0754  0.2368  0.0385
18330SOL    HW160826   2.790   7.378   4.042  1.1896 -1.4935 -2.8379
18330SOL    HW260827   2.936   7.346   4.015  2.5832 -1.6756  3.4235
18331SOL     OW60828   7.678   1.606   8.042  0.7499 -0.4977  0.0607
18331SOL    HW160829   7.620   1.623   7.968  0.1099 -0.2961  0.5914
18331SOL    HW260830   7.623   1.560   8.105  0.7564  0.8942  1.1413
18332SOL     OW60831  10.266   0.761   0.630  0.3811 -0.2119 -0.0142
18332SOL    HW160832  10.337   0.705   0.598  2.8020  2.5913  0.0548
18332SOL    HW260833  10.203   0.762   0.558  1.2856 -1.2866 -0.8820
18333SOL     OW60834   8.956   5.777   8.715 -0.1363 -0.0472  0.0347
18333SOL    HW160835   9.034   5.723   8.717 -0.6374 -0.8239 -0.5563
18333SOL    HW260836   8.934   5.791   8.807 -0.4631 -1.5721  0.2247
18334SOL     OW60837  10.529   3.618   8.410  0.5319 -0.2070  0.1566
18334SOL    HW160838  10.541   3.536   8.363 -1.7824 -0.1023 -0.7581
18334SOL    HW260839  10.500   3.592   8.497 -1.4763 -0.4310 -0.5244
18335SOL     OW60840   2.983   7.172   4.196  0.6722 -0.0741  0.6600
18335SOL    HW160841   2.923   7.243   4.172  2.1696  0.3112 -2.5629
18335SOL    HW260842   3.061   7.216   4.230  1.5579 -0.0473 -1.2361
18336SOL     OW60843   4.755   3.370   8.063  0.2499  0.5486  0.0427
18336SOL    HW160844   4.700   3.387   7.986 -0.3941 -0.6539  0.2165
18336SOL    HW260845   4.695   3.379   8.137  0.2795 -0.7236  0.2420
18337SOL     OW60846   1.593   3.311   1.199 -0.6153 -0.3927 -0.3225
18337SOL    HW160847   1.554   3.291   1.285  1.1334 -0.4121  0.5025
18337SOL    HW260848   1.519   3.339   1.146 -1.3916  2.7620  2.0990
18338SOL     OW60849   8.104   5.907   0.570  0.1108 -0.3281 -0.1108
18338SOL    HW160850   8.200   5.906   0.561  0.1594 -0.5941  0.3826
18338SOL    HW260851   8.079   5.814   0.569 -0.6027 -0.2871 -4.6075
18339SOL     OW60852   7.579   8.405   5.190 -0.2644 -0.0912  0.1446
18339SOL    HW160853   7.489   8.413   5.221 -0.1733  1.5742  0.1043
18339SOL    HW260854   7.575   8.339   5.121 -0.7558 -2.7200  2.5069
18340SOL     OW60855   9.872   8.983   1.771  0.3769 -0.0208  0.2205
18340SOL    HW160856   9.950   9.029   1.801  0.2472  0.0072  0.5186
18340SOL    HW260857   9.813   8.985   1.846 -0.4050  1.0757 -0.3821
18341SOL     OW60858  10.644   4.085   4.923 -0.1359  0.6989 -0.2413
18341SOL    HW160859  10.644   4.054   4.833 -1.5467 -1.0457  0.3168
18341SOL    HW260860  10.663   4.008   4.976 -1.8185  1.1206  1.0812
18342SOL     OW60861   3.940   4.973   5.576 -0.0475 -0.1192 -0.3570
18342SOL    HW160862   3.881   4.936   5.511 -0.4412  1.5090 -0.9573
18342SOL    HW260863   4.026   4.970   5.534 -0.1994  0.3394 -0.7079
18343SOL     OW60864   3.167   3.436   0.490  0.2691  0.2019 -0.1016
18343SOL    HW160865   3.123   3.490   0.555 -0.4729 -0.2246 -0.2310
18343SOL    HW260866   3.122   3.352   0.494  1.1394 -0.2829 -0.1842
18344SOL     OW60867   7.519   4.389   1.673  0.3195  0.4575 -1.2501
18344SOL    HW160868   7.478   4.321   1.619  1.9728 -0.8877 -0.9068
18344SOL    HW260869   7.448   4.422   1.728 -0.7922 -0.0943 -2.3083
18345SOL     OW60870   7.573   6.642   0.537  0.1133 -0.2868  0.0740
18345SOL    HW160871   7.564   6.555   0.577 -1.5119  0.5706  1.7830
18345SOL    HW260872   7.550   6.703   0.608  0.3423  1.5037 -1.3163
18346SOL     OW60873   2.123   8.839   7.973 -0.5267  0.0432  0.2850
18346SOL    HW160874   2.174   8.783   8.032  0.9222  3.6796  2.8702
18346SOL    HW260875   2.032   8.818   7.992 -0.0391 -1.0003  1.5805
18347SOL     OW60876   9.357   3.366   9.210 -0.3193 -0.1686 -0.0445
18347SOL    HW160877   9.415   3.336   9.279  1.4741  0.1517 -1.3410
18347SOL    HW260878   9.399   3.338   9.129 -1.6533  0.6354 -1.0726
18348SOL     OW60879   8.419   0.982   9.900  0.3260  0.0751  0.2456
18348SOL    HW160880   8.504   0.956   9.865  0.6840  1.6830 -0.1338
18348SOL    HW260881   8.369   1.011   9.824 -0.7420 -1.2696  0.4057
18349SOL     OW60882   7.868   3.407   0.698  0.2049  0.7239  0.0860
18349SOL    HW160883   7.871   3.346   0.624  0.9085  0.7440  0.0847
18349SOL    HW260884   7.957   3.403   0.735  0.5232  2.3727 -0.4285
18350SOL     OW60885  10.676  10.694   0.489 -0.1131 -0.5929  0.3397
18350SOL    HW160886  10.680  10.705   0.394 -3.2447  0.0690  0.1611
18350SOL    HW260887  10.763  10.717   0.520  0.9045 -0.5054 -2.3285
18351SOL     OW60888   9.078   3.417   4.110  0.3432  0.2129  0.6993
18351SOL    HW160889   9.129   3.456   4.181  1.3911  0.7825 -0.3292
18351SOL    HW260890   9.044   3.492   4.060  0.5849 -0.1652 -0.0569
18352SOL     OW60891   5.691   5.419   6.589 -0.2283  0.3799 -0.0408
18352SOL    HW160892   5.741   5.500   6.591 -0.7613  0.7052  2.0693
18352SOL    HW260893   5.734   5.366   6.522  1.1717  1.7283 -0.2626
18353SOL     OW60894   7.910   9.735   3.941  0.0532  0.1812 -0.3885
18353SOL    HW160895   7.954   9.709   4.023  0.1977  0.5383 -0.3519
18353SOL    HW260896   7.913   9.831   3.942 -2.3896  0.3342  0.5398
18354SOL     OW60897   7.621   9.091   3.950  0.2657  0.4842 -0.0749
18354SOL    HW160898   7.694   9.036   3.921 -0.9264 -1.2859  0.1100
18354SOL    HW260899   7.565   9.098   3.873  0.6848  2.0077 -0.2765
18355SOL     OW60900   5.752   4.403   6.928  0.0899  0.5889  0.0966
18355SOL    HW160901   5.702   4.438   7.002  1.4208  1.3640  0.6667
18355SOL    HW260902   5.704   4.432   6.851 -0.5052  1.0418  0.6208
18356SOL     OW60903  10.488   8.072   1.587 -0.5749  0.2797 -0.1481
18356SOL    HW160904  10.520   7.982   1.596  1.0563  0.8559  0.1532
18356SOL    HW260905  10.430   8.069   1.511 -1.9619 -1.3790  0.9169
18357SOL     OW60906   3.539   0.018   9.168  0.0367 -0.8924 -0.2910
18357SOL    HW160907   3.577  -0.015   9.087 -0.2189 -0.6532 -0.5097
18357SOL    HW260908   3.465   0.073   9.140  1.2595  0.9843 -0.0297
18358SOL     OW60909   1.211  10.558  10.305 -0.1598  0.5064 -0.2872
18358SOL    HW160910   1.301  10.530  10.320  0.1371  1.9093  0.7743
18358SOL    HW260911   1.216  10.654  10.301 -1.7378  0.6912  1.0339
18359SOL     OW60912   7.468   4.391   5.105 -0.0558 -0.4474 -0.4182
18359SOL    HW160913   7.524   4.405   5.182  0.1775 -0.1100 -0.6502
18359SOL    HW260914   7.449   4.478   5.073  1.1305 -0.6154 -1.6719
18360SOL     OW60915   3.652   7.489   0.596  0.0337  0.1110 -0.1275
18360SOL    HW160916   3.729   7.542   0.575  0.6937 -1.8449 -3.2779
18360SOL    HW260917   3.683   7.399   0.591 -2.5459 -0.7852 -2.2506
18361SOL     OW60918   2.446   2.836   1.907  0.2136 -0.0952 -0.3145
18361SOL    HW160919   2.418   2.766   1.848  1.5816 -0.1110 -0.9927
18361SOL    HW260920   2.369   2.892   1.916 -0.0256 -0.0226 -2.2450
18362SOL     OW60921   7.949   1.189   1.364  0.6895  0.0390  0.1447
18362SOL    HW160922   7.973   1.226   1.449 -1.4968  0.9995  0.3964
18362SOL    HW260923   7.879   1.127   1.383  2.7459 -2.7141 -0.5713
18363SOL     OW60924   4.929   2.487   5.166 -0.7144  0.0166 -0.2935
18363SOL    HW160925   4.916   2.581   5.176 -0.5708  0.2049 -1.6626
18363SOL    HW260926   4.973   2.478   5.082  1.2142 -1.1454  0.7702
18364SOL     OW60927   4.977   0.144   5.534 -0.5127  0.0140 -0.1310
18364SOL    HW160928   4.948   0.224   5.579 -1.7277  0.3741 -1.4969
18364SOL    HW260929   5.069   0.135   5.559 -0.2175  2.1005 -0.3075
18365SOL     OW60930   8.488   5.513   5.042 -0.4938 -0.4490 -0.9274
18365SOL    HW160931   8.546   5.532   4.969 -0.3535  1.2179 -0.4207
18365SOL    HW260932   8.486   5.417   5.047  2.1448 -0.5695 -1.0135
18366SOL     OW60933   5.387   3.659   6.430  0.1309  0.1998  0.6505
18366SOL    HW160934   5.338   3.635   6.352  0.4122  1.4034  0.0728
18366SOL    HW260935   5.344   3.738   6.463  1.3952  1.0476  0.3557
18367SOL     OW60936   9.699   2.612   2.537  0.1205  0.2203 -0.3374
18367SOL    HW160937   9.734   2.680   2.594 -0.9980  1.1813 -0.7768
18367SOL    HW260938   9.772   2.592   2.478  0.2341  1.6099 -0.7112
18368SOL     OW60939   1.612   9.102   3.202  0.1808  0.3144 -0.4841
18368SOL    HW160940   1.624   9.018   3.246 -0.7724  0.1775 -0.4781
18368SOL    HW260941   1.531   9.137   3.239  0.1744  0.8912 -1.0348
18369SOL     OW60942   4.636   2.191   8.918  0.5009 -0.5179  0.0669
18369SOL    HW160943   4.599   2.106   8.940  3.4081 -1.7750  0.4757
18369SOL    HW260944   4.712   2.171   8.863  0.7844  1.8730 -0.5187
18370SOL     OW60945   3.915   8.534   0.500 -0.0047  0.0935 -0.5577
18370SOL    HW160946   3.982   8.498   0.441  0.9774  1.3603 -0.2292
18370SOL    HW260947   3.925   8.628   0.494  0.4185  0.2587  2.0095
18371SOL     OW60948   4.823   3.881   4.415 -0.2016 -0.5380 -0.0808
18371SOL    HW160949   4.889   3.904   4.480  1.1077 -0.8504 -1.2574
18371SOL    HW260950   4.740   3.901   4.457  0.6352 -0.1774  1.4573
18372SOL     OW60951   2.187   6.338   1.763 -0.3088 -0.0307  0.2816
18372SOL    HW160952   2.178   6.428   1.732  0.7418 -0.2874 -0.8974
18372SOL    HW260953   2.117   6.326   1.827 -0.6118  1.5392  0.2682
18373SOL     OW60954   0.526   4.983   2.689 -0.9006  0.1727 -0.4154
18373SOL    HW160955   0.485   4.922   2.628 -1.4005  0.5411 -0.4567
18373SOL    HW260956   0.586   5.034   2.636  1.9353 -2.3384  0.1250
18374SOL     OW60957   2.956   6.484   7.792  0.1081  0.0074 -0.1795
18374SOL    HW160958   2.864   6.478   7.816  0.0599  0.4911 -0.2351
18374SOL    HW260959   2.956   6.487   7.696  0.1764  0.0788 -0.1780
18375SOL     OW60960   7.448  10.320  10.146 -0.2560 -0.7653  0.0982
18375SOL    HW160961   7.411  10.406  10.168 -1.2438 -0.7681 -1.4073
18375SOL    HW260962   7.510  10.302  10.216  1.5810  2.1452 -0.5892
18376SOL     OW60963   8.730  10.659   2.177  0.2592  0.2204 -0.0345
18376SOL    HW160964   8.788  10.612   2.238  0.0173 -0.4114 -0.2821
18376SOL    HW260965   8.670  10.592   2.144  0.8028  0.3980 -1.4740
18377SOL     OW60966   7.493  10.192   7.961 -0.4868 -0.3571 -0.4421
18377SOL    HW160967   7.455  10.117   8.006 -0.1265 -0.6195 -0.5705
18377SOL    HW260968   7.420  10.253   7.949 -0.6177 -0.3355  0.3827
18378SOL     OW60969   9.421   0.795   6.184 -0.3259 -0.2614 -0.0856
18378SOL    HW160970   9.361   0.721   6.172  0.7136 -1.1255 -0.1263
18378SOL    HW260971   9.507   0.754   6.193  0.4713  1.0097 -1.5382
18379SOL     OW60972   1.129   1.179   9.355 -0.1338 -0.2199  0.1935
18379SOL    HW160973   1.218   1.149   9.375  0.7886  1.4234 -1.1407
18379SOL    HW260974   1.123   1.265   9.397 -0.9294 -0.0919 -0.1627
18380SOL     OW60975   4.419   8.651   2.774  0.4165  0.1212  0.5461
18380SOL    HW160976   4.411   8.561   2.804 -0.6934 -0.2921 -0.8496
18380SOL    HW260977   4.512   8.662   2.753  0.3183 -1.2561 -0.8070
18381SOL     OW60978   1.299  10.192   2.173 -0.3732  0.1896  0.0268
18381SOL    HW160979   1.226  10.137   2.203 -1.9120  0.2410 -3.1128
18381SOL    HW260980   1.256  10.269   2.136  1.4663  1.3170  0.1588
18382SOL     OW60981   0.175   0.895   4.280 -0.3507  0.4437 -0.2201
18382SOL    HW160982   0.131   0.825   4.329 -0.4853  0.1791 -0.7189
18382SOL    HW260983   0.265   0.864   4.269 -0.6228 -0.0271 -1.1642
18383SOL     OW60984   8.281   8.627   8.900  0.9183 -0.2116  0.0448
18383SOL    HW160985   8.286   8.538   8.935  0.5750 -0.2751 -0.0593
18383SOL    HW260986   8.302   8.617   8.807 -2.1022 -0.6764 -0.6981
18384SOL     OW60987   7.944   9.772   6.302 -0.8367  0.0924 -0.2769
18384SOL    HW160988   8.016   9.817   6.345 -0.8328  0.6176 -0.8069
18384SOL    HW260989   7.963   9.679   6.312  0.0324  0.2286 -0.6028
18385SOL     OW60990   4.235   9.163   2.160 -0.2066 -0.2878  0.2993
18385SOL    HW160991   4.197   9.091   2.211  0.3779  0.2832  1.5779
18385SOL    HW260992   4.160   9.203   2.116 -0.6607 -1.1056  0.3137
18386SOL     OW60993   2.706   3.853   6.691 -0.5134 -0.3238 -0.1698
18386SOL    HW160994   2.677   3.771   6.651  0.5754 -1.6215  1.5722
18386SOL    HW260995   2.625   3.902   6.705 -1.2046 -1.1414 -1.1416
18387SOL     OW60996   1.189   8.264   4.108  0.0956  0.7330  0.0439
18387SOL    HW160997   1.203   8.181   4.064 -2.4405  0.7507 -1.0122
18387SOL    HW260998   1.149   8.241   4.192  1.5187  0.8295  0.7636
18388SOL     OW60999   9.207   3.058   7.910 -0.2275 -0.2468  0.1381
18388SOL    HW161000   9.213   2.966   7.884  0.5352 -0.2202  0.1925
18388SOL    HW261001   9.170   3.103   7.834  1.3719 -0.2726 -0.6804
18389SOL     OW61002   5.855   1.747   5.290  0.0881 -0.2661 -0.5606
18389SOL    HW161003   5.820   1.679   5.348  0.9319 -0.0534  0.2213
18389SOL    HW261004   5.810   1.733   5.206 -2.3215  0.3693  0.5341
18390SOL     OW61005   4.080   8.760   7.297 -1.1299  0.0809  0.1721
18390SOL    HW161006   4.105   8.693   7.360  0.4337  1.0096  0.5979
18390SOL    HW261007   3.999   8.797   7.332  0.1801  1.1936  2.1762
18391SOL     OW61008   7.027   9.373   3.551  0.0591 -0.2529  0.2092
18391SOL    HW161009   7.119   9.352   3.531  0.1383  0.1161  0.1885
18391SOL    HW261010   6.984   9.288   3.553  0.7878 -0.6417  2.1518
18392SOL     OW61011   6.783   7.123   9.034  0.0901 -0.3148  0.1609
18392SOL    HW161012   6.874   7.091   9.030  0.5001  0.7436  0.7619
18392SOL    HW261013   6.734   7.047   9.066  0.8619 -0.7237  0.4315
18393SOL     OW61014   0.232  10.167   5.309 -0.3916  0.0558 -0.2333
18393SOL    HW161015   0.237  10.075   5.335 -1.9411 -0.1156 -0.4808
18393SOL    HW261016   0.287  10.212   5.373 -0.9651 -0.8416  0.9414
18394SOL     OW61017   6.253   8.573   7.637  0.1945  0.1908  0.9788
18394SOL    HW161018   6.332   8.622   7.614 -0.6720  2.5511  2.7086
18394SOL    HW261019   6.281   8.511   7.704  0.6869  0.6401  1.1895
18395SOL     OW61020   5.984   9.046   3.738  0.0929 -0.4912  0.2153
18395SOL    HW161021   6.077   9.070   3.748  0.1625 -0.6207 -0.1187
18395SOL    HW261022   5.943   9.124   3.701  0.3909 -0.9858 -1.2276
18396SOL     OW61023   8.113   5.182   0.718 -0.0509 -0.6054  0.6251
18396SOL    HW161024   8.031   5.227   0.699  0.4977  0.0116 -0.3747
18396SOL    HW261025   8.090   5.089   0.722 -0.9826 -0.3479  1.4855
18397SOL     OW61026   6.163   5.159   1.595  0.5349 -0.0331  0.3162
18397SOL    HW161027   6.213   5.082   1.569 -1.1841 -1.6497  1.5711
18397SOL    HW261028   6.191   5.177   1.684  0.6796  0.6220  0.1450
18398SOL     OW61029   8.786   8.388   5.504 -0.2092  0.1779  0.3904
18398SOL    HW161030   8.767   8.295   5.494 -0.4738  0.0199  2.1277
18398SOL    HW261031   8.798   8.420   5.414  0.1165 -1.5660 -0.2161
18399SOL     OW61032   2.282   9.443   1.638 -0.1900  0.0386  0.3015
18399SOL    HW161033   2.217   9.437   1.708 -0.5204  0.8015  0.0600
18399SOL    HW261034   2.287   9.536   1.616  1.6488  0.1270  0.9325
18400SOL     OW61035   3.853   8.020   4.130  0.6342  0.2109 -0.5356
18400SOL    HW161036   3.818   8.100   4.090 -1.1845  0.0406  0.6310
18400SOL    HW261037   3.795   7.950   4.100  0.9521 -0.3473  0.1241
18401SOL     OW61038   2.876   2.453   9.039 -0.0639  0.3691 -0.0712
18401SOL    HW161039   2.929   2.399   8.981 -0.6271 -1.4720  1.0222
18401SOL    HW261040   2.814   2.497   8.982  0.0321 -0.6167 -0.9653
18402SOL     OW61041   5.287   9.278   2.884  0.3214  0.3983  0.0370
18402SOL    HW161042   5.194   9.258   2.883  0.1778  1.0383  0.0618
18402SOL    HW261043   5.330   9.194   2.867 -0.2482  0.0509  0.2833
18403SOL     OW61044   4.061   8.361   8.379 -0.2078 -0.5639 -0.3205
18403SOL    HW161045   4.043   8.352   8.473  0.5055  2.6887  0.2305
18403SOL    HW261046   4.150   8.394   8.375 -0.6586  0.5390 -2.0812
18404SOL     OW61047   5.647   7.917   7.019 -0.4397 -0.0988 -0.0491
18404SOL    HW161048   5.657   7.825   6.995 -2.8776 -0.5675  0.4548
18404SOL    HW261049   5.643   7.916   7.114  1.5227  0.8233  0.0851
18405SOL     OW61050   1.912   2.918   0.168 -0.5605 -0.0396  0.4260
18405SOL    HW161051   1.820   2.891   0.174 -0.0782 -1.7979  0.7102
18405SOL    HW261052   1.922   2.989   0.231 -2.4315  2.5045 -1.9029
18406SOL     OW61053   0.076   5.416   0.874 -0.6892  0.8549  0.0236
18406SOL    HW161054   0.154   5.445   0.827  0.3952 -1.3250  0.3651
18406SOL    HW261055   0.072   5.473   0.951  0.0323  1.6017 -0.4760
18407SOL     OW61056   8.328   7.035   2.686  0.5633  0.1652  0.1566
18407SOL    HW161057   8.290   7.115   2.650  0.1303 -0.3817 -0.6336
18407SOL    HW261058   8.423   7.048   2.679  0.5957  1.5314  2.1121
18408SOL     OW61059   0.353   9.867   3.188  0.2262 -0.0495 -0.4894
18408SOL    HW161060   0.288   9.873   3.258  0.9364 -0.6203  0.2370
18408SOL    HW261061   0.371   9.958   3.165  1.7007  0.2886  1.7061
18409SOL     OW61062   6.273   5.741   8.322  0.5712 -0.2564 -0.3814
18409SOL    HW161063   6.355   5.789   8.329  1.7165 -2.0568 -0.7429
18409SOL    HW261064   6.227   5.760   8.404  1.7776  0.0512  0.2501
18410SOL     OW61065  10.619   4.703  10.546 -0.4229 -0.6868  0.4311
18410SOL    HW161066  10.618   4.702  10.642  1.4580  1.2934  0.5631
18410SOL    HW261067  10.564   4.778  10.523  2.4363  1.6078  0.3034
18411SOL     OW61068   0.056   8.696   4.732  0.1777 -0.6138  0.5118
18411SOL    HW161069   0.130   8.737   4.687  0.1480  0.4823  1.4182
18411SOL    HW261070  -0.020   8.748   4.706 -0.2912 -1.6747 -0.3361
18412SOL     OW61071   5.445   4.456   4.055  0.3286  0.0038 -0.1287
18412SOL    HW161072   5.487   4.542   4.055  1.0806 -0.3487  0.2461
18412SOL    HW261073   5.512   4.397   4.021  0.4640 -0.7181  1.3163
18413SOL     OW61074   7.865   6.474   9.901  0.7182  0.1072 -0.3248
18413SOL    HW161075   7.909   6.407   9.953  1.4073  1.1945  0.5506
18413SOL    HW261076   7.934   6.536   9.879  0.0849  0.5692 -1.0637
18414SOL     OW61077   7.453   8.570   7.633  0.3000 -0.0912 -0.0635
18414SOL    HW161078   7.403   8.520   7.697  0.1639 -1.9123 -1.4835
18414SOL    HW261079   7.397   8.644   7.610 -0.1414 -0.0773  1.0344
18415SOL     OW61080   7.688   7.636   2.745  0.4842 -0.0206  0.0835
18415SOL    HW161081   7.619   7.700   2.765  0.7576  0.6785 -1.1184
18415SOL    HW261082   7.661   7.557   2.792 -0.2053  0.7675  1.0714
18416SOL     OW61083   7.532   8.586   1.720  0.4708  0.1778  0.3594
18416SOL    HW161084   7.447   8.625   1.700  1.1079  1.4262 -0.0308
18416SOL    HW261085   7.550   8.528   1.646  1.9556  3.3375 -2.0258
18417SOL     OW61086   2.070   1.030   8.870  0.0510 -0.4604 -0.3232
18417SOL    HW161087   2.000   1.040   8.935 -0.5131  1.2386 -1.1400
18417SOL    HW261088   2.141   0.987   8.919 -0.5377  0.3104  1.2963
18418SOL     OW61089   1.891   8.869   6.200 -0.5356 -0.6488 -0.3454
18418SOL    HW161090   1.940   8.916   6.133  1.2841 -0.0108  1.3370
18418SOL    HW261091   1.911   8.776   6.184 -1.7664 -0.7036 -1.8578
18419SOL     OW61092   1.295  10.633   2.055 -0.0199  0.6031  0.3762
18419SOL    HW161093   1.210  10.667   2.027  1.4599  1.2120 -4.0400
18419SOL    HW261094   1.355  10.708   2.046  1.6200 -0.7017 -0.0585
18420SOL     OW61095   7.817   7.006   5.341  0.4563 -0.9441 -0.1833
18420SOL    HW161096   7.900   6.970   5.373 -0.2432 -1.1629  1.4970
18420SOL    HW261097   7.758   6.930   5.339  0.6941 -1.1694 -3.0620
18421SOL     OW61098   7.008   7.400   1.634  0.0550 -0.3029  0.4487
18421SOL    HW161099   7.017   7.361   1.720  0.4681  0.8306  0.9358
18421SOL    HW261100   6.944   7.470   1.645 -0.0518 -0.2820 -0.2147
18422SOL     OW61101   6.142   5.604   1.780 -0.0075  0.1535  0.4108
18422SOL    HW161102   6.106   5.526   1.738  0.8580 -0.0706  0.0626
18422SOL    HW261103   6.197   5.571   1.851  2.2756  0.2533 -1.1645
18423SOL     OW61104   7.502  10.126   9.267 -0.1600 -0.3463  0.6221
18423SOL    HW161105   7.521  10.050   9.322 -1.7912 -1.0374  0.2847
18423SOL    HW261106   7.453  10.090   9.194  0.6298  0.7915 -0.5099
18424SOL     OW61107   1.952   9.936   8.519  0.6276 -0.3813  0.0431
18424SOL    HW161108   1.886   9.996   8.483  0.9961 -0.0362 -0.0694
18424SOL    HW261109   1.992   9.986   8.591 -2.0540 -2.0588  2.9137
18425SOL     OW61110   8.750   0.942   7.655  0.0221  0.4579  0.1281
18425SOL    HW161111   8.823   0.940   7.593 -1.7749 -1.2121 -2.1303
18425SOL    HW261112   8.686   1.001   7.615 -0.9319 -0.1820  0.6727
18426SOL     OW61113   2.667   9.932  10.272  0.5486 -0.1982 -0.3322
18426SOL    HW161114   2.602   9.863  10.280  0.5212 -0.1204  0.1729
18426SOL    HW261115   2.617  10.011  10.250  0.8019 -0.7932 -3.5503
18427SOL     OW61116   6.403   5.052   8.323 -0.1971 -0.3497 -0.0979
18427SOL    HW161117   6.463   5.040   8.249 -0.0864 -0.7696  0.0588
18427SOL    HW261118   6.421   5.141   8.353 -0.3884 -0.1046 -0.7025
18428SOL     OW61119   0.438   8.373   4.128 -0.1102  0.1253  0.6531
18428SOL    HW161120   0.434   8.435   4.055  1.0316 -0.0592  0.4063
18428SOL    HW261121   0.489   8.418   4.195 -0.0853 -0.1828  0.8425
18429SOL     OW61122   8.423   5.709   3.605  0.0494 -0.7023 -0.6604
18429SOL    HW161123   8.512   5.680   3.583 -0.0882 -0.3440 -1.7360
18429SOL    HW261124   8.374   5.628   3.619  0.3329 -0.9250 -0.9432
18430SOL     OW61125   9.675   5.258   5.340  0.6162  0.1875 -0.3327
18430SOL    HW161126   9.741   5.257   5.410  0.1330 -1.7744  0.1486
18430SOL    HW261127   9.646   5.168   5.334 -0.4743  0.6242 -2.0464
18431SOL     OW61128   3.745   3.697   8.952  0.4975  0.6188 -0.5453
18431SOL    HW161129   3.799   3.758   8.901 -1.2202  0.7881 -2.2859
18431SOL    HW261130   3.680   3.753   8.994 -0.0560  0.1356 -0.7623
18432SOL     OW61131   5.302   8.110   6.871  0.1006 -0.2696 -0.4581
18432SOL    HW161132   5.345   8.025   6.861  1.0292  0.3672 -2.2407
18432SOL    HW261133   5.360   8.160   6.929 -0.8818 -1.0873  1.3044
18433SOL     OW61134   7.273   6.655   0.876  0.2191  0.3970 -0.0406
18433SOL    HW161135   7.251   6.679   0.786  0.2939  0.6191 -0.0000
18433SOL    HW261136   7.255   6.734   0.927  1.6173  0.7567 -0.0872
18434SOL     OW61137   8.267   9.032   0.160  0.6199 -0.6510  0.5208
18434SOL    HW161138   8.174   9.054   0.154  1.1549  2.3735  1.3614
18434SOL    HW261139   8.286   8.984   0.080 -1.4399 -0.3864 -0.1871
18435SOL     OW61140   7.737   0.664   8.718 -0.1025  0.2133  0.7233
18435SOL    HW161141   7.721   0.686   8.626  1.2652 -0.8091  0.1999
18435SOL    HW261142   7.727   0.747   8.765  1.1050  1.1619 -0.6259
18436SOL     OW61143   9.834   6.671   1.554  0.1141 -0.4671 -0.4078
18436SOL    HW161144   9.888   6.718   1.490 -0.8912  0.5180 -0.5669
18436SOL    HW261145   9.879   6.587   1.566  2.4275  0.7949  0.4839
18437SOL     OW61146   9.244   7.475   3.661 -0.4829  0.1320 -0.0779
18437SOL    HW161147   9.194   7.492   3.742 -1.0027 -0.3816 -0.2848
18437SOL    HW261148   9.308   7.546   3.658  0.3089 -0.4719  1.3890
18438SOL     OW61149   4.670   0.990   0.533  1.1106 -0.1258 -0.4069
18438SOL    HW161150   4.641   1.037   0.611 -1.6913 -1.1050 -0.7420
18438SOL    HW261151   4.716   1.056   0.481 -2.4109  2.3414 -0.7588
18439SOL     OW61152   4.501   4.403   7.329  0.3491 -0.1917 -0.0547
18439SOL    HW161153   4.518   4.437   7.416  2.5953 -2.6745  0.6028
18439SOL    HW261154   4.458   4.319   7.343 -1.4677  0.4332 -1.4688
18440SOL     OW61155   4.353  10.308   0.857 -0.2061 -0.3276 -0.3152
18440SOL    HW161156   4.341  10.398   0.887  0.0194 -0.1478 -0.7504
18440SOL    HW261157   4.279  10.260   0.894  0.7316 -0.3912  1.6156
18441SOL     OW61158  10.056   9.296   3.715 -0.7558  0.1146 -0.4635
18441SOL    HW161159   9.969   9.266   3.690 -0.6325  0.1022 -0.8987
18441SOL    HW261160  10.115   9.233   3.673 -0.4516  1.3916 -2.0532
18442SOL     OW61161   8.284   1.402   2.550 -0.1691  1.5409  0.0830
18442SOL    HW161162   8.368   1.402   2.504  0.5863 -0.1142  1.3388
18442SOL    HW261163   8.270   1.494   2.573  1.1592  1.8981 -0.4147
18443SOL     OW61164   3.008   6.600   9.281 -0.0274  0.4617 -0.5000
18443SOL    HW161165   3.095   6.636   9.298 -0.6862  2.3034 -0.7915
18443SOL    HW261166   2.951   6.677   9.275 -1.7951 -0.7165  0.3016
18444SOL     OW61167   8.546   9.732   3.868 -0.8433  0.4834  0.3628
18444SOL    HW161168   8.559   9.641   3.840  3.0229  1.0972 -0.4797
18444SOL    HW261169   8.489   9.727   3.944  0.1845 -2.8059  1.0535
18445SOL     OW61170   8.338   2.155   2.318 -0.1430 -0.0988  0.0785
18445SOL    HW161171   8.402   2.091   2.349  0.7495 -1.0269 -3.2958
18445SOL    HW261172   8.350   2.157   2.223 -3.6193  1.3667 -0.4708
18446SOL     OW61173   7.385   6.411   6.803  0.2423 -0.1485  0.1561
18446SOL    HW161174   7.398   6.484   6.742 -0.2909  0.3210  0.5988
18446SOL    HW261175   7.448   6.345   6.774  1.4722  0.8796  0.3650
18447SOL     OW61176  10.248   2.814   4.249 -0.1826 -1.0374  0.5110
18447SOL    HW161177  10.312   2.861   4.303 -1.3220 -0.3805  1.3340
18447SOL    HW261178  10.295   2.793   4.169  0.9185 -0.1226  0.8927
18448SOL     OW61179   5.252   6.287   9.422 -0.5178 -0.2642 -1.0139
18448SOL    HW161180   5.319   6.292   9.491  0.0523 -1.4265 -1.4467
18448SOL    HW261181   5.297   6.320   9.344 -1.4763  2.0409 -0.6613
18449SOL     OW61182   6.989   0.813   5.198  0.8234  0.0650  0.1389
18449SOL    HW161183   7.065   0.811   5.141  0.4206 -0.1926 -0.3980
18449SOL    HW261184   6.953   0.724   5.194 -0.0133  0.4141 -0.3115
18450SOL     OW61185   6.507   2.213   8.970  0.9077 -0.3122  0.0530
18450SOL    HW161186   6.462   2.187   8.890 -1.5934 -0.9425  1.5720
18450SOL    HW261187   6.515   2.308   8.963  1.7458 -0.4637 -1.4013
18451SOL     OW61188   0.736   2.416   3.450 -0.2424  0.0825  0.3018
18451SOL    HW161189   0.697   2.452   3.370 -1.3195 -0.7099  0.4471
18451SOL    HW261190   0.746   2.322   3.432  1.6540  0.2601  0.2669
18452SOL     OW61191   1.706   3.743   9.423  0.2164 -0.4960 -0.1453
18452SOL    HW161192   1.788   3.791   9.422 -0.2332  0.2854  0.1053
18452SOL    HW261193   1.731   3.652   9.407  1.4844 -0.8131  2.9091
18453SOL     OW61194   4.052   5.630   8.606  0.2936 -0.0523 -0.1729
18453SOL    HW161195   4.037   5.582   8.687 -0.0387 -0.8697 -0.7087
18453SOL    HW261196   4.131   5.590   8.569  1.6010  1.6016  0.6807
18454SOL     OW61197   6.861   2.677   6.415 -0.4858 -0.2974  0.6057
18454SOL    HW161198   6.864   2.746   6.482  1.6546  2.5142 -2.0994
18454SOL    HW261199   6.793   2.706   6.354  2.2719  1.1168 -2.0196
18455SOL     OW61200   3.486   2.455   1.891 -0.1106  0.1580  0.1771
18455SOL    HW161201   3.489   2.394   1.818 -1.2338  0.0367  0.2081
18455SOL    HW261202   3.431   2.411   1.956 -1.7733  1.5709 -0.1876
18456SOL     OW61203   3.466   8.414   6.920  0.2819 -0.1522  0.6531
18456SOL    HW161204   3.507   8.496   6.891  0.7667 -0.2739  0.9822
18456SOL    HW261205   3.381   8.441   6.955  0.2104  0.1431  0.2620
18457SOL     OW61206  10.657   0.106   2.018 -0.5495 -0.0628 -0.0410
18457SOL    HW161207  10.650   0.099   1.923 -0.8721  0.3455 -0.0521
18457SOL    HW261208  10.733   0.052   2.041 -0.0443  0.3882 -0.6059
18458SOL     OW61209   0.823   3.431   8.620  0.1065 -0.0886  0.2766
18458SOL    HW161210   0.784   3.355   8.663 -0.7093  1.1912  1.8798
18458SOL    HW261211   0.912   3.402   8.599 -0.5126 -1.8306 -0.1432
18459SOL     OW61212   5.324   8.929  10.213  0.1364 -0.6726  0.0158
18459SOL    HW161213   5.366   8.957  10.132  1.4139 -0.6957  0.6590
18459SOL    HW261214   5.231   8.949  10.200  0.5269  0.6246 -0.8846
18460SOL     OW61215  10.000   7.897   6.562  0.1175 -0.0983  0.1793
18460SOL    HW161216   9.996   7.904   6.467 -0.4348 -2.1036 -0.0053
18460SOL    HW261217   9.924   7.946   6.593  0.2888  0.5521 -0.3989
18461SOL     OW61218   9.803   3.384   3.140 -0.6130 -0.0755  0.1881
18461SOL    HW161219   9.744   3.457   3.119 -1.7924 -1.6269 -2.2636
18461SOL    HW261220   9.762   3.341   3.215 -1.5097  0.0730 -0.2050
18462SOL     OW61221   4.757   4.605   8.564 -0.2139 -0.1034  0.4219
18462SOL    HW161222   4.768   4.659   8.485 -1.8386  1.5488  1.2494
18462SOL    HW261223   4.796   4.521   8.540  1.3145  1.0144 -1.3660
18463SOL     OW61224   2.551   5.502   8.808  0.2713 -0.0288  0.4891
18463SOL    HW161225   2.627   5.556   8.830 -0.7667  1.9968 -0.6018
18463SOL    HW261226   2.478   5.545   8.852 -0.3889 -1.5368  0.9346
18464SOL     OW61227   6.423   9.583   7.032 -0.5458  0.3301  0.3276
18464SOL    HW161228   6.499   9.623   6.989 -0.3350  0.2526  0.6262
18464SOL    HW261229   6.439   9.489   7.026 -1.1829  0.2640 -0.6318
18465SOL     OW61230   1.848   7.106   9.990  0.0547 -0.4952 -0.4686
18465SOL    HW161231   1.829   7.199   9.979  0.3666 -0.3578  0.1055
18465SOL    HW261232   1.763   7.063   9.987 -0.2417 -0.0346  0.7411
18466SOL     OW61233   3.832   9.614   9.901 -0.3671  0.2243 -0.6809
18466SOL    HW161234   3.831   9.697   9.948  0.4285  1.0369 -2.0383
18466SOL    HW261235   3.749   9.613   9.853 -0.7552 -0.1658 -0.0089
18467SOL     OW61236   9.027   4.421   8.594 -0.3576  0.2131 -0.5810
18467SOL    HW161237   9.098   4.479   8.566  0.5013  0.5067  1.9915
18467SOL    HW261238   8.947   4.469   8.574  0.1698  0.4214 -2.3631
18468SOL     OW61239   4.680   2.381   6.701  0.2339 -0.4799  0.3946
18468SOL    HW161240   4.746   2.385   6.631 -0.2490  0.3455 -0.0302
18468SOL    HW261241   4.692   2.463   6.749  0.2939 -0.8630  1.0358
18469SOL     OW61242   6.394   1.237   8.742 -0.7690  0.4429  0.1011
18469SOL    HW161243   6.484   1.261   8.763 -0.0075  0.9629 -3.3042
18469SOL    HW261244   6.390   1.142   8.758  0.9956  0.0562 -1.4744
18470SOL     OW61245   1.291  10.598   0.747 -0.7192  0.3920  0.4823
18470SOL    HW161246   1.332  10.619   0.663 -0.2502 -2.0548  0.0253
18470SOL    HW261247   1.202  10.570   0.724 -0.0269 -2.0490  0.5104
18471SOL     OW61248   5.637   5.864   5.771  0.1116  0.1498 -0.0915
18471SOL    HW161249   5.715   5.817   5.802 -0.0252 -0.5713 -0.8056
18471SOL    HW261250   5.568   5.837   5.832  0.2125  0.0437 -0.0224
18472SOL     OW61251   4.265   6.625   0.831 -0.2282  0.0025 -0.2440
18472SOL    HW161252   4.233   6.653   0.746 -2.1064 -0.3716  0.3097
18472SOL    HW261253   4.232   6.536   0.842 -2.3302  0.9433  1.9532
18473SOL     OW61254   8.504   4.976   0.522  0.0651  0.0162 -0.4119
18473SOL    HW161255   8.562   4.954   0.594 -2.9632 -0.8843  1.9998
18473SOL    HW261256   8.509   4.901   0.463 -0.0393 -0.9091  0.7286
18474SOL     OW61257   7.241   5.816   9.014 -0.7715  0.2488 -0.2370
18474SOL    HW161258   7.228   5.820   8.919  0.9431 -1.0073 -0.5621
18474SOL    HW261259   7.334   5.834   9.026 -0.9758  0.4275  1.2228
18475SOL     OW61260   8.598   8.957   0.973 -0.2873  0.4025 -0.0502
18475SOL    HW161261   8.639   8.927   1.055 -0.1162 -0.7105 -0.5176
18475SOL    HW261262   8.549   8.881   0.943  0.8138  0.3065 -1.7266
18476SOL     OW61263   7.576   2.395   6.153  0.3134 -0.2089  0.4232
18476SOL    HW161264   7.605   2.382   6.243  1.4975 -0.9769 -0.0419
18476SOL    HW261265   7.504   2.457   6.159  0.5166 -0.0933  1.8745
18477SOL     OW61266   9.082   4.210   3.195 -0.6848  0.5185 -0.4372
18477SOL    HW161267   9.177   4.221   3.202 -0.7437  1.1961 -0.6517
18477SOL    HW261268   9.063   4.131   3.246 -0.2906  1.6168  1.4636
18478SOL     OW61269   4.104   6.192   8.720  0.6575 -0.5116  0.1070
18478SOL    HW161270   4.081   6.245   8.643  1.5048  0.4198  0.4873
18478SOL    HW261271   4.019   6.162   8.754  0.0707  1.4524  0.4829
18479SOL     OW61272   1.816   7.746   4.173  0.1490  0.2041  0.1694
18479SOL    HW161273   1.879   7.816   4.186  1.3951 -0.4901 -1.7031
18479SOL    HW261274   1.838   7.681   4.238  1.9994 -0.4039 -0.9883
18480SOL     OW61275   0.610   5.706   9.761 -0.3573  0.3959  0.5203
18480SOL    HW161276   0.578   5.618   9.778 -0.7556  0.6547  1.1167
18480SOL    HW261277   0.656   5.731   9.841 -2.0690  1.5403  1.2144
18481SOL     OW61278   0.593   4.927  10.673 -0.0880 -0.4410  0.1008
18481SOL    HW161279   0.664   4.940  10.610 -1.1760 -0.3967 -1.1603
18481SOL    HW261280   0.635   4.887  10.749  0.9924 -2.1474 -1.3330
18482SOL     OW61281   2.073   6.412   4.752 -0.2805 -0.0155 -0.1291
18482SOL    HW161282   2.012   6.385   4.820  0.3661 -0.9354  0.1012
18482SOL    HW261283   2.054   6.354   4.678  0.6134 -0.6107  0.1010
18483SOL     OW61284   7.392   4.868   0.125  0.1038 -0.6379 -0.0841
18483SOL    HW161285   7.455   4.936   0.101  0.9999 -0.9937  1.1430
18483SOL    HW261286   7.438   4.785   0.108 -0.2895 -0.9124  0.1684
18484SOL     OW61287   6.987   5.163   5.345 -0.1699  0.1993 -0.6056
18484SOL    HW161288   7.003   5.115   5.426  2.9512  0.3237 -1.0360
18484SOL    HW261289   6.994   5.097   5.276  0.8955  0.6907 -0.9854
18485SOL     OW61290   7.979  10.461  10.544 -0.5093  0.2258 -0.2756
18485SOL    HW161291   7.939  10.527  10.600 -0.2296 -0.1011  0.3160
18485SOL    HW261292   8.073  10.478  10.550 -0.5342  1.3087 -2.0490
18486SOL     OW61293  10.480   6.196  10.157  0.5886 -1.2959 -0.0761
18486SOL    HW161294  10.498   6.122  10.216  0.0948 -0.7608  0.7530
18486SOL    HW261295  10.436   6.156  10.082 -1.5574 -1.6099  1.2670
18487SOL     OW61296   3.168   1.659   4.381 -0.3108 -0.3383 -0.5220
18487SOL    HW161297   3.193   1.748   4.405  0.6754 -0.6349 -0.4118
18487SOL    HW261298   3.083   1.646   4.424  0.1258  0.1196  0.5203
18488SOL     OW61299   4.525   3.105   1.929 -0.4486 -0.3512 -0.0584
18488SOL    HW161300   4.432   3.100   1.907 -0.1119 -1.3711 -1.3834
18488SOL    HW261301   4.557   3.180   1.879 -0.6392  0.3115  0.7902
18489SOL     OW61302   4.338  10.487  10.149 -0.3706 -0.3857  0.3828
18489SOL    HW161303   4.327  10.400  10.109  0.4957 -0.6169  0.6367
18489SOL    HW261304   4.319  10.474  10.242  1.3993 -0.6658  0.7220
18490SOL     OW61305   2.996   8.845   4.793 -0.3400 -0.5685 -0.1461
18490SOL    HW161306   2.911   8.800   4.787 -1.0321  0.7813 -0.9191
18490SOL    HW261307   2.974   8.938   4.799  1.0749 -0.2731  0.9279
18491SOL     OW61308   7.396   9.776  10.128  0.6683  0.3789 -0.5430
18491SOL    HW161309   7.449   9.846  10.167 -0.4214  0.3082  1.1483
18491SOL    HW261310   7.362   9.815  10.047  1.0084  1.4112 -0.2135
18492SOL     OW61311   9.679   1.129   6.878 -0.6006 -0.2106 -0.2598
18492SOL    HW161312   9.693   1.058   6.941  0.9128  0.0676 -0.2590
18492SOL    HW261313   9.732   1.105   6.803 -0.8851  0.4266 -0.6688
18493SOL     OW61314   1.711   2.084   7.567 -0.1558  0.2833  0.7448
18493SOL    HW161315   1.644   2.066   7.634  0.2441  0.3241  1.1606
18493SOL    HW261316   1.746   2.169   7.592 -0.1065  0.3659  0.3924
18494SOL     OW61317   2.347   3.069   7.766 -0.2128  0.2531  0.1722
18494SOL    HW161318   2.374   3.151   7.807  0.0881  0.4668 -0.4354
18494SOL    HW261319   2.429   3.026   7.742 -0.3453 -0.5623  1.1145
18495SOL     OW61320   7.644   8.501   9.870 -0.4473 -0.3189 -0.4986
18495SOL    HW161321   7.561   8.453   9.870 -0.8492  0.3588 -1.5184
18495SOL    HW261322   7.685   8.478   9.787 -0.7337  1.2338 -1.0997
18496SOL     OW61323   4.618   5.228  10.657 -0.6913 -0.5839 -0.3313
18496SOL    HW161324   4.596   5.319  10.639  1.3313  0.0175 -0.0378
18496SOL    HW261325   4.542   5.178  10.627 -2.2147  1.2385  0.3090
18497SOL     OW61326   9.116   7.296   6.939  0.4758 -0.2993 -0.4766
18497SOL    HW161327   9.202   7.337   6.934  1.0603 -1.5583 -1.4790
18497SOL    HW261328   9.065   7.339   6.871  0.1578  0.7320  0.3869
18498SOL     OW61329   6.836  10.447   1.660  0.2451 -0.2114 -0.0374
18498SOL    HW161330   6.777  10.374   1.642 -0.6543  0.3605  0.4756
18498SOL    HW261331   6.880  10.424   1.741 -2.7083  1.3061  2.2133
18499SOL     OW61332   9.071   6.733   3.102 -0.7721 -0.0083  0.0850
18499SOL    HW161333   9.120   6.782   3.037 -0.5957  0.2929  0.4405
18499SOL    HW261334   8.985   6.775   3.104 -1.4728 -1.2931 -1.4075
18500SOL     OW61335   1.213   6.310   0.850 -0.3203  0.3885 -0.5717
18500SOL    HW161336   1.212   6.245   0.780 -0.7156  1.3551 -1.4845
18500SOL    HW261337   1.130   6.357   0.841 -0.3925  0.5167  0.5688
18501SOL     OW61338   1.598   7.522   3.526 -0.0006  0.5685 -0.0005
18501SOL    HW161339   1.672   7.506   3.585  0.7601 -0.3652 -1.1486
18501SOL    HW261340   1.544   7.586   3.572 -0.0364 -0.9460  2.2023
18502SOL     OW61341   2.269   4.366   5.839  0.5779 -0.0179 -0.3275
18502SOL    HW161342   2.254   4.330   5.751 -0.8347 -0.9230  0.2543
18502SOL    HW261343   2.265   4.290   5.897  0.8272  0.6639  0.5998
18503SOL     OW61344   9.234   0.808  10.587 -0.7241 -0.2891 -0.7084
18503SOL    HW161345   9.153   0.819  10.537 -1.2272 -1.0747 -0.0830
18503SOL    HW261346   9.210   0.752  10.661 -0.0404  0.9458  0.5098
18504SOL     OW61347   4.681   0.740   4.664 -0.2827 -0.2038  0.3080
18504SOL    HW161348   4.679   0.830   4.695  2.8258 -0.0994  0.5295
18504SOL    HW261349   4.702   0.688   4.741 -3.1695 -1.3512  0.4234
18505SOL     OW61350   4.406   7.397   0.870 -1.5796 -0.6290 -0.4942
18505SOL    HW161351   4.325   7.418   0.917 -0.7324 -0.7444  1.0771
18505SOL    HW261352   4.456   7.343   0.930  0.7229  1.3894 -0.4199
18506SOL     OW61353   5.959   6.153   6.448  0.7598  0.2733  0.0160
18506SOL    HW161354   5.950   6.248   6.437  1.8609  0.5645  1.3596
18506SOL    HW261355   6.018   6.143   6.523  0.1027 -1.4817  0.3461
18507SOL     OW61356   8.551   9.186   4.208 -0.5015  0.3876  0.2597
18507SOL    HW161357   8.550   9.103   4.254  1.6757 -0.2649 -0.7784
18507SOL    HW261358   8.459   9.214   4.207 -0.9354 -0.7162  2.8231
18508SOL     OW61359   6.335   9.301   6.506 -0.3581 -0.0056 -0.1994
18508SOL    HW161360   6.277   9.377   6.508 -0.0144  0.2885 -0.9647
18508SOL    HW261361   6.369   9.299   6.417 -1.7543 -2.1245 -0.7511
18509SOL     OW61362   2.032   7.315   1.002  0.5926 -0.1511  0.5030
18509SOL    HW161363   1.964   7.347   1.061  0.4959 -1.4153  1.1267
18509SOL    HW261364   2.108   7.370   1.020  0.1144  0.4437  0.7243
18510SOL     OW61365   0.545   4.386   3.616  0.2590 -0.1971 -0.1472
18510SOL    HW161366   0.574   4.477   3.606 -1.7600  0.6057  0.7707
18510SOL    HW261367   0.626   4.335   3.616  1.5879  1.7734  1.0942
18511SOL     OW61368   0.169   6.878   3.662 -0.2024 -0.5800 -0.4986
18511SOL    HW161369   0.210   6.806   3.614  1.4558 -0.3327  0.4427
18511SOL    HW261370   0.229   6.952   3.649 -1.5570  0.4807 -0.9463
18512SOL     OW61371   4.492   0.908   2.052  0.3797  0.0990 -0.9260
18512SOL    HW161372   4.529   0.955   2.127  2.5449 -1.9661 -0.6080
18512SOL    HW261373   4.537   0.946   1.976  0.8212 -0.2415 -0.8365
18513SOL     OW61374  10.155   3.530   5.144  0.0290  0.5083  0.1870
18513SOL    HW161375  10.123   3.614   5.112  1.5840  0.4232 -1.7690
18513SOL    HW261376  10.097   3.465   5.105 -0.5521  0.5858  0.8883
18514SOL     OW61377   0.974   6.353   9.254  1.0105 -0.7689  0.4051
18514SOL    HW161378   1.047   6.310   9.209 -0.5114 -1.8162 -1.1458
18514SOL    HW261379   0.899   6.343   9.195 -0.3748  0.4241  1.8722
18515SOL     OW61380  10.000   9.505   9.015 -0.2619 -0.4156  0.1025
18515SOL    HW161381   9.979   9.552   9.096 -0.6222 -0.7829  0.2202
18515SOL    HW261382   9.922   9.515   8.960 -0.2039 -0.5794 -0.0107
18516SOL     OW61383   2.230   2.320   4.196 -0.4418 -0.4281 -0.1476
18516SOL    HW161384   2.165   2.364   4.251 -0.2081  0.8986 -0.9093
18516SOL    HW261385   2.183   2.248   4.155 -1.4025  0.4394 -0.5866
18517SOL     OW61386   6.824   9.157   8.156 -0.4391 -0.1058 -0.4275
18517SOL    HW161387   6.843   9.149   8.250  1.0091  0.8776 -0.6090
18517SOL    HW261388   6.899   9.205   8.120 -0.5871 -1.1294 -2.2312
18518SOL     OW61389   3.932   8.572   5.325 -0.0777 -0.3897  0.0195
18518SOL    HW161390   3.839   8.585   5.345  0.2177  0.9913  0.6761
18518SOL    HW261391   3.965   8.521   5.399 -0.1726 -0.2493  0.1615
18519SOL     OW61392   6.899   0.544   0.444  0.0665  0.2859  0.5681
18519SOL    HW161393   6.930   0.515   0.530 -1.8718 -0.0318  1.2063
18519SOL    HW261394   6.869   0.464   0.401  0.0657  0.5863  0.0035
18520SOL     OW61395   4.671   6.631   9.908  0.2414 -0.1812  0.1489
18520SOL    HW161396   4.730   6.706   9.910  1.2697 -0.9435 -0.5040
18520SOL    HW261397   4.729   6.555   9.900 -0.8540 -0.8718 -2.1463
18521SOL     OW61398   5.982   7.291   9.782  0.5519  0.7272 -0.1235
18521SOL    HW161399   5.967   7.357   9.849  1.5320  0.1579  0.6937
18521SOL    HW261400   5.909   7.229   9.792  0.4808  0.8565  0.1597
18522SOL     OW61401   7.435   1.939   0.191  0.3726 -0.4435 -0.0378
18522SOL    HW161402   7.480   1.893   0.120  0.7584 -0.3509  0.1428
18522SOL    HW261403   7.506   1.979   0.242  0.0795 -0.2377  0.2107
18523SOL     OW61404   2.547   2.836   6.692  0.6210  0.0060 -0.1520
18523SOL    HW161405   2.526   2.746   6.666 -1.1831  0.0137  1.1603
18523SOL    HW261406   2.576   2.829   6.783  3.8333  0.3849 -1.0152
18524SOL     OW61407   4.425   8.770   3.127 -0.1106  0.2082  0.5007
18524SOL    HW161408   4.387   8.721   3.054  0.1136 -0.2754  0.7004
18524SOL    HW261409   4.350   8.812   3.170 -0.0552  2.1563 -1.1750
18525SOL     OW61410   4.305   8.391   6.479  0.5112  0.3063  0.4091
18525SOL    HW161411   4.257   8.397   6.562  0.2510  0.2735  0.2643
18525SOL    HW261412   4.278   8.307   6.442  0.1890  0.5744  0.0288
18526SOL     OW61413   5.811   9.612   1.146  0.1798  0.0055  0.1820
18526SOL    HW161414   5.730   9.636   1.101  0.1669 -0.1560  0.1177
18526SOL    HW261415   5.796   9.522   1.177  0.8237 -0.5309 -1.0021
18527SOL     OW61416   6.337   9.296   8.442  0.0949  0.7874  0.0696
18527SOL    HW161417   6.332   9.388   8.416  0.6493  0.6675 -0.4773
18527SOL    HW261418   6.388   9.298   8.523  0.5273  0.9185 -0.2015
18528SOL     OW61419   6.955  10.180   6.608 -0.3937  0.0579  0.3955
18528SOL    HW161420   6.879  10.166   6.665 -0.9493  0.7440 -0.1529
18528SOL    HW261421   6.935  10.130   6.529 -0.8039  1.1051 -0.1925
18529SOL     OW61422   3.190   9.189   6.129  0.8040  0.2239 -0.4910
18529SOL    HW161423   3.148   9.173   6.045  0.7539 -1.4844 -0.1760
18529SOL    HW261424   3.255   9.119   6.137  2.0633  1.3999  0.1111
18530SOL     OW61425   6.133   1.800   1.988 -0.0682  0.0976 -0.3647
18530SOL    HW161426   6.199   1.748   2.033 -0.6014 -0.7963 -0.5786
18530SOL    HW261427   6.124   1.758   1.902  0.8361  1.6802 -1.2833
18531SOL     OW61428   5.508   3.558  10.402 -0.1884  0.1810  0.1644
18531SOL    HW161429   5.413   3.549  10.398 -0.3006  1.6163 -2.6208
18531SOL    HW261430   5.541   3.503  10.331  0.8576  1.4337 -0.3657
18532SOL     OW61431   2.762   6.109   3.709 -0.0169 -0.5571  0.1637
18532SOL    HW161432   2.721   6.109   3.795 -0.8592 -0.3384 -0.2270
18532SOL    HW261433   2.819   6.186   3.710 -2.9714  1.8591 -0.7960
18533SOL     OW61434   8.499   9.537   1.300  0.1883  0.6200  0.2508
18533SOL    HW161435   8.448   9.456   1.299 -1.3184  1.5151 -1.3973
18533SOL    HW261436   8.506   9.559   1.393 -0.9118 -0.4795  0.6236
18534SOL     OW61437   9.068   2.048   5.841 -0.1717 -0.0729 -0.7718
18534SOL    HW161438   9.125   1.975   5.865  0.5589  1.1505  1.5569
18534SOL    HW261439   9.126   2.124   5.841 -1.1434  0.6995 -1.9621
18535SOL     OW61440   4.757   4.973   6.467 -0.0711  0.1054 -0.2389
18535SOL    HW161441   4.814   4.995   6.393 -0.4397  0.9586 -0.2856
18535SOL    HW261442   4.680   4.933   6.427  0.2651 -0.5792 -0.2148
18536SOL     OW61443   5.148   6.429   3.524  0.3349  0.3059  0.2234
18536SOL    HW161444   5.160   6.341   3.559  1.9070  1.2458  2.2635
18536SOL    HW261445   5.209   6.434   3.450 -0.5925 -0.6645 -0.6159
18537SOL     OW61446   8.141   6.602   3.803 -0.8967 -0.1781 -0.1066
18537SOL    HW161447   8.124   6.514   3.771  0.2488 -0.6453  0.5148
18537SOL    HW261448   8.056   6.634   3.833 -1.2839 -1.1316 -0.1657
18538SOL     OW61449   7.152   2.246   2.363  0.0670  0.0089  0.5755
18538SOL    HW161450   7.207   2.269   2.438  0.5212  1.9388 -0.3035
18538SOL    HW261451   7.196   2.284   2.288 -2.2335  1.3344 -0.2177
18539SOL     OW61452   0.487   5.914   2.409  0.1233 -0.0861 -0.3058
18539SOL    HW161453   0.524   5.849   2.469 -0.9213  0.0268  0.4837
18539SOL    HW261454   0.561   5.968   2.383  0.4075  0.7037  1.9505
18540SOL     OW61455  10.178   0.909   1.970  0.0497 -0.2229  0.2496
18540SOL    HW161456  10.192   0.996   1.931 -1.1062 -1.2538 -2.6609
18540SOL    HW261457  10.083   0.899   1.974  0.1720 -1.3518  0.6533
18541SOL     OW61458   5.697   4.649   8.903  0.0650  0.4737  0.3308
18541SOL    HW161459   5.629   4.692   8.852  1.1573 -0.3785 -2.0291
18541SOL    HW261460   5.653   4.617   8.981 -2.6721 -1.4257 -1.7839
18542SOL     OW61461   2.934   7.063   0.226 -0.8502 -0.2690 -0.0846
18542SOL    HW161462   2.941   6.968   0.214 -1.4901 -0.4541  0.8251
18542SOL    HW261463   2.922   7.074   0.320  0.3030  0.8014 -0.0377
18543SOL     OW61464  10.129   0.247   2.202 -0.2193 -0.8789  0.0667
18543SOL    HW161465  10.099   0.171   2.252 -1.2550 -1.1493 -0.9287
18543SOL    HW261466  10.104   0.322   2.255 -1.7831 -1.1444 -0.2466
18544SOL     OW61467  10.668   1.792   9.104 -0.2757 -0.0047  0.3963
18544SOL    HW161468  10.593   1.785   9.162 -2.0345 -0.1200 -1.7735
18544SOL    HW261469  10.703   1.703   9.098 -1.9234 -0.6054 -0.9792
18545SOL     OW61470   4.954   5.706   4.074  0.1211  0.1150  0.5929
18545SOL    HW161471   5.037   5.752   4.060  0.9824 -1.7336 -1.0128
18545SOL    HW261472   4.973   5.644   4.144 -0.7899  1.5619  2.1789
18546SOL     OW61473   5.511   1.541   7.148  0.1434 -0.6721  0.1797
18546SOL    HW161474   5.519   1.546   7.052  0.0267 -0.8002  0.1625
18546SOL    HW261475   5.428   1.584   7.167  1.8375  2.8123  0.5645
18547SOL     OW61476   1.031   2.309   3.730 -0.1339 -0.4720 -0.3609
18547SOL    HW161477   1.117   2.286   3.695  0.3983  0.5306  0.2372
18547SOL    HW261478   1.016   2.399   3.699 -1.3472 -0.9267 -1.1476
18548SOL     OW61479   9.388   9.640   8.822 -0.1519 -0.4541 -0.4434
18548SOL    HW161480   9.403   9.583   8.898 -0.6039  0.7279  0.5562
18548SOL    HW261481   9.413   9.727   8.852  0.1604 -0.0452 -1.8321
18549SOL     OW61482   1.820   1.893   5.795 -0.1654 -0.2047 -0.4214
18549SOL    HW161483   1.836   1.843   5.876  2.9636 -1.3883 -1.6111
18549SOL    HW261484   1.859   1.979   5.813 -1.5016  0.3213  0.0609
18550SOL     OW61485   1.662   4.133   0.564 -0.0433 -0.9678  0.4044
18550SOL    HW161486   1.705   4.066   0.511  0.4358 -0.2194 -0.1793
18550SOL    HW261487   1.587   4.088   0.603 -0.6613 -1.4609 -1.2393
18551SOL     OW61488   5.790   7.562   5.644  0.4411 -0.0152 -0.3430
18551SOL    HW161489   5.701   7.568   5.610  0.8622  1.7954 -1.2455
18551SOL    HW261490   5.779   7.558   5.739 -0.6168 -0.1739 -0.4632
18552SOL     OW61491   9.949  10.282   1.417 -0.2331 -0.1324  0.2293
18552SOL    HW161492   9.868  10.241   1.448 -0.4626 -0.4850 -0.7961
18552SOL    HW261493   9.999  10.211   1.377 -0.4670  0.4937 -1.2259
18553SOL     OW61494   9.747  10.393   3.900 -0.2817  0.1506  0.3458
18553SOL    HW161495   9.811  10.333   3.938 -1.1433 -1.3845 -0.5439
18553SOL    HW261496   9.665  10.372   3.945 -0.6165  0.6250 -0.0235
18554SOL     OW61497   4.641   4.429   9.571 -0.1634  0.1002 -0.0244
18554SOL    HW161498   4.597   4.346   9.587  1.1366 -0.2415  2.1281
18554SOL    HW261499   4.572   4.495   9.580 -1.1026 -0.6712 -1.2558
18555SOL     OW61500   3.386   2.543   8.710 -0.4105 -0.2882 -0.0282
18555SOL    HW161501   3.456   2.495   8.755 -1.6086  0.2833  2.6120
18555SOL    HW261502   3.330   2.475   8.673  1.0449 -0.7615 -1.5050
18556SOL     OW61503   4.923   6.313   3.901 -0.4155 -0.2393 -1.1745
18556SOL    HW161504   4.922   6.221   3.926 -1.0256 -0.2102 -1.0999
18556SOL    HW261505   5.017   6.335   3.896 -0.2626 -0.9747 -1.6207
18557SOL     OW61506   8.108   5.966   8.326 -0.7147 -0.0894  0.3279
18557SOL    HW161507   8.080   5.878   8.302 -2.1305 -0.0765  1.7528
18557SOL    HW261508   8.113   6.013   8.244 -1.8568 -0.9824 -0.2853
18558SOL     OW61509   1.227   1.197   9.651  0.3519 -0.1026 -0.1180
18558SOL    HW161510   1.173   1.123   9.625  2.0097 -1.2662 -0.3673
18558SOL    HW261511   1.288   1.162   9.716 -0.2549  1.5680  1.4712
18559SOL     OW61512   8.019  10.238   7.915 -0.1042 -0.2680 -0.2621
18559SOL    HW161513   8.034  10.283   7.832  0.4892  1.3233  0.6672
18559SOL    HW261514   7.989  10.307   7.974  0.7700 -1.1000  1.2082
18560SOL     OW61515   7.050   6.392   3.666  0.1791  0.0172 -0.5785
18560SOL    HW161516   7.137   6.428   3.684  0.3639 -0.4220 -0.5903
18560SOL    HW261517   7.013   6.450   3.599  0.0152  0.8633  0.2369
18561SOL     OW61518   7.446   1.832   5.875  0.0738 -0.6066 -0.0273
18561SOL    HW161519   7.540   1.822   5.862  0.0786 -1.4759  0.5613
18561SOL    HW261520   7.436   1.917   5.917  0.5697 -0.4003 -0.3187
18562SOL     OW61521   9.486   3.277   2.438 -0.3039 -0.6812 -0.3786
18562SOL    HW161522   9.569   3.248   2.476 -0.1303 -1.0676 -1.0516
18562SOL    HW261523   9.507   3.360   2.396 -0.6062  0.0109  0.7635
18563SOL     OW61524   3.731   4.978   8.416 -0.0323  0.1036  1.1096
18563SOL    HW161525   3.772   4.924   8.484  0.3584 -1.7289 -0.4882
18563SOL    HW261526   3.799   4.988   8.349 -0.5403  1.5346  0.7741
18564SOL     OW61527   3.500   2.528   2.898  0.4970  0.3177  0.1126
18564SOL    HW161528   3.595   2.533   2.883  0.5362 -2.4826 -1.1208
18564SOL    HW261529   3.493   2.512   2.993  1.5053 -1.9845 -0.1093
18565SOL     OW61530   8.518   1.500   7.484  0.2168  0.0092  0.4766
18565SOL    HW161531   8.585   1.445   7.445  2.0224  0.9087  2.1654
18565SOL    HW261532   8.457   1.518   7.413  1.8533 -0.7121 -1.1694
18566SOL     OW61533   3.367   4.893   3.474  0.7022  0.1586  0.4379
18566SOL    HW161534   3.281   4.858   3.451  1.0151 -0.2340 -0.1296
18566SOL    HW261535   3.398   4.936   3.394  1.4122 -0.4566  0.3823
18567SOL     OW61536   4.086   3.955   0.308 -0.0582  0.1077 -0.3104
18567SOL    HW161537   4.081   3.903   0.228  1.6915  0.6819 -0.8420
18567SOL    HW261538   4.091   3.891   0.378  1.5283 -0.4807 -0.9182
18568SOL     OW61539   1.534   6.311   1.781  0.2152  0.7498  0.0233
18568SOL    HW161540   1.550   6.237   1.839 -2.6012  0.2239  0.2530
18568SOL    HW261541   1.579   6.289   1.700 -0.5639 -1.2306  0.0874
18569SOL     OW61542   3.198   6.064   3.716 -0.1316  0.5267 -0.1293
18569SOL    HW161543   3.147   6.000   3.765  1.7469  1.0061  2.7055
18569SOL    HW261544   3.138   6.138   3.704 -0.9970 -0.0628  0.4087
18570SOL     OW61545   5.879   9.235   4.729 -0.3336 -0.0457  0.0829
18570SOL    HW161546   5.800   9.241   4.675 -0.5753  0.2638  0.4714
18570SOL    HW261547   5.894   9.324   4.760  1.8654  0.5950 -2.3694
18571SOL     OW61548   2.413   2.525   1.357  0.1138 -0.3752  0.0595
18571SOL    HW161549   2.384   2.457   1.297  1.0503 -0.6597 -0.0852
18571SOL    HW261550   2.336   2.544   1.411 -0.4186 -0.8915 -0.4997
18572SOL     OW61551   7.724   1.052   5.266 -0.5507  0.0228  0.8084
18572SOL    HW161552   7.741   0.958   5.255 -1.0221  0.1780 -1.7217
18572SOL    HW261553   7.669   1.057   5.344 -1.6342 -1.9578  0.2384
18573SOL     OW61554   2.123   2.471   5.426  0.0687 -0.3973 -0.3295
18573SOL    HW161555   2.110   2.429   5.511  1.4393 -0.5793 -0.1756
18573SOL    HW261556   2.114   2.565   5.443  2.8151 -0.2039  0.6162
18574SOL     OW61557   8.747   4.518   3.235 -0.0657 -0.0956  0.1088
18574SOL    HW161558   8.803   4.555   3.303 -0.9287  0.2530  0.6462
18574SOL    HW261559   8.806   4.466   3.180  0.7664  0.2367  0.6806
18575SOL     OW61560   7.071   6.631   1.331 -0.2318 -0.2878 -0.4177
18575SOL    HW161561   7.094   6.724   1.323 -0.7437 -0.3036 -4.2457
18575SOL    HW261562   6.986   6.624   1.286 -1.4229 -2.2901  1.9245
18576SOL     OW61563   1.715   9.333   3.544  0.3159  0.1258 -0.6619
18576SOL    HW161564   1.679   9.244   3.539 -0.2420  0.3196 -0.2221
18576SOL    HW261565   1.656   9.385   3.490 -0.1809  0.4784  0.1996
18577SOL     OW61566   5.514  10.306   8.238 -0.1047  0.1557 -0.1750
18577SOL    HW161567   5.423  10.281   8.255 -0.1882  0.8899  0.5663
18577SOL    HW261568   5.547  10.335   8.324  0.0792  2.1408 -0.8581
18578SOL     OW61569   8.567   8.314   0.583  0.2724  0.6373  0.5402
18578SOL    HW161570   8.566   8.339   0.676  1.8754 -1.5201  1.2347
18578SOL    HW261571   8.602   8.391   0.538 -1.7969  2.2233  1.4705
18579SOL     OW61572   0.957  10.268   7.163  0.4140  0.8475  0.6711
18579SOL    HW161573   1.012  10.244   7.237  1.6983  1.9469  0.1126
18579SOL    HW261574   0.999  10.227   7.088  0.3642  1.5289  0.2658
18580SOL     OW61575   5.402   1.077   2.615  0.0349  0.2277 -0.2544
18580SOL    HW161576   5.364   1.041   2.696  1.4499  0.5601  0.5982
18580SOL    HW261577   5.396   1.006   2.552 -1.2333  0.0047  0.0938
18581SOL     OW61578   8.401   3.854   1.124  0.7519  0.2578  0.0963
18581SOL    HW161579   8.483   3.834   1.079  0.1934 -0.5934 -0.5670
18581SOL    HW261580   8.420   3.837   1.216  1.9015  1.9968  0.2250
18582SOL     OW61581   1.153   3.846   8.364 -0.8079  0.1307  0.2511
18582SOL    HW161582   1.200   3.787   8.305 -0.9081  0.5302 -0.2339
18582SOL    HW261583   1.081   3.793   8.398 -0.8210 -0.0655 -0.0843
18583SOL     OW61584   9.657   3.096  10.174 -0.1426  0.1756  0.1932
18583SOL    HW161585   9.746   3.064  10.195 -1.0485 -2.8525 -0.0159
18583SOL    HW261586   9.660   3.112  10.080  1.6555  5.8878  0.8595
18584SOL     OW61587   5.228   7.937   5.001 -0.1118 -0.4684 -0.2045
18584SOL    HW161588   5.262   7.896   4.922  0.8439  0.0429 -0.0740
18584SOL    HW261589   5.239   7.871   5.069 -0.1727 -0.6081 -0.3292
18585SOL     OW61590   1.259   1.502   4.311  0.0838  0.5367 -0.3523
18585SOL    HW161591   1.319   1.481   4.383 -0.5543 -0.4879 -0.0923
18585SOL    HW261592   1.219   1.418   4.288 -0.3990  1.0049 -1.2994
18586SOL     OW61593   0.675   8.912   8.354 -0.5664 -0.0783 -0.5432
18586SOL    HW161594   0.624   8.990   8.374  0.6108  0.6249 -0.1499
18586SOL    HW261595   0.686   8.914   8.258 -0.3689  0.3598 -0.5123
18587SOL     OW61596   4.511   4.803   7.352 -0.4750 -0.0915 -0.1935
18587SOL    HW161597   4.522   4.898   7.346 -0.8212  0.0821  1.4250
18587SOL    HW261598   4.419   4.788   7.332 -0.2104 -0.1926 -1.3626
18588SOL     OW61599   5.937   5.730   4.519  0.4889 -0.0505  0.0366
18588SOL    HW161600   6.001   5.758   4.585 -0.9668  0.9103  1.1229
18588SOL    HW261601   5.901   5.648   4.554  0.3820 -0.0352 -0.0361
18589SOL     OW61602   3.231   3.007   6.968  0.2459  0.3381  0.2088
18589SOL    HW161603   3.209   2.946   7.038 -0.9190 -0.4821 -0.8364
18589SOL    HW261604   3.234   3.093   7.011  2.3322 -0.4378  1.7765
18590SOL     OW61605   0.401   1.731   0.073  0.0021  1.1819 -0.1684
18590SOL    HW161606   0.416   1.640   0.048 -0.0913  1.6648 -2.1750
18590SOL    HW261607   0.327   1.728   0.134  1.4635 -0.2578  1.6349
18591SOL     OW61608   5.357   2.643   6.655 -0.1634 -0.1204 -0.6651
18591SOL    HW161609   5.401   2.625   6.738 -0.9997  2.1269  0.3718
18591SOL    HW261610   5.418   2.614   6.588 -0.0682 -3.3816  0.6542
18592SOL     OW61611  10.274   4.837   8.086  0.0937  0.0079 -0.1871
18592SOL    HW161612  10.345   4.774   8.087 -0.5418 -0.7378 -0.9018
18592SOL    HW261613  10.251   4.847   7.993  0.3554  1.4857 -0.1141
18593SOL     OW61614   1.513   7.142  10.397 -0.1765 -0.4736 -0.3368
18593SOL    HW161615   1.602   7.136  10.364  0.2298 -1.0850  0.8103
18593SOL    HW261616   1.516   7.212  10.462 -0.4059 -0.8353  0.0715
18594SOL     OW61617   8.853   9.637   7.939 -0.5810  0.0548  0.1705
18594SOL    HW161618   8.758   9.639   7.929 -0.5318 -2.1170 -1.4602
18594SOL    HW261619   8.886   9.681   7.861 -0.2079  0.2636  0.4405
18595SOL     OW61620   2.716   4.174   1.481 -0.1290  0.1842 -0.1778
18595SOL    HW161621   2.689   4.164   1.390 -0.8914 -1.2354  0.1686
18595SOL    HW261622   2.695   4.090   1.521 -0.7264  1.1039  1.5465
18596SOL     OW61623   7.443   2.561   4.719  0.7196  0.0106 -0.3769
18596SOL    HW161624   7.432   2.618   4.643  1.5610  0.0031 -0.5084
18596SOL    HW261625   7.367   2.581   4.774  0.4103  0.4388 -0.9427
18597SOL     OW61626   4.273   9.981   6.643  0.2359  0.1127  0.2923
18597SOL    HW161627   4.320   9.977   6.726 -0.5595 -0.2439  0.7412
18597SOL    HW261628   4.290  10.069   6.609 -1.0945  1.0396  1.8555
18598SOL     OW61629  10.376   6.651   4.568  0.4148  0.0621 -0.5616
18598SOL    HW161630  10.410   6.568   4.602 -0.3741  0.0524  0.2596
18598SOL    HW261631  10.397   6.715   4.637  0.1760  0.3533 -0.7566
18599SOL     OW61632   3.399  10.645   7.951  0.0774  0.3085  0.2789
18599SOL    HW161633   3.396  10.554   7.979 -0.3816  0.5976  1.2029
18599SOL    HW261634   3.315  10.659   7.907  0.2812  0.1990 -0.1465
18600SOL     OW61635   8.907   2.107   6.200  0.3131  0.7518  0.2042
18600SOL    HW161636   8.853   2.031   6.221 -0.9801  1.7990  0.8256
18600SOL    HW261637   8.875   2.137   6.115  1.6378 -0.0821 -0.6157
18601SOL     OW61638  10.282   5.596   0.010  0.1798  0.1098 -0.2635
18601SOL    HW161639  10.306   5.680  -0.029 -0.7886  1.6688  2.2633
18601SOL    HW261640  10.365   5.548   0.016  0.9820  1.4120 -0.5290
18602SOL     OW61641   8.866   5.474  10.641  0.0839 -0.1865  0.2257
18602SOL    HW161642   8.794   5.451  10.699  0.1695 -2.8042 -0.5895
18602SOL    HW261643   8.877   5.398  10.584  2.8643  0.5034 -0.3269
18603SOL     OW61644   3.129   7.300   7.767 -0.3768  0.0296 -0.1568
18603SOL    HW161645   3.094   7.261   7.847  1.6087 -1.1838  0.1913
18603SOL    HW261646   3.055   7.299   7.706 -1.4968 -0.5040  1.1566
18604SOL     OW61647   9.900   0.363   7.778  0.0227  0.1072  0.1091
18604SOL    HW161648   9.848   0.359   7.858 -0.1642 -0.9835 -0.0566
18604SOL    HW261649   9.852   0.310   7.715  0.8723 -0.1888 -0.3074
18605SOL     OW61650   1.724   3.839   5.103  0.2994  0.1101 -0.3450
18605SOL    HW161651   1.703   3.924   5.062 -0.2917 -1.3701 -3.4008
18605SOL    HW261652   1.820   3.837   5.104  0.3229  0.8400 -0.1542
18606SOL     OW61653   4.474   5.583   2.724  0.2702  0.4765 -0.0031
18606SOL    HW161654   4.447   5.499   2.761  0.0306  0.2969 -0.5750
18606SOL    HW261655   4.437   5.649   2.782  0.7336  0.1846  0.6359
18607SOL     OW61656   1.034   8.441   2.956 -0.4255 -0.4271 -0.0170
18607SOL    HW161657   1.004   8.416   2.869  1.8140  0.9001 -1.2528
18607SOL    HW261658   1.083   8.522   2.943  1.1220 -0.8876  2.2346
18608SOL     OW61659   0.247   4.890   5.765  0.4600  0.5216  0.1836
18608SOL    HW161660   0.307   4.910   5.694  1.0590 -0.6989  0.3101
18608SOL    HW261661   0.232   4.796   5.758 -0.9990  0.6981  0.5127
18609SOL     OW61662   8.989   2.537   8.350  0.1209 -0.1145 -0.1848
18609SOL    HW161663   8.898   2.511   8.337  0.6094 -4.2361  2.6235
18609SOL    HW261664   8.990   2.575   8.438  1.1107 -0.1366 -0.1785
18610SOL     OW61665   8.527   3.328   7.587  0.3007 -0.1724  0.2176
18610SOL    HW161666   8.555   3.259   7.528  0.7090  0.2472 -0.0922
18610SOL    HW261667   8.596   3.332   7.653  1.6599  1.6657 -1.2066
18611SOL     OW61668   5.345   8.693  10.594 -0.1145 -0.5589 -0.5350
18611SOL    HW161669   5.416   8.757  10.599 -0.9432  0.3077  0.8165
18611SOL    HW261670   5.291   8.711  10.671 -0.8839 -2.2991 -0.6238
18612SOL     OW61671  10.256   0.073   0.395 -0.1271 -0.0019 -0.2572
18612SOL    HW161672  10.302   0.040   0.318 -1.3861  0.1689 -1.1145
18612SOL    HW261673  10.304   0.152   0.419 -0.8663  1.0864 -2.1294
18613SOL     OW61674   1.243   9.065   3.404  0.2324 -0.1669  0.2634
18613SOL    HW161675   1.214   9.061   3.495  0.9267  0.7308  0.5434
18613SOL    HW261676   1.162   9.066   3.353 -0.2054  0.7996  0.9543
18614SOL     OW61677   5.101   4.667   9.361  0.6858  0.1650 -0.4289
18614SOL    HW161678   5.153   4.692   9.285  1.7400 -1.6947 -0.3750
18614SOL    HW261679   5.023   4.626   9.324  0.5723  0.4408 -0.4996
18615SOL     OW61680   9.678   7.483   2.419 -0.3164  0.5642 -0.2176
18615SOL    HW161681   9.672   7.507   2.326 -3.2812  1.6351  0.1344
18615SOL    HW261682   9.679   7.387   2.419  0.0487  0.5518 -1.3509
18616SOL     OW61683   5.853   3.185   6.795  0.5755  0.0797  0.1082
18616SOL    HW161684   5.769   3.154   6.829 -0.0088  1.0232 -0.4028
18616SOL    HW261685   5.831   3.218   6.707  1.3815  0.7854  0.1618
18617SOL     OW61686   6.824  10.361   2.739 -0.1213  0.1381 -0.4825
18617SOL    HW161687   6.916  10.387   2.729 -0.6485  2.3604 -0.1544
18617SOL    HW261688   6.814  10.346   2.833 -0.3570  1.0630 -0.3540
18618SOL     OW61689   3.175  10.597   2.137 -0.5568  0.2877  0.2181
18618SOL    HW161690   3.128  10.645   2.069 -0.4454  0.7662  0.4753
18618SOL    HW261691   3.243  10.657   2.168 -1.3539  0.5399  1.5847
18619SOL     OW61692   0.032   8.303   4.428  0.1127  0.8077 -0.1553
18619SOL    HW161693   0.036   8.382   4.482  0.2459  1.8373 -1.6117
18619SOL    HW261694   0.010   8.233   4.490  0.7905  1.8284  1.3157
18620SOL     OW61695   5.066   2.931   8.919 -0.2118  0.6283 -0.3089
18620SOL    HW161696   5.072   3.022   8.948  0.5057  1.3000 -2.4054
18620SOL    HW261697   5.156   2.905   8.902 -0.6157  0.8736 -3.4345
18621SOL     OW61698   2.717  10.347   2.845 -0.4368 -0.1830  0.0051
18621SOL    HW161699   2.781  10.277   2.837 -2.0047 -1.8096  1.0651
18621SOL    HW261700   2.705  10.358   2.939 -0.8848  0.8938 -0.1637
18622SOL     OW61701   2.553   1.571   9.844  0.2293  0.3351 -0.4235
18622SOL    HW161702   2.479   1.519   9.878  1.9777 -1.6055  0.6517
18622SOL    HW261703   2.552   1.651   9.897 -0.3248 -0.2512  0.4771
18623SOL     OW61704   9.813   8.391  10.616 -0.1903  0.1799 -0.4983
18623SOL    HW161705   9.793   8.412  10.707  1.2966 -1.0229  0.1472
18623SOL    HW261706   9.798   8.473  10.569 -0.7058  0.9034  0.8509
18624SOL     OW61707   4.693   3.358   7.558  0.1126  0.6202  0.3590
18624SOL    HW161708   4.704   3.325   7.469 -1.5948 -1.0149  0.6951
18624SOL    HW261709   4.782   3.379   7.587  0.9958 -1.1972 -0.8677
18625SOL     OW61710   0.612   7.650   0.755  0.4503  0.1857  0.1850
18625SOL    HW161711   0.704   7.649   0.730  0.2518 -1.9033 -0.6697
18625SOL    HW261712   0.568   7.699   0.686  0.4970 -1.8444 -1.3873
18626SOL     OW61713   3.327   7.106   6.693  0.3148  0.2521 -0.3211
18626SOL    HW161714   3.347   7.013   6.683 -0.7830 -0.0974  0.6199
18626SOL    HW261715   3.313   7.138   6.603  0.0098 -0.6362 -0.5904
18627SOL     OW61716   7.790   1.024   9.872  0.0923  0.4636 -0.5667
18627SOL    HW161717   7.773   0.981   9.788 -1.1302 -1.6163  0.6652
18627SOL    HW261718   7.830   0.956   9.926  1.7023  2.0274  0.2828
18628SOL     OW61719   4.114   4.973   9.720 -0.2090 -0.6951  0.5558
18628SOL    HW161720   4.159   4.994   9.802  1.4160  2.5990 -0.9777
18628SOL    HW261721   4.050   5.044   9.709 -0.1794 -0.8914 -1.1437
18629SOL     OW61722   1.448   0.566  10.438  0.0187  0.1088 -0.3939
18629SOL    HW161723   1.475   0.501  10.503 -1.6965  1.5868  1.9301
18629SOL    HW261724   1.531   0.598  10.401  0.9839 -1.7446  0.0364
18630SOL     OW61725   1.658  10.289   7.541 -0.0395  0.1483 -0.1189
18630SOL    HW161726   1.645  10.362   7.481 -1.4326  0.8591  1.0103
18630SOL    HW261727   1.579  10.235   7.531  0.7918 -1.0196 -0.6516
18631SOL     OW61728   3.123   8.089   5.940 -0.5652  0.2161 -0.4038
18631SOL    HW161729   3.198   8.148   5.929  0.0414 -0.6647 -1.0942
18631SOL    HW261730   3.154   8.020   5.998 -0.2950 -1.0122 -1.9397
18632SOL     OW61731   8.334  10.067   7.448  0.0599  0.0319 -0.2332
18632SOL    HW161732   8.349  10.158   7.423 -2.2604  0.5860  0.1865
18632SOL    HW261733   8.402  10.048   7.513  1.2261  1.0932 -1.1002
18633SOL     OW61734   8.479   4.326   8.442 -0.1316 -0.5925 -0.3957
18633SOL    HW161735   8.444   4.385   8.375 -0.3534  0.6937  0.8040
18633SOL    HW261736   8.486   4.241   8.399 -0.4445  0.1620 -1.9809
18634SOL     OW61737   3.969   9.969   6.281 -0.2154  0.0285 -0.6098
18634SOL    HW161738   3.874   9.957   6.270 -0.3146 -0.3891  0.5944
18634SOL    HW261739   3.985  10.059   6.251 -1.3086  0.7570  0.8633
18635SOL     OW61740   9.748   7.016   9.341 -0.1130  0.0082  0.3955
18635SOL    HW161741   9.803   7.013   9.263 -1.7903  0.3886 -0.8624
18635SOL    HW261742   9.730   7.109   9.355  0.2066 -0.0509  1.2744
18636SOL     OW61743   6.745   3.934   1.493  0.0689 -0.3446 -0.3273
18636SOL    HW161744   6.716   3.989   1.419  1.6924  0.7728 -0.1907
18636SOL    HW261745   6.702   3.850   1.478 -0.1840  0.0558 -2.1901
18637SOL     OW61746   4.322   8.903   2.729 -0.0905  0.8311  0.1164
18637SOL    HW161747   4.345   8.810   2.732  0.7994  1.0597  0.9123
18637SOL    HW261748   4.399   8.948   2.764 -0.2361  1.9296 -0.9000
18638SOL     OW61749   2.705   9.026   7.909 -0.5463  0.0807 -0.0422
18638SOL    HW161750   2.700   8.980   7.993 -0.4867 -2.0335 -1.1399
18638SOL    HW261751   2.615   9.050   7.889 -0.6142  0.2061  0.3871
18639SOL     OW61752   8.173   0.025   0.659  0.2522  0.7560  0.2131
18639SOL    HW161753   8.169  -0.066   0.630  0.6745  0.8904 -0.2780
18639SOL    HW261754   8.082   0.047   0.679  0.2368  0.0003  1.0535
18640SOL     OW61755   7.938   9.859   1.315 -0.0667  0.3846 -0.8339
18640SOL    HW161756   7.878   9.808   1.261  0.6093 -0.0176 -1.2129
18640SOL    HW261757   8.008   9.885   1.255 -0.3927  1.7607 -0.6512
18641SOL     OW61758   5.858   9.069   2.332 -0.0796  0.3940 -0.1794
18641SOL    HW161759   5.908   9.045   2.410  0.1259  1.0319 -0.1134
18641SOL    HW261760   5.780   9.113   2.366 -0.0865  0.4945 -0.3259
18642SOL     OW61761   2.495   0.230  10.140 -0.4576  0.6765  0.2988
18642SOL    HW161762   2.432   0.250  10.210 -1.6895 -0.6594 -0.3782
18642SOL    HW261763   2.475   0.293  10.071 -2.5346 -1.0032 -0.7543
18643SOL     OW61764   1.846   5.851   7.724  0.0940 -0.0721 -0.0278
18643SOL    HW161765   1.904   5.887   7.657  0.0752 -2.9592 -1.7614
18643SOL    HW261766   1.758   5.872   7.693  0.1076 -0.3153 -0.2285
18644SOL     OW61767   4.916   7.271   3.843  0.1747 -0.5051 -0.5887
18644SOL    HW161768   4.937   7.339   3.907  0.1188  0.4785 -1.5826
18644SOL    HW261769   4.974   7.289   3.770 -0.5967 -0.8613 -1.3015
18645SOL     OW61770   3.183   2.251   4.020 -0.3725  0.2105 -0.2249
18645SOL    HW161771   3.192   2.174   3.964 -0.4985 -0.0619  0.1196
18645SOL    HW261772   3.250   2.238   4.088 -1.1896 -0.2120  0.5252
18646SOL     OW61773   0.067   9.223   0.531 -0.0500 -0.3033  0.0211
18646SOL    HW161774   0.052   9.317   0.526  1.4099 -0.0420  0.2120
18646SOL    HW261775  -0.011   9.189   0.576 -0.4819  0.8355  0.1712
18647SOL     OW61776  10.469  10.219   2.363  0.7434 -0.0620 -0.3745
18647SOL    HW161777  10.475  10.170   2.281  0.2707  0.5260 -0.7707
18647SOL    HW261778  10.376  10.213   2.387  0.7863  0.1925 -0.1445
18648SOL     OW61779  10.629   4.007   7.019  0.2856 -0.1557  0.4762
18648SOL    HW161780  10.664   4.094   7.039 -0.6250  0.6038 -1.0660
18648SOL    HW261781  10.684   3.976   6.947 -1.2690  0.4919 -1.0707
18649SOL     OW61782   4.147   7.176   8.335  0.2168  0.2868 -0.3459
18649SOL    HW161783   4.234   7.152   8.367 -0.8270 -0.6928  1.9483
18649SOL    HW261784   4.120   7.249   8.391 -1.5877 -1.3556  1.0509
18650SOL     OW61785   4.519   5.060   7.553  0.1747 -0.9161 -0.3277
18650SOL    HW161786   4.424   5.049   7.548  0.0230  0.5532 -1.7732
18650SOL    HW261787   4.536   5.141   7.504  1.7360  1.2784  3.3488
18651SOL     OW61788  10.687   8.432   9.033  0.0111 -0.1783 -0.3347
18651SOL    HW161789  10.754   8.472   8.978  0.0716  0.6037  0.2752
18651SOL    HW261790  10.691   8.482   9.115  0.3461 -1.7107  0.6144
18652SOL     OW61791   7.651   7.560   3.136  0.2727 -0.2792  0.0571
18652SOL    HW161792   7.744   7.552   3.112 -0.2696 -3.7820 -1.4704
18652SOL    HW261793   7.646   7.526   3.225  0.5634  1.0390  0.6001
18653SOL     OW61794   9.077   8.712   7.088 -0.1349  0.4508  0.2693
18653SOL    HW161795   9.152   8.691   7.032 -0.2660  0.9729 -0.1133
18653SOL    HW261796   9.089   8.658   7.166  0.2038 -0.0697 -0.1397
18654SOL     OW61797  10.014   3.508  10.066 -0.5849 -0.8961 -0.0218
18654SOL    HW161798   9.970   3.587  10.034 -0.0331  0.5066  2.3825
18654SOL    HW261799  10.087   3.541  10.119  0.1930 -3.0625  0.3663
18655SOL     OW61800   1.215   5.910   2.672 -0.0742  0.2330  0.0544
18655SOL    HW161801   1.182   5.855   2.601  0.2137 -1.0815  0.8985
18655SOL    HW261802   1.310   5.910   2.660  0.0121 -0.3472  0.6591
18656SOL     OW61803   6.318   1.142   7.885  0.6035  0.7801 -0.0798
18656SOL    HW161804   6.298   1.211   7.822  1.7383  2.2291  1.0563
18656SOL    HW261805   6.286   1.061   7.844 -2.0413  2.1184 -0.8555
18657SOL     OW61806   3.861   8.913   6.850  0.4557  0.0734  0.1951
18657SOL    HW161807   3.804   8.980   6.889  0.5173 -1.6308  3.5763
18657SOL    HW261808   3.950   8.944   6.866  0.4795 -0.1587  0.5217
18658SOL     OW61809   6.601   1.496   5.997  0.5569  0.1550 -0.0513
18658SOL    HW161810   6.592   1.590   5.982 -1.4512  0.1015  0.5064
18658SOL    HW261811   6.616   1.488   6.092  2.3772 -0.0454 -0.3163
18659SOL     OW61812   1.529   4.721   5.541  0.0092  0.0660 -0.4421
18659SOL    HW161813   1.581   4.738   5.462 -0.1706 -1.3657 -0.8890
18659SOL    HW261814   1.588   4.674   5.599 -0.6037 -1.0892 -0.7344
18660SOL     OW61815   4.974   0.494  10.630  0.0029  0.7544  0.6256
18660SOL    HW161816   4.890   0.448  10.629  0.5945 -0.3846  1.2488
18660SOL    HW261817   4.955   0.578  10.589 -1.3353  0.3395  0.3226
18661SOL     OW61818   5.884  10.038   0.437  0.7086  0.2120  0.4488
18661SOL    HW161819   5.921   9.979   0.372  1.7022  0.6928  0.5605
18661SOL    HW261820   5.806   9.993   0.469 -0.1193  0.2073 -1.4626
18662SOL     OW61821   8.293   5.231   8.953 -0.2182 -0.4605  0.4644
18662SOL    HW161822   8.312   5.288   8.879  0.6127 -1.0343  0.2142
18662SOL    HW261823   8.248   5.287   9.016 -0.1412  0.2579 -0.1114
18663SOL     OW61824   2.768   8.016   6.486 -0.7767 -0.5644 -0.3759
18663SOL    HW161825   2.762   7.955   6.412 -1.0327 -0.7301 -0.2214
18663SOL    HW261826   2.735   8.099   6.451  0.2028 -0.3249 -0.7828
18664SOL     OW61827   5.154   9.939   9.343 -0.5399  0.2460  1.1401
18664SOL    HW161828   5.159   9.924   9.437 -0.5532 -2.0520  0.8151
18664SOL    HW261829   5.064   9.919   9.320  0.0737 -1.7712  0.2835
18665SOL     OW61830   2.372   0.289   1.515 -0.3165 -0.2861 -0.0630
18665SOL    HW161831   2.459   0.267   1.548 -0.8406 -1.0302  0.8935
18665SOL    HW261832   2.361   0.234   1.437 -0.2905 -0.8996  0.3618
18666SOL     OW61833   9.551   0.459   3.910 -0.3979  0.0960  0.1959
18666SOL    HW161834   9.504   0.420   3.837  1.0065  0.5290 -0.9929
18666SOL    HW261835   9.541   0.553   3.898  0.2305  0.1796  0.2981
18667SOL     OW61836  10.478   4.203   3.548  0.6787 -0.4508 -0.0902
18667SOL    HW161837  10.551   4.263   3.531  0.7421 -0.7834 -1.0750
18667SOL    HW261838  10.421   4.213   3.472 -1.5811  1.5718  1.6972
18668SOL     OW61839   9.630   5.127   9.759  0.0936 -0.0275  0.5915
18668SOL    HW161840   9.667   5.214   9.741  1.8001 -0.1212  3.1617
18668SOL    HW261841   9.669   5.070   9.692  1.2166  0.6951  0.6070
18669SOL     OW61842   3.367   4.635   0.199  0.0535  0.1739 -0.8460
18669SOL    HW161843   3.301   4.570   0.174  1.6800 -2.1257  0.4374
18669SOL    HW261844   3.408   4.661   0.117  0.6407 -1.9356 -1.2812
18670SOL     OW61845   0.036   8.341  10.145  0.2920 -0.4298 -0.4626
18670SOL    HW161846   0.098   8.367  10.212  0.2277  0.4380 -0.7311
18670SOL    HW261847  -0.049   8.372  10.176  0.1732 -0.5277 -0.6780
18671SOL     OW61848   1.404   6.483   9.209  0.4550  0.1521  0.2935
18671SOL    HW161849   1.345   6.432   9.153  0.9049 -0.8239  0.6782
18671SOL    HW261850   1.488   6.438   9.201  0.5935  0.1664  1.5264
18672SOL     OW61851   9.625   6.176   3.085 -0.4298 -0.0200  0.3531
18672SOL    HW161852   9.613   6.096   3.035 -0.4268  0.9518 -1.2810
18672SOL    HW261853   9.707   6.213   3.051 -1.0475  1.2646  0.2171
18673SOL     OW61854   3.936   9.289   4.139  0.3389  0.2686 -0.5504
18673SOL    HW161855   3.862   9.273   4.081  0.1324  0.0919 -0.2425
18673SOL    HW261856   3.970   9.375   4.112  0.7951 -0.1984 -1.5136
18674SOL     OW61857   8.480   4.559   8.290  0.3971  0.3396  0.1104
18674SOL    HW161858   8.387   4.540   8.277  0.4543 -1.6234  1.9367
18674SOL    HW261859   8.526   4.501   8.229  0.4299 -1.6555  1.8923
18675SOL     OW61860   9.984   7.791   8.216  0.0416 -0.1339 -0.5146
18675SOL    HW161861  10.079   7.806   8.222  0.1301 -1.1990  1.3473
18675SOL    HW261862   9.951   7.868   8.169  1.5805  1.2847  0.5868
18676SOL     OW61863   6.672   9.160   2.284 -0.1325 -0.1790 -0.0094
18676SOL    HW161864   6.604   9.132   2.345 -0.1090  0.0375  0.1163
18676SOL    HW261865   6.688   9.252   2.306  0.3650 -0.2948  0.1118
18677SOL     OW61866   0.001   5.955   0.308 -0.1510 -0.3031 -0.7339
18677SOL    HW161867  -0.004   5.924   0.398 -0.1801  0.4409 -0.4730
18677SOL    HW261868  -0.030   5.881   0.255 -0.3189 -0.6735 -0.1212
18678SOL     OW61869   4.549   6.013   2.087  0.3359  0.1560  0.1598
18678SOL    HW161870   4.494   6.040   2.013 -0.7137  1.1212  1.2600
18678SOL    HW261871   4.591   5.932   2.057 -0.8116  0.0030 -1.1268
18679SOL     OW61872   0.896   2.305   2.996 -0.1125  0.5954  0.6035
18679SOL    HW161873   0.877   2.388   2.952  2.0145  0.5963 -0.4380
18679SOL    HW261874   0.937   2.330   3.078 -0.3726  0.5578  0.7480
18680SOL     OW61875   6.183   6.386   5.746 -0.3666  0.2598 -0.4856
18680SOL    HW161876   6.139   6.457   5.793 -0.9191 -1.1751  1.3121
18680SOL    HW261877   6.253   6.358   5.806 -1.7891 -2.3691  0.1172
18681SOL     OW61878   3.517   6.708   5.606 -0.1928  0.7990  0.2253
18681SOL    HW161879   3.589   6.692   5.667 -0.5065  1.3285  0.7440
18681SOL    HW261880   3.439   6.712   5.661 -0.4960  1.1876 -0.2240
18682SOL     OW61881   5.946   5.695   2.955  0.1863 -0.6797  0.3233
18682SOL    HW161882   6.018   5.727   3.009  0.4711 -0.5352 -0.1395
18682SOL    HW261883   5.973   5.713   2.865 -0.8573  0.2970  0.1748
18683SOL     OW61884   2.911   0.562   3.942  0.0753  0.6562  0.0323
18683SOL    HW161885   2.853   0.511   3.885  1.2537 -1.4237  0.6020
18683SOL    HW261886   2.944   0.632   3.886  1.6883 -1.6629 -2.1402
18684SOL     OW61887   0.356   3.148   2.345  0.2068 -0.3101 -0.2218
18684SOL    HW161888   0.269   3.116   2.370  0.6320 -0.5621  1.0190
18684SOL    HW261889   0.405   3.069   2.322  1.1379 -0.6212  2.4637
18685SOL     OW61890   2.307   1.332   7.279 -0.5645  0.5357 -0.1200
18685SOL    HW161891   2.252   1.268   7.324 -0.2850  0.6688  0.4167
18685SOL    HW261892   2.256   1.413   7.282 -0.5693  0.5317 -0.0881
18686SOL     OW61893   6.663   5.122   1.295  0.2307 -0.1074  0.2427
18686SOL    HW161894   6.604   5.047   1.283 -0.3680  0.3744  0.1322
18686SOL    HW261895   6.662   5.139   1.389  0.3545 -0.2310  0.2658
18687SOL     OW61896   9.961   5.895   1.213  0.6090  0.0867  0.0730
18687SOL    HW161897   9.928   5.949   1.141  1.8174  2.3709  1.1305
18687SOL    HW261898   9.888   5.888   1.274  0.8559  1.9373  0.6510
18688SOL     OW61899   3.747   5.718   2.149 -0.0111 -0.4025 -0.4466
18688SOL    HW161900   3.691   5.694   2.075  0.6201  0.3361 -1.1760
18688SOL    HW261901   3.791   5.637   2.173 -0.4311 -0.7105 -0.6890
18689SOL     OW61902   4.705   3.621   4.383 -0.2295 -0.2169 -0.2223
18689SOL    HW161903   4.771   3.583   4.325 -1.9248 -2.8931 -0.5696
18689SOL    HW261904   4.738   3.709   4.402  2.4538 -0.7415 -1.8643
18690SOL     OW61905   7.779   8.568   5.191  0.5615 -0.3301 -0.1554
18690SOL    HW161906   7.701   8.512   5.180  0.9650 -0.5654 -2.1566
18690SOL    HW261907   7.774   8.597   5.282 -2.8887  1.1637 -0.6443
18691SOL     OW61908   7.194   2.349   2.021  0.1126 -0.0152 -0.3022
18691SOL    HW161909   7.249   2.309   1.953 -0.0158  2.1139 -1.7396
18691SOL    HW261910   7.105   2.336   1.989 -0.2607 -2.4170  1.4478
18692SOL     OW61911   1.524   7.769   8.226 -0.3143  0.0575 -0.3278
18692SOL    HW161912   1.532   7.848   8.173 -1.3036 -0.3216 -1.0694
18692SOL    HW261913   1.460   7.793   8.294  1.0079  0.5685  0.7877
18693SOL     OW61914   8.080   7.853   6.428 -0.7640 -0.4403  0.3543
18693SOL    HW161915   8.031   7.925   6.388  0.2846  0.4577  0.6161
18693SOL    HW261916   8.025   7.823   6.500 -0.6065  1.0713  1.1432
18694SOL     OW61917   3.665   4.882   3.859  0.4047  0.3553  0.6219
18694SOL    HW161918   3.754   4.879   3.894  0.5621 -0.5504  0.1566
18694SOL    HW261919   3.624   4.802   3.891 -0.2236  0.7265  0.7608
18695SOL     OW61920   3.758   8.339   0.685 -0.4924  0.4458  0.4434
18695SOL    HW161921   3.797   8.400   0.622  1.8042 -0.6963  0.6348
18695SOL    HW261922   3.807   8.354   0.766 -1.0018 -0.5224  0.9481
18696SOL     OW61923   3.029   5.025   2.659 -0.5758 -0.2852 -1.0603
18696SOL    HW161924   3.066   4.965   2.595  0.7988  0.0197 -0.5894
18696SOL    HW261925   3.083   5.013   2.737 -0.4153  1.3723 -0.8721
18697SOL     OW61926   5.163   0.047   9.177 -0.3182  0.4770 -0.0251
18697SOL    HW161927   5.189  -0.035   9.219  0.3949  0.9392  0.4634
18697SOL    HW261928   5.107   0.090   9.241 -0.4813  0.4937 -0.1777
18698SOL     OW61929   0.024   0.213   0.953 -0.3710  0.0159  0.1201
18698SOL    HW161930  -0.005   0.273   1.022 -1.1413  1.4069 -1.3631
18698SOL    HW261931  -0.056   0.192   0.904  0.2558 -0.4898 -0.7115
18699SOL     OW61932   6.168   6.333   3.449  0.3805  0.0300 -0.2347
18699SOL    HW161933   6.131   6.303   3.533 -1.2007  0.1503 -0.8448
18699SOL    HW261934   6.132   6.422   3.438 -1.1979 -0.7547 -1.9993
18700SOL     OW61935  10.019   2.449   0.682  0.2621  0.3834  0.7586
18700SOL    HW161936  10.033   2.465   0.775  0.5266  0.2599  0.7411
18700SOL    HW261937  10.067   2.518   0.637 -1.0244  1.3054  0.7259
18701SOL     OW61938   5.732   2.254   8.861 -0.3508 -0.3503 -0.0309
18701SOL    HW161939   5.779   2.202   8.927  0.0000  0.7728  0.6337
18701SOL    HW261940   5.764   2.344   8.874  0.7994 -0.2933 -2.6544
18702SOL     OW61941   0.344   1.128   8.165 -0.3896  0.1048 -0.1720
18702SOL    HW161942   0.256   1.164   8.155 -0.1087  0.3250 -2.4152
18702SOL    HW261943   0.402   1.203   8.147  0.1985 -0.7247 -2.0117
18703SOL     OW61944   2.852   6.104   5.952  0.1293  0.2530  0.3580
18703SOL    HW161945   2.787   6.036   5.933  0.0931  0.3303  0.2004
18703SOL    HW261946   2.894   6.076   6.033  0.4977 -0.2401 -0.0048
18704SOL     OW61947   0.309   4.652  10.206 -0.4692 -0.9821 -0.2558
18704SOL    HW161948   0.390   4.635  10.160 -0.5447  0.1232 -0.8445
18704SOL    HW261949   0.291   4.745  10.189  0.0343 -0.2051  2.8117
18705SOL     OW61950   1.378   7.770   9.837  0.2018 -0.1497 -0.8862
18705SOL    HW161951   1.365   7.688   9.789 -0.5068 -0.3192 -0.4208
18705SOL    HW261952   1.413   7.831   9.772 -0.2828 -0.5097 -1.4933
18706SOL     OW61953   4.050   5.691   5.344  0.0424 -0.2596 -0.5484
18706SOL    HW161954   3.971   5.673   5.393  1.5357 -0.4863  1.9248
18706SOL    HW261955   4.028   5.767   5.290 -2.0160 -0.7177 -0.4308
18707SOL     OW61956   7.384   1.601   5.644 -0.1294 -0.0702 -0.3141
18707SOL    HW161957   7.343   1.678   5.684 -1.6077 -1.7494  1.5871
18707SOL    HW261958   7.352   1.601   5.554 -1.8924  0.3711  0.2740
18708SOL     OW61959   7.998   6.050   0.774  0.5064  0.2114 -0.2071
18708SOL    HW161960   8.023   5.983   0.710 -0.1516  1.2723 -1.6256
18708SOL    HW261961   7.926   6.011   0.823 -0.1367  0.0093 -1.2832
18709SOL     OW61962   1.777   5.618   4.614 -0.1156  0.0729 -0.0590
18709SOL    HW161963   1.781   5.714   4.614  0.5288  0.0757 -1.3758
18709SOL    HW261964   1.737   5.596   4.697 -1.4922  1.5438 -0.2676
18710SOL     OW61965   0.699   8.375   9.566 -0.4365 -0.1479  0.6196
18710SOL    HW161966   0.655   8.427   9.633 -0.4201 -0.2983  0.7503
18710SOL    HW261967   0.757   8.317   9.616 -2.2027 -2.0121  0.6585
18711SOL     OW61968   3.530   9.566   5.633  0.1392  0.0957 -0.4351
18711SOL    HW161969   3.529   9.583   5.727 -0.9910  1.0646 -0.6087
18711SOL    HW261970   3.612   9.518   5.619 -0.8843 -2.4278  1.4198
18712SOL     OW61971  10.248   1.250  10.486  0.0604  1.1016  0.2698
18712SOL    HW161972  10.250   1.266  10.580 -1.1897  0.3829  0.4399
18712SOL    HW261973  10.155   1.234  10.466  0.4608  0.0117 -0.8673
18713SOL     OW61974   4.527   3.687   7.716  0.5689 -0.1260 -0.4945
18713SOL    HW161975   4.577   3.717   7.640  1.3518 -1.3964 -0.5126
18713SOL    HW261976   4.505   3.767   7.764 -2.5077  1.0994 -3.5191
18714SOL     OW61977   4.030   6.442   4.339  0.5592 -0.0195  0.1398
18714SOL    HW161978   4.083   6.372   4.300  2.2348  0.5777  1.2589
18714SOL    HW261979   4.091   6.492   4.392 -1.0182  1.1103  0.9736
18715SOL     OW61980  10.219   0.826   9.544  0.6470  0.3164  0.0214
18715SOL    HW161981  10.265   0.834   9.461 -0.1432  0.4615 -0.4128
18715SOL    HW261982  10.287   0.833   9.610  1.1867  1.0604 -0.5981
18716SOL     OW61983   9.366   1.426   3.037  0.0693  0.3010 -0.2613
18716SOL    HW161984   9.300   1.485   3.002 -1.6629 -0.2533  1.8954
18716SOL    HW261985   9.347   1.419   3.131  2.2576 -1.0833  0.1823
18717SOL     OW61986   4.133   5.300   2.302 -0.4434 -0.0677 -1.1236
18717SOL    HW161987   4.200   5.342   2.357 -0.3453  0.0955 -1.3680
18717SOL    HW261988   4.113   5.218   2.348 -1.5184  0.7952  0.0178
18718SOL     OW61989   9.984   6.353   9.969 -0.4384  0.4812  0.3685
18718SOL    HW161990  10.037   6.287  10.014 -0.4868  0.6746  0.7120
18718SOL    HW261991   9.958   6.311   9.888  1.6247  0.9517 -0.6065
18719SOL     OW61992   3.645  10.328   1.168  0.0966 -0.3106 -0.0313
18719SOL    HW161993   3.566  10.381   1.156  0.4569  0.0618 -0.8642
18719SOL    HW261994   3.706  10.360   1.101  1.7675  0.8902  1.9208
18720SOL     OW61995   4.536   9.451   4.458  0.8664  0.1626  0.1756
18720SOL    HW161996   4.602   9.498   4.508 -0.1159  1.6448  0.1602
18720SOL    HW261997   4.473   9.420   4.524 -0.0201  1.4460 -0.0327
18721SOL     OW61998   7.128   5.237  10.456 -0.3856  0.4636  0.1867
18721SOL    HW161999   7.210   5.252  10.503 -0.8732  0.4688  1.0589
18721SOL    HW262000   7.128   5.143  10.438  0.4776  0.6856 -1.1217
18722SOL     OW62001   7.246   0.346   3.543 -0.2202  0.3442 -0.4075
18722SOL    HW162002   7.324   0.361   3.491 -0.1937 -1.2877 -0.9015
18722SOL    HW262003   7.181   0.313   3.481 -0.5927 -0.4142  0.3587
18723SOL     OW62004   9.020   7.738   0.622 -0.3592  0.3250 -0.3661
18723SOL    HW162005   9.035   7.734   0.527  2.4730  0.0834  0.0121
18723SOL    HW262006   8.976   7.822   0.636  1.1275  1.3768 -1.6928
18724SOL     OW62007   3.504   8.356   8.183 -0.2395  0.3347 -0.5901
18724SOL    HW162008   3.591   8.329   8.153 -0.2724 -1.7738  0.9600
18724SOL    HW262009   3.521   8.403   8.265 -0.5669 -1.0098  0.2815
18725SOL     OW62010   9.789  10.410   3.288  0.2010  0.2152  0.5122
18725SOL    HW162011   9.756  10.400   3.377 -1.2235 -2.3858 -0.1894
18725SOL    HW262012   9.884  10.418   3.298  0.0831 -0.1234  2.2516
18726SOL     OW62013   8.156   2.591   7.994  0.0318 -0.4059  0.5056
18726SOL    HW162014   8.183   2.656   7.929 -0.2793 -0.0878  0.6978
18726SOL    HW262015   8.185   2.627   8.078 -0.6694 -0.2307  0.6757
18727SOL     OW62016   6.027   6.705   7.174 -0.6744  0.1072  0.1474
18727SOL    HW162017   5.966   6.771   7.140 -1.2127 -0.9717 -1.0793
18727SOL    HW262018   6.092   6.694   7.104 -1.4235 -1.6873 -0.3254
18728SOL     OW62019   5.105   8.547   0.246 -0.1919  0.5066 -0.1304
18728SOL    HW162020   5.026   8.583   0.207  0.6510  1.4556 -1.0173
18728SOL    HW262021   5.150   8.623   0.284  0.4305  0.0199  0.1255
18729SOL     OW62022   1.245   2.986   1.443  0.3839 -0.4508 -0.1051
18729SOL    HW162023   1.180   2.938   1.392  0.5049 -0.1428 -0.5616
18729SOL    HW262024   1.267   3.061   1.388 -0.7859  0.8672  1.1672
18730SOL     OW62025   7.856   3.767   8.503  0.7172  0.1646  0.3763
18730SOL    HW162026   7.897   3.686   8.533 -1.1947 -0.7284  0.7482
18730SOL    HW262027   7.775   3.773   8.554 -0.0357  1.3894 -0.8938
18731SOL     OW62028   5.232   3.966   1.762  0.1156 -0.7595 -0.0717
18731SOL    HW162029   5.186   4.049   1.746 -2.6121 -1.9227  1.0353
18731SOL    HW262030   5.318   3.979   1.724 -0.2763  2.4952 -0.1809
18732SOL     OW62031   8.140   9.466   0.912 -0.1592  0.4841 -0.2316
18732SOL    HW162032   8.071   9.532   0.924  2.3773  3.3560 -0.1503
18732SOL    HW262033   8.196   9.502   0.844  1.9914 -1.0171  0.6301
18733SOL     OW62034   8.260  10.189  10.064  0.2905 -0.2521 -0.2409
18733SOL    HW162035   8.252  10.094  10.060 -0.7897 -0.2187  0.5650
18733SOL    HW262036   8.234  10.212  10.154  2.7662  0.6196  0.3248
18734SOL     OW62037   1.052   7.754   1.040 -0.0311 -0.3832  0.4388
18734SOL    HW162038   1.052   7.664   1.072  0.6177  0.0322  1.6598
18734SOL    HW262039   1.140   7.768   1.005 -0.1378 -0.2257  0.2294
18735SOL     OW62040   8.871   0.493   7.972  0.6665 -0.1239  0.3370
18735SOL    HW162041   8.955   0.457   7.945  1.7043  2.8368 -0.6731
18735SOL    HW262042   8.825   0.512   7.890  1.4975  3.6490  0.5765
18736SOL     OW62043   1.806   9.320   5.821 -0.0223  0.4276 -0.4478
18736SOL    HW162044   1.882   9.263   5.810  0.5250  1.0310  0.1159
18736SOL    HW262045   1.839   9.393   5.874 -0.8089  1.0631 -0.8212
18737SOL     OW62046   7.510   5.941   2.003  0.2287 -0.1523 -0.0768
18737SOL    HW162047   7.486   5.982   1.920  1.1743 -0.1889 -0.3821
18737SOL    HW262048   7.430   5.941   2.054  0.1487  1.8599 -0.1489
18738SOL     OW62049   3.872   6.119   2.401  0.1232 -0.4126 -0.2390
18738SOL    HW162050   3.863   6.175   2.324  2.2531  0.6882  0.2406
18738SOL    HW262051   3.957   6.076   2.390  0.4623 -0.2564  1.4442
18739SOL     OW62052   5.848   2.190   5.228  0.2332  0.2074  0.3088
18739SOL    HW162053   5.937   2.173   5.260 -0.6333  0.9850  3.4374
18739SOL    HW262054   5.849   2.282   5.203  0.7437 -0.2538 -1.5825
18740SOL     OW62055   4.325   5.271   7.816  0.6926 -0.0642  0.1537
18740SOL    HW162056   4.242   5.238   7.850  1.8385 -2.2067  1.0462
18740SOL    HW262057   4.341   5.352   7.864 -0.1994 -0.3676  0.9760
18741SOL     OW62058   2.946   9.360  10.044  0.0182 -0.3631 -0.1909
18741SOL    HW162059   2.926   9.443  10.087 -0.8934 -1.6984  2.1647
18741SOL    HW262060   3.040   9.361  10.032  0.3401  0.0870  1.9643
18742SOL     OW62061   0.858   6.685   1.530  0.3865  0.1691 -0.2990
18742SOL    HW162062   0.945   6.677   1.570  0.5743  0.5986 -0.6121
18742SOL    HW262063   0.855   6.775   1.496  0.2311 -0.1827 -1.2417
18743SOL     OW62064   0.870   0.017   6.791 -0.1260 -0.2509  0.1953
18743SOL    HW162065   0.813  -0.060   6.797  0.2809 -0.6011 -0.2748
18743SOL    HW262066   0.958  -0.018   6.809  0.5907 -0.6026 -3.2833
18744SOL     OW62067   0.751   7.525   9.908 -0.1252  0.4397 -0.2228
18744SOL    HW162068   0.735   7.619   9.913  2.4920  0.8914  1.1640
18744SOL    HW262069   0.736   7.494   9.997  0.4754 -0.1786 -0.3326
18745SOL     OW62070   4.935   3.708   1.116  0.7325  0.3328  0.5642
18745SOL    HW162071   4.992   3.772   1.074  1.4787 -1.4838 -1.3666
18745SOL    HW262072   4.847   3.745   1.106  1.1322  1.0330 -0.5675
18746SOL     OW62073   1.739   7.681   9.676  0.6307  0.2923 -0.0320
18746SOL    HW162074   1.693   7.600   9.700  0.9422  0.3303  0.7193
18746SOL    HW262075   1.735   7.735   9.755  1.2558  0.6232 -0.2220
18747SOL     OW62076   8.790   0.406  10.681 -0.5045 -0.1767 -0.0704
18747SOL    HW162077   8.873   0.368  10.650 -1.6968 -2.2432 -0.9228
18747SOL    HW262078   8.817   0.479  10.737  1.9259 -1.6536  0.8408
18748SOL     OW62079   5.655   5.057   8.554  0.2360  0.5583  0.0665
18748SOL    HW162080   5.688   5.024   8.470 -0.9375  1.3201 -0.7128
18748SOL    HW262081   5.732   5.055   8.612  1.2567  0.7544 -1.2287
18749SOL     OW62082   1.088   0.902   4.599  0.0097 -0.1145  0.3063
18749SOL    HW162083   1.143   0.977   4.576 -1.8960  1.3322  0.1551
18749SOL    HW262084   1.007   0.917   4.550 -1.3599 -0.9477  2.1960
18750SOL     OW62085   5.286   4.217   0.876 -0.4079 -0.5131 -0.0608
18750SOL    HW162086   5.279   4.122   0.879 -0.3875 -0.5304 -0.4215
18750SOL    HW262087   5.331   4.235   0.793 -1.2939 -0.1526 -0.4837
18751SOL     OW62088   1.064   8.853   8.554  0.0348 -0.1994  0.2300
18751SOL    HW162089   1.146   8.901   8.564 -1.1053  1.6959  1.1487
18751SOL    HW262090   1.019   8.866   8.638 -1.0887 -1.4619 -0.1399
18752SOL     OW62091   1.045   2.108   1.566  0.0917  0.3546 -0.3581
18752SOL    HW162092   1.049   2.163   1.644  0.8489 -0.3683  0.1234
18752SOL    HW262093   1.025   2.170   1.495 -0.7392  0.9963  0.4105
18753SOL     OW62094   5.852   2.062   1.722 -0.2140  0.1312  0.6337
18753SOL    HW162095   5.939   2.096   1.701 -0.3979  0.8158  0.9508
18753SOL    HW262096   5.829   2.105   1.804 -1.1069  0.4440  0.2338
18754SOL     OW62097   6.861   3.763   4.650  0.4386  0.5026  0.2360
18754SOL    HW162098   6.900   3.820   4.583 -0.5301 -1.1920 -1.8817
18754SOL    HW262099   6.884   3.674   4.622 -2.7563 -0.4511  0.2743
18755SOL     OW62100   0.831   7.123   1.317  0.2796  0.6818 -0.0707
18755SOL    HW162101   0.888   7.200   1.325  2.1012 -0.7051  1.2103
18755SOL    HW262102   0.821   7.112   1.222  1.3272  1.5774 -0.3172
18756SOL     OW62103   1.391   1.680  10.552 -0.3500 -0.0122  0.2486
18756SOL    HW162104   1.372   1.681  10.458 -1.6477  0.0168  0.4871
18756SOL    HW262105   1.326   1.739  10.590  0.7956  0.7556  1.0742
18757SOL     OW62106   9.089  10.224   0.137  0.3404 -0.7059  0.0433
18757SOL    HW162107   9.111  10.145   0.188 -0.3270  0.3691  2.1052
18757SOL    HW262108   9.053  10.285   0.201 -0.2380  0.8859 -1.6988
18758SOL     OW62109   4.529   0.455   5.988  0.0207 -0.6881  0.3084
18758SOL    HW162110   4.596   0.507   5.944  0.8947 -1.8493  0.2002
18758SOL    HW262111   4.462   0.518   6.013  1.6593  0.7041  1.4064
18759SOL     OW62112   3.002   3.609   3.956 -0.2068  0.3619  0.1705
18759SOL    HW162113   3.005   3.685   4.015 -1.6658 -0.1140  0.8817
18759SOL    HW262114   2.975   3.645   3.872 -0.7417  0.6607  0.4665
18760SOL     OW62115   4.826   8.763   2.723  0.6330  0.0029 -0.0528
18760SOL    HW162116   4.781   8.800   2.647  0.4081 -0.5043 -0.1735
18760SOL    HW262117   4.776   8.684   2.744  2.1821 -1.2989 -0.9868
18761SOL     OW62118   2.611   8.226   6.367 -0.9399 -0.0102 -0.2457
18761SOL    HW162119   2.622   8.265   6.280 -1.9776 -0.6791 -0.6947
18761SOL    HW262120   2.612   8.301   6.427 -1.6168  0.5998 -0.9727
18762SOL     OW62121   1.629   4.470   3.242 -0.5969  0.3530  0.6881
18762SOL    HW162122   1.650   4.377   3.232 -2.7584 -0.4121  2.4986
18762SOL    HW262123   1.560   4.487   3.177  1.3020  1.3768 -1.2188
18763SOL     OW62124  10.397   7.272   9.178 -0.2891  0.2773  0.1852
18763SOL    HW162125  10.398   7.326   9.257 -1.0323  0.5555  0.0146
18763SOL    HW262126  10.488   7.268   9.151 -0.0642  0.4213  0.8965
18764SOL     OW62127   0.866   4.587   3.660 -0.1774 -0.1270  0.2540
18764SOL    HW162128   0.846   4.494   3.655  0.5611 -0.2332 -1.2183
18764SOL    HW262129   0.783   4.630   3.639  0.3264 -0.5314 -3.0309
18765SOL     OW62130   3.239   3.278   1.596  0.5313  0.0758  0.0258
18765SOL    HW162131   3.166   3.329   1.628 -0.5987 -1.1902 -0.4205
18765SOL    HW262132   3.265   3.223   1.670  0.0793 -0.4832 -0.2168
18766SOL     OW62133   9.552   1.822   3.152  0.0988  0.2025  0.0021
18766SOL    HW162134   9.540   1.734   3.188  1.7278  0.7059  2.0160
18766SOL    HW262135   9.641   1.846   3.178  0.0763  2.0412 -1.4293
18767SOL     OW62136   6.549   3.158   5.106 -0.3095 -0.4495 -0.0358
18767SOL    HW162137   6.589   3.243   5.089 -0.9998 -0.2139 -0.5489
18767SOL    HW262138   6.616   3.109   5.153  0.2418  0.2410 -0.0795
18768SOL     OW62139   1.108   7.679   3.776 -0.1966 -0.2878 -0.1913
18768SOL    HW162140   1.146   7.732   3.706  0.0378 -1.1584 -0.7510
18768SOL    HW262141   1.152   7.709   3.855  0.4327 -0.1087 -0.5924
18769SOL     OW62142   6.576   0.633   9.640  0.3090 -0.5535  0.0383
18769SOL    HW162143   6.581   0.615   9.733  0.7646  1.4101  0.4372
18769SOL    HW262144   6.505   0.697   9.632 -2.5106 -3.5481 -1.5152
18770SOL     OW62145   8.861  10.291   9.543  0.4428 -0.2757 -0.1741
18770SOL    HW162146   8.894  10.346   9.613  1.2888 -1.1759  0.1510
18770SOL    HW262147   8.930  10.227   9.528 -0.5905 -1.3693 -0.3986
18771SOL     OW62148   8.456   5.578   0.643  0.0330  0.0059  0.8988
18771SOL    HW162149   8.392   5.510   0.624 -0.6366  0.8968 -0.1295
18771SOL    HW262150   8.407   5.645   0.689 -0.1109  1.2749 -1.0162
18772SOL     OW62151   4.309   5.444   6.835  0.2991 -0.2395  0.6967
18772SOL    HW162152   4.315   5.425   6.929 -3.5392  1.2312  1.4270
18772SOL    HW262153   4.253   5.375   6.800 -0.6420  0.7797  0.1365
18773SOL     OW62154   9.144   2.677   9.736 -0.2690  0.2127 -0.3706
18773SOL    HW162155   9.080   2.606   9.748  0.6356 -1.0351 -2.3086
18773SOL    HW262156   9.110   2.726   9.661  0.5094  0.1331 -0.7841
18774SOL     OW62157   9.231   2.911   1.418  0.9512  0.7711 -0.6770
18774SOL    HW162158   9.143   2.925   1.453  1.8483 -0.0784  2.1556
18774SOL    HW262159   9.228   2.824   1.379  0.0447  1.5850 -2.6155
18775SOL     OW62160   6.144   4.453   6.490  0.2134 -0.5623  0.0504
18775SOL    HW162161   6.141   4.405   6.407 -1.7965  1.1086 -0.9135
18775SOL    HW262162   6.073   4.415   6.542 -0.3856  0.2975 -0.1249
18776SOL     OW62163   2.288   5.333   3.961  0.7798  0.3387 -0.1616
18776SOL    HW162164   2.319   5.423   3.952 -1.0632  1.1622  1.0255
18776SOL    HW262165   2.345   5.295   4.028 -0.8978  1.9782  2.3793
18777SOL     OW62166   6.678   5.157   3.765 -0.2231 -0.1040  0.2924
18777SOL    HW162167   6.652   5.099   3.693 -1.1559 -0.1450  0.6436
18777SOL    HW262168   6.598   5.166   3.818  0.0779  0.9986  0.5858
18778SOL     OW62169  10.115   1.749   7.266 -0.0289 -0.5195 -0.5422
18778SOL    HW162170  10.184   1.815   7.267 -0.5285  0.0128 -0.8187
18778SOL    HW262171  10.048   1.784   7.325 -0.2867 -0.7923 -0.6707
18779SOL     OW62172   5.436   1.678   7.520 -0.1549 -0.0580  0.2418
18779SOL    HW162173   5.504   1.630   7.569 -1.0007 -1.6893 -0.1091
18779SOL    HW262174   5.354   1.644   7.556 -0.7916 -0.6168 -1.6584
18780SOL     OW62175  10.652   8.560   8.363  0.5068 -0.0776  0.6402
18780SOL    HW162176  10.706   8.484   8.383 -1.6065 -1.5431  1.1536
18780SOL    HW262177  10.599   8.573   8.442 -2.9588 -1.5046 -1.2258
18781SOL     OW62178   0.764   4.565   9.643 -0.4293  0.5676  0.4278
18781SOL    HW162179   0.853   4.532   9.637 -0.4487  0.7597 -1.3332
18781SOL    HW262180   0.763   4.617   9.724  1.3278  1.3434  0.0089
18782SOL     OW62181   1.131   4.887   9.386 -0.3443 -0.1188  0.2836
18782SOL    HW162182   1.038   4.872   9.370 -0.3849 -1.5832  1.5949
18782SOL    HW262183   1.133   4.965   9.441 -0.8790 -0.5397  0.9214
18783SOL     OW62184  10.412   6.137   1.261  0.3703 -0.1685  0.0533
18783SOL    HW162185  10.334   6.157   1.313  1.5213  1.9870  1.0904
18783SOL    HW262186  10.428   6.215   1.209  0.3501 -1.5906 -2.2033
18784SOL     OW62187   6.236   4.092   1.707 -0.2907 -0.2141 -0.7883
18784SOL    HW162188   6.151   4.136   1.706 -0.6685 -0.8419  1.0052
18784SOL    HW262189   6.240   4.044   1.624 -0.9062  1.2145 -1.6765
18785SOL     OW62190   8.368   1.411  10.175  0.3685 -0.0787  0.1935
18785SOL    HW162191   8.428   1.450  10.239  0.1878 -0.4657  0.6060
18785SOL    HW262192   8.421   1.344  10.131 -0.0733 -1.2772  1.4072
18786SOL     OW62193   0.063   8.294   2.063  0.0706  0.1930  0.6082
18786SOL    HW162194   0.098   8.241   1.992 -1.1259  0.7034 -0.4248
18786SOL    HW262195   0.120   8.370   2.067 -0.9804  1.1712 -1.2637
18787SOL     OW62196   5.828  10.671   7.326  0.3146 -0.4105 -0.2215
18787SOL    HW162197   5.844  10.676   7.232 -1.2119  1.4005 -0.4248
18787SOL    HW262198   5.838  10.578   7.347 -0.1602 -0.9792 -2.3346
18788SOL     OW62199  10.202   4.581   1.803 -0.6352  0.4131  0.4144
18788SOL    HW162200  10.167   4.509   1.855 -1.2086  0.4071  0.0221
18788SOL    HW262201  10.282   4.607   1.850 -1.6248  1.0295  1.8542
18789SOL     OW62202  10.463  10.608   6.427  0.7491 -0.2111 -0.0306
18789SOL    HW162203  10.398  10.539   6.415  1.1514 -0.9679  1.8379
18789SOL    HW262204  10.516  10.578   6.500  3.1417  0.4570 -1.4053
18790SOL     OW62205   2.195   1.610   3.025 -0.0367  0.5498  0.4663
18790SOL    HW162206   2.151   1.671   3.084 -3.8226 -1.2525 -0.2075
18790SOL    HW262207   2.161   1.524   3.050  0.4953 -0.6124 -2.4242
18791SOL     OW62208   1.735   0.995   8.504  0.2616 -0.1044 -0.0305
18791SOL    HW162209   1.718   0.924   8.566 -1.7357  2.0104  2.0674
18791SOL    HW262210   1.793   1.055   8.550 -1.7835  1.8437  0.2044
18792SOL     OW62211   6.345   0.193  10.705  0.1591  0.6325 -0.1644
18792SOL    HW162212   6.251   0.184  10.692  0.5240 -1.5355 -2.1462
18792SOL    HW262213   6.377   0.232  10.623  1.1685 -0.7634 -0.4867
18793SOL     OW62214   1.065   3.357   4.087 -0.5233 -0.0091  0.5893
18793SOL    HW162215   1.047   3.446   4.056  1.3712  0.0370 -0.5617
18793SOL    HW262216   1.102   3.369   4.175  0.5367  0.4416  0.1004
18794SOL     OW62217   7.842   4.221   7.186 -0.1114  0.2066  0.2770
18794SOL    HW162218   7.901   4.146   7.187  0.9206  0.9826 -0.1458
18794SOL    HW262219   7.767   4.192   7.133  0.5337 -0.3311 -0.3578
18795SOL     OW62220   7.347   0.850   1.180  0.4271  0.2420 -0.1785
18795SOL    HW162221   7.342   0.889   1.268 -0.5662  0.9897 -0.5444
18795SOL    HW262222   7.353   0.756   1.196 -0.1863  0.3344  0.6895
18796SOL     OW62223  10.233   0.826   7.406 -0.1059  0.0379 -0.6602
18796SOL    HW162224  10.304   0.763   7.405  2.1941  2.4520 -0.0622
18796SOL    HW262225  10.242   0.874   7.323 -0.6330  0.7898 -0.2938
18797SOL     OW62226   9.806   1.573   1.270 -0.0144  0.5625  0.0817
18797SOL    HW162227   9.736   1.637   1.272 -0.6341 -0.0939 -0.3001
18797SOL    HW262228   9.777   1.503   1.329 -0.7259 -0.7464 -1.7186
18798SOL     OW62229   8.876   2.114   0.132 -0.7192 -0.1379  0.2401
18798SOL    HW162230   8.880   2.034   0.080 -1.0397 -0.6236  0.9356
18798SOL    HW262231   8.786   2.118   0.163 -1.1922  1.4430 -1.2061
18799SOL     OW62232   4.857  10.574   3.414 -0.3716  0.1140 -0.3238
18799SOL    HW162233   4.765  10.594   3.433 -0.6585 -0.9841 -0.4470
18799SOL    HW262234   4.887  10.647   3.361 -0.8336  1.0641  0.6791
18800SOL     OW62235   2.351   8.238   2.746  0.3253  0.1264 -0.7101
18800SOL    HW162236   2.301   8.161   2.775 -0.4205  0.1949 -1.7572
18800SOL    HW262237   2.286   8.295   2.706  0.9589  1.0806 -0.4106
18801SOL     OW62238   4.012   5.620   7.251  0.1724 -0.3726 -0.2677
18801SOL    HW162239   4.029   5.656   7.338  0.1571 -0.1429 -0.3588
18801SOL    HW262240   4.092   5.640   7.201 -0.3475  0.7386 -0.7066
18802SOL     OW62241   3.843   8.035   1.430 -0.0956 -0.2310  0.0920
18802SOL    HW162242   3.888   8.120   1.436 -2.0559  0.8036  1.0800
18802SOL    HW262243   3.780   8.047   1.359 -0.1096 -1.0211 -0.0335
18803SOL     OW62244   9.022   0.480   6.710 -0.8237 -0.4962 -0.0937
18803SOL    HW162245   8.971   0.532   6.773  0.9980  0.9072  0.3167
18803SOL    HW262246   9.085   0.432   6.763 -0.2028 -0.3961 -0.7145
18804SOL     OW62247   5.053   6.619  10.042  0.3158 -0.4331  0.1236
18804SOL    HW162248   5.019   6.690   9.987 -0.3284  0.9171  2.1431
18804SOL    HW262249   4.982   6.555  10.045  0.8024 -1.1055 -1.5056
18805SOL     OW62250   0.850   1.193   2.503  0.1029 -0.0238 -0.0941
18805SOL    HW162251   0.892   1.192   2.417  1.9159  0.2712  0.7315
18805SOL    HW262252   0.834   1.101   2.522 -0.0763 -0.1081 -0.6200
18806SOL     OW62253   8.111   4.412   3.643  0.0556  0.0058  0.2871
18806SOL    HW162254   8.019   4.398   3.623  0.1101 -0.3649  0.2867
18806SOL    HW262255   8.121   4.507   3.644 -0.1447  0.0503 -0.5825
18807SOL     OW62256   7.586   5.505   2.103  0.3260 -0.3635 -0.8919
18807SOL    HW162257   7.548   5.471   2.184  0.0486 -0.6522 -1.1388
18807SOL    HW262258   7.580   5.600   2.111  0.7755 -0.3781 -0.3498
18808SOL     OW62259   7.216   6.375   4.444 -1.0023  0.5371 -0.1372
18808SOL    HW162260   7.210   6.470   4.448  1.0947  0.7680  4.1137
18808SOL    HW262261   7.308   6.358   4.424 -0.8293 -0.4188  1.2531
18809SOL     OW62262   3.325   3.248   7.437 -0.1095  0.3558 -0.5800
18809SOL    HW162263   3.414   3.217   7.418 -0.1326 -0.4289  0.5377
18809SOL    HW262264   3.338   3.332   7.482  0.1346 -0.4584  0.9127
18810SOL     OW62265   7.746   5.425   0.149  0.1260  0.5242 -0.0842
18810SOL    HW162266   7.776   5.400   0.062 -1.6272  1.4351 -1.0099
18810SOL    HW262267   7.664   5.377   0.161  0.7986 -0.3375  1.5085
18811SOL     OW62268   1.995   1.438   6.509 -0.4877 -0.3549  0.5862
18811SOL    HW162269   1.982   1.348   6.478  0.4908  0.3338 -2.1508
18811SOL    HW262270   2.087   1.442   6.532 -0.2185  0.2284 -0.5153
18812SOL     OW62271   2.290   1.950   4.529 -1.0621 -0.2115  0.1647
18812SOL    HW162272   2.199   1.968   4.506 -0.8787  0.6208  0.0815
18812SOL    HW262273   2.285   1.898   4.609 -1.6019  0.2198  0.4135
18813SOL     OW62274   5.944   4.579   6.204 -0.2171  0.4475  0.2200
18813SOL    HW162275   5.877   4.624   6.151  0.0392  0.2711 -0.2597
18813SOL    HW262276   6.025   4.626   6.185 -0.1006  0.3038  0.3608
18814SOL     OW62277   6.392   9.211   0.383  0.3346  0.1310 -0.2880
18814SOL    HW162278   6.403   9.306   0.389 -1.9647  0.5390 -1.5329
18814SOL    HW262279   6.358   9.196   0.295 -2.8642 -1.4220  1.0659
18815SOL     OW62280   8.748  10.260   4.973  0.1957  0.4553 -0.2605
18815SOL    HW162281   8.722  10.326   4.909  1.5523  0.9545 -0.3311
18815SOL    HW262282   8.668  10.211   4.991 -0.2067  0.2880 -2.3416
18816SOL     OW62283   5.401   8.516   5.330  0.5382  0.2523 -0.5154
18816SOL    HW162284   5.327   8.557   5.286  1.6825  1.5425 -1.2991
18816SOL    HW262285   5.362   8.442   5.377 -1.3146  1.1565 -0.5169
18817SOL     OW62286   1.749   8.662   6.955  0.4998  0.3923 -0.2144
18817SOL    HW162287   1.727   8.636   7.045  0.5989 -0.1656 -0.3437
18817SOL    HW262288   1.686   8.730   6.933  0.6960  0.7736  0.3981
18818SOL     OW62289   4.527   3.707   6.762 -0.3659 -0.2830 -0.1262
18818SOL    HW162290   4.490   3.623   6.734 -0.7693  0.3729 -1.6144
18818SOL    HW262291   4.452   3.758   6.792 -0.4075  0.2670 -1.1284
18819SOL     OW62292   9.391   6.719   0.862 -0.0665  0.2175 -0.2606
18819SOL    HW162293   9.380   6.730   0.956  1.0019 -0.7242 -0.0066
18819SOL    HW262294   9.372   6.805   0.825 -1.3040  0.3943  0.7266
18820SOL     OW62295   7.406   2.838   9.705  0.1190 -0.1736 -0.6057
18820SOL    HW162296   7.414   2.933   9.694 -0.7028  0.0082  0.2882
18820SOL    HW262297   7.350   2.827   9.782 -0.4144 -1.3897 -1.1472
18821SOL     OW62298   6.850   9.702   5.156  0.1172  0.6239  0.0429
18821SOL    HW162299   6.861   9.609   5.137 -2.0548  0.2363  0.3769
18821SOL    HW262300   6.785   9.732   5.092 -0.9172  1.3346  1.3650
18822SOL     OW62301   9.072   7.660   8.708  0.1089  0.2468 -0.0241
18822SOL    HW162302   9.022   7.718   8.651 -1.2571 -0.2807  0.6102
18822SOL    HW262303   9.136   7.717   8.751 -1.2327  1.3051  0.6180
18823SOL     OW62304   1.761  10.643   3.871  0.2646 -0.2835 -0.5144
18823SOL    HW162305   1.669  10.660   3.888  0.7878  1.5266  0.7538
18823SOL    HW262306   1.768  10.547   3.870 -1.5414 -0.4385 -0.2752
18824SOL     OW62307   0.788   6.030   9.252  0.4236 -0.5553 -0.3232
18824SOL    HW162308   0.713   5.972   9.262  1.4369 -1.7143  0.9302
18824SOL    HW262309   0.821   6.043   9.341  1.1997  0.6306 -0.7517
18825SOL     OW62310   8.679   3.896   1.333  0.0748  0.3343  0.0071
18825SOL    HW162311   8.764   3.934   1.309 -0.5888  2.2460  0.4850
18825SOL    HW262312   8.641   3.961   1.393 -2.3697  0.2455 -1.3605
18826SOL     OW62313   4.266   5.188   8.173 -0.2965  0.3298 -0.6497
18826SOL    HW162314   4.267   5.194   8.077 -0.5021  0.4004 -0.6467
18826SOL    HW262315   4.178   5.214   8.198 -0.9140 -1.6567 -0.5719
18827SOL     OW62316   6.314   6.056   4.581 -0.0793 -0.0874 -0.3445
18827SOL    HW162317   6.394   6.033   4.535 -0.4117 -1.4910 -0.2475
18827SOL    HW262318   6.305   6.151   4.567  2.2141  0.3506  0.6380
18828SOL     OW62319   2.443   0.253   1.059 -0.0085 -0.0266  0.0108
18828SOL    HW162320   2.416   0.199   1.134 -1.3030 -0.6441 -0.8718
18828SOL    HW262321   2.468   0.190   0.992  0.7097  0.5255 -0.2582
18829SOL     OW62322   5.784   0.548   4.636 -0.0804  0.2793  0.2366
18829SOL    HW162323   5.801   0.470   4.690  0.3738 -0.1955 -0.5755
18829SOL    HW262324   5.699   0.532   4.596 -0.4754  0.6881  0.8853
18830SOL     OW62325  10.024   2.383   2.919 -0.0488 -0.4538 -0.0523
18830SOL    HW162326  10.074   2.305   2.944  1.0097  0.2186 -0.0117
18830SOL    HW262327  10.073   2.419   2.845  0.0941  0.7680  0.6183
18831SOL     OW62328   7.955   4.601   9.782  0.0756  0.4955 -0.3518
18831SOL    HW162329   8.013   4.526   9.765  0.1838  0.7982 -1.4396
18831SOL    HW262330   7.904   4.609   9.701  0.4469  1.9225 -0.4634
18832SOL     OW62331   8.390   3.750   4.389 -0.7749 -0.3445  0.2144
18832SOL    HW162332   8.462   3.692   4.416  1.1346  1.0897 -1.4890
18832SOL    HW262333   8.326   3.691   4.348 -0.6961 -1.6766  1.8869
18833SOL     OW62334   3.373   8.652   7.588 -0.5407  0.1445  0.2033
18833SOL    HW162335   3.296   8.704   7.611 -0.3215 -0.7394  3.2843
18833SOL    HW262336   3.373   8.579   7.650  1.9046 -0.7845 -0.7571
18834SOL     OW62337   0.595   3.632   3.006 -0.2898 -0.0259 -0.8160
18834SOL    HW162338   0.665   3.611   3.068 -1.0291 -0.7153 -0.1965
18834SOL    HW262339   0.545   3.551   2.998 -2.4200  1.0599  0.5960
18835SOL     OW62340   7.834   3.827   4.917 -0.1358  0.4804  0.5735
18835SOL    HW162341   7.766   3.840   4.983 -1.4711 -0.3251 -0.5823
18835SOL    HW262342   7.863   3.737   4.931  0.5067  0.7312  0.8786
18836SOL     OW62343   0.377   1.535   4.731  0.2887  0.1961 -0.4951
18836SOL    HW162344   0.375   1.461   4.671  0.4440  0.1064 -0.3908
18836SOL    HW262345   0.447   1.592   4.697  1.0900 -0.3557  0.1854
18837SOL     OW62346   5.826   9.105   9.837  0.7608 -0.1982 -0.2609
18837SOL    HW162347   5.874   9.160   9.776  0.7465  0.8665  0.6555
18837SOL    HW262348   5.739   9.145   9.841 -0.8779 -3.0259 -3.1658
18838SOL     OW62349   9.331   9.136   0.732 -0.1550 -0.1399  0.5148
18838SOL    HW162350   9.388   9.065   0.703  0.2842  0.5322 -0.3114
18838SOL    HW262351   9.313   9.116   0.824  0.8098 -0.7621  0.5847
18839SOL     OW62352   3.775   3.339   2.389  0.4479  0.3245 -0.2757
18839SOL    HW162353   3.817   3.388   2.459  0.4453 -1.1664  0.8281
18839SOL    HW262354   3.831   3.352   2.313  0.8004  1.4433  0.1568
18840SOL     OW62355   7.056   9.014   0.866 -0.1609 -0.0704 -0.2112
18840SOL    HW162356   6.963   9.026   0.846 -0.1523 -1.1027 -0.9381
18840SOL    HW262357   7.090   8.964   0.792  0.7397 -0.6386  0.5695
18841SOL     OW62358   5.632   6.851   1.795 -0.1260  0.6731 -0.0427
18841SOL    HW162359   5.567   6.918   1.778 -0.1548  0.6078 -0.1876
18841SOL    HW262360   5.701   6.867   1.731  0.3737  1.2358  0.6215
18842SOL     OW62361   1.505   1.631   2.855  0.1172  0.6588 -0.4778
18842SOL    HW162362   1.595   1.659   2.841  0.8240 -0.5007  1.3658
18842SOL    HW262363   1.512   1.560   2.919 -2.2677  1.8715  1.2586
18843SOL     OW62364   8.456   0.349   6.455 -0.2106  0.5157 -0.4921
18843SOL    HW162365   8.548   0.339   6.430  0.4211 -1.0505  2.0907
18843SOL    HW262366   8.407   0.301   6.389  0.7992  1.3135 -1.8652
18844SOL     OW62367   5.600   5.716   5.128 -0.4300 -0.2505 -0.4140
18844SOL    HW162368   5.691   5.728   5.154 -0.1648 -3.5436  0.5102
18844SOL    HW262369   5.604   5.702   5.033  0.4226 -2.9176 -0.0554
18845SOL     OW62370   5.934   7.592   2.858 -0.1718  0.6019  0.2215
18845SOL    HW162371   5.967   7.617   2.944 -0.4907  1.2216  0.1718
18845SOL    HW262372   5.849   7.551   2.876 -0.3627  0.9761  0.1856
18846SOL     OW62373   5.954   2.319   9.636 -0.0314  0.3261 -0.2011
18846SOL    HW162374   5.984   2.396   9.587 -0.9583  2.5490  2.4802
18846SOL    HW262375   5.900   2.271   9.573  3.3739 -0.1799 -3.0421
18847SOL     OW62376   3.571   5.445   5.340 -0.0112  0.2328  0.2034
18847SOL    HW162377   3.573   5.476   5.431 -1.0799  2.9755 -0.6322
18847SOL    HW262378   3.654   5.476   5.303 -0.4439  0.8478 -0.2598
18848SOL     OW62379   4.126   6.835   2.368  0.3437  0.1412  0.1666
18848SOL    HW162380   4.216   6.811   2.344  0.1021  0.3023 -0.9992
18848SOL    HW262381   4.071   6.785   2.307 -0.3375  0.2995  0.6463
18849SOL     OW62382   9.132   2.879   8.500 -0.4824  0.2753 -0.6739
18849SOL    HW162383   9.125   2.970   8.528  0.4044 -0.6009  2.9295
18849SOL    HW262384   9.215   2.874   8.453 -0.5373  1.3098 -0.9032
18850SOL     OW62385   5.548   0.279   5.070  0.5545  0.6613 -0.3130
18850SOL    HW162386   5.498   0.198   5.057  1.1601  0.0078  1.2851
18850SOL    HW262387   5.513   0.339   5.004  0.5511 -1.0914 -2.0109
18851SOL     OW62388   0.080   4.595   9.081  0.5017 -0.0935  0.7517
18851SOL    HW162389   0.123   4.539   9.146  2.7344  0.1677 -0.4298
18851SOL    HW262390   0.152   4.633   9.030 -1.1304 -1.2006 -2.6846
18852SOL     OW62391   3.231   2.825   2.652  0.3671 -0.2125 -0.0117
18852SOL    HW162392   3.238   2.731   2.638  1.1163 -0.0808 -0.5704
18852SOL    HW262393   3.149   2.850   2.609  0.0047 -0.6512  0.4116
18853SOL     OW62394   3.962   7.051   0.968 -0.2883 -0.1706 -0.0256
18853SOL    HW162395   4.045   7.006   0.964  0.0211  0.4269 -0.5195
18853SOL    HW262396   3.896   6.982   0.975  0.1545 -0.7005 -1.0357
18854SOL     OW62397   1.222   1.665   7.168  0.2307 -0.1284 -0.3258
18854SOL    HW162398   1.315   1.665   7.145 -0.0253 -0.0021 -1.4212
18854SOL    HW262399   1.220   1.689   7.260  1.2163  1.5630 -0.6981
18855SOL     OW62400   8.681   1.508   5.453  0.4929 -0.1175  0.0528
18855SOL    HW162401   8.674   1.475   5.543 -1.9566  1.5106  0.5703
18855SOL    HW262402   8.748   1.576   5.457 -0.2623  0.6090  0.9240
18856SOL     OW62403   9.019   9.579   6.244 -0.2638  0.6785  0.4394
18856SOL    HW162404   8.988   9.659   6.203 -0.1914  0.6568  0.3437
18856SOL    HW262405   8.952   9.514   6.225 -0.6669  0.8884  1.1074
18857SOL     OW62406   8.884   8.642   4.345 -0.0150 -0.4195 -0.3182
18857SOL    HW162407   8.852   8.675   4.261  0.5996  1.1772  0.0582
18857SOL    HW262408   8.811   8.590   4.379 -1.6087  1.6927 -0.2990
18858SOL     OW62409   0.465   8.361   4.787 -0.4046  0.1061 -0.0621
18858SOL    HW162410   0.528   8.326   4.725 -0.4595  1.7039 -1.0664
18858SOL    HW262411   0.410   8.420   4.735 -0.1038  1.9184  1.5685
18859SOL     OW62412   3.808   7.112   2.390 -0.2816 -0.2097  0.7282
18859SOL    HW162413   3.714   7.095   2.386 -0.1759 -0.5815 -0.5244
18859SOL    HW262414   3.815   7.201   2.423 -1.0690 -0.1604  0.7868
18860SOL     OW62415   5.082   0.420   4.875  0.0242  0.2806  0.6745
18860SOL    HW162416   5.066   0.363   4.800  0.1446 -0.2645  1.0562
18860SOL    HW262417   5.026   0.384   4.944  0.4923  0.3119  1.0725
18861SOL     OW62418   7.630   8.022   0.392 -0.5969  0.1675 -0.4146
18861SOL    HW162419   7.591   7.990   0.311  0.2815  0.1792 -0.8456
18861SOL    HW262420   7.624   8.117   0.386  0.0074  0.1866 -0.7367
18862SOL     OW62421   7.780   7.644   0.071  0.4390  0.3282 -0.4422
18862SOL    HW162422   7.874   7.627   0.057  0.3315 -1.0646  0.3844
18862SOL    HW262423   7.742   7.557   0.081 -0.5091  0.9621  1.9542
18863SOL     OW62424   7.173   3.787   5.785 -0.4699  0.3062 -0.0165
18863SOL    HW162425   7.121   3.746   5.716  0.8767  0.7962 -1.4110
18863SOL    HW262426   7.202   3.870   5.746  2.2362 -0.4391  0.2146
18864SOL     OW62427   3.102  10.196   6.283 -0.2137  0.6908  0.2266
18864SOL    HW162428   3.061  10.227   6.202 -1.3732  0.7286  0.8007
18864SOL    HW262429   3.053  10.116   6.305  0.1551  0.6260  0.8281
18865SOL     OW62430   2.909   8.723  10.224 -0.7526 -0.2636 -0.1670
18865SOL    HW162431   2.893   8.795  10.163 -2.3635 -1.9288 -1.8582
18865SOL    HW262432   2.906   8.644  10.169  0.2724 -1.6864  1.7035
18866SOL     OW62433   3.934   2.943   7.684 -0.0621 -0.8281  0.0822
18866SOL    HW162434   3.890   2.863   7.713 -0.4232 -0.5531  0.2991
18866SOL    HW262435   3.998   2.961   7.753 -1.8437  0.5850  1.4628
18867SOL     OW62436   4.664   6.397   2.403 -0.2780 -0.0646 -0.4281
18867SOL    HW162437   4.618   6.325   2.361  1.3877 -1.4187 -0.0698
18867SOL    HW262438   4.733   6.421   2.341  1.0713 -0.8812  0.6787
18868SOL     OW62439   6.201   2.907   2.040  0.0748 -0.3400 -0.0992
18868SOL    HW162440   6.149   2.838   2.082 -0.0585 -0.0702  0.1842
18868SOL    HW262441   6.195   2.981   2.100  0.3708 -0.1417 -0.3124
18869SOL     OW62442   4.740   8.383   5.895  0.5785  0.0460 -0.3680
18869SOL    HW162443   4.740   8.422   5.982  0.0083 -0.4926 -0.1165
18869SOL    HW262444   4.664   8.422   5.851  1.5460  1.2308 -1.0657
18870SOL     OW62445   4.980   7.300   5.402  0.1044  0.1080  0.7639
18870SOL    HW162446   5.021   7.217   5.427 -1.3748 -0.9408 -0.1016
18870SOL    HW262447   4.902   7.306   5.457  0.4741  1.2146  1.1940
18871SOL     OW62448   9.778   6.338   9.081  0.0908 -0.4522  0.4661
18871SOL    HW162449   9.741   6.417   9.041  1.5998  0.7978  1.4332
18871SOL    HW262450   9.834   6.302   9.013  1.1474  0.5911  0.7578
18872SOL     OW62451   6.855   1.349   1.153  0.7798 -0.3298  0.1153
18872SOL    HW162452   6.839   1.401   1.074 -0.4450  0.4049  0.8008
18872SOL    HW262453   6.787   1.378   1.214 -0.0476 -2.8333  0.4981
18873SOL     OW62454   8.793   3.788  10.666 -0.3022 -0.7051 -0.0716
18873SOL    HW162455   8.735   3.766  10.593 -0.0582 -1.6601  0.0073
18873SOL    HW262456   8.806   3.704  10.712 -0.0417 -0.2192  0.7669
18874SOL     OW62457  10.717   4.058   4.218 -0.1642  0.3129  0.2063
18874SOL    HW162458  10.720   4.030   4.126  0.5671 -1.0722  0.6408
18874SOL    HW262459  10.792   4.016   4.259 -0.5155  0.8688  1.4658
18875SOL     OW62460   4.945   9.346   5.907  0.3395 -0.2032  0.3903
18875SOL    HW162461   4.957   9.264   5.955  1.2789 -0.1544  0.2475
18875SOL    HW262462   4.903   9.320   5.825 -2.6103 -0.1434  1.7447
18876SOL     OW62463  10.522   3.597   9.606  0.0886 -0.4653 -0.5876
18876SOL    HW162464  10.521   3.530   9.675  2.0338 -1.0699 -1.0754
18876SOL    HW262465  10.477   3.556   9.532  1.4548 -1.3780 -0.9563
18877SOL     OW62466   2.428   9.217   3.933 -0.3397 -0.2115  0.1030
18877SOL    HW162467   2.396   9.278   3.999 -1.0026 -0.4106 -0.0268
18877SOL    HW262468   2.358   9.213   3.867  0.6908  0.6862 -1.0938
18878SOL     OW62469   1.436  10.697   8.247  0.1708 -0.1046 -0.0301
18878SOL    HW162470   1.520  10.734   8.273 -0.3475  1.7685 -0.8999
18878SOL    HW262471   1.382  10.702   8.326  0.5405 -0.3465  0.2396
18879SOL     OW62472   4.415   7.048   0.933  0.1680  0.9154  0.1455
18879SOL    HW162473   4.469   7.128   0.934  0.6961  0.5616  0.9695
18879SOL    HW262474   4.449   6.997   0.859 -0.7763  1.8359 -0.9696
18880SOL     OW62475   6.756   7.070   0.926  0.4871  0.5350  0.0995
18880SOL    HW162476   6.821   7.098   0.862 -0.9284 -0.0454 -1.6653
18880SOL    HW262477   6.802   7.076   1.010  1.5993  3.9272 -0.5770
18881SOL     OW62478   3.533   2.607   4.495  0.0540 -0.0008  0.0414
18881SOL    HW162479   3.517   2.573   4.583 -0.1299 -1.3085 -0.4746
18881SOL    HW262480   3.616   2.655   4.503  1.1748 -1.8965  0.4914
18882SOL     OW62481   2.858   7.758   6.767  0.0758 -0.0325  0.2928
18882SOL    HW162482   2.892   7.847   6.754  0.5403 -0.3290 -0.5729
18882SOL    HW262483   2.765   7.765   6.748  0.5705 -0.2760 -2.6642
18883SOL     OW62484   6.610   0.618   3.516  0.0161  0.2709 -0.5910
18883SOL    HW162485   6.530   0.581   3.479  0.6020  0.0568 -1.6828
18883SOL    HW262486   6.624   0.569   3.597  0.0418 -1.0078 -1.3373
18884SOL     OW62487   5.311   9.517   1.465  0.3746 -0.5688  0.1161
18884SOL    HW162488   5.321   9.439   1.519 -1.5199 -1.5299 -0.8235
18884SOL    HW262489   5.226   9.553   1.491  0.5949  0.3913 -0.4506
18885SOL     OW62490   7.152  10.379   5.496 -0.3213  0.4230  0.2362
18885SOL    HW162491   7.176  10.466   5.464 -0.9156  0.7673  0.7005
18885SOL    HW262492   7.057  10.385   5.512 -0.0060  0.4007  2.4067
18886SOL     OW62493   3.445   4.256   4.328  0.3051  0.0316 -0.0392
18886SOL    HW162494   3.378   4.324   4.321 -0.0865 -0.3903 -0.5559
18886SOL    HW262495   3.528   4.302   4.314 -0.0107  0.2940 -1.2001
18887SOL     OW62496   4.006   7.845   2.862  0.4071  0.2444  0.1400
18887SOL    HW162497   4.095   7.817   2.840  0.1628 -1.1151  0.8034
18887SOL    HW262498   4.016   7.938   2.885  1.9235 -0.2153  1.5715
18888SOL     OW62499   9.033   9.407   7.313  0.4391 -0.6717  0.3176
18888SOL    HW162500   8.991   9.323   7.332 -2.0470  0.2914 -0.4402
18888SOL    HW262501   9.084   9.427   7.391 -0.0844 -2.2155  1.0985
18889SOL     OW62502   9.921   0.042   2.388 -0.0909  0.2325 -0.3026
18889SOL    HW162503   9.965  -0.001   2.316 -1.8739 -0.2086 -1.2014
18889SOL    HW262504   9.905  -0.028   2.452  1.0515  0.5253  0.3329
18890SOL     OW62505   0.486   1.125   1.240  0.2596  0.5506 -0.4836
18890SOL    HW162506   0.576   1.121   1.207  0.2139 -0.0758 -0.5550
18890SOL    HW262507   0.490   1.186   1.313  0.9607 -0.2264  0.1519
18891SOL     OW62508  10.148   2.701   5.990  0.3702 -0.1043 -0.5728
18891SOL    HW162509  10.102   2.654   5.921 -0.3056  0.2188 -0.3563
18891SOL    HW262510  10.173   2.634   6.053  0.7732 -0.3678 -1.0135
18892SOL     OW62511   4.709   1.926   4.310 -0.5054 -0.1001  0.0563
18892SOL    HW162512   4.756   1.994   4.262  2.0668 -1.7930  0.0208
18892SOL    HW262513   4.620   1.928   4.273 -0.0618  2.1321 -1.0295
18893SOL     OW62514   6.362   1.198   1.784  0.0801  0.1917  0.3021
18893SOL    HW162515   6.412   1.265   1.738 -0.4661 -0.6174 -1.5776
18893SOL    HW262516   6.413   1.118   1.772 -0.2357 -0.1023  0.8634
18894SOL     OW62517   6.297   2.347   3.766  0.1583  0.1486 -0.3672
18894SOL    HW162518   6.279   2.272   3.710 -1.5979 -0.2487  0.6473
18894SOL    HW262519   6.315   2.309   3.852 -0.1280  0.8673  0.0156
18895SOL     OW62520   0.877   0.120   7.129 -0.3352 -0.3513  0.2038
18895SOL    HW162521   0.957   0.138   7.178 -0.9461 -1.3850  1.6492
18895SOL    HW262522   0.908   0.086   7.045  0.7447  2.6687 -0.7405
18896SOL     OW62523   4.243   9.273   8.113 -0.1181 -0.6290  0.2128
18896SOL    HW162524   4.329   9.238   8.135  0.4602  1.4165  1.5149
18896SOL    HW262525   4.182   9.219   8.163  0.5319 -1.2082  0.3950
18897SOL     OW62526   3.486   3.913   6.630  0.1772 -0.2602 -0.0551
18897SOL    HW162527   3.560   3.969   6.652  0.3217  0.3611 -1.9443
18897SOL    HW262528   3.524   3.826   6.620  0.4361 -0.1786  0.1948
18898SOL     OW62529   0.250   9.155   4.070 -0.0832 -0.0679 -0.1167
18898SOL    HW162530   0.197   9.190   4.142 -1.5293 -0.6999 -0.8307
18898SOL    HW262531   0.335   9.196   4.081 -0.1430 -0.4019  2.1625
18899SOL     OW62532   9.500   1.362   6.558 -0.3015  0.0847 -0.4539
18899SOL    HW162533   9.497   1.267   6.546  1.1518  0.0013 -0.2364
18899SOL    HW262534   9.417   1.383   6.601 -0.3542 -1.1713  0.0942
18900SOL     OW62535   4.495   2.091   4.992 -0.2098 -0.1409  0.0685
18900SOL    HW162536   4.437   2.016   5.004  1.1491 -1.3886 -0.7924
18900SOL    HW262537   4.459   2.159   5.049 -1.8103 -1.2507  0.4446
18901SOL     OW62538   6.443   8.611   6.675  0.2490  0.6260 -0.2552
18901SOL    HW162539   6.404   8.687   6.719 -0.3514 -0.1537  0.5810
18901SOL    HW262540   6.477   8.557   6.746 -2.5754 -1.7020 -0.5124
18902SOL     OW62541   6.379   4.621   0.985  0.2416 -0.4910 -0.4715
18902SOL    HW162542   6.434   4.564   1.039  0.0121 -1.4045 -1.1564
18902SOL    HW262543   6.303   4.567   0.963 -0.5025  0.4515 -0.2815
18903SOL     OW62544   6.919   3.559   5.209  0.1520  0.1398  0.4214
18903SOL    HW162545   7.006   3.520   5.192 -0.1742 -0.1606 -0.6549
18903SOL    HW262546   6.891   3.592   5.124 -0.6700  0.4958  0.8240
18904SOL     OW62547   4.661   3.212   5.667  0.4384  0.1583  0.3934
18904SOL    HW162548   4.588   3.269   5.695 -0.7441 -1.3947  0.5914
18904SOL    HW262549   4.635   3.181   5.581 -0.2076 -2.0880  1.3305
18905SOL     OW62550   2.303   5.465   7.244  0.2982  0.3661 -0.2132
18905SOL    HW162551   2.265   5.537   7.194 -1.2825 -0.3791 -0.1526
18905SOL    HW262552   2.386   5.446   7.200  0.2067  1.4878 -0.8965
18906SOL     OW62553   6.136   1.677   6.053 -0.3930 -0.2553  0.0920
18906SOL    HW162554   6.095   1.611   6.109 -1.3234 -1.2956 -1.7045
18906SOL    HW262555   6.106   1.761   6.089 -3.0936 -0.9527 -0.3125
18907SOL     OW62556   2.121   2.679   4.374  0.9449 -0.3099  0.2193
18907SOL    HW162557   2.054   2.613   4.359  0.7947 -0.6542  2.1630
18907SOL    HW262558   2.204   2.636   4.351  0.7892 -0.9559  0.8604
18908SOL     OW62559   4.244   9.976   8.391  0.3454  0.4273 -0.1955
18908SOL    HW162560   4.221  10.069   8.395 -2.4101 -0.2382  2.7596
18908SOL    HW262561   4.182   9.939   8.327  0.2318  0.3494 -0.0414
18909SOL     OW62562   2.049   2.100   2.109  0.5530 -0.2808  0.0796
18909SOL    HW162563   2.132   2.147   2.121 -0.0729  0.8187  0.1869
18909SOL    HW262564   1.984   2.154   2.154 -0.2969 -0.9106 -0.3707
18910SOL     OW62565   7.466  10.319   3.395  0.0364  0.0781 -0.4973
18910SOL    HW162566   7.534  10.293   3.457 -0.9197 -1.1880  0.0570
18910SOL    HW262567   7.504  10.304   3.309  0.3751 -0.8337 -0.1936
18911SOL     OW62568   9.746   7.244   9.654 -0.1664 -0.6376 -0.1441
18911SOL    HW162569   9.731   7.250   9.559 -2.6849 -0.4883  0.2147
18911SOL    HW262570   9.841   7.255   9.663  0.1816 -0.8889 -2.6559
18912SOL     OW62571   6.525   6.311   1.486  0.5615  0.4450  0.1513
18912SOL    HW162572   6.620   6.296   1.491  0.8958  2.3380  0.1710
18912SOL    HW262573   6.505   6.307   1.392  1.0056  1.7396 -0.0248
18913SOL     OW62574   0.120   9.255   1.738 -0.4409 -0.6108  0.2639
18913SOL    HW162575   0.133   9.252   1.832  0.9262  1.1255  0.1654
18913SOL    HW262576   0.162   9.175   1.706 -0.4514 -0.9476  1.0635
18914SOL     OW62577   0.427   9.464   8.902  0.7521  0.4156 -0.2402
18914SOL    HW162578   0.436   9.559   8.897 -0.0706  0.4653 -1.0010
18914SOL    HW262579   0.405   9.437   8.813  0.0255 -0.3753  0.1597
18915SOL     OW62580   8.203   0.460   5.276 -0.2046 -0.0867  0.5018
18915SOL    HW162581   8.117   0.439   5.239 -0.3055  0.4575  0.4210
18915SOL    HW262582   8.255   0.380   5.261 -1.3698 -1.3422  2.7233
18916SOL     OW62583   5.434   2.706   1.988  0.6469  0.4071  0.0002
18916SOL    HW162584   5.352   2.751   2.009  0.6122 -0.1915  1.2179
18916SOL    HW262585   5.489   2.775   1.951 -0.4729  0.7698 -1.0572
18917SOL     OW62586   2.781  10.012   0.748 -0.5149 -0.4090 -0.2373
18917SOL    HW162587   2.863   9.974   0.716 -0.5649 -0.4067 -0.3717
18917SOL    HW262588   2.723  10.009   0.672 -0.1079  1.1550 -0.6406
18918SOL     OW62589   8.434   1.632   2.933  0.2223  0.2931 -0.3760
18918SOL    HW162590   8.421   1.709   2.878 -1.8232  0.2695  0.0207
18918SOL    HW262591   8.408   1.660   3.021  1.1572 -0.3679  0.1358
18919SOL     OW62592   1.529  10.008   3.845  0.6397  0.3618  0.0752
18919SOL    HW162593   1.502  10.097   3.826  0.1967  0.2107 -0.0267
18919SOL    HW262594   1.567   9.976   3.763  2.2497  0.9671  0.5564
18920SOL     OW62595  10.197   8.706   2.196  0.0573 -0.5102  0.2221
18920SOL    HW162596  10.252   8.628   2.200  0.5064 -0.1833  0.4734
18920SOL    HW262597  10.123   8.687   2.253 -0.5915 -1.3290 -0.8529
18921SOL     OW62598   3.939   0.306  10.327 -0.5817  0.2523  0.0090
18921SOL    HW162599   3.962   0.345  10.411 -0.2924  2.3192 -0.9594
18921SOL    HW262600   3.884   0.231  10.349  0.7823 -0.2140  2.0770
18922SOL     OW62601  10.688   5.428   2.629 -0.5327  0.4884  0.6922
18922SOL    HW162602  10.710   5.466   2.544 -3.1464  2.9334  0.9620
18922SOL    HW262603  10.767   5.441   2.682  1.1599 -1.0998 -1.2204
18923SOL     OW62604   8.222   0.980   5.343 -0.3186  0.2034 -0.0466
18923SOL    HW162605   8.157   0.954   5.408 -0.8022  0.8062 -0.2787
18923SOL    HW262606   8.198   0.931   5.264  0.7591 -1.1512  0.4493
18924SOL     OW62607   4.208   4.005   0.819  0.1378  0.1967 -0.3345
18924SOL    HW162608   4.277   3.954   0.776  0.2274  0.5033 -0.5588
18924SOL    HW262609   4.136   3.943   0.830  0.3868 -0.0818 -0.2538
18925SOL     OW62610   9.710   4.915   4.137  0.2482  0.2284 -0.3650
18925SOL    HW162611   9.656   4.839   4.156  0.2920  0.2047 -0.3332
18925SOL    HW262612   9.783   4.908   4.199  1.6729 -1.1416 -2.0971
18926SOL     OW62613   1.380  10.044   3.163 -0.2742 -0.0773  0.2704
18926SOL    HW162614   1.419  10.086   3.087  1.0963 -0.6062  0.6415
18926SOL    HW262615   1.301  10.095   3.181 -2.0949 -1.4399 -2.9998
18927SOL     OW62616   2.501   8.164   3.451  0.1260  0.3726 -0.0646
18927SOL    HW162617   2.429   8.228   3.452  1.0142  1.4684 -1.2606
18927SOL    HW262618   2.472   8.093   3.507 -1.2987  1.4302  0.5912
18928SOL     OW62619   3.845   4.158   5.441 -0.2390  0.3518  0.0794
18928SOL    HW162620   3.828   4.071   5.475 -1.8218  0.6856  0.2236
18928SOL    HW262621   3.837   4.149   5.346  0.3091  0.1998  0.0469
18929SOL     OW62622   9.143   3.901   4.579  0.0018  0.1980  0.6980
18929SOL    HW162623   9.192   3.941   4.650  0.8951  0.4097 -0.0183
18929SOL    HW262624   9.128   3.972   4.516 -1.2602  0.1476  0.9046
18930SOL     OW62625   5.127   7.888   1.656 -0.3503  0.2023 -0.5710
18930SOL    HW162626   5.216   7.925   1.653 -0.0241 -0.6301 -2.0491
18930SOL    HW262627   5.076   7.944   1.598 -0.1685 -0.7985 -1.7420
18931SOL     OW62628   0.466   8.063   9.128  0.3112 -0.2785  0.4931
18931SOL    HW162629   0.464   8.120   9.205 -0.6764 -1.2459  1.2101
18931SOL    HW262630   0.374   8.039   9.114  0.4149  0.2078 -1.2496
18932SOL     OW62631  10.700   3.868  10.301  0.3083  0.4468  0.2485
18932SOL    HW162632  10.681   3.889  10.209 -0.3760  0.3970  0.3700
18932SOL    HW262633  10.618   3.830  10.334  0.4598  0.7296  0.9624
18933SOL     OW62634   9.694   0.396  10.065 -0.0250 -0.2002  0.0060
18933SOL    HW162635   9.606   0.393  10.029 -0.3004 -0.5404  0.6805
18933SOL    HW262636   9.742   0.457  10.008 -1.0225  0.9238  0.3301
18934SOL     OW62637  10.662   9.772   7.864  0.5233  0.0377 -0.7133
18934SOL    HW162638  10.587   9.771   7.805 -1.0406  0.2076  1.1770
18934SOL    HW262639  10.661   9.860   7.902  2.4317  0.4595 -1.4901
18935SOL     OW62640   3.806   9.302   7.802  0.1026 -0.7677 -0.6535
18935SOL    HW162641   3.821   9.262   7.716 -1.9501  0.0112 -1.4394
18935SOL    HW262642   3.712   9.318   7.804  0.2059 -0.2248  1.5290
18936SOL     OW62643   3.680   3.575   7.811 -0.5549 -0.6150 -0.9688
18936SOL    HW162644   3.677   3.624   7.893  3.2451  1.0024 -1.5438
18936SOL    HW262645   3.642   3.635   7.747 -1.3981 -0.9261 -0.7681
18937SOL     OW62646   0.847   1.689   8.671  0.4022 -0.2971 -0.2611
18937SOL    HW162647   0.885   1.655   8.753  0.0980  0.9292  0.4171
18937SOL    HW262648   0.846   1.614   8.612  0.5504 -1.2406  0.8932
18938SOL     OW62649   7.086   8.293   2.614 -0.4455 -0.1424 -0.4580
18938SOL    HW162650   7.176   8.324   2.604 -0.4582  0.3410  0.7358
18938SOL    HW262651   7.032   8.359   2.571 -0.2777 -0.1394 -0.6663
18939SOL     OW62652   1.007   9.924   2.917  0.0394 -0.0148  0.2607
18939SOL    HW162653   0.921   9.913   2.957 -1.4660  1.3417 -2.3053
18939SOL    HW262654   1.016  10.018   2.904  1.1723 -0.2634 -0.9860
18940SOL     OW62655   9.518   9.762   8.408 -0.2893  0.3113 -0.4149
18940SOL    HW162656   9.491   9.678   8.448 -0.2511  0.9185  0.9607
18940SOL    HW262657   9.575   9.802   8.474 -0.6537  1.6136 -0.8592
18941SOL     OW62658   0.012   4.051   2.389 -0.0924  0.5615  0.2491
18941SOL    HW162659  -0.059   4.114   2.402 -1.0943 -0.8402  2.0028
18941SOL    HW262660   0.082   4.081   2.447 -0.2194  0.5401  0.4119
18942SOL     OW62661  10.578   3.200   8.752 -0.0448  0.5953  0.0087
18942SOL    HW162662  10.588   3.107   8.728 -0.5690  0.4687  0.2571
18942SOL    HW262663  10.640   3.213   8.824 -0.8586  0.1009  0.8231
18943SOL     OW62664   0.380   0.559   6.063 -0.0881  0.1288  0.0092
18943SOL    HW162665   0.473   0.558   6.042 -0.1260  2.1498 -0.4403
18943SOL    HW262666   0.376   0.587   6.154 -0.2304 -1.8177  0.6614
18944SOL     OW62667   7.997   8.353   9.090  0.1828  0.6046 -0.3628
18944SOL    HW162668   8.052   8.298   9.146  0.2020 -0.7112 -1.6299
18944SOL    HW262669   8.036   8.345   9.003 -1.1949  0.7537 -1.0142
18945SOL     OW62670  10.654   7.552   4.319 -0.2492  0.5481 -0.3447
18945SOL    HW162671  10.740   7.571   4.281 -0.2428  0.5463 -0.3307
18945SOL    HW262672  10.625   7.473   4.273 -0.1147  0.3802 -0.1419
18946SOL     OW62673   8.442   5.199   8.263 -0.2663  0.5081  0.2803
18946SOL    HW162674   8.499   5.144   8.317 -1.3079 -0.3203  0.5515
18946SOL    HW262675   8.485   5.285   8.264  0.6162  0.0845  1.0326
18947SOL     OW62676   3.239   2.621   4.073 -0.5064  0.5230 -0.1646
18947SOL    HW162677   3.175   2.609   4.144 -0.2717  0.9273  0.1184
18947SOL    HW262678   3.317   2.573   4.103  0.0174  1.7120  0.4207
18948SOL     OW62679   2.741   0.448   2.480 -0.1362 -0.2185 -0.7886
18948SOL    HW162680   2.677   0.473   2.546 -1.4140 -0.7930 -1.7761
18948SOL    HW262681   2.780   0.531   2.451 -1.9076  0.3730 -1.6229
18949SOL     OW62682   5.031   8.364   8.767 -0.1340  0.2800  0.8872
18949SOL    HW162683   5.016   8.338   8.676  1.3147  1.8754  0.1237
18949SOL    HW262684   5.034   8.281   8.815 -0.6272 -0.6243 -0.5552
18950SOL     OW62685   1.605   7.789   5.533  0.4520 -0.2974 -0.4834
18950SOL    HW162686   1.514   7.816   5.524  0.6511 -0.0799 -2.1004
18950SOL    HW262687   1.601   7.710   5.587 -0.5246  0.5293  0.7095
18951SOL     OW62688   5.944   0.078   9.079 -0.1381 -0.2805 -0.4973
18951SOL    HW162689   5.892   0.145   9.123  1.7281 -0.0296  1.5354
18951SOL    HW262690   5.938   0.002   9.136  0.8368 -0.5750 -0.7670
18952SOL     OW62691   8.084   5.880   8.948  0.2688 -0.0291 -0.1288
18952SOL    HW162692   8.172   5.917   8.953 -0.2014  0.9813  1.1246
18952SOL    HW262693   8.080   5.839   8.861  1.6733  0.6497 -0.5403
18953SOL     OW62694   7.557   1.785   8.670 -0.4250  0.2533 -0.4423
18953SOL    HW162695   7.606   1.867   8.664  0.1589 -0.1027 -0.6463
18953SOL    HW262696   7.465   1.811   8.669 -0.2442  0.8776 -0.8808
18954SOL     OW62697   6.456   7.978   5.949 -0.3810 -0.2738  0.2168
18954SOL    HW162698   6.515   7.930   5.890 -0.9481  0.1630 -0.7418
18954SOL    HW262699   6.512   8.007   6.021  0.5709  0.0576 -0.6316
18955SOL     OW62700   0.789   8.469   0.736  0.5760  0.0083  0.7189
18955SOL    HW162701   0.739   8.496   0.660 -0.7176  0.2296  1.6211
18955SOL    HW262702   0.741   8.504   0.811  1.9463  0.0116  1.6347
18956SOL     OW62703   8.628   7.136   7.543 -0.0168  0.2600 -0.0802
18956SOL    HW162704   8.543   7.180   7.553  1.0554  2.1651  1.4321
18956SOL    HW262705   8.628   7.070   7.613 -0.5574 -0.3109 -0.6083
18957SOL     OW62706  10.287   8.460   1.541 -0.0406 -0.1601 -0.8797
18957SOL    HW162707  10.365   8.447   1.488  1.0531 -0.0997  0.6237
18957SOL    HW262708  10.214   8.447   1.481  1.1016 -1.4540 -2.0564
18958SOL     OW62709   8.105   5.368   6.732  0.0587 -0.8955 -0.0650
18958SOL    HW162710   8.196   5.364   6.764  0.7366 -0.9998 -1.9033
18958SOL    HW262711   8.062   5.293   6.773  1.0499 -1.3756  0.1229
18959SOL     OW62712   3.662   8.656   9.470  0.2118 -0.0358  0.0731
18959SOL    HW162713   3.701   8.736   9.436  2.3079 -0.7895  0.5458
18959SOL    HW262714   3.637   8.606   9.392 -0.1971  0.6228 -0.2308
18960SOL     OW62715   9.287   9.173   3.406  0.2938  0.6764  0.1239
18960SOL    HW162716   9.235   9.125   3.341 -0.9101  1.9112  0.1150
18960SOL    HW262717   9.230   9.246   3.432  1.4152  1.1469  1.3385
18961SOL     OW62718   9.188   2.575   6.134  0.1568  0.8255  0.2472
18961SOL    HW162719   9.255   2.541   6.194  0.6872  0.4014 -0.5651
18961SOL    HW262720   9.119   2.509   6.135 -0.5780  1.5810  1.5977
18962SOL     OW62721   1.831   2.812   8.166 -0.3307  0.5071 -0.4066
18962SOL    HW162722   1.826   2.906   8.181 -0.8024  0.5704 -0.9522
18962SOL    HW262723   1.895   2.781   8.230 -0.2541  1.1804 -0.1535
18963SOL     OW62724   8.999   3.485   0.381  0.8033  0.1311  0.4104
18963SOL    HW162725   8.953   3.498   0.464  1.7780 -1.5782  1.2603
18963SOL    HW262726   9.003   3.573   0.343  0.0325  0.9035  2.0003
18964SOL     OW62727   3.586   0.502   1.473 -0.4706 -0.5251  0.0738
18964SOL    HW162728   3.639   0.437   1.518 -1.1339 -1.5750 -0.6239
18964SOL    HW262729   3.632   0.585   1.489  0.8014 -1.2530  0.3491
18965SOL     OW62730   0.954   8.287   1.570 -0.1638  0.3457  0.3629
18965SOL    HW162731   0.906   8.270   1.651 -1.2586 -0.1219 -0.3505
18965SOL    HW262732   0.949   8.381   1.558  0.0251  0.4199  0.8521
18966SOL     OW62733   3.193   6.195   0.177  0.2067  0.2473 -0.4171
18966SOL    HW162734   3.148   6.232   0.253  0.6270 -1.5787  0.7770
18966SOL    HW262735   3.122   6.170   0.117 -0.1269  1.6823 -0.6606
18967SOL     OW62736   4.821  10.028   7.007  0.0174  0.0676  0.3848
18967SOL    HW162737   4.769  10.059   7.081  0.0775 -1.3661  1.0662
18967SOL    HW262738   4.886   9.969   7.046 -0.5173 -1.4393 -0.8881
18968SOL     OW62739   4.160   9.645   5.390 -0.4719  0.3695  0.1702
18968SOL    HW162740   4.190   9.735   5.403 -1.8322  1.2021 -2.0781
18968SOL    HW262741   4.219   9.609   5.323 -0.4484 -0.1630  0.4674
18969SOL     OW62742   6.661   8.019   3.426  0.2652  0.5646 -0.3714
18969SOL    HW162743   6.749   7.986   3.445  0.5703  1.3825 -0.3175
18969SOL    HW262744   6.616   7.945   3.386  1.3791  0.5120 -1.6039
18970SOL     OW62745   8.597   9.390   8.377  0.4941 -0.5637  0.5389
18970SOL    HW162746   8.598   9.446   8.299 -1.8357 -2.0028 -0.6466
18970SOL    HW262747   8.648   9.438   8.442  0.1324  2.0599 -0.9660
18971SOL     OW62748   6.675   0.133   4.021 -0.0050 -0.8106  0.7219
18971SOL    HW162749   6.749   0.139   3.961 -0.6634  0.1165 -0.0293
18971SOL    HW262750   6.610   0.195   3.986 -2.4318 -3.7490 -0.4730
18972SOL     OW62751   2.831   5.405   1.802 -0.1549  0.2912  0.4001
18972SOL    HW162752   2.784   5.484   1.775  1.6523  0.6510 -2.0628
18972SOL    HW262753   2.922   5.434   1.811  0.1054 -0.9327  2.4635
18973SOL     OW62754   2.512   9.813   9.753 -0.2853 -0.2229 -0.0847
18973SOL    HW162755   2.435   9.773   9.794 -0.1747 -1.4042 -0.9579
18973SOL    HW262756   2.490   9.816   9.660 -0.0650  1.3154 -0.1020
18974SOL     OW62757   2.291   4.840   1.352  0.0595  0.5661 -0.1338
18974SOL    HW162758   2.312   4.799   1.268 -2.1355  1.8138 -1.3585
18974SOL    HW262759   2.362   4.901   1.368  0.2777  0.6351 -1.3163
18975SOL     OW62760   8.849   4.657   1.920  0.5232 -0.0177  0.7628
18975SOL    HW162761   8.861   4.667   2.014 -0.6144 -1.9973  1.1691
18975SOL    HW262762   8.931   4.619   1.889  0.5884 -0.1271  1.0747
18976SOL     OW62763   9.891   0.250   2.016  0.2242  0.7516  0.6908
18976SOL    HW162764   9.954   0.301   2.067  1.0166 -0.2324  0.7088
18976SOL    HW262765   9.937   0.228   1.935 -0.6530  1.3704 -0.0055
18977SOL     OW62766   3.254   4.472   7.239  0.3671  0.1268 -0.2200
18977SOL    HW162767   3.207   4.489   7.158 -0.1751  0.1316  0.0864
18977SOL    HW262768   3.242   4.379   7.255 -0.0593  0.2390  0.1668
18978SOL     OW62769   6.364   7.696   2.642  0.1562  0.8424 -0.3786
18978SOL    HW162770   6.324   7.611   2.624 -1.7470  1.7840 -0.8698
18978SOL    HW262771   6.346   7.712   2.735 -0.1925  1.0358 -0.4754
18979SOL     OW62772  10.201   2.148   4.106  0.2947  0.2739 -0.2626
18979SOL    HW162773  10.146   2.183   4.175 -0.8767 -0.5053 -0.7718
18979SOL    HW262774  10.291   2.157   4.139 -0.1027  1.7202  0.5036
18980SOL     OW62775   5.015   5.764   4.787 -0.1988  0.0719 -0.4720
18980SOL    HW162776   4.969   5.719   4.716 -2.1184  0.4574  0.4695
18980SOL    HW262777   5.055   5.693   4.837 -0.5155 -0.3409 -0.7925
18981SOL     OW62778   0.696   1.532   2.214 -0.1358 -0.0784 -0.2447
18981SOL    HW162779   0.705   1.563   2.304 -0.3337 -1.0565  0.1298
18981SOL    HW262780   0.785   1.534   2.179 -0.0804  0.4529 -0.0845
18982SOL     OW62781   5.041   1.683   2.427 -0.3208 -0.4571  0.4175
18982SOL    HW162782   5.005   1.694   2.515 -1.6258  0.0574 -0.1641
18982SOL    HW262783   5.129   1.720   2.433  0.6103 -2.6463  2.1342
18983SOL     OW62784   3.691   9.927  10.392  0.1903  0.4601 -0.0417
18983SOL    HW162785   3.739   9.975  10.325 -0.7834 -0.6457 -1.5879
18983SOL    HW262786   3.606   9.970  10.396 -0.0699 -0.0355 -0.1751
18984SOL     OW62787   1.552   4.800   1.782 -0.1904 -0.0017 -0.1164
18984SOL    HW162788   1.610   4.729   1.754  0.2172 -0.8446  2.5750
18984SOL    HW262789   1.544   4.789   1.877 -0.4571  3.2926  0.3825
18985SOL     OW62790   4.266   3.421   9.088  0.6671  0.0804  0.5877
18985SOL    HW162791   4.292   3.337   9.126 -0.3028  0.2813  1.7684
18985SOL    HW262792   4.276   3.484   9.160 -1.6902  0.3969  0.7162
18986SOL     OW62793  10.258   8.033   1.435  0.5891 -0.5624  0.7204
18986SOL    HW162794  10.189   8.079   1.388 -0.2382  1.1064  3.3049
18986SOL    HW262795  10.215   7.998   1.513  2.3870 -0.5957  1.7674
18987SOL     OW62796   6.285   9.945   0.170  0.2621 -0.0708  0.2225
18987SOL    HW162797   6.272   9.970   0.078  1.0494 -1.2994 -0.2570
18987SOL    HW262798   6.197   9.941   0.207 -0.2254 -1.2985 -0.9873
18988SOL     OW62799   6.436   6.541   1.591 -0.0215 -0.2218 -0.1793
18988SOL    HW162800   6.504   6.590   1.544  0.4594 -0.3819  0.3347
18988SOL    HW262801   6.465   6.450   1.585  0.6149 -0.1512  1.3044
18989SOL     OW62802   4.648   1.310   1.303  0.1208  0.2758  0.8018
18989SOL    HW162803   4.557   1.340   1.297  0.1835  0.7094  1.8011
18989SOL    HW262804   4.647   1.222   1.264 -0.6303  0.4641  0.3814
18990SOL     OW62805   5.012   2.365   7.533 -0.0190 -0.5672 -0.6137
18990SOL    HW162806   5.039   2.293   7.589  1.9733  0.7344  0.1834
18990SOL    HW262807   5.056   2.350   7.450 -0.3192 -0.7190 -0.7494
18991SOL     OW62808   5.106   5.308   1.105 -0.2107  0.0767  0.1775
18991SOL    HW162809   5.063   5.389   1.078  0.7644  1.2654  1.9785
18991SOL    HW262810   5.039   5.259   1.152 -0.9693 -0.4721 -1.4204
18992SOL     OW62811   7.701   4.523   2.271 -0.5098 -0.5452  0.2223
18992SOL    HW162812   7.689   4.432   2.245 -0.1286 -1.3188  2.5098
18992SOL    HW262813   7.773   4.521   2.335 -0.2927  1.4006  0.1113
18993SOL     OW62814   2.158   4.342   0.178  0.1424 -0.1935 -0.2605
18993SOL    HW162815   2.228   4.394   0.216 -0.2470 -1.5618  2.5222
18993SOL    HW262816   2.185   4.251   0.190 -1.0939 -0.7289 -1.1932
18994SOL     OW62817   5.236   2.434   4.563  0.3263 -0.7543  0.3486
18994SOL    HW162818   5.213   2.526   4.578 -0.5327 -0.7303 -0.9983
18994SOL    HW262819   5.152   2.390   4.551  0.7961 -1.4041 -0.6610
18995SOL     OW62820   4.407   6.461   5.706  0.0044  0.4809  0.1331
18995SOL    HW162821   4.314   6.484   5.702  0.1077  0.8264 -0.5318
18995SOL    HW262822   4.413   6.375   5.666  0.2246  1.3451 -1.8315
18996SOL     OW62823   4.177   9.763   4.349 -0.4156 -0.0260  0.6386
18996SOL    HW162824   4.092   9.722   4.342 -0.1461 -0.5373  0.3380
18996SOL    HW262825   4.189   9.810   4.267 -0.6560  0.5366  0.9180
18997SOL     OW62826   4.684   7.195   4.104  0.5955  0.4984 -0.0343
18997SOL    HW162827   4.666   7.282   4.068  1.1532  0.5134 -0.2866
18997SOL    HW262828   4.685   7.137   4.028 -3.7418 -0.5042  0.3992
18998SOL     OW62829   4.007   7.150   4.481 -0.2776 -0.5476  0.0305
18998SOL    HW162830   3.937   7.152   4.546  0.4586 -0.0691  0.8264
18998SOL    HW262831   4.056   7.231   4.495  0.9387 -1.2549  0.0512
18999SOL     OW62832   0.891   9.691   1.201 -0.0480 -0.3488 -0.0491
18999SOL    HW162833   0.954   9.754   1.236  0.4437 -1.6077  1.4723
18999SOL    HW262834   0.834   9.743   1.144  0.1335  1.5395  1.3662
19000SOL     OW62835   0.562  10.643   6.575 -0.2770  0.0985  0.2114
19000SOL    HW162836   0.618  10.609   6.644 -0.2482  0.0879  0.1825
19000SOL    HW262837   0.517  10.717   6.615  0.3676  0.6190 -0.0077
19001SOL     OW62838   8.196   8.628   7.749 -0.0941 -0.7201  0.2437
19001SOL    HW162839   8.249   8.562   7.792 -1.1589 -2.6793 -1.2711
19001SOL    HW262840   8.107   8.610   7.778 -0.2978  0.7900  0.6507
19002SOL     OW62841   2.176   8.552   4.845 -0.2498 -0.1786  0.0136
19002SOL    HW162842   2.180   8.609   4.922  0.1527 -1.2665  0.8174
19002SOL    HW262843   2.154   8.611   4.773 -1.1031  0.7854  1.0309
19003SOL     OW62844   9.737   1.133   1.059  0.1896  0.5538 -0.3612
19003SOL    HW162845   9.688   1.051   1.063  0.2772  0.4594 -1.1172
19003SOL    HW262846   9.823   1.111   1.094  0.4456  0.1364 -1.2306
19004SOL     OW62847   3.318   3.255   1.325  0.0027  0.0666  0.6332
19004SOL    HW162848   3.311   3.257   1.420 -1.3784 -1.8535  0.6269
19004SOL    HW262849   3.227   3.248   1.294  0.5218 -1.6639 -0.6834
19005SOL     OW62850   8.225  10.362   3.318 -0.2446  0.6672  0.0580
19005SOL    HW162851   8.286  10.307   3.366 -2.0151 -2.3557 -0.9165
19005SOL    HW262852   8.142  10.353   3.366 -1.6212 -1.0472 -2.4214
19006SOL     OW62853   2.973   2.015   3.226 -0.0970  0.1974 -0.2726
19006SOL    HW162854   3.006   1.926   3.219  1.1977  0.5840  0.4978
19006SOL    HW262855   3.052   2.070   3.222 -0.7479  1.2339  0.5404
19007SOL     OW62856   4.936   1.505   2.782 -0.2581 -1.2053 -0.2758
19007SOL    HW162857   5.016   1.512   2.731 -0.1080 -2.4687 -0.2365
19007SOL    HW262858   4.883   1.579   2.753  0.6904 -0.6744 -0.7021
19008SOL     OW62859   6.607   9.028   6.296 -0.1257  0.4922  0.0941
19008SOL    HW162860   6.653   9.075   6.365  0.2140  0.8918 -0.3982
19008SOL    HW262861   6.603   9.090   6.224  1.6931 -0.7231 -1.1407
19009SOL     OW62862   8.938   0.028   2.046 -0.1532 -0.5681 -0.2289
19009SOL    HW162863   8.999   0.017   2.119 -0.3378 -0.4822 -0.0612
19009SOL    HW262864   8.852   0.003   2.082 -0.6877  1.8040  0.3039
19010SOL     OW62865   5.630   6.375   5.332  0.1265  0.4488  0.2595
19010SOL    HW162866   5.580   6.337   5.403 -0.0711 -0.5793 -0.4122
19010SOL    HW262867   5.690   6.437   5.375 -0.4169  0.3106  1.2387
19011SOL     OW62868   4.288  10.333  10.400  0.5248 -0.3406  0.9047
19011SOL    HW162869   4.296  10.239  10.388 -0.1780 -0.3277  0.1806
19011SOL    HW262870   4.321  10.350  10.488 -1.1368 -1.5435  1.8209
19012SOL     OW62871   7.216   4.850   4.290 -0.2295 -0.4802 -0.9138
19012SOL    HW162872   7.214   4.945   4.286  2.2103 -0.3881 -1.9352
19012SOL    HW262873   7.295   4.830   4.341 -1.0827 -1.9855 -0.0968
19013SOL     OW62874   3.918   9.379   9.807  0.3392 -0.4446 -0.2549
19013SOL    HW162875   3.881   9.459   9.844  0.8888 -0.6007  0.6409
19013SOL    HW262876   4.000   9.407   9.767 -0.4444 -0.1985 -1.7754
19014SOL     OW62877   0.783  10.611   8.299 -0.4175  0.5614  0.1006
19014SOL    HW162878   0.851  10.554   8.266 -0.4527  0.5668  0.0186
19014SOL    HW262879   0.765  10.579   8.388  0.2228  1.0325  0.4044
19015SOL     OW62880   4.805   2.813   9.473  0.2668 -0.0457 -0.0179
19015SOL    HW162881   4.787   2.905   9.495  0.3332 -0.2459  0.9099
19015SOL    HW262882   4.719   2.771   9.475  0.5287 -0.6669  2.8367
19016SOL     OW62883   0.139  10.071   6.132  0.5017  0.1545  0.0941
19016SOL    HW162884   0.164  10.107   6.217 -0.1687  0.2015  0.2763
19016SOL    HW262885   0.222  10.045   6.092  0.7567 -0.6778  1.1112
19017SOL     OW62886   4.480   7.806   7.509  0.3026  0.6031 -0.1701
19017SOL    HW162887   4.501   7.713   7.508 -0.6525  0.2529  2.5905
19017SOL    HW262888   4.564   7.850   7.526  0.5299  0.1279 -0.0614
19018SOL     OW62889   7.221   1.132   1.081  0.1400  0.1841  0.5707
19018SOL    HW162890   7.265   1.072   1.021  0.8760  1.2248  0.0305
19018SOL    HW262891   7.144   1.162   1.032  0.0311  0.0416  0.6552
19019SOL     OW62892   2.628   2.470   8.804 -0.2758 -0.5777 -0.5032
19019SOL    HW162893   2.534   2.462   8.790 -0.5226  0.0172  0.6472
19019SOL    HW262894   2.648   2.407   8.873  0.2227 -0.8839 -0.9173
19020SOL     OW62895   8.816   6.525   0.004  0.2364  0.4894 -0.0287
19020SOL    HW162896   8.740   6.535  -0.052  0.3804  0.1105 -0.2943
19020SOL    HW262897   8.837   6.432   0.000 -0.0090  0.3744  0.9861
19021SOL     OW62898   2.727   7.075   6.523 -0.0864  0.2826 -0.5428
19021SOL    HW162899   2.743   7.126   6.443 -0.8956  0.4701 -0.5918
19021SOL    HW262900   2.706   6.987   6.490  1.0484 -0.0362 -0.4680
19022SOL     OW62901   2.438   7.400   1.080  0.0826  0.0728 -0.0355
19022SOL    HW162902   2.489   7.383   1.000  1.1897  0.7798  0.4914
19022SOL    HW262903   2.361   7.448   1.049  0.2409 -0.1111 -0.7357
19023SOL     OW62904  10.542   1.746   0.726 -0.1355  0.0774 -0.0316
19023SOL    HW162905  10.620   1.765   0.779 -0.4758 -0.7943  0.8108
19023SOL    HW262906  10.469   1.754   0.788 -0.5918 -0.4523 -0.4938
19024SOL     OW62907   8.088  10.024   6.145 -0.9007  0.1259  0.0012
19024SOL    HW162908   8.039  10.076   6.210 -1.5180 -0.5001  0.0503
19024SOL    HW262909   8.031  10.023   6.068 -0.4080  0.4157 -0.3677
19025SOL     OW62910   5.234   5.984   0.445 -0.2810  0.4220  0.3170
19025SOL    HW162911   5.177   6.019   0.513  0.0995 -2.9065  2.6119
19025SOL    HW262912   5.181   5.918   0.400  0.4353  0.3401 -0.4420
19026SOL     OW62913   9.847   5.042   0.329 -0.0832  0.4165  0.2731
19026SOL    HW162914   9.810   4.963   0.290 -2.0630  1.8490 -0.9868
19026SOL    HW262915   9.783   5.110   0.309  1.4359  2.3144  1.4956
19027SOL     OW62916  10.214   2.439   4.044  0.3299 -0.0046 -0.2962
19027SOL    HW162917  10.225   2.357   3.996  2.7584 -0.2428  0.5117
19027SOL    HW262918  10.219   2.413   4.136  1.9874  1.0828 -0.0303
19028SOL     OW62919   8.219   3.089   0.897 -0.2584 -0.6726 -0.7480
19028SOL    HW162920   8.224   3.159   0.962  0.3773 -0.9222 -0.5184
19028SOL    HW262921   8.300   3.096   0.847 -1.5951  0.7974 -2.8982
19029SOL     OW62922   6.200   8.729   0.672 -0.1426  0.4762 -0.2731
19029SOL    HW162923   6.105   8.719   0.659 -0.2711  0.4248  0.6060
19029SOL    HW262924   6.208   8.805   0.729  0.1848 -0.7521  1.4245
19030SOL     OW62925  10.356   1.348   3.412 -0.3829  0.3489  0.4741
19030SOL    HW162926  10.320   1.270   3.370 -0.1734  0.8438 -0.6565
19030SOL    HW262927  10.441   1.319   3.445 -0.9336 -0.2871  1.3923
19031SOL     OW62928   0.284   2.866   3.382 -0.2403  0.2129  0.0121
19031SOL    HW162929   0.233   2.932   3.335 -0.0059  0.2477 -0.1957
19031SOL    HW262930   0.359   2.849   3.326 -1.3653 -1.8436 -0.9911
19032SOL     OW62931   6.592   3.205   6.154 -0.1455  0.1483 -0.2315
19032SOL    HW162932   6.543   3.164   6.082  0.0913  0.8227 -0.7877
19032SOL    HW262933   6.592   3.298   6.133  0.0060  0.3417  0.6072
19033SOL     OW62934   6.897   8.827  10.633  0.5745 -0.2263 -0.2846
19033SOL    HW162935   6.842   8.881  10.689 -0.5759 -1.3061 -0.3207
19033SOL    HW262936   6.941   8.889  10.575  0.9409  0.8187  1.0718
19034SOL     OW62937   9.800   9.625  10.713  0.7736  0.2249 -0.1566
19034SOL    HW162938   9.797   9.529  10.703  0.9006  0.1233  0.6513
19034SOL    HW262939   9.892   9.648  10.701  1.3648 -0.1781  2.7498
19035SOL     OW62940   2.123  10.286  10.572 -0.3428 -0.0764 -0.7431
19035SOL    HW162941   2.102  10.373  10.606 -0.0420 -0.0018 -0.7507
19035SOL    HW262942   2.067  10.227  10.622  0.2712  0.0068  0.0571
19036SOL     OW62943   7.114   5.127   6.728  0.1049 -0.5080  0.5523
19036SOL    HW162944   7.154   5.105   6.644  0.8517  0.2565  0.6875
19036SOL    HW262945   7.106   5.223   6.726 -2.9465 -0.6532 -0.0057
19037SOL     OW62946   1.072   5.498   3.016 -0.3797 -0.0850 -0.3060
19037SOL    HW162947   1.109   5.575   2.974 -0.9868 -0.0338 -0.7727
19037SOL    HW262948   1.072   5.431   2.947 -0.8826 -0.1637 -0.2364
19038SOL     OW62949   5.756   4.186   2.160 -0.1125 -0.3371  0.3878
19038SOL    HW162950   5.687   4.189   2.226  0.1059  0.9486  0.5791
19038SOL    HW262951   5.833   4.154   2.207  0.1588  0.9962  0.8891
19039SOL     OW62952   6.439   4.268   7.799  0.0791  0.0514  0.3465
19039SOL    HW162953   6.408   4.196   7.744  0.2522 -0.4124  0.8485
19039SOL    HW262954   6.372   4.336   7.789  0.4735  0.2630 -0.9979
19040SOL     OW62955   0.749   5.256   0.697 -0.0036  0.3496  0.5641
19040SOL    HW162956   0.831   5.214   0.721  0.6109  0.7733 -0.6962
19040SOL    HW262957   0.758   5.274   0.603 -2.8253 -2.6576 -0.4805
19041SOL     OW62958   9.417   0.833   3.269 -0.1204  0.2854  0.3737
19041SOL    HW162959   9.434   0.744   3.237 -0.8702 -0.0903  0.9660
19041SOL    HW262960   9.321   0.838   3.273 -0.0729  1.0526  0.5321
19042SOL     OW62961   8.074   6.521   9.600 -0.3472 -0.2723  0.3578
19042SOL    HW162962   8.077   6.443   9.655  0.0494 -0.8240 -0.4407
19042SOL    HW262963   8.131   6.584   9.644  0.8700 -1.0931  0.0064
19043SOL     OW62964   6.050   2.966   1.013  0.7841  0.4700  0.0640
19043SOL    HW162965   6.098   3.045   1.038  0.8983  0.7538 -1.0093
19043SOL    HW262966   6.094   2.895   1.059  0.4496  1.0581  1.3389
19044SOL     OW62967   8.086   6.858   9.243  0.1032  0.5915  0.2206
19044SOL    HW162968   8.022   6.792   9.269  0.3158  0.0464 -0.6024
19044SOL    HW262969   8.061   6.881   9.154  0.3836  1.1960  0.2978
19045SOL     OW62970   6.114   7.485   9.641 -0.1662 -0.0195 -0.3002
19045SOL    HW162971   6.079   7.412   9.691  1.2396 -1.0132 -0.6821
19045SOL    HW262972   6.061   7.488   9.561 -0.0211 -0.8505 -0.4339
19046SOL     OW62973   8.534   9.673   0.878  0.0678  0.1698 -0.5801
19046SOL    HW162974   8.573   9.586   0.866 -0.7393 -0.1767 -0.7368
19046SOL    HW262975   8.472   9.661   0.950  0.0513  0.6502 -0.5141
19047SOL     OW62976  10.322   8.618   1.275  0.2231  0.2048  0.4328
19047SOL    HW162977  10.281   8.532   1.262 -1.9745  1.3862 -1.1191
19047SOL    HW262978  10.367   8.636   1.193 -0.7165  1.1876  0.1041
19048SOL     OW62979   5.604   4.654   4.427  0.1744 -0.3903  0.0293
19048SOL    HW162980   5.648   4.623   4.506  1.0060 -1.9604 -1.0124
19048SOL    HW262981   5.513   4.625   4.437  0.1337 -0.0596  0.6567
19049SOL     OW62982   3.173   6.994   1.531  0.1629 -0.2128  0.2679
19049SOL    HW162983   3.111   7.019   1.463 -1.5290 -0.6783  1.5761
19049SOL    HW262984   3.180   7.072   1.587  0.0954 -0.4394  0.5970
19050SOL     OW62985   7.345   4.284   7.163 -0.5053  0.0117  0.0341
19050SOL    HW162986   7.378   4.333   7.088  1.5187 -0.5210  0.4951
19050SOL    HW262987   7.362   4.342   7.238  0.2392 -0.6207  0.3756
19051SOL     OW62988   6.542   3.634   3.846  0.4470  0.7111 -0.6334
19051SOL    HW162989   6.600   3.659   3.918 -1.0385 -0.7786  1.1591
19051SOL    HW262990   6.590   3.566   3.799  1.5592  1.9107 -1.3034
19052SOL     OW62991   2.027   0.673   6.974  0.0656 -0.9194  0.3577
19052SOL    HW162992   2.038   0.723   7.055  2.2512 -0.9102  0.1090
19052SOL    HW262993   2.043   0.736   6.904 -0.1473 -1.2953 -0.0373
19053SOL     OW62994   1.797  10.040  10.464  0.2374  0.1593 -0.1414
19053SOL    HW162995   1.802  10.120  10.412 -0.4845 -1.0678 -2.2144
19053SOL    HW262996   1.875  10.043  10.520 -0.1919  2.6556  0.4375
19054SOL     OW62997   3.442   3.866   3.459 -0.1806 -0.5675 -0.0134
19054SOL    HW162998   3.462   3.933   3.525  0.6378 -0.6479 -0.1674
19054SOL    HW262999   3.426   3.787   3.510  2.3750 -1.1197  0.0655
19055SOL     OW63000   2.094   8.745   1.932  0.3186 -0.0179 -0.7375
19055SOL    HW163001   2.033   8.755   1.859 -0.5982 -1.5121 -0.2268
19055SOL    HW263002   2.102   8.650   1.944 -0.1702  0.1645  1.5765
19056SOL     OW63003   7.673   6.720  10.548  0.3051  0.1850 -0.2392
19056SOL    HW163004   7.715   6.742  10.631 -1.1146  2.2805  0.0036
19056SOL    HW263005   7.731   6.757  10.481 -0.1725  1.4231  0.0065
19057SOL     OW63006   9.606  10.639   8.025  0.3168 -0.3160 -0.1297
19057SOL    HW163007   9.676  10.590   7.982 -0.7741 -1.1584 -1.0004
19057SOL    HW263008   9.649  10.683   8.098  1.7923 -0.6120 -0.7919
19058SOL     OW63009  10.509   6.330  10.449  0.8997 -1.0953  0.1228
19058SOL    HW163010  10.478   6.280  10.374 -2.6083  0.5884  0.2720
19058SOL    HW263011  10.449   6.308  10.520 -0.2095  2.4048  0.4481
19059SOL     OW63012   8.911   5.798   8.994 -0.2124  0.1487  0.0377
19059SOL    HW163013   8.827   5.834   9.022 -0.2008  0.3950 -0.2402
19059SOL    HW263014   8.974   5.831   9.058 -0.3256 -0.0366  0.2464
19060SOL     OW63015   4.309   9.982   9.090  0.5152  0.3326  0.4279
19060SOL    HW163016   4.240   9.995   9.026  0.5951 -1.2961 -0.0378
19060SOL    HW263017   4.307  10.061   9.144 -0.4355  1.1454 -0.7422
19061SOL     OW63018   2.371   1.693   3.916 -0.0929 -0.3010  0.5112
19061SOL    HW163019   2.457   1.659   3.940  0.7160 -0.6745 -2.6016
19061SOL    HW263020   2.383   1.788   3.909  0.0178 -0.3425  0.1720
19062SOL     OW63021   8.170   3.718   7.097  0.3648  0.1429  0.1948
19062SOL    HW163022   8.236   3.786   7.109 -1.1734  1.7594 -0.0794
19062SOL    HW263023   8.099   3.762   7.049 -1.1653 -1.3572  0.9893
19063SOL     OW63024   8.330   4.145   2.989  0.3907 -0.8196  0.4839
19063SOL    HW163025   8.369   4.163   3.075 -0.1143  0.2536  0.5058
19063SOL    HW263026   8.391   4.185   2.926 -0.3608  0.4031  0.4914
19064SOL     OW63027   2.355   7.589   0.757 -0.2265 -0.3624 -0.5143
19064SOL    HW163028   2.316   7.590   0.669  0.3395  0.2324 -0.7668
19064SOL    HW263029   2.390   7.677   0.768 -1.2359 -0.0950  0.7579
19065SOL     OW63030   2.528   0.929   5.675  0.5163 -0.0940  0.2865
19065SOL    HW163031   2.483   0.884   5.603  0.0714  0.2217  0.3644
19065SOL    HW263032   2.525   1.021   5.651  0.8268 -0.0395  0.4607
19066SOL     OW63033   0.066   3.848   2.240 -0.5969  0.1935  0.1215
19066SOL    HW163034   0.075   3.924   2.298  1.8196  0.6860 -0.7915
19066SOL    HW263035   0.063   3.885   2.152  1.9402 -0.7384 -0.4337
19067SOL     OW63036   9.463   8.540   8.282  0.2361 -0.8206 -0.0464
19067SOL    HW163037   9.415   8.485   8.220 -0.1408  0.8873 -1.3285
19067SOL    HW263038   9.534   8.483   8.314 -0.4377 -2.2032 -0.9132
19068SOL     OW63039   3.139   9.952   2.185 -0.1147  0.5445  0.4115
19068SOL    HW163040   3.200   9.929   2.255 -0.0005 -0.7975 -0.1195
19068SOL    HW263041   3.195   9.977   2.111 -0.2270  0.8695  0.4353
19069SOL     OW63042   6.455   8.692   8.383 -0.6807 -0.0750 -0.0969
19069SOL    HW163043   6.424   8.767   8.434 -0.1240 -0.5436  0.9666
19069SOL    HW263044   6.543   8.716   8.357 -0.7776 -0.0498 -0.4016
19070SOL     OW63045   2.822   0.542   6.070 -0.1281  0.2517 -0.5402
19070SOL    HW163046   2.727   0.550   6.069  0.0256  2.4057 -0.8774
19070SOL    HW263047   2.844   0.534   6.163 -0.5127  1.8610 -0.2848
19071SOL     OW63048   8.104   0.781   5.125 -0.6493  0.5289  0.6682
19071SOL    HW163049   8.062   0.847   5.070 -0.6622  0.6706  0.8487
19071SOL    HW263050   8.036   0.753   5.186 -0.5052  0.6994  0.9078
19072SOL     OW63051   8.134   5.826  10.453  0.1396 -0.0533 -0.4804
19072SOL    HW163052   8.113   5.897  10.513  0.8138  0.2712 -0.6167
19072SOL    HW263053   8.104   5.857  10.368 -0.0581 -0.1628 -0.4515
19073SOL     OW63054   9.198  10.187   5.372 -0.0017  0.5870  0.2429
19073SOL    HW163055   9.178  10.217   5.461 -1.5746 -0.2824  0.2167
19073SOL    HW263056   9.118  10.203   5.323  0.8639  1.0939 -1.0542
19074SOL     OW63057   8.673   1.101   8.230  0.1722 -0.2406  0.1477
19074SOL    HW163058   8.739   1.043   8.268 -1.0492 -0.7319  1.6254
19074SOL    HW263059   8.597   1.093   8.288 -0.7894  1.2068 -0.8231
19075SOL     OW63060   7.234   6.893  10.049 -0.0935 -0.9320  0.4686
19075SOL    HW163061   7.276   6.847  10.122  2.1988 -0.2320 -0.3334
19075SOL    HW263062   7.251   6.837   9.973  1.3686  0.4160 -0.2452
19076SOL     OW63063   1.826   6.369   4.604  1.0055  0.0191  0.1875
19076SOL    HW163064   1.840   6.419   4.523 -0.8284  0.7444  0.2639
19076SOL    HW263065   1.784   6.289   4.575 -0.1075  0.4963  0.4404
19077SOL     OW63066   2.459   0.204   9.144 -0.1363  0.3920  0.3174
19077SOL    HW163067   2.424   0.131   9.094  2.0467  1.0993 -2.4773
19077SOL    HW263068   2.425   0.282   9.100 -1.6338  1.1724  2.6444
19078SOL     OW63069  10.183   1.763   0.409 -0.2856  0.7945 -0.6217
19078SOL    HW163070  10.099   1.788   0.448 -0.6068 -0.7244 -0.2939
19078SOL    HW263071  10.214   1.690   0.462 -0.2366 -0.6442 -2.5194
19079SOL     OW63072   8.486   0.488   4.215  0.1158 -0.4605  0.0882
19079SOL    HW163073   8.578   0.495   4.190  0.3066  0.3692  0.9368
19079SOL    HW263074   8.440   0.547   4.155  0.3119  0.0719  0.4548
19080SOL     OW63075   3.099   0.819   5.313 -0.2172 -0.0344  0.5427
19080SOL    HW163076   3.019   0.771   5.331 -0.3269 -0.7186 -1.5022
19080SOL    HW263077   3.161   0.752   5.283 -0.0450  0.9307 -1.3693
19081SOL     OW63078   1.586   2.194   2.025 -0.0572  0.1887 -0.5298
19081SOL    HW163079   1.622   2.162   2.108 -2.5680  0.0204  0.5870
19081SOL    HW263080   1.625   2.139   1.959  2.3385  0.5839  0.4606
19082SOL     OW63081   9.424  10.508   3.931 -0.1940  0.0073  0.3707
19082SOL    HW163082   9.332  10.502   3.956  0.2922  2.1009  2.9826
19082SOL    HW263083   9.469  10.450   3.992  0.4131  0.4506  0.3444
19083SOL     OW63084   9.226   4.835  10.644 -0.3870 -0.4507 -0.5269
19083SOL    HW163085   9.216   4.776  10.719 -0.4775 -0.9782 -0.9444
19083SOL    HW263086   9.194   4.784  10.569 -0.5697  0.1672 -0.8823
19084SOL     OW63087   6.470   8.638   5.659 -0.1469  0.2527 -0.1740
19084SOL    HW163088   6.410   8.710   5.681 -2.8913 -1.2076 -2.2992
19084SOL    HW263089   6.430   8.560   5.698  0.9430 -0.6467 -0.7963
19085SOL     OW63090   8.858   9.581   7.208  0.3195  0.3632  0.5615
19085SOL    HW163091   8.819   9.535   7.134  1.5360  0.7148 -0.3281
19085SOL    HW263092   8.931   9.525   7.236  0.4989  0.7262  0.8284
19086SOL     OW63093   1.890  10.507   4.788 -0.4714  0.1652 -0.0188
19086SOL    HW163094   1.941  10.426   4.781 -0.8138  0.0267 -1.2077
19086SOL    HW263095   1.935  10.569   4.730 -1.6185  0.0412 -1.0711
19087SOL     OW63096   1.073   1.335   5.238 -0.0271 -0.0891  0.4506
19087SOL    HW163097   1.138   1.267   5.220 -1.2536 -1.0867 -0.4634
19087SOL    HW263098   1.098   1.409   5.183 -0.2229 -0.8482 -0.7011
19088SOL     OW63099   1.435   2.589   8.635 -0.3870 -0.0855  0.4023
19088SOL    HW163100   1.496   2.549   8.697  0.0364  2.5560  1.8324
19088SOL    HW263101   1.491   2.631   8.569 -0.7062  0.3576  0.4070
19089SOL     OW63102   6.134   0.270   9.697  0.1207  0.3873  0.4523
19089SOL    HW163103   6.169   0.357   9.718 -0.7565  0.8050  0.2190
19089SOL    HW263104   6.100   0.279   9.608 -0.3429 -0.0742  0.5788
19090SOL     OW63105   2.553   0.828   8.655 -0.2731  0.2856  0.3468
19090SOL    HW163106   2.630   0.825   8.598 -1.9405  1.0335 -2.1303
19090SOL    HW263107   2.584   0.871   8.734  2.3039 -1.2690  0.3173
19091SOL     OW63108   4.345   6.579   6.989 -0.1276  0.3412 -0.4281
19091SOL    HW163109   4.302   6.623   7.062  0.2560 -0.4293  0.2783
19091SOL    HW263110   4.400   6.647   6.950 -0.1122  0.6927  0.1835
19092SOL     OW63111   5.069  10.559   1.673 -0.0288  0.3073 -0.3049
19092SOL    HW163112   5.037  10.649   1.674  1.6611  0.9581  1.3800
19092SOL    HW263113   4.995  10.508   1.641 -1.1755  2.2336 -0.9031
19093SOL     OW63114   5.402   4.410   0.556 -0.1095 -0.2115 -0.3062
19093SOL    HW163115   5.398   4.500   0.586  1.8588 -0.4416  0.8726
19093SOL    HW263116   5.392   4.416   0.461  1.0344  1.3892 -0.3743
19094SOL     OW63117   5.704   7.586   4.805  0.2623 -0.0759  0.1520
19094SOL    HW163118   5.666   7.671   4.826  0.7483  0.1953 -0.0563
19094SOL    HW263119   5.706   7.584   4.709 -1.1210 -0.9363  0.1266
19095SOL     OW63120   5.179   3.136   3.374  0.8249 -0.6056  0.3348
19095SOL    HW163121   5.187   3.046   3.340 -2.3057 -0.8623 -0.0479
19095SOL    HW263122   5.138   3.184   3.303 -1.5425  0.0171  2.0170
19096SOL     OW63123   1.124   9.365   6.404 -0.4749  0.2493  0.3751
19096SOL    HW163124   1.163   9.444   6.440 -1.0902  0.8837 -0.3105
19096SOL    HW263125   1.116   9.383   6.310 -0.2364 -0.7937  0.1383
19097SOL     OW63126   9.156   5.298   5.169  0.6738 -0.2798 -0.2766
19097SOL    HW163127   9.098   5.370   5.147  0.0162 -0.4787  0.7254
19097SOL    HW263128   9.175   5.309   5.262  2.1157 -0.3238 -0.5283
19098SOL     OW63129   0.874   9.183   7.366 -0.3940  0.0393 -0.2465
19098SOL    HW163130   0.869   9.278   7.360 -1.0061 -0.0750 -2.5346
19098SOL    HW263131   0.785   9.153   7.349 -0.7364 -0.9600  2.6909
19099SOL     OW63132   9.288   0.485   2.361  0.0955  0.0333  0.1809
19099SOL    HW163133   9.278   0.390   2.365 -0.2425  0.0678  0.1276
19099SOL    HW263134   9.336   0.501   2.279  0.0505 -0.0804  0.1328
19100SOL     OW63135   6.282   6.702   5.543 -0.4059 -0.5553 -0.4495
19100SOL    HW163136   6.210   6.763   5.529 -0.9208 -0.1623  3.0219
19100SOL    HW263137   6.242   6.616   5.542 -0.5123 -0.5036 -0.7251
19101SOL     OW63138   4.886   4.773   3.814  0.3771 -0.5054  0.1755
19101SOL    HW163139   4.968   4.725   3.804 -0.1412 -1.4844  0.5344
19101SOL    HW263140   4.856   4.751   3.902 -0.6183 -0.7038 -0.2010
19102SOL     OW63141   5.954   0.449   3.025  0.5938  0.8358  0.3948
19102SOL    HW163142   5.990   0.507   2.958  0.9681 -1.0270 -1.1089
19102SOL    HW263143   6.021   0.382   3.037 -0.7001 -0.4991  0.4631
19103SOL     OW63144   8.943   0.412   0.583  0.3104 -0.2922 -0.3361
19103SOL    HW163145   8.925   0.484   0.643 -0.7490 -1.3231  0.6179
19103SOL    HW263146   8.961   0.337   0.639  0.3170 -1.0374 -1.3030
19104SOL     OW63147   2.538  10.507   8.060  0.0500  0.0029  0.1341
19104SOL    HW163148   2.606  10.451   8.098 -1.0106 -1.2247  0.2893
19104SOL    HW263149   2.469  10.509   8.127 -0.5851  0.2354 -0.5138
19105SOL     OW63150  10.436   5.472   9.012  0.2708  0.0611  0.4834
19105SOL    HW163151  10.523   5.476   9.053  1.1958 -0.3356 -1.3072
19105SOL    HW263152  10.449   5.513   8.926 -1.4279  0.3688  0.3531
19106SOL     OW63153   5.698   7.431  10.522  0.1256 -0.2822  0.2585
19106SOL    HW163154   5.700   7.446  10.617 -3.0508 -0.4403  0.4669
19106SOL    HW263155   5.645   7.352  10.511 -3.0628  1.9006 -1.6908
19107SOL     OW63156   4.311   9.293   6.732  0.0584 -0.0577  0.0358
19107SOL    HW163157   4.281   9.312   6.821  0.8302  1.1374  0.0657
19107SOL    HW263158   4.277   9.366   6.680  0.4588 -0.2210 -0.4596
19108SOL     OW63159  10.356   0.785  10.308 -0.5458  0.7482  0.6268
19108SOL    HW163160  10.390   0.767  10.396  1.6735 -1.8585 -0.6206
19108SOL    HW263161  10.308   0.706  10.284 -1.0852  1.4058 -0.5364
19109SOL     OW63162   1.526   0.416   8.616  0.3708 -0.1589 -0.3153
19109SOL    HW163163   1.473   0.466   8.555 -0.8480 -1.2655 -0.2148
19109SOL    HW263164   1.499   0.325   8.603  1.5058 -0.6438  0.4893
19110SOL     OW63165   7.266   9.516   1.577 -0.1262 -0.5524 -0.2132
19110SOL    HW163166   7.346   9.470   1.552  0.1675  0.4736 -1.2416
19110SOL    HW263167   7.205   9.499   1.504 -0.7363 -1.0197  0.3876
19111SOL     OW63168   3.871   2.693   6.157 -0.0913  0.1552 -0.2131
19111SOL    HW163169   3.892   2.749   6.082 -0.8626 -1.2981 -1.5651
19111SOL    HW263170   3.785   2.721   6.186 -0.1706  0.1290 -0.4287
19112SOL     OW63171   1.649   8.339   9.984  0.5494 -0.6808 -0.0078
19112SOL    HW163172   1.695   8.418  10.014 -1.8679 -0.2914  3.0747
19112SOL    HW263173   1.693   8.267  10.028 -0.2384 -0.5452  1.0221
19113SOL     OW63174   4.858   5.212   8.477 -0.4464 -0.4301  0.4063
19113SOL    HW163175   4.905   5.208   8.394  1.5864 -1.4386  1.5355
19113SOL    HW263176   4.784   5.153   8.465 -0.5898 -0.0268 -0.9080
19114SOL     OW63177   7.775   1.409   7.805 -0.5324  0.1436 -0.2778
19114SOL    HW163178   7.715   1.335   7.817 -1.4091  0.7561 -0.7544
19114SOL    HW263179   7.717   1.485   7.794  0.3331  0.7077 -1.0689
19115SOL     OW63180   3.660   4.786   1.743  0.1279  0.1304 -0.1921
19115SOL    HW163181   3.675   4.700   1.703 -0.5637 -0.5105  0.8825
19115SOL    HW263182   3.739   4.835   1.723  0.6011 -0.8013 -0.6999
19116SOL     OW63183   4.187   3.032   3.932 -0.0960 -0.0788  0.3724
19116SOL    HW163184   4.214   3.057   4.021 -1.3894 -1.0526  1.0679
19116SOL    HW263185   4.210   2.939   3.925 -0.7018 -0.2011 -0.0314
19117SOL     OW63186   8.565   3.089   7.454  0.1651 -0.6970  0.1278
19117SOL    HW163187   8.590   3.114   7.365  0.5104 -1.0690  0.1180
19117SOL    HW263188   8.625   3.018   7.476 -0.9873 -1.7189  0.0502
19118SOL     OW63189   2.459   7.272   9.227  0.2376  0.4797 -0.8470
19118SOL    HW163190   2.435   7.291   9.318  1.1412  0.7907 -0.6617
19118SOL    HW263191   2.395   7.207   9.198  0.6262 -0.4824  0.3816
19119SOL     OW63192   1.287   3.149   0.783  0.0787  0.8665  0.4402
19119SOL    HW163193   1.220   3.096   0.740  0.5965  0.3510  0.2591
19119SOL    HW263194   1.274   3.237   0.748 -0.1944  0.6698  0.0393
19120SOL     OW63195   5.523   1.547   4.863 -0.0865 -0.3233  0.2822
19120SOL    HW163196   5.584   1.615   4.890  0.8705 -1.3832  0.8639
19120SOL    HW263197   5.549   1.525   4.774  1.7085 -2.1062  1.1542
19121SOL     OW63198   7.495   2.358   2.407  0.5335 -0.2809 -0.5999
19121SOL    HW163199   7.548   2.288   2.370  1.7823  0.0319  0.5377
19121SOL    HW263200   7.443   2.390   2.333 -0.0711 -2.3745 -1.1340
19122SOL     OW63201   9.191   0.808   7.221 -0.1838  0.6409  0.2955
19122SOL    HW163202   9.209   0.811   7.127 -0.2184 -0.7473  0.2268
19122SOL    HW263203   9.262   0.859   7.260 -0.4008  1.5810 -0.5062
19123SOL     OW63204   0.331   9.944   6.539  0.4038 -0.3541 -0.3597
19123SOL    HW163205   0.357   9.908   6.624  0.3962  0.3675 -0.0417
19123SOL    HW263206   0.243   9.909   6.525  0.7160 -1.1341 -0.4650
19124SOL     OW63207   5.983   4.516   2.681 -0.1743  0.2102 -0.0349
19124SOL    HW163208   5.932   4.592   2.655 -2.3098 -0.4945  1.7424
19124SOL    HW263209   5.980   4.457   2.605 -1.4618  0.4706 -0.1990
19125SOL     OW63210   0.351   8.221   1.363 -0.1238  0.3541 -0.2408
19125SOL    HW163211   0.260   8.211   1.337  0.1617  1.1256 -1.6331
19125SOL    HW263212   0.380   8.302   1.322  0.6182  1.2531  1.9128
19126SOL     OW63213   4.095   9.314   4.457  0.4277  0.1811  0.1711
19126SOL    HW163214   4.000   9.321   4.461  0.4664  2.3902 -1.1587
19126SOL    HW263215   4.123   9.393   4.411  2.6781 -1.7390 -2.0739
19127SOL     OW63216   0.177   4.170   6.309 -0.3013  0.9288 -0.2985
19127SOL    HW163217   0.107   4.233   6.294  0.4357  2.5091  2.2825
19127SOL    HW263218   0.162   4.102   6.244 -3.3476  1.9180 -0.7899
19128SOL     OW63219   5.408   1.549  10.296 -0.1429  0.4941 -0.1847
19128SOL    HW163220   5.420   1.472  10.351  1.1818  1.0759  0.3706
19128SOL    HW263221   5.342   1.601  10.342 -0.1278  0.2747  0.0843
19129SOL     OW63222   9.045  10.005   4.778 -0.1199 -0.0959  0.2292
19129SOL    HW163223   9.093  10.009   4.861 -0.6476  1.1748  0.5117
19129SOL    HW263224   8.956  10.030   4.802 -0.8552 -2.0254 -0.3483
19130SOL     OW63225   4.923   8.760   6.339  0.0113  0.1004  0.3736
19130SOL    HW163226   4.830   8.738   6.337 -0.5807  2.2528  1.7560
19130SOL    HW263227   4.948   8.766   6.247 -2.1158  2.8485 -0.1459
19131SOL     OW63228   9.821   1.696   4.909 -0.0231 -0.2418 -0.0600
19131SOL    HW163229   9.861   1.720   4.993  0.3672  1.0214 -0.5828
19131SOL    HW263230   9.728   1.691   4.928  0.1143 -0.5423  0.5723
19132SOL     OW63231   9.807   5.766   0.901  0.0145  0.3187  0.0220
19132SOL    HW163232   9.744   5.807   0.961  0.8911  1.9638 -0.1063
19132SOL    HW263233   9.759   5.756   0.819 -0.6327 -0.1841  0.4594
19133SOL     OW63234   9.523   2.499   7.071 -0.3810  0.2306 -0.5614
19133SOL    HW163235   9.513   2.571   7.009 -1.5254 -1.0424 -1.9616
19133SOL    HW263236   9.559   2.427   7.018  1.6143 -0.0049  0.9892
19134SOL     OW63237   8.228   0.356   9.726 -0.0177 -0.1822 -0.1771
19134SOL    HW163238   8.237   0.263   9.748  2.1800 -0.2273 -1.0893
19134SOL    HW263239   8.186   0.395   9.803 -2.1515 -2.0865 -0.2502
19135SOL     OW63240   5.913   1.309   3.709  0.2003 -0.2388  0.2285
19135SOL    HW163241   5.931   1.403   3.714 -0.8111 -0.0453  0.5953
19135SOL    HW263242   5.969   1.271   3.777 -0.5934  0.3187  1.2411
19136SOL     OW63243   4.737   5.163   6.694 -0.5679  0.0438 -0.2659
19136SOL    HW163244   4.760   5.118   6.613  0.1204 -3.4811  1.6854
19136SOL    HW263245   4.641   5.168   6.692 -0.5235  2.9857 -2.5871
19137SOL     OW63246   0.804   4.094   4.013 -0.0924  0.1055  0.1699
19137SOL    HW163247   0.843   4.106   4.100  0.6391 -1.1367  0.0392
19137SOL    HW263248   0.845   4.162   3.959  0.5446 -0.0256  0.4704
19138SOL     OW63249   3.441   8.260   8.862  0.1404  0.2917  0.1544
19138SOL    HW163250   3.368   8.216   8.817 -0.9978  0.5295  1.6900
19138SOL    HW263251   3.517   8.205   8.844 -0.6624 -0.6711 -0.4355
19139SOL     OW63252   2.299   9.528   1.931 -0.0241 -0.0082 -0.5186
19139SOL    HW163253   2.391   9.551   1.920 -0.0405  1.6548  1.8303
19139SOL    HW263254   2.252   9.588   1.873  0.2676  1.8226  1.0315
19140SOL     OW63255   8.835   3.360   1.384  0.2486  0.1817 -0.1653
19140SOL    HW163256   8.802   3.434   1.334 -0.0418 -0.0333 -0.2969
19140SOL    HW263257   8.917   3.390   1.421 -0.0210  0.6728  0.0352
19141SOL     OW63258   8.896   5.689   8.460 -0.0539 -0.8462  0.1356
19141SOL    HW163259   8.915   5.612   8.513 -1.3602 -0.6102  0.9707
19141SOL    HW263260   8.887   5.760   8.523  0.2212 -0.1788 -0.5561
19142SOL     OW63261   7.361   6.756   9.834  0.0840  0.4973 -0.2428
19142SOL    HW163262   7.389   6.667   9.814  0.9092  0.9741 -1.2930
19142SOL    HW263263   7.437   6.811   9.815 -0.1117  1.3453  1.2667
19143SOL     OW63264   4.307   8.274   0.352 -0.3649  0.1809 -0.2803
19143SOL    HW163265   4.393   8.251   0.386 -0.3367 -0.5006 -0.7814
19143SOL    HW263266   4.245   8.239   0.416 -0.2747  2.1621  0.9768
19144SOL     OW63267   1.744   9.550   9.311  0.1412  0.1881  0.2114
19144SOL    HW163268   1.717   9.602   9.235 -0.9878  0.7239  0.9510
19144SOL    HW263269   1.751   9.460   9.277 -1.4088  0.2389 -0.3144
19145SOL     OW63270   7.711   2.298   7.434  0.5646  0.0188  0.0202
19145SOL    HW163271   7.722   2.376   7.488 -0.6652 -0.7218  1.3927
19145SOL    HW263272   7.779   2.307   7.366  1.2474  1.6537  0.8509
19146SOL     OW63273   8.608   9.589   8.182 -0.1578  0.5356  0.1363
19146SOL    HW163274   8.610   9.631   8.096 -0.3690  0.3074  0.0198
19146SOL    HW263275   8.671   9.639   8.235  1.4609 -0.5457 -0.7054
19147SOL     OW63276   9.657   3.847  10.514 -0.1819  0.5226  0.3082
19147SOL    HW163277   9.744   3.825  10.481 -0.7427  0.1999 -1.0310
19147SOL    HW263278   9.602   3.854  10.435 -1.0957  1.9657  1.0113
19148SOL     OW63279   9.680   3.762   7.342 -0.3018 -0.1417 -0.6668
19148SOL    HW163280   9.722   3.687   7.300 -2.3421 -1.4052 -0.6252
19148SOL    HW263281   9.616   3.793   7.278 -1.9226 -0.7108  0.6031
19149SOL     OW63282   0.560   8.835   9.500  0.2810 -0.0764 -0.0864
19149SOL    HW163283   0.514   8.911   9.537  0.1142  0.1073 -0.6660
19149SOL    HW263284   0.492   8.768   9.491 -0.0343  0.4007 -1.5318
19150SOL     OW63285   5.037   7.727   5.553  0.1397  0.1093  0.9297
19150SOL    HW163286   4.951   7.760   5.577 -0.5119  0.7859 -1.9040
19150SOL    HW263287   5.098   7.795   5.583 -0.5701  0.8142  0.7941
19151SOL     OW63288   9.193   0.031   4.476 -0.0075 -0.2265  0.2233
19151SOL    HW163289   9.201   0.086   4.398 -0.0105 -0.3345  0.1480
19151SOL    HW263290   9.225  -0.055   4.449 -0.1192 -0.2952  0.3075
19152SOL     OW63291   4.005   1.924   5.776 -0.4255  0.0385 -0.0834
19152SOL    HW163292   4.015   1.981   5.852 -1.9610  0.9680 -0.5371
19152SOL    HW263293   4.064   1.960   5.710  0.0103 -0.0484  0.2570
19153SOL     OW63294   0.635   3.129   4.502 -0.2118 -0.4562 -0.1137
19153SOL    HW163295   0.685   3.067   4.556 -0.4097  0.8610  1.6657
19153SOL    HW263296   0.645   3.096   4.413  1.7026 -1.6881  0.4856
19154SOL     OW63297   5.731   8.024   2.283 -0.1243 -0.0966 -0.6278
19154SOL    HW163298   5.642   7.991   2.295  0.2861 -1.4673 -1.1674
19154SOL    HW263299   5.743   8.029   2.188  0.4266 -0.0671 -0.5612
19155SOL     OW63300   5.689   9.365   8.560  0.0576 -0.8250  0.0417
19155SOL    HW163301   5.718   9.278   8.587  1.0579  0.2801  2.9194
19155SOL    HW263302   5.769   9.414   8.542 -0.2284  0.3922  1.7424
19156SOL     OW63303   7.358   2.047   3.857  0.5634  0.4947 -0.1264
19156SOL    HW163304   7.293   2.115   3.839  0.9974  1.2342  0.9686
19156SOL    HW263305   7.309   1.978   3.901  0.2563  0.4452 -0.5519
19157SOL     OW63306   0.362   1.940   3.538 -0.6082  0.7985  0.2843
19157SOL    HW163307   0.353   1.973   3.449  0.2403  0.8516  0.2068
19157SOL    HW263308   0.456   1.947   3.557 -0.3853 -1.4565  0.3043
19158SOL     OW63309   5.717   6.808   7.937  0.3659 -0.1179  0.1110
19158SOL    HW163310   5.716   6.849   8.024 -0.3327 -2.0438  1.0819
19158SOL    HW263311   5.748   6.719   7.953  1.1635 -0.2245 -1.7945
19159SOL     OW63312   0.147   3.611   4.161  0.7851 -0.1962 -0.1995
19159SOL    HW163313   0.167   3.543   4.225 -2.6588 -0.8314  0.4480
19159SOL    HW263314   0.213   3.679   4.176  3.1624 -2.4908  0.4528
19160SOL     OW63315   5.109   4.325   4.919 -0.1275 -0.0346  0.4275
19160SOL    HW163316   5.172   4.255   4.937 -1.5210 -1.3993  0.1329
19160SOL    HW263317   5.163   4.405   4.918  1.4761 -1.0541  0.9144
19161SOL     OW63318   0.640   2.888   0.050  0.4364 -0.5562 -0.0012
19161SOL    HW163319   0.583   2.875  -0.026  1.3130 -0.9862 -0.5940
19161SOL    HW263320   0.580   2.895   0.124 -0.7237  3.0739 -1.0599
19162SOL     OW63321   7.568   3.474   8.317 -0.2661  0.4324  0.3907
19162SOL    HW163322   7.605   3.557   8.349 -1.0220  0.6525  0.7146
19162SOL    HW263323   7.521   3.498   8.237 -0.6989  0.3622  0.6233
19163SOL     OW63324   8.000   6.829   0.065  0.1037  0.1157 -0.4151
19163SOL    HW163325   8.001   6.827  -0.030 -0.9776 -0.9913 -0.4308
19163SOL    HW263326   7.943   6.756   0.090  1.7313 -0.6967  1.1323
19164SOL     OW63327   9.101   5.933   9.968  0.1719 -0.4638 -0.1265
19164SOL    HW163328   9.058   5.906   9.887 -1.8451  0.4184  0.5743
19164SOL    HW263329   9.144   6.016   9.946 -1.9050  0.7426  0.0670
19165SOL     OW63330   5.459   1.699   5.618 -0.6263 -0.2169 -0.4931
19165SOL    HW163331   5.408   1.661   5.547 -1.1998 -1.5406  0.5719
19165SOL    HW263332   5.431   1.651   5.696  1.0356  0.1728  0.4069
19166SOL     OW63333   8.492   8.496   8.410 -0.0851  0.2561  0.1215
19166SOL    HW163334   8.417   8.448   8.376 -0.2950 -0.9908  2.1634
19166SOL    HW263335   8.541   8.522   8.332 -1.1527 -1.3337 -1.1551
19167SOL     OW63336   3.988   3.923   9.375 -0.1689 -0.3013 -0.0272
19167SOL    HW163337   4.062   3.937   9.317  1.4394 -1.4654  1.6235
19167SOL    HW263338   3.981   4.003   9.427  0.1512 -0.3040  0.0208
19168SOL     OW63339   8.425   7.726   0.529 -0.5720  0.1484  0.4565
19168SOL    HW163340   8.519   7.731   0.542 -0.0995 -1.8970 -1.5521
19168SOL    HW263341   8.411   7.756   0.439 -1.8911  0.7705  0.8432
19169SOL     OW63342   8.609   6.168   2.190  0.4921  0.3008  0.2952
19169SOL    HW163343   8.587   6.260   2.175 -1.7123 -0.3080 -0.5581
19169SOL    HW263344   8.599   6.155   2.284 -0.6929  0.6032  0.2233
19170SOL     OW63345   7.909   0.737   8.484 -0.0495  0.4288 -0.4911
19170SOL    HW163346   7.891   0.801   8.416  0.3006  0.1986 -0.8041
19170SOL    HW263347   7.991   0.768   8.525 -1.1314  1.5172  0.9769
19171SOL     OW63348   1.683   1.306   1.945 -0.3247 -0.1207 -0.6198
19171SOL    HW163349   1.763   1.352   1.970 -0.8111  0.0772  0.6445
19171SOL    HW263350   1.677   1.233   2.007 -2.1043  0.9775  0.6017
19172SOL     OW63351   7.055   2.467   0.907 -0.0225  0.0654 -0.5016
19172SOL    HW163352   7.050   2.412   0.829  0.1596 -2.8933  1.4464
19172SOL    HW263353   6.971   2.453   0.951  0.8900 -0.4339  1.1325
19173SOL     OW63354   0.373   7.938   1.508  0.1673 -0.0949  0.1216
19173SOL    HW163355   0.348   7.967   1.420 -0.2524 -0.7490  0.0166
19173SOL    HW263356   0.449   7.883   1.494  0.5399  0.3778  0.2499
19174SOL     OW63357   8.265   9.193   6.843 -0.4456  0.7347 -0.0107
19174SOL    HW163358   8.247   9.215   6.934 -2.7750 -0.0159 -0.2205
19174SOL    HW263359   8.292   9.101   6.845  1.0889  1.1619  0.0448
19175SOL     OW63360   5.380   2.920   1.586 -0.1439 -0.4382  0.1764
19175SOL    HW163361   5.458   2.898   1.636  0.1461 -0.0139 -0.0871
19175SOL    HW263362   5.327   2.973   1.645  0.6637  0.9360 -0.2845
19176SOL     OW63363   2.866   4.422   8.095 -0.4287  0.4769  0.3715
19176SOL    HW163364   2.905   4.379   8.171  1.2599  0.8526 -0.2224
19176SOL    HW263365   2.895   4.369   8.021 -3.7847 -1.1222  0.0577
19177SOL     OW63366   3.785   7.379   8.622 -0.0416  0.5276 -0.1566
19177SOL    HW163367   3.811   7.399   8.712  1.0286 -0.4512 -0.2147
19177SOL    HW263368   3.712   7.318   8.631 -0.1752  0.7157  0.0403
19178SOL     OW63369   9.286   8.530  10.707  0.0316 -0.6360  0.2938
19178SOL    HW163370   9.306   8.577  10.788 -1.5826  0.2087  0.2585
19178SOL    HW263371   9.369   8.524  10.660  0.4421  1.5794  0.6407
19179SOL     OW63372   5.926   2.882   7.305  0.4326 -0.0752 -0.1598
19179SOL    HW163373   5.973   2.837   7.375  1.5128 -0.7312 -1.2557
19179SOL    HW263374   5.940   2.827   7.228 -1.5376  0.1175 -0.6974
19180SOL     OW63375   7.470   3.596   2.802  0.1484 -0.2725 -0.2633
19180SOL    HW163376   7.433   3.684   2.812 -0.5863 -0.5748 -0.2061
19180SOL    HW263377   7.523   3.601   2.723 -0.0853  0.1645 -0.3976
19181SOL     OW63378   4.197   9.797   8.126  0.0117  0.1597 -0.0464
19181SOL    HW163379   4.281   9.842   8.120 -0.9647  1.8938 -1.9558
19181SOL    HW263380   4.219   9.709   8.156  2.3759  0.8813  0.5130
19182SOL     OW63381   6.777   3.921   3.319  0.0410 -0.5672 -0.0181
19182SOL    HW163382   6.757   3.876   3.401 -0.3150 -0.6251 -0.1371
19182SOL    HW263383   6.866   3.894   3.298  0.4618  0.1262  0.7989
19183SOL     OW63384   3.092   7.999   0.448  0.3130 -0.1397 -0.2618
19183SOL    HW163385   3.168   7.951   0.416 -0.3619 -0.2615 -1.7302
19183SOL    HW263386   3.030   7.930   0.475 -0.1706 -0.0831 -1.2154
19184SOL     OW63387   6.387   1.526   7.622  0.6353  0.8345  0.0842
19184SOL    HW163388   6.462   1.567   7.579  0.4048  1.4359  0.2501
19184SOL    HW263389   6.375   1.575   7.703 -0.6269  1.4831 -0.4652
19185SOL     OW63390   3.612   4.513   7.016  0.2587 -0.2535  0.1688
19185SOL    HW163391   3.548   4.581   7.037 -0.5072 -0.5230 -1.1945
19185SOL    HW263392   3.665   4.550   6.945 -0.2914 -1.1261 -0.7185
19186SOL     OW63393  10.040   8.441   8.078  0.2873 -0.6472 -0.3799
19186SOL    HW163394   9.974   8.497   8.119  0.6844 -0.8005  0.4752
19186SOL    HW263395  10.077   8.390   8.149  0.3710 -1.5700 -1.0592
19187SOL     OW63396   9.138   4.468   9.564  0.0156 -0.2602 -0.2609
19187SOL    HW163397   9.065   4.407   9.549  1.5697 -2.5607  0.8691
19187SOL    HW263398   9.112   4.519   9.640 -1.5655  0.9902 -1.5744
19188SOL     OW63399   9.428   5.714   2.637  0.3186 -0.2088 -0.1562
19188SOL    HW163400   9.468   5.777   2.697 -2.5283  2.0321 -0.3872
19188SOL    HW263401   9.339   5.702   2.670  0.2733 -3.0566 -0.9941
19189SOL     OW63402   4.727   7.264   0.427  0.3521 -0.3377  0.9419
19189SOL    HW163403   4.659   7.196   0.420 -0.0162  0.1803 -0.9621
19189SOL    HW263404   4.782   7.251   0.350 -0.2550  2.0680  0.0291
19190SOL     OW63405   7.077   3.988   0.983 -0.1641 -0.2270 -0.5716
19190SOL    HW163406   7.171   3.991   1.003 -0.4262 -1.7664  1.1888
19190SOL    HW263407   7.059   4.073   0.944  1.8051  0.4379 -0.1900
19191SOL     OW63408   8.483   7.582   1.420  0.5299  0.0635 -0.0676
19191SOL    HW163409   8.544   7.614   1.353  1.8940  2.7102  2.1876
19191SOL    HW263410   8.406   7.638   1.410 -0.7560 -1.8300 -1.5019
19192SOL     OW63411  10.192   5.563   2.527  0.0989 -0.2501 -0.0734
19192SOL    HW163412  10.106   5.603   2.543  1.3169  2.3874  0.5923
19192SOL    HW263413  10.253   5.619   2.576  2.2340 -1.8178 -0.8003
19193SOL     OW63414   0.410  10.470   6.432  0.4164 -0.2903 -0.7593
19193SOL    HW163415   0.474  10.526   6.475  0.2640  0.9508 -2.0781
19193SOL    HW263416   0.332  10.476   6.488  0.6718  0.1624 -0.4438
19194SOL     OW63417   4.526   9.692   7.498  0.1447 -0.3151  0.3979
19194SOL    HW163418   4.454   9.661   7.553  0.1592 -0.4515  0.3392
19194SOL    HW263419   4.602   9.641   7.524  0.2909  0.0341  0.6635
19195SOL     OW63420   8.162   3.922   6.652 -0.0015 -0.2226  0.1913
19195SOL    HW163421   8.205   3.998   6.613  0.5901 -1.1855 -1.0945
19195SOL    HW263422   8.083   3.957   6.693  0.6300  1.1770  0.2587
19196SOL     OW63423   3.949   1.174   4.341 -0.4011  0.1161 -0.9373
19196SOL    HW163424   3.961   1.210   4.253  1.1786 -1.7076 -1.5396
19196SOL    HW263425   4.038   1.158   4.372 -0.9798 -0.4928  0.4704
19197SOL     OW63426   6.757  10.122   2.118 -0.2183 -0.4982 -0.0421
19197SOL    HW163427   6.834  10.118   2.175  0.2988 -1.0308 -0.7495
19197SOL    HW263428   6.725  10.032   2.115  1.0116 -0.9443 -2.2043
19198SOL     OW63429   6.222   5.279   8.054  0.3012  0.3184 -0.6359
19198SOL    HW163430   6.210   5.185   8.041  0.3312  0.2107  0.0762
19198SOL    HW263431   6.156   5.303   8.119  0.7650  0.6572 -0.2881
19199SOL     OW63432   5.646   6.963   8.672  0.6559  0.4090  0.3436
19199SOL    HW163433   5.723   7.015   8.650 -0.1579  1.7757  0.5830
19199SOL    HW263434   5.579   7.028   8.695 -0.4393 -0.7516  0.5586
19200SOL     OW63435   4.940  10.644   3.667  0.6575  0.7768 -0.3014
19200SOL    HW163436   4.885  10.598   3.730  1.4528 -0.4457 -0.4604
19200SOL    HW263437   4.881  10.665   3.595  0.4986 -1.0812 -0.7615
19201SOL     OW63438   4.265   9.257   7.589  0.2388  0.3407  0.4797
19201SOL    HW163439   4.176   9.287   7.609  0.0442  0.8353 -1.0492
19201SOL    HW263440   4.255   9.164   7.569  0.4723 -0.2292  2.7606
19202SOL     OW63441   5.312   9.119   2.378  0.4425  0.6552 -0.0871
19202SOL    HW163442   5.389   9.087   2.425 -0.3416  1.4314  1.8538
19202SOL    HW263443   5.260   9.041   2.361  1.4126  0.1804 -1.0007
19203SOL     OW63444   7.277   3.624   4.245  0.2889 -0.4701  0.5260
19203SOL    HW163445   7.183   3.619   4.227  0.5270 -0.5470 -0.8600
19203SOL    HW263446   7.283   3.644   4.338 -1.1033 -0.2183  0.5880
19204SOL     OW63447   0.202   0.535   8.326 -0.7229 -0.1604  0.2211
19204SOL    HW163448   0.229   0.558   8.238 -2.7653 -2.0441 -0.9887
19204SOL    HW263449   0.183   0.619   8.368  1.7097  0.8738 -0.5345
19205SOL     OW63450   7.289   8.856   6.557  0.4529  0.1135 -0.6468
19205SOL    HW163451   7.383   8.872   6.565  0.4300 -0.3946  0.8216
19205SOL    HW263452   7.265   8.806   6.635 -0.9624 -0.1490 -1.2069
19206SOL     OW63453   4.998  10.534   4.011 -0.0859  0.7975 -0.0648
19206SOL    HW163454   5.034  10.545   3.923 -0.5813  1.2725 -0.2109
19206SOL    HW263455   5.075  10.535   4.068  0.5514 -2.5266 -0.7029
19207SOL     OW63456  10.233   1.914   1.956  0.5155  0.0231 -0.0945
19207SOL    HW163457  10.304   1.950   1.904  0.5729 -0.0142 -0.0420
19207SOL    HW263458  10.275   1.856   2.019  0.6425  1.3922  1.1649
19208SOL     OW63459   0.998   7.780   3.134 -0.0221 -0.0674  0.1591
19208SOL    HW163460   0.963   7.869   3.136  1.9308  0.7390  0.4923
19208SOL    HW263461   1.048   7.775   3.052  0.3193 -0.6778  0.3948
19209SOL     OW63462   5.045   7.637   1.584 -0.3112  0.5744 -0.4377
19209SOL    HW163463   4.959   7.666   1.616  0.3874  0.8979  1.2299
19209SOL    HW263464   5.104   7.651   1.657  0.7718 -1.7292 -0.7811
19210SOL     OW63465   4.933   4.330   3.048 -0.0972 -0.0742  0.1228
19210SOL    HW163466   4.878   4.386   2.994  1.0073  1.4217  0.5053
19210SOL    HW263467   4.942   4.249   2.997 -0.4870  0.6474 -1.1215
19211SOL     OW63468   1.224   0.039   0.364 -0.1025  0.5172  0.6288
19211SOL    HW163469   1.185  -0.042   0.331 -1.7324  1.1873  0.8190
19211SOL    HW263470   1.309   0.013   0.397 -0.4439 -1.0541  0.3430
19212SOL     OW63471   1.202   5.938   9.771  0.0186 -0.5005 -0.3482
19212SOL    HW163472   1.239   6.010   9.721 -1.4643  0.7877  0.3206
19212SOL    HW263473   1.114   5.925   9.733 -0.5565 -0.4891  0.9392
19213SOL     OW63474   3.887   7.328   5.121  0.5752  0.1364 -0.2881
19213SOL    HW163475   3.830   7.270   5.171 -0.1923  0.7639 -0.4117
19213SOL    HW263476   3.967   7.335   5.173  0.2251 -0.1099  0.2900
19214SOL     OW63477   1.425   2.548   9.673  0.4536 -0.0054 -0.3954
19214SOL    HW163478   1.428   2.454   9.692  1.8797  0.3159  1.1786
19214SOL    HW263479   1.506   2.583   9.711  0.8194  1.6075 -2.5072
19215SOL     OW63480   1.263   2.161   3.909 -0.0073  1.1850 -0.6404
19215SOL    HW163481   1.192   2.224   3.924  0.1305  1.5210 -1.3866
19215SOL    HW263482   1.337   2.195   3.960 -0.0300  1.4485 -0.7853
19216SOL     OW63483   2.684   7.237   3.955  0.2790 -0.2195  0.3227
19216SOL    HW163484   2.616   7.258   4.018 -1.3828  0.2549 -1.5358
19216SOL    HW263485   2.641   7.179   3.892  2.5202 -2.6422  0.8422
19217SOL     OW63486   0.995   9.436   7.247 -0.2513 -0.8902  0.3844
19217SOL    HW163487   0.953   9.478   7.322 -0.5594  0.4143 -0.4958
19217SOL    HW263488   1.081   9.409   7.280 -1.0174 -1.8814  1.6638
19218SOL     OW63489   2.951   2.018   6.202 -0.5710  0.0715 -0.1277
19218SOL    HW163490   3.019   1.953   6.222 -0.8390 -0.7573 -1.7465
19218SOL    HW263491   2.926   2.000   6.112 -0.8307  2.2987 -0.5696
19219SOL     OW63492   1.639   9.940   4.476  0.4185 -0.1651  0.7384
19219SOL    HW163493   1.598   9.997   4.541  0.1525  0.0589  0.3780
19219SOL    HW263494   1.599   9.854   4.491 -1.6409  0.4363 -0.8346
19220SOL     OW63495   2.017   9.082   0.403  0.3500  0.8672 -0.2998
19220SOL    HW163496   2.052   8.998   0.431  0.7388  0.8864 -0.7073
19220SOL    HW263497   1.970   9.062   0.321 -0.5668  0.8491  0.2201
19221SOL     OW63498   7.371   8.506   4.389  0.0959 -0.6238  0.3527
19221SOL    HW163499   7.364   8.585   4.443  1.9037 -0.5713  0.5664
19221SOL    HW263500   7.323   8.527   4.309  2.5031  1.6694 -0.6355
19222SOL     OW63501   2.676   0.201   2.986 -0.7280  0.3055 -0.0465
19222SOL    HW163502   2.652   0.118   2.944  0.8779  0.2245 -0.8443
19222SOL    HW263503   2.765   0.188   3.017 -0.8686  1.3583  0.8779
19223SOL     OW63504   8.806   1.801  10.360 -0.1774  0.2711 -0.4905
19223SOL    HW163505   8.773   1.717  10.330 -0.0146  0.0551 -0.0649
19223SOL    HW263506   8.792   1.800  10.455  0.7127  0.3316 -0.3580
19224SOL     OW63507  10.023   5.687   3.914  0.6575 -0.7229 -0.1606
19224SOL    HW163508   9.974   5.763   3.944  1.1033 -0.4541 -0.1043
19224SOL    HW263509   9.974   5.612   3.947  0.5899 -0.4491  0.3789
19225SOL     OW63510  10.600   3.336   2.377 -0.2175  0.3023  0.3906
19225SOL    HW163511  10.657   3.410   2.400  0.5900  0.3316 -1.4877
19225SOL    HW263512  10.538   3.372   2.314 -1.1924 -0.1497  1.0763
19226SOL     OW63513   8.481   0.644  10.408  0.2017 -0.1649  0.3408
19226SOL    HW163514   8.462   0.734  10.434  0.6896  0.7356 -2.0977
19226SOL    HW263515   8.415   0.591  10.452 -0.3263  1.4243  1.5300
19227SOL     OW63516   4.565   4.182   8.673  0.2636  0.4058 -0.4523
19227SOL    HW163517   4.531   4.139   8.751 -1.8157  0.9876 -0.9678
19227SOL    HW263518   4.649   4.140   8.657 -0.3481 -1.3865  0.7319
19228SOL     OW63519   7.235   4.426   8.839 -0.0277  0.4054 -0.3463
19228SOL    HW163520   7.319   4.389   8.811 -0.9900 -0.8436 -1.7591
19228SOL    HW263521   7.256   4.518   8.860  1.6081  0.2567 -1.0932
19229SOL     OW63522   1.892  10.610   5.728 -0.3211 -0.1400  0.3677
19229SOL    HW163523   1.874  10.627   5.820  1.1893  1.0365  0.4879
19229SOL    HW263524   1.951  10.681   5.701 -1.1646 -0.1491 -1.6615
19230SOL     OW63525   4.102   5.333   2.842  0.4225  0.5654  0.0952
19230SOL    HW163526   4.057   5.258   2.802 -1.2996  2.0728 -0.9353
19230SOL    HW263527   4.195   5.318   2.823 -0.1127 -0.0585 -2.2908
19231SOL     OW63528   0.847   2.446   0.790  0.4421  0.1401 -0.0815
19231SOL    HW163529   0.925   2.401   0.759  0.8221 -0.3288  1.4913
19231SOL    HW263530   0.858   2.451   0.885 -1.5309 -0.1282  0.2040
19232SOL     OW63531   5.007   5.102   3.473 -0.5392  0.1237 -1.0810
19232SOL    HW163532   4.962   5.113   3.557 -0.7586  1.3628 -1.3320
19232SOL    HW263533   4.944   5.056   3.418 -0.1016 -1.4102 -0.3561
19233SOL     OW63534   4.894   8.860   7.960 -0.2877  0.3562 -0.2568
19233SOL    HW163535   4.839   8.797   8.007 -0.1961  0.4080 -0.0804
19233SOL    HW263536   4.910   8.818   7.875  2.4485 -1.3632  0.9705
19234SOL     OW63537   2.774   7.082   0.499  0.7527 -0.1246  0.6586
19234SOL    HW163538   2.813   7.169   0.490 -1.6309  1.0450  0.7649
19234SOL    HW263539   2.830   7.037   0.562  1.5522  1.6491  1.2784
19235SOL     OW63540   5.046   6.686   3.235 -0.4857 -0.1903  0.0348
19235SOL    HW163541   4.987   6.760   3.249 -0.2538 -0.0050  0.0370
19235SOL    HW263542   5.030   6.628   3.309 -1.9016 -0.9662 -0.8515
19236SOL     OW63543  10.026   0.638   8.021  0.6791 -0.0209  0.7863
19236SOL    HW163544  10.104   0.693   8.024  0.1299  0.7903  0.7681
19236SOL    HW263545   9.956   0.698   7.993  0.2441 -0.9611 -0.2343
19237SOL     OW63546  10.462   0.775   9.712 -0.6351 -0.4502 -0.6885
19237SOL    HW163547  10.437   0.684   9.698  0.4017 -0.9138  0.3384
19237SOL    HW263548  10.520   0.795   9.639 -1.3683 -0.3916 -1.2699
19238SOL     OW63549   5.449   8.554   8.918  0.2334  0.3004  0.1553
19238SOL    HW163550   5.508   8.594   8.982  0.1580  2.3413 -0.9710
19238SOL    HW263551   5.362   8.584   8.943 -0.1333 -1.0678  0.6226
19239SOL     OW63552   6.523  10.382   4.453  0.3574 -0.0829 -0.6954
19239SOL    HW163553   6.588  10.337   4.507  1.6766  1.5195 -0.8547
19239SOL    HW263554   6.440  10.341   4.476  0.8970  0.3106  2.3751
19240SOL     OW63555   4.892   5.017   4.743 -0.3452  0.5871 -0.7406
19240SOL    HW163556   4.929   5.020   4.655  0.5663 -1.8196 -0.5169
19240SOL    HW263557   4.844   4.934   4.745 -3.1991  2.1205  0.0172
19241SOL     OW63558   3.537   1.596   7.130 -0.2198 -0.0049  0.0846
19241SOL    HW163559   3.516   1.597   7.037 -0.5255  0.1394  0.1527
19241SOL    HW263560   3.510   1.509   7.160  0.2806 -0.2093 -0.0492
19242SOL     OW63561   3.989   7.777   9.877  0.2476 -0.1841 -0.2441
19242SOL    HW163562   3.897   7.757   9.894  0.5473  0.2458  2.2345
19242SOL    HW263563   3.987   7.860   9.829 -0.6696 -0.4045 -0.6019
19243SOL     OW63564   3.611   8.103   4.471 -0.2932  0.5670 -0.2787
19243SOL    HW163565   3.575   8.066   4.551 -1.6004  0.3748 -0.9327
19243SOL    HW263566   3.688   8.049   4.452  0.2322  0.8354  1.0120
19244SOL     OW63567   5.277   5.401   7.191 -0.4875 -0.1482 -0.2452
19244SOL    HW163568   5.279   5.325   7.133 -1.2457 -1.3059  1.1842
19244SOL    HW263569   5.185   5.427   7.194 -0.7538 -1.1255  1.6506
19245SOL     OW63570   9.353   3.242   3.416 -0.4704 -0.1882 -0.8913
19245SOL    HW163571   9.357   3.168   3.476 -0.6911 -0.0788 -0.7370
19245SOL    HW263572   9.337   3.203   3.330  0.1543 -0.3670 -0.9311
19246SOL     OW63573   4.894   9.100   3.037 -0.3809  0.2116  0.2184
19246SOL    HW163574   4.924   9.013   3.010 -0.6981  0.0320  0.4262
19246SOL    HW263575   4.804   9.085   3.068 -0.6220  0.7014 -0.2235
19247SOL     OW63576   8.265   4.981   6.103  0.1334 -0.3222  0.0967
19247SOL    HW163577   8.192   4.954   6.160 -0.1349  1.2725  0.5547
19247SOL    HW263578   8.339   4.992   6.163  1.0823 -2.7922 -0.4688
19248SOL     OW63579   9.673   0.367   2.685  0.6584 -0.3211 -0.5411
19248SOL    HW163580   9.749   0.405   2.729 -0.6828  0.6645  1.0363
19248SOL    HW263581   9.611   0.439   2.677 -1.1827 -1.6645  0.7251
19249SOL     OW63582   6.365   4.562   7.716 -0.4481 -0.3976  0.1629
19249SOL    HW163583   6.307   4.586   7.643  0.3464 -0.1792 -0.4227
19249SOL    HW263584   6.312   4.575   7.794 -1.4431 -0.9890 -0.3904
19250SOL     OW63585   9.669   2.007   8.435  0.0602 -0.0843  0.1897
19250SOL    HW163586   9.702   1.954   8.363 -2.7325  0.6952 -1.8059
19250SOL    HW263587   9.609   1.949   8.482 -0.0727  0.1894  0.3621
19251SOL     OW63588   8.259   5.009   3.807 -0.1944 -0.5496  0.1618
19251SOL    HW163589   8.287   5.058   3.730 -1.1277  0.6481  0.5473
19251SOL    HW263590   8.325   4.941   3.819  1.7903  1.3137  0.2699
19252SOL     OW63591   1.325   0.464   0.805  0.2871  0.1289  0.2292
19252SOL    HW163592   1.283   0.436   0.886 -0.7071 -0.1368 -0.3559
19252SOL    HW263593   1.382   0.536   0.831 -0.1975  0.2044  1.1259
19253SOL     OW63594  10.516   8.772   7.188  0.2179 -0.0276 -0.4729
19253SOL    HW163595  10.433   8.784   7.143 -1.1195 -1.6299  1.4081
19253SOL    HW263596  10.581   8.806   7.127 -1.5544 -1.0289 -3.0882
19254SOL     OW63597   7.675   8.308   1.592  0.0346 -0.0342 -0.1559
19254SOL    HW163598   7.624   8.244   1.541 -2.0420  1.9498 -0.7551
19254SOL    HW263599   7.674   8.274   1.681  2.1308 -2.6219 -0.9808
19255SOL     OW63600   0.522   8.986   6.987  0.5259 -0.0797 -0.6624
19255SOL    HW163601   0.546   8.961   7.076  1.5691 -0.3003 -0.9997
19255SOL    HW263602   0.426   8.993   6.990  0.4926 -0.7170  0.3081
19256SOL     OW63603   8.013   2.987  10.129  0.4194  0.4729 -0.6469
19256SOL    HW163604   8.051   2.924  10.067 -1.8203 -2.2557  0.5573
19256SOL    HW263605   7.950   3.037  10.077  0.4330  0.0316 -1.0938
19257SOL     OW63606   0.932   5.594   2.563  0.2751  0.4403 -0.5822
19257SOL    HW163607   0.979   5.522   2.603 -1.1434 -0.1099  0.1611
19257SOL    HW263608   0.907   5.650   2.636 -1.0372  0.2153 -0.8310
19258SOL     OW63609   4.700  10.132   0.530 -0.4086 -0.1356  0.7177
19258SOL    HW163610   4.623  10.106   0.580 -0.9588  0.0144 -0.0338
19258SOL    HW263611   4.714  10.224   0.553 -1.5785  0.3838 -0.5341
19259SOL     OW63612   0.691   2.273   0.385 -0.2129  0.0571 -0.3068
19259SOL    HW163613   0.717   2.361   0.358 -0.0756  0.3083  0.6261
19259SOL    HW263614   0.629   2.244   0.317  0.4966  0.4765 -1.1445
19260SOL     OW63615   3.045   3.283   9.175  0.1664  0.2173 -0.7362
19260SOL    HW163616   3.140   3.285   9.162  0.6192 -2.3593  1.3526
19260SOL    HW263617   3.020   3.192   9.158 -1.4246  0.1632  1.4255
19261SOL     OW63618   7.084   0.653   8.841  0.6169 -0.1268 -0.0754
19261SOL    HW163619   7.024   0.626   8.911  0.1877  0.7608 -0.0797
19261SOL    HW263620   7.062   0.597   8.767 -1.2204  1.1050 -0.5304
19262SOL     OW63621  10.211   3.898   3.122 -0.0931  0.6878  0.6663
19262SOL    HW163622  10.165   3.917   3.040 -0.4903  0.5534  0.8550
19262SOL    HW263623  10.210   3.803   3.128 -1.3370  0.7332  1.5340
19263SOL     OW63624   0.950   9.805   5.179 -0.1111 -0.2780 -0.3775
19263SOL    HW163625   1.001   9.724   5.179 -0.5200 -0.5374 -0.7841
19263SOL    HW263626   0.918   9.814   5.089 -0.8640 -0.1709 -0.1059
19264SOL     OW63627   8.492   0.034  10.387  0.0283  0.1509  0.2523
19264SOL    HW163628   8.535  -0.038  10.435 -2.0299 -1.1489  0.2968
19264SOL    HW263629   8.439  -0.010  10.321 -1.0890  1.6499  0.0944
19265SOL     OW63630   7.276   6.022   1.107 -0.0607 -0.0360 -0.0908
19265SOL    HW163631   7.228   6.006   1.187 -0.8308  4.0579  0.4871
19265SOL    HW263632   7.368   6.026   1.134  0.1300 -2.2489 -0.1952
19266SOL     OW63633   7.064   4.078   0.685 -0.1220  0.3479  0.6088
19266SOL    HW163634   7.123   4.132   0.738 -0.4216  0.3855  0.9091
19266SOL    HW263635   7.022   4.141   0.626  1.3230  0.0954 -0.7205
19267SOL     OW63636   9.640  10.121  10.297 -0.0862  0.4291  0.2571
19267SOL    HW163637   9.580  10.122  10.223 -0.4302  1.1465  0.5424
19267SOL    HW263638   9.619  10.039  10.343  0.5720 -0.3473 -0.7741
19268SOL     OW63639   4.769   8.312   7.083 -0.2437 -0.5139  0.0938
19268SOL    HW163640   4.805   8.236   7.129  0.0315 -1.1324 -1.0900
19268SOL    HW263641   4.785   8.294   6.990 -2.3075 -0.1347 -0.3997
19269SOL     OW63642   4.139   0.509   1.470  0.1916 -0.2260 -0.3652
19269SOL    HW163643   4.143   0.452   1.547  2.5945  0.3285 -0.0136
19269SOL    HW263644   4.086   0.584   1.499  2.6113  0.8947  1.4786
19270SOL     OW63645   2.086   3.298   2.990 -0.0609  0.2769  0.2951
19270SOL    HW163646   2.035   3.374   3.018  0.1901  0.0377  1.4336
19270SOL    HW263647   2.148   3.333   2.927 -2.4550  0.3735 -2.1870
19271SOL     OW63648   7.538   0.827   2.647  0.2644 -0.6239 -0.1376
19271SOL    HW163649   7.497   0.887   2.585 -0.1766 -1.9363 -1.1401
19271SOL    HW263650   7.597   0.774   2.594  0.1487 -1.5364  0.6247
19272SOL     OW63651   4.861   4.077   6.454 -0.0810 -0.0578 -0.3658
19272SOL    HW163652   4.868   4.148   6.391  2.6447 -1.9610 -2.4515
19272SOL    HW263653   4.911   4.108   6.530  0.0426  0.7112 -0.7522
19273SOL     OW63654   1.469   8.887   1.052 -0.3041  0.6605 -0.3797
19273SOL    HW163655   1.405   8.842   0.997 -3.0651  2.0212  1.4893
19273SOL    HW263656   1.493   8.965   1.002  0.7620 -0.3680 -1.5351
19274SOL     OW63657   5.656   2.354   6.922 -0.3715 -0.0728 -0.2652
19274SOL    HW163658   5.640   2.343   6.828 -1.0029 -2.1456  0.0509
19274SOL    HW263659   5.720   2.287   6.944  0.2731  0.8115  0.6982
19275SOL     OW63660   2.536   0.306  10.490 -0.6490 -0.1450 -0.0374
19275SOL    HW163661   2.537   0.223  10.537 -0.1346  0.9838  2.0790
19275SOL    HW263662   2.446   0.316  10.460 -0.2718 -2.3804 -2.1506
19276SOL     OW63663   8.889   6.589   1.622  0.2290  0.2873 -0.1221
19276SOL    HW163664   8.909   6.495   1.623  0.2862  0.3000  0.9945
19276SOL    HW263665   8.971   6.631   1.646 -0.2304  0.5144  1.1381
19277SOL     OW63666   2.702   8.153   8.755  0.1477  0.2864 -0.1934
19277SOL    HW163667   2.738   8.180   8.671 -0.7057 -0.0317 -0.6665
19277SOL    HW263668   2.766   8.090   8.789 -0.6835 -1.5011 -1.7664
19278SOL     OW63669   4.055   6.203   1.712 -0.2056 -0.4634 -0.7765
19278SOL    HW163670   4.129   6.248   1.671 -0.4059 -0.7780 -1.4990
19278SOL    HW263671   4.025   6.263   1.780  1.4290 -0.8120  0.3261
19279SOL     OW63672   4.949   5.234   5.178 -0.4726 -0.4067  0.6933
19279SOL    HW163673   4.876   5.184   5.140 -0.7451  0.8244 -0.4672
19279SOL    HW263674   5.027   5.196   5.138 -0.8253  1.8136 -2.3993
19280SOL     OW63675   3.774   9.252   2.440  0.0705 -0.2696  0.3560
19280SOL    HW163676   3.853   9.207   2.411  0.3536  1.3305 -1.5283
19280SOL    HW263677   3.719   9.259   2.362 -0.4669  1.5852  0.8496
19281SOL     OW63678   1.325   8.211   3.114  0.0764 -0.4191  0.1233
19281SOL    HW163679   1.332   8.293   3.065 -0.6907 -0.7986 -0.6678
19281SOL    HW263680   1.398   8.212   3.175 -0.2033  1.0753  0.4689
19282SOL     OW63681   9.918   1.824   8.889 -0.5992 -0.5899 -0.2201
19282SOL    HW163682   9.882   1.908   8.917  0.6778  0.0937 -0.5582
19282SOL    HW263683   9.908   1.766   8.965 -1.8950 -0.2777 -0.1390
19283SOL     OW63684   2.127   3.517   4.724  0.0539 -0.8224 -0.1110
19283SOL    HW163685   2.126   3.472   4.808 -1.0198 -0.9995 -0.2070
19283SOL    HW263686   2.062   3.472   4.671 -0.2941  0.1793 -0.5628
19284SOL     OW63687   7.081   5.255   3.720 -0.3349 -0.0498  0.1399
19284SOL    HW163688   7.128   5.174   3.703 -1.1389 -0.3415 -0.8679
19284SOL    HW263689   7.147   5.323   3.715 -0.0046 -0.4274 -1.4257
19285SOL     OW63690   8.637   3.047   6.840  0.1876  0.0753  0.3087
19285SOL    HW163691   8.695   3.052   6.764  0.5002 -1.3407  0.4406
19285SOL    HW263692   8.623   2.954   6.854 -1.4653  0.3604  0.7932
19286SOL     OW63693   4.330   9.602   5.662 -0.0118  0.1758  0.2345
19286SOL    HW163694   4.282   9.546   5.602 -0.4188  0.8687 -0.1029
19286SOL    HW263695   4.265   9.665   5.693  0.0629 -0.4412  1.7722
19287SOL     OW63696   8.750   8.889   9.360 -0.2010  0.1609  0.4443
19287SOL    HW163697   8.805   8.815   9.334 -1.5270 -1.1255  1.1809
19287SOL    HW263698   8.751   8.889   9.455 -1.9915 -0.3155  0.4947
19288SOL     OW63699   6.781   0.669   4.890  0.5861 -0.1477  0.6914
19288SOL    HW163700   6.839   0.740   4.864  0.7787 -0.5238  0.0696
19288SOL    HW263701   6.839   0.597   4.914  0.3889 -0.4276  0.3473
19289SOL     OW63702   2.940   7.832   3.328 -0.2916  0.0375  0.6556
19289SOL    HW163703   2.899   7.918   3.319  0.1288  0.2482  0.7614
19289SOL    HW263704   2.873   7.771   3.297  0.0019  0.5183 -1.0316
19290SOL     OW63705   6.231   7.242   0.593 -0.0129  0.3896  0.1061
19290SOL    HW163706   6.194   7.184   0.526  0.7783  0.2982 -0.2679
19290SOL    HW263707   6.165   7.245   0.662 -0.7442  0.3018 -0.5815
19291SOL     OW63708   2.703   7.823   8.630 -0.3734 -0.2166 -0.5303
19291SOL    HW163709   2.609   7.836   8.618 -0.6040 -0.2940  1.0443
19291SOL    HW263710   2.715   7.728   8.628 -0.5777 -0.2829  0.8921
19292SOL     OW63711   8.123   4.824   2.348  0.2222  0.4527  0.0857
19292SOL    HW163712   8.043   4.877   2.350 -1.4440 -1.8483  2.0708
19292SOL    HW263713   8.152   4.821   2.439  1.0620 -0.8097 -0.1944
19293SOL     OW63714   2.495   0.065   7.191 -0.2172 -0.4061  0.4300
19293SOL    HW163715   2.490   0.020   7.275  0.9225 -0.0885  0.6799
19293SOL    HW263716   2.584   0.049   7.159 -1.0303 -1.6602 -1.3880
19294SOL     OW63717   3.372   3.760   3.220 -0.1825  0.1071  0.0421
19294SOL    HW163718   3.410   3.802   3.298  0.1612 -0.4540  0.1809
19294SOL    HW263719   3.375   3.667   3.239  0.5034 -0.0777 -0.9159
19295SOL     OW63720   8.750   3.872   4.891  0.0505  0.3002 -0.3378
19295SOL    HW163721   8.723   3.948   4.942  0.2165  0.2972 -0.2451
19295SOL    HW263722   8.843   3.861   4.911 -0.5463 -1.5911  1.8593
19296SOL     OW63723   3.649   9.000   7.995 -0.0587 -0.1813  0.0432
19296SOL    HW163724   3.594   8.922   7.992  1.7699 -1.5656  0.7476
19296SOL    HW263725   3.666   9.021   7.903 -1.5193  0.1453 -0.1821
19297SOL     OW63726   2.138   6.614   1.782 -0.4428  0.1535  0.3383
19297SOL    HW163727   2.199   6.650   1.718 -2.3963  0.6159 -1.3878
19297SOL    HW263728   2.150   6.667   1.860  0.5222  0.9761 -0.3401
19298SOL     OW63729   1.736   4.939   2.400 -0.4313 -0.2746  0.6040
19298SOL    HW163730   1.697   4.856   2.372  1.5825 -1.3592  0.8490
19298SOL    HW263731   1.664   4.987   2.442 -2.3948 -0.5709 -2.1628
19299SOL     OW63732   6.530   4.796   4.013  0.2250  0.2259  0.0126
19299SOL    HW163733   6.575   4.783   3.930 -0.8562 -2.3601 -0.2622
19299SOL    HW263734   6.600   4.791   4.079  0.6317 -2.2330 -0.5003
19300SOL     OW63735   0.828   2.982   3.847 -0.0607  0.4032 -0.2518
19300SOL    HW163736   0.779   2.986   3.765  1.6610 -2.1792 -1.5622
19300SOL    HW263737   0.877   3.064   3.850 -1.9232  1.5705 -0.5515
19301SOL     OW63738  10.389   9.811   1.254  0.5146  0.3629 -0.1854
19301SOL    HW163739  10.378   9.732   1.201  1.6443  0.5183 -0.6787
19301SOL    HW263740  10.472   9.798   1.300 -0.4451  0.2291  1.5838
19302SOL     OW63741   8.561   0.573   1.166  0.2081 -0.0529 -0.1383
19302SOL    HW163742   8.493   0.518   1.206  0.3986 -0.2052 -0.0232
19302SOL    HW263743   8.519   0.658   1.155 -0.2097 -0.3175 -0.6519
19303SOL     OW63744   3.046   3.682   0.334 -0.2681 -0.3618 -0.3285
19303SOL    HW163745   3.097   3.761   0.349 -0.0027 -0.5651 -0.1446
19303SOL    HW263746   3.015   3.657   0.421 -0.6615 -0.2514 -0.4372
19304SOL     OW63747   2.016   6.601   1.507 -0.3001  0.2641  0.5886
19304SOL    HW163748   1.955   6.534   1.539  0.9857 -1.1191  0.2265
19304SOL    HW263749   2.102   6.562   1.518  0.3465  0.6567 -2.3696
19305SOL     OW63750   7.090   5.169   1.170  0.0655  0.6639 -0.1125
19305SOL    HW163751   7.131   5.114   1.238  0.8210  1.2574 -0.0795
19305SOL    HW263752   7.157   5.232   1.147 -0.3641  0.7803 -1.0732
19306SOL     OW63753   9.764   9.828   0.198 -0.3914  0.2136 -0.1688
19306SOL    HW163754   9.754   9.886   0.122  0.9229  0.4769 -0.1777
19306SOL    HW263755   9.759   9.739   0.162  0.5507  0.3369 -0.6368
19307SOL     OW63756   2.786   3.749   4.382 -0.3732 -0.2645  0.1404
19307SOL    HW163757   2.839   3.790   4.315  1.1687 -1.7669  0.3736
19307SOL    HW263758   2.818   3.659   4.387 -0.6038 -0.2880  2.6926
19308SOL     OW63759   9.931   1.471   4.356  0.3403 -0.8464  0.7223
19308SOL    HW163760   9.932   1.434   4.445 -3.2740  0.8276  1.6397
19308SOL    HW263761   9.850   1.438   4.317  0.7184  0.2723 -1.1426
19309SOL     OW63762   5.193   5.377   9.071 -0.5498 -0.2687  0.3019
19309SOL    HW163763   5.171   5.394   8.979  2.1224 -1.8500 -0.7747
19309SOL    HW263764   5.155   5.292   9.090 -1.2211  0.1192  0.7467
19310SOL     OW63765   9.944   8.294   3.712  0.0478  0.2399 -0.4654
19310SOL    HW163766   9.920   8.338   3.630 -1.3675  0.4077  0.0192
19310SOL    HW263767   9.988   8.214   3.684  1.3865  1.2393 -1.3632
19311SOL     OW63768   3.120   8.221   8.070  0.4957  0.1680  0.0132
19311SOL    HW163769   3.043   8.198   8.122  0.1971  0.8802 -0.1039
19311SOL    HW263770   3.107   8.177   7.986  1.2087 -1.3800  0.6748
19312SOL     OW63771   4.869   0.462   8.389 -0.3322 -0.0122 -0.0939
19312SOL    HW163772   4.814   0.487   8.462  0.3308  0.1587  0.3579
19312SOL    HW263773   4.881   0.542   8.338  0.4489  0.2377  0.4563
19313SOL     OW63774   6.177   9.588   0.239  0.3191  0.4815 -0.1307
19313SOL    HW163775   6.164   9.624   0.151 -1.7109  1.9911  0.7169
19313SOL    HW263776   6.113   9.516   0.244 -0.5835  1.3121  0.5643
19314SOL     OW63777   8.622   2.524   4.282 -0.4734 -0.0017  0.7508
19314SOL    HW163778   8.616   2.545   4.376  1.5550 -0.7526  1.0946
19314SOL    HW263779   8.697   2.465   4.276  0.8573  1.8036 -1.6505
19315SOL     OW63780   1.850   7.952   2.942  0.0187  0.2258 -0.2816
19315SOL    HW163781   1.926   8.008   2.925 -0.6574  1.9040  1.8146
19315SOL    HW263782   1.781   7.988   2.886  0.3395 -0.4039 -1.1126
19316SOL     OW63783   0.771  10.276   0.035  0.4662 -0.2585 -0.1752
19316SOL    HW163784   0.754  10.265  -0.059  0.0055  1.5945 -0.3483
19316SOL    HW263785   0.843  10.215   0.053  0.3081 -0.9346 -1.6365
19317SOL     OW63786   6.437  10.337   1.348  0.1987  0.2031  0.4015
19317SOL    HW163787   6.520  10.308   1.310 -0.2691 -1.4514  0.5560
19317SOL    HW263788   6.443  10.432   1.350  1.9416  0.1255  0.0752
19318SOL     OW63789   0.118   0.746   0.651  0.3483  0.1893  0.9197
19318SOL    HW163790   0.110   0.725   0.744 -0.4512 -0.9509  0.6261
19318SOL    HW263791   0.035   0.786   0.628 -0.0434 -0.8926  0.3883
19319SOL     OW63792   8.212  10.093   2.614  0.0421  0.1331 -0.1953
19319SOL    HW163793   8.220  10.147   2.692 -0.0736 -1.4139  0.9376
19319SOL    HW263794   8.121  10.104   2.586 -0.2991 -0.3318  0.6927
19320SOL     OW63795   8.796   3.284   8.741  0.1525 -0.3091 -0.7261
19320SOL    HW163796   8.874   3.327   8.777  0.6745 -1.0829 -0.9115
19320SOL    HW263797   8.723   3.339   8.771  0.8241  1.0878 -1.5143
19321SOL     OW63798   4.435   1.564   6.377 -0.2855  0.0656 -0.4119
19321SOL    HW163799   4.362   1.520   6.422 -0.3884  0.8349  0.2081
19321SOL    HW263800   4.497   1.494   6.358  0.0998 -0.2250  1.5991
19322SOL     OW63801   0.981   5.142   0.758 -0.3615 -0.1843  0.9205
19322SOL    HW163802   0.929   5.062   0.773 -1.2757  0.2767  0.2910
19322SOL    HW263803   1.071   5.111   0.752 -0.7188 -1.1879  0.5597
19323SOL     OW63804   4.842   6.059   4.045 -0.2053 -0.0241 -0.0130
19323SOL    HW163805   4.799   5.981   4.081 -0.6632  0.9324  1.6362
19323SOL    HW263806   4.934   6.049   4.070 -0.5902  0.8504  2.0090
19324SOL     OW63807   7.627   2.660   9.058 -0.0974  0.0265 -0.4065
19324SOL    HW163808   7.664   2.720   8.994  3.6145 -1.0548  0.4699
19324SOL    HW263809   7.693   2.590   9.067 -1.9868 -1.6368  2.0956
19325SOL     OW63810   8.495   4.822   8.116  0.3981  0.1093 -0.0575
19325SOL    HW163811   8.500   4.780   8.030 -1.1079  0.0810 -0.1546
19325SOL    HW263812   8.446   4.760   8.170  1.1103  0.2407  0.7530
19326SOL     OW63813   2.380   1.692   8.498  0.6250  0.4255 -0.4056
19326SOL    HW163814   2.305   1.711   8.442 -0.6394 -3.5295 -0.3389
19326SOL    HW263815   2.453   1.679   8.438  0.4157  0.8503 -0.7535
19327SOL     OW63816   4.822   1.293   2.932  0.3550 -0.1811  0.2589
19327SOL    HW163817   4.838   1.374   2.884  0.6448  0.4166  1.3169
19327SOL    HW263818   4.886   1.230   2.896 -0.0981 -0.0519 -0.7990
19328SOL     OW63819   2.835   6.238   9.124 -0.1168  0.1018  0.4072
19328SOL    HW163820   2.832   6.296   9.200  2.7157  0.2125  0.5375
19328SOL    HW263821   2.883   6.161   9.156  1.5366  0.3464 -1.3547
19329SOL     OW63822   9.839   5.799   5.046  0.0629 -0.1837  0.4032
19329SOL    HW163823   9.768   5.863   5.049 -0.0278 -0.2851  0.4155
19329SOL    HW263824   9.818   5.735   5.114 -0.1119 -0.5049  0.0535
19330SOL     OW63825   3.643   8.484   3.587  0.7060  0.7291  0.0203
19330SOL    HW163826   3.715   8.508   3.646  0.8272 -0.9738  0.6183
19330SOL    HW263827   3.571   8.463   3.645 -0.5941  3.1675 -0.5892
19331SOL     OW63828   2.838   6.370   9.343 -0.6884 -0.3304 -0.1594
19331SOL    HW163829   2.879   6.317   9.411 -3.8003 -0.2014  2.0307
19331SOL    HW263830   2.896   6.446   9.333 -0.3434 -0.0539  2.8586
19332SOL     OW63831   3.782   4.636   5.254 -0.2119  0.0932  0.3662
19332SOL    HW163832   3.753   4.550   5.227  0.0998 -0.2444  1.0612
19332SOL    HW263833   3.747   4.646   5.343  0.8994  0.0970  0.8211
19333SOL     OW63834   2.795   5.651   7.556 -0.1606  0.4938  0.0618
19333SOL    HW163835   2.813   5.651   7.462 -1.5006 -0.2596 -0.2154
19333SOL    HW263836   2.788   5.744   7.579  0.3123  0.6840 -0.5453
19334SOL     OW63837   0.623   1.684   4.708 -0.3999  0.1044  0.0573
19334SOL    HW163838   0.650   1.608   4.655 -0.1600 -0.0807  0.4431
19334SOL    HW263839   0.694   1.696   4.770 -1.0209 -0.1534  0.8361
19335SOL     OW63840   9.960  10.320   8.331 -0.1385 -0.4193  0.4909
19335SOL    HW163841   9.887  10.382   8.331  0.5729  0.4589 -0.9094
19335SOL    HW263842   9.990  10.318   8.240  2.5115  0.3896  1.2753
19336SOL     OW63843   4.532   5.075   6.951  0.5168 -0.4887  0.2650
19336SOL    HW163844   4.598   5.006   6.942  0.1957 -0.9348  1.1942
19336SOL    HW263845   4.495   5.084   6.863  0.0813 -2.0155  0.2540
19337SOL     OW63846   5.322   4.121   2.475  0.4342  0.4096  0.0003
19337SOL    HW163847   5.242   4.083   2.512  1.2199 -0.7861  0.5325
19337SOL    HW263848   5.305   4.126   2.381 -0.2223  0.0637  0.0932
19338SOL     OW63849   5.050   7.517   0.745 -0.7192  0.1056 -0.1584
19338SOL    HW163850   5.022   7.608   0.732  1.2784  0.9332  0.9400
19338SOL    HW263851   5.055   7.482   0.656 -0.7693  1.3124 -0.6662
19339SOL     OW63852   1.031   3.282   7.413  0.1539 -0.0715  0.1227
19339SOL    HW163853   0.940   3.312   7.411  0.8132  2.0293 -0.5341
19339SOL    HW263854   1.083   3.362   7.419  1.9971 -1.1745 -0.2630
19340SOL     OW63855   8.837   8.013   1.925  0.4143  0.5075  0.2200
19340SOL    HW163856   8.840   8.108   1.912  0.1518  0.3273 -1.2763
19340SOL    HW263857   8.929   7.988   1.937  0.7989  0.6259 -2.0917
19341SOL     OW63858   3.552   9.239   5.643  0.0610  0.6495  0.0880
19341SOL    HW163859   3.553   9.316   5.699 -1.5442 -0.0488  1.1643
19341SOL    HW263860   3.607   9.262   5.568 -0.3844  2.8095  0.3831
19342SOL     OW63861   5.743   8.294   0.891 -0.3089  0.3696 -0.1602
19342SOL    HW163862   5.728   8.388   0.894 -0.6769  0.3059  0.0560
19342SOL    HW263863   5.668   8.259   0.844 -0.6911  0.0833  0.6416
19343SOL     OW63864   2.439   4.610   8.246 -0.1168 -0.0466  0.0225
19343SOL    HW163865   2.521   4.652   8.220 -0.0473 -0.3241 -0.2150
19343SOL    HW263866   2.462   4.518   8.259 -0.3807 -0.1180 -0.0035
19344SOL     OW63867   1.144   3.126   5.067 -0.4197  0.0344  0.1139
19344SOL    HW163868   1.210   3.060   5.044  2.0193  2.3102  0.0780
19344SOL    HW263869   1.093   3.138   4.988  0.9440  0.1320 -0.7873
19345SOL     OW63870   4.323   3.432   3.767 -0.1176  0.0984 -0.4826
19345SOL    HW163871   4.267   3.457   3.840 -0.0658 -0.5707 -0.2090
19345SOL    HW263872   4.291   3.485   3.693 -0.8951 -0.0377 -0.2519
19346SOL     OW63873   8.878   8.350   0.187 -0.4395  0.1858 -0.4595
19346SOL    HW163874   8.874   8.324   0.279 -1.6652  1.0237 -0.2564
19346SOL    HW263875   8.967   8.384   0.175 -0.5546  0.9117  0.6544
19347SOL     OW63876   1.066   7.200   3.061 -0.0383  0.4040 -0.7314
19347SOL    HW163877   0.985   7.155   3.084 -0.2350 -0.0965 -2.3278
19347SOL    HW263878   1.078   7.183   2.968  1.8822  0.5271 -0.5428
19348SOL     OW63879   2.980   3.259   6.808 -0.8261  0.3093  0.5394
19348SOL    HW163880   2.898   3.308   6.804 -1.0295 -0.0540  0.1687
19348SOL    HW263881   3.020   3.285   6.890 -1.1872  0.6938  0.5936
19349SOL     OW63882   1.487   8.116   5.970 -0.4629  0.4611 -0.1870
19349SOL    HW163883   1.440   8.046   5.923 -0.6128  1.7143 -1.9749
19349SOL    HW263884   1.432   8.134   6.046 -2.4397  1.2261 -1.7276
19350SOL     OW63885   8.443   4.762   4.894  0.6947 -0.0858  0.0912
19350SOL    HW163886   8.467   4.707   4.968  1.4754 -0.0402 -0.1241
19350SOL    HW263887   8.504   4.738   4.825  0.9497  0.9367 -0.0509
19351SOL     OW63888   3.699   4.721   9.104 -0.3946 -0.0160 -0.2373
19351SOL    HW163889   3.752   4.714   9.184 -0.8978 -0.9242  0.0208
19351SOL    HW263890   3.763   4.740   9.035  0.1681 -0.2453  0.2157
19352SOL     OW63891   6.150   0.817   5.751  0.2977 -0.3817  0.8002
19352SOL    HW163892   6.058   0.791   5.740  0.3463  0.2627 -1.5958
19352SOL    HW263893   6.200   0.745   5.713  0.6004  0.9736 -1.4943
19353SOL     OW63894   7.355   0.107   2.526 -0.2376  0.3713 -0.1295
19353SOL    HW163895   7.307   0.048   2.468  0.1095 -2.3792  2.1573
19353SOL    HW263896   7.291   0.174   2.549 -1.6314 -0.7406 -0.5830
19354SOL     OW63897   9.059   5.538   3.245  0.1510 -0.2478  0.2886
19354SOL    HW163898   9.151   5.553   3.222  0.3635  0.9145  1.6713
19354SOL    HW263899   9.051   5.577   3.333 -1.2710 -1.7592  0.8661
19355SOL     OW63900   8.062   7.442   1.833  0.0867 -0.2371 -0.2607
19355SOL    HW163901   8.110   7.503   1.889 -1.3870 -0.1428  0.9663
19355SOL    HW263902   7.973   7.442   1.868 -0.2693 -2.1435 -1.0199
19356SOL     OW63903   6.413   1.619   8.816 -0.4340  0.0452 -0.2363
19356SOL    HW163904   6.502   1.587   8.827 -0.5985 -0.4566 -0.3567
19356SOL    HW263905   6.362   1.542   8.791 -0.3080  0.8586 -3.4739
19357SOL     OW63906   6.752   1.572   3.894  0.6621 -0.5263  0.0224
19357SOL    HW163907   6.830   1.542   3.942  0.3585 -2.0996 -0.4355
19357SOL    HW263908   6.779   1.572   3.802  0.0075 -1.4867 -0.1788
19358SOL     OW63909   5.086   6.879   0.087 -0.5911  0.1507 -0.2063
19358SOL    HW163910   5.181   6.893   0.087 -0.4914 -0.4754 -0.3927
19358SOL    HW263911   5.064   6.864  -0.005 -1.1601  2.0188 -0.4294
19359SOL     OW63912   3.948   3.591   4.521 -0.4813 -0.3875 -0.3850
19359SOL    HW163913   3.951   3.551   4.608  0.9373  0.1520 -0.1633
19359SOL    HW263914   3.925   3.520   4.462 -0.3732 -0.9990  0.2990
19360SOL     OW63915   3.453   1.065   5.981 -0.2723  0.0116 -0.7303
19360SOL    HW163916   3.518   1.135   5.978 -0.1201 -0.1308 -0.7682
19360SOL    HW263917   3.490   1.001   6.042 -0.5045  0.0567 -0.5362
19361SOL     OW63918   9.563   4.703   8.215 -0.2159 -0.3931  0.1266
19361SOL    HW163919   9.584   4.691   8.123 -0.7969 -1.0024  0.0626
19361SOL    HW263920   9.646   4.696   8.261  0.1515  0.4343 -0.3907
19362SOL     OW63921  10.266   1.867   1.166  0.0507 -0.2458  0.0156
19362SOL    HW163922  10.286   1.811   1.241  0.9007  0.6641  0.4892
19362SOL    HW263923  10.342   1.923   1.157  0.0594 -0.4586 -1.6677
19363SOL     OW63924   5.114   7.729   6.570 -0.6519  0.2469  0.2325
19363SOL    HW163925   5.029   7.709   6.610 -0.2029 -1.0249  0.6023
19363SOL    HW263926   5.172   7.659   6.601  0.1206  0.1545 -1.3338
19364SOL     OW63927   5.280   9.982  10.348  0.0140  0.4906 -0.2907
19364SOL    HW163928   5.364   9.939  10.327 -0.6100 -1.9229  1.7257
19364SOL    HW263929   5.288  10.008  10.439 -1.1371  1.0125 -0.3224
19365SOL     OW63930  10.035   5.126   2.311  0.0606 -0.4623  0.0608
19365SOL    HW163931  10.020   5.116   2.405  1.4522 -0.9624  0.2500
19365SOL    HW263932   9.982   5.057   2.271 -0.3482 -0.4023  0.4927
19366SOL     OW63933   4.959   3.112   3.550 -0.3926  0.3965 -0.0293
19366SOL    HW163934   5.031   3.120   3.488 -0.3573 -0.8896 -0.1744
19366SOL    HW263935   4.884   3.085   3.496 -0.4113 -0.5306  0.4484
19367SOL     OW63936   4.616   6.457  10.607 -0.6505  0.1427  0.1203
19367SOL    HW163937   4.598   6.543  10.567 -1.0842  0.7490  1.5474
19367SOL    HW263938   4.562   6.396  10.557 -2.6325  1.1443  0.9171
19368SOL     OW63939   2.627   0.914   6.323  0.1960  0.3685 -0.2607
19368SOL    HW163940   2.566   0.872   6.384  1.0613  2.0216  1.8689
19368SOL    HW263941   2.584   0.997   6.300  1.6308  1.6727  1.4664
19369SOL     OW63942   0.236   6.200   0.702  0.0875 -0.0069  0.3474
19369SOL    HW163943   0.272   6.283   0.732 -0.8024  0.7779 -0.6546
19369SOL    HW263944   0.181   6.223   0.627 -0.9931 -1.3644  0.6611
19370SOL     OW63945   7.222   1.878   9.319  0.3120  0.0774 -0.1357
19370SOL    HW163946   7.230   1.964   9.280  0.0090  0.9874  1.6951
19370SOL    HW263947   7.306   1.835   9.302 -0.0744  0.1211 -2.3576
19371SOL     OW63948   0.975   8.736   5.606  0.9449 -0.2153 -0.4865
19371SOL    HW163949   0.880   8.739   5.609  0.9241 -0.4758 -0.8637
19371SOL    HW263950   1.003   8.809   5.662  0.5572 -1.5723  1.5973
19372SOL     OW63951   4.874   0.730   8.287 -0.0299 -0.1119  0.3062
19372SOL    HW163952   4.790   0.765   8.259 -0.3618 -1.3412 -0.3296
19372SOL    HW263953   4.937   0.800   8.270 -0.2255 -0.6500 -3.4136
19373SOL     OW63954  10.031   2.157   1.224 -0.3193  0.3740  0.2807
19373SOL    HW163955   9.999   2.069   1.202 -1.0119  0.5091  0.7285
19373SOL    HW263956   9.969   2.216   1.182 -1.3514  0.6348  2.0775
19374SOL     OW63957   7.647   8.260   2.587 -0.6917 -0.1005 -0.6519
19374SOL    HW163958   7.723   8.318   2.591 -1.3919  0.9291 -1.5136
19374SOL    HW263959   7.640   8.224   2.676 -0.7469  1.8551  0.1979
19375SOL     OW63960   2.836   6.538   2.282  0.1040  0.0947  0.0933
19375SOL    HW163961   2.775   6.464   2.279  1.7218 -1.2572 -1.6233
19375SOL    HW263962   2.856   6.548   2.375 -0.5369 -1.2806  0.4107
19376SOL     OW63963   4.506   0.581   7.628 -0.4225 -0.6712 -0.1937
19376SOL    HW163964   4.532   0.650   7.568  0.7296 -0.7566  0.1720
19376SOL    HW263965   4.561   0.506   7.603 -2.3372 -1.8096 -1.2354
19377SOL     OW63966   7.617   3.324   2.501  0.0054  0.2279  0.0037
19377SOL    HW163967   7.614   3.414   2.469  1.5353  0.1498 -0.3939
19377SOL    HW263968   7.542   3.318   2.561 -0.3566  1.6322 -0.2718
19378SOL     OW63969   6.764   6.374   2.514  0.1321 -0.3306 -0.4825
19378SOL    HW163970   6.681   6.391   2.560 -0.2526 -1.1142 -0.8730
19378SOL    HW263971   6.822   6.340   2.582  0.6035  1.4828  0.1021
19379SOL     OW63972   0.823   6.408   1.644 -0.2384  0.6868 -0.5933
19379SOL    HW163973   0.838   6.496   1.608 -0.5561  0.7645 -0.5336
19379SOL    HW263974   0.734   6.411   1.677 -1.5716 -0.7247 -3.6850
19380SOL     OW63975   2.778   9.749   1.860 -0.0700 -0.0823 -0.2541
19380SOL    HW163976   2.847   9.690   1.831  1.0465  1.6114 -1.2141
19380SOL    HW263977   2.816   9.797   1.933 -0.3504  0.5967 -0.5428
19381SOL     OW63978   1.004  10.379   4.687  0.4352  0.0830  0.2958
19381SOL    HW163979   0.996  10.310   4.753 -1.5321  0.0380  0.0554
19381SOL    HW263980   1.089  10.362   4.645  1.3700 -0.3622  2.2280
19382SOL     OW63981   1.489   8.972   9.877  0.3420  0.1034 -0.5841
19382SOL    HW163982   1.520   8.882   9.883  0.2148  0.1112  0.2185
19382SOL    HW263983   1.567   9.025   9.893  0.2896  0.1315 -0.4203
19383SOL     OW63984   2.690   9.431   6.203  0.4426 -0.3810  0.2107
19383SOL    HW163985   2.777   9.462   6.229  0.6052 -0.2100 -0.5047
19383SOL    HW263986   2.672   9.358   6.262  0.8406 -0.0790  0.7175
19384SOL     OW63987   1.240   9.829   5.346 -0.0545 -0.4254  0.2029
19384SOL    HW163988   1.209   9.908   5.392 -0.1435 -0.3667  0.0428
19384SOL    HW263989   1.252   9.764   5.415  1.6230  0.2214  0.5678
19385SOL     OW63990   1.220   8.600   6.366 -0.7585  0.1445 -0.7297
19385SOL    HW163991   1.316   8.593   6.375 -0.5683  1.3581 -1.6496
19385SOL    HW263992   1.203   8.571   6.276 -1.1967  0.5346 -0.7694
19386SOL     OW63993   3.153   5.244   2.218  0.0502 -0.5482  0.1801
19386SOL    HW163994   3.181   5.178   2.282  2.5183  0.3897  0.2043
19386SOL    HW263995   3.058   5.242   2.221  0.0718 -1.8687  2.5028
19387SOL     OW63996   8.073   6.410   7.690  0.2778 -0.5326  0.1892
19387SOL    HW163997   8.120   6.357   7.625  2.0297 -0.0200  0.9790
19387SOL    HW263998   7.986   6.420   7.653  0.2912 -2.8116 -0.6290
19388SOL     OW63999   1.625   2.896   6.754 -0.2658 -0.3947  0.9734
19388SOL    HW164000   1.703   2.886   6.699 -2.0304 -0.0773 -1.7607
19388SOL    HW264001   1.580   2.812   6.748 -2.0495  0.5872 -0.7728
19389SOL     OW64002   2.720   0.991   3.327  0.8399  0.0170  0.6096
19389SOL    HW164003   2.651   1.033   3.379 -1.7889 -1.8082 -1.1699
19389SOL    HW264004   2.716   0.899   3.352 -0.0669 -0.8031 -2.1913
19390SOL     OW64005   3.605   3.347   9.313  0.2239 -0.2226 -0.2637
19390SOL    HW164006   3.638   3.413   9.253 -0.2614  0.9179  0.6854
19390SOL    HW264007   3.649   3.365   9.396  0.5659 -1.5029 -0.1553
19391SOL     OW64008   3.191   9.352   8.838 -0.0116  0.1748 -0.5437
19391SOL    HW164009   3.184   9.442   8.869  0.5022  0.2055 -0.5124
19391SOL    HW264010   3.281   9.327   8.856 -0.5792 -0.9068  0.9850
19392SOL     OW64011   5.169   9.838   1.348 -0.3039 -0.0739 -0.3247
19392SOL    HW164012   5.253   9.795   1.362 -0.0350  0.5528  0.0290
19392SOL    HW264013   5.188   9.912   1.291 -0.7498 -0.3608 -0.8638
19393SOL     OW64014   5.399   4.760   4.872  0.3545  0.0116  0.0532
19393SOL    HW164015   5.309   4.792   4.872  0.0760 -0.6337  2.5112
19393SOL    HW264016   5.438   4.802   4.795 -1.9095  0.6018 -0.8686
19394SOL     OW64017   5.115   4.374   0.249  0.3717  0.0944 -0.3887
19394SOL    HW164018   5.072   4.409   0.327  1.1513 -1.2628  0.6888
19394SOL    HW264019   5.207   4.366   0.274  0.6422 -0.2848 -1.4707
19395SOL     OW64020   9.021  10.512   4.517 -0.3579 -0.0021 -0.0166
19395SOL    HW164021   9.114  10.510   4.497 -0.5000  2.1533 -1.1328
19395SOL    HW264022   9.011  10.449   4.588  2.5652  2.1058  2.5474
19396SOL     OW64023   3.326   2.431   6.425  0.1435  0.0850  0.2275
19396SOL    HW164024   3.355   2.363   6.486 -1.7243  1.3271  2.6720
19396SOL    HW264025   3.404   2.484   6.409  1.4719 -2.1224 -1.2191
19397SOL     OW64026  10.587   1.903   2.709 -0.9775 -0.0893 -0.0240
19397SOL    HW164027  10.596   1.976   2.771  1.2738 -2.0996  2.2220
19397SOL    HW264028  10.633   1.933   2.630  0.4013  0.7702  1.0587
19398SOL     OW64029  10.688   9.552   7.008  0.2901  0.4266  0.2632
19398SOL    HW164030  10.672   9.464   6.973  2.0273  0.2567 -0.1558
19398SOL    HW264031  10.608   9.600   6.985 -0.0175 -0.5885 -0.9708
19399SOL     OW64032   1.713   2.820   0.566 -0.4645 -0.3658  0.0607
19399SOL    HW164033   1.736   2.908   0.535 -2.2556  1.0532  2.4324
19399SOL    HW264034   1.645   2.790   0.506 -2.4441  1.4774  1.2596
19400SOL     OW64035   5.808   1.868  10.177 -0.0780 -0.0410  0.0772
19400SOL    HW164036   5.765   1.948  10.208  0.3972 -0.3458  1.5715
19400SOL    HW264037   5.747   1.798  10.201  0.7821 -0.3810  1.3084
19401SOL     OW64038   1.297   1.245   2.928  0.3446 -0.0670 -0.0230
19401SOL    HW164039   1.222   1.304   2.928  0.2833 -0.1453 -0.1085
19401SOL    HW264040   1.281   1.186   2.854 -0.2398 -1.0295  0.8611
19402SOL     OW64041   4.651  10.369   8.830  0.4330  0.1096 -0.1997
19402SOL    HW164042   4.565  10.344   8.798 -0.4869  1.0144  1.4748
19402SOL    HW264043   4.711  10.309   8.785 -1.0968 -0.9393 -0.9324
19403SOL     OW64044   3.607   2.135   0.658 -0.0121  0.1597 -0.6241
19403SOL    HW164045   3.574   2.047   0.675  1.2777 -0.0132  1.2421
19403SOL    HW264046   3.684   2.121   0.603 -0.5721  0.2493 -1.4503
19404SOL     OW64047   9.314   4.055   5.868  0.0742  0.0323 -0.5510
19404SOL    HW164048   9.393   4.039   5.817  0.7671 -0.7352  0.7187
19404SOL    HW264049   9.315   3.987   5.935 -0.6423  1.1971  0.6683
19405SOL     OW64050   7.219   6.783   0.634 -0.5729 -0.3608  0.1860
19405SOL    HW164051   7.292   6.840   0.657 -0.3474  0.3800 -2.1148
19405SOL    HW264052   7.142   6.839   0.641 -1.0152 -1.1350  2.5881
19406SOL     OW64053   2.806   4.173   4.789 -0.2192  0.1063  0.0900
19406SOL    HW164054   2.836   4.235   4.855  0.0548  1.8684 -1.5893
19406SOL    HW264055   2.711   4.187   4.785 -0.5750 -1.5595  1.5706
19407SOL     OW64056   1.109   9.300   3.109 -0.2029 -0.6427 -0.5253
19407SOL    HW164057   1.179   9.360   3.139 -0.3483 -1.2576  1.1627
19407SOL    HW264058   1.029   9.340   3.142 -0.9856  1.0143 -3.9530
19408SOL     OW64059   6.634  10.586   3.742 -0.4716  0.2735 -0.5456
19408SOL    HW164060   6.585  10.599   3.823 -0.2119 -0.5919 -0.2383
19408SOL    HW264061   6.604  10.656   3.684 -2.8232 -0.8258 -0.7326
19409SOL     OW64062   9.631  10.657   1.851  0.0323  0.1006 -0.4976
19409SOL    HW164063   9.584  10.591   1.802  3.0325 -0.4197 -2.9786
19409SOL    HW264064   9.611  10.739   1.806 -0.4184  0.2772  0.0091
19410SOL     OW64065   0.773  10.599   5.569 -0.1810  0.4368  0.2007
19410SOL    HW164066   0.727  10.675   5.604  0.3775 -0.6443  3.6893
19410SOL    HW264067   0.865  10.619   5.582 -0.0371 -0.9175  1.6000
19411SOL     OW64068   1.346   8.400   2.538 -0.3343  0.5608 -0.0902
19411SOL    HW164069   1.279   8.456   2.498  0.5845  2.2950  0.6639
19411SOL    HW264070   1.427   8.449   2.525  0.3427 -0.0731  1.6030
19412SOL     OW64071   5.403   5.923   0.107 -0.0048 -0.4901 -0.4077
19412SOL    HW164072   5.350   5.847   0.131  1.8841 -1.4169  1.1362
19412SOL    HW264073   5.480   5.886   0.064 -0.0325  0.7243 -1.5675
19413SOL     OW64074   3.770   5.271   8.155  0.4371 -0.0555 -0.0239
19413SOL    HW164075   3.696   5.293   8.100  0.6250 -1.0526 -0.7005
19413SOL    HW264076   3.746   5.188   8.197  0.1898  0.8075  1.6136
19414SOL     OW64077   8.332   0.900   5.740  0.4027  0.2959  0.4133
19414SOL    HW164078   8.239   0.925   5.740  0.4363  0.6215 -1.9166
19414SOL    HW264079   8.372   0.956   5.806 -0.7580  1.3613  0.2552
19415SOL     OW64080   2.820   2.008   3.470 -0.1484 -0.0595 -0.3934
19415SOL    HW164081   2.791   2.094   3.500 -0.9811 -0.1984 -0.7620
19415SOL    HW264082   2.860   2.025   3.384  0.0730  0.0105 -0.2782
19416SOL     OW64083   6.650   2.030   3.956  0.1527  0.2970 -0.2182
19416SOL    HW164084   6.676   2.122   3.951 -0.4281  0.5780  1.4500
19416SOL    HW264085   6.580   2.021   3.891  0.8267  0.7925 -1.0380
19417SOL     OW64086   8.283   1.718   2.074 -0.3655  0.4702 -0.4442
19417SOL    HW164087   8.328   1.765   2.004 -0.9274  1.0248 -0.4425
19417SOL    HW264088   8.262   1.632   2.037 -0.6433  0.7553 -0.9447
19418SOL     OW64089  10.149   1.140   8.567 -0.1682 -0.0438  0.1243
19418SOL    HW164090  10.066   1.139   8.519 -0.1786 -0.1667  0.1440
19418SOL    HW264091  10.154   1.228   8.605 -0.5833 -0.2312  0.6315
19419SOL     OW64092   8.566   3.041   3.306 -0.4438  0.0110 -0.5191
19419SOL    HW164093   8.509   2.987   3.361 -0.4182  0.4976 -0.0103
19419SOL    HW264094   8.653   3.006   3.321 -0.2733  0.9298  0.7112
19420SOL     OW64095   7.483   7.801   9.702 -0.2670  0.3770  0.6061
19420SOL    HW164096   7.475   7.721   9.650  1.4608 -0.2411  1.2415
19420SOL    HW264097   7.525   7.864   9.644  0.1029  0.2223  0.7046
19421SOL     OW64098   7.595   1.737   3.869 -0.4319 -0.5502 -0.0724
19421SOL    HW164099   7.586   1.776   3.956 -0.6950 -0.4572 -0.1381
19421SOL    HW264100   7.661   1.668   3.879  0.5916  0.3963 -0.1198
19422SOL     OW64101   6.380   7.645  10.402  0.5285 -0.4976  0.0803
19422SOL    HW164102   6.333   7.643  10.319  1.4070 -0.4547 -0.4318
19422SOL    HW264103   6.312   7.648  10.469 -0.2448 -2.3993 -0.5587
19423SOL     OW64104   2.866   5.884   2.227 -0.1230 -0.0199  0.2467
19423SOL    HW164105   2.877   5.825   2.153  2.0385 -0.0043  0.4724
19423SOL    HW264106   2.956   5.907   2.253 -0.8495  1.4348  1.6997
19424SOL     OW64107   8.515  10.485   3.706 -0.2933  0.1694 -0.0748
19424SOL    HW164108   8.547  10.426   3.637  0.1469  2.3101 -1.8049
19424SOL    HW264109   8.588  10.490   3.768 -0.0956 -0.6006 -0.2301
19425SOL     OW64110   3.531   3.478   7.579 -0.1243  0.2361  0.1367
19425SOL    HW164111   3.551   3.568   7.606  0.4592 -0.3689  1.8609
19425SOL    HW264112   3.568   3.424   7.648 -0.7876 -1.3297 -0.6885
19426SOL     OW64113   6.916   4.123   7.942 -0.3817 -0.5785 -0.1864
19426SOL    HW164114   6.943   4.207   7.907  0.6608 -1.9272 -2.9130
19426SOL    HW264115   6.821   4.124   7.938 -0.4547  0.9543  1.1875
19427SOL     OW64116   9.745   8.896   6.937 -0.0080  0.2124 -0.0844
19427SOL    HW164117   9.813   8.830   6.952 -0.2324  0.0727  0.3299
19427SOL    HW264118   9.769   8.937   6.854 -0.1644 -0.7769 -0.6386
19428SOL     OW64119   4.313   4.543   0.125  0.5175  0.4132 -0.2631
19428SOL    HW164120   4.315   4.447   0.119 -1.6223  0.3246 -0.4576
19428SOL    HW264121   4.235   4.568   0.076  0.0379  2.1132  1.2739
19429SOL     OW64122   6.433   9.336   1.687 -0.8419  0.2701  0.1124
19429SOL    HW164123   6.514   9.291   1.665 -1.1813 -0.1759 -0.2558
19429SOL    HW264124   6.460   9.412   1.738 -0.1547  0.4218 -0.4724
19430SOL     OW64125  10.223   9.555   0.567  0.7377 -0.2710 -0.0994
19430SOL    HW164126  10.217   9.478   0.511  0.1606  1.1064 -2.0375
19430SOL    HW264127  10.270   9.620   0.514 -0.1969  1.2280  0.8294
19431SOL     OW64128   5.640   9.394   2.182 -0.5435  0.0856 -0.3272
19431SOL    HW164129   5.645   9.471   2.239  1.2632  1.1300 -1.7995
19431SOL    HW264130   5.550   9.363   2.192 -0.3650  0.2730  2.9515
19432SOL     OW64131   0.353   7.222   0.273  0.3706 -0.5673 -0.1603
19432SOL    HW164132   0.370   7.225   0.179  0.8669 -0.9680 -0.0860
19432SOL    HW264133   0.436   7.245   0.314 -0.5175  2.5474  0.1935
19433SOL     OW64134   6.684   6.282   7.914  0.6377  0.1336  0.3422
19433SOL    HW164135   6.618   6.213   7.911  2.2170 -1.4133 -2.0470
19433SOL    HW264136   6.684   6.320   7.826  2.1157  0.8931  0.6330
19434SOL     OW64137   3.087   5.185   1.097  0.1478 -0.0184  0.1171
19434SOL    HW164138   3.032   5.175   1.019  0.4944 -0.5019 -0.0643
19434SOL    HW264139   3.176   5.167   1.067  0.4866  1.2608  0.3052
19435SOL     OW64140   3.120   1.141   1.777  0.2431 -0.1659 -0.3014
19435SOL    HW164141   3.208   1.147   1.814  0.6043  1.7872 -1.3928
19435SOL    HW264142   3.133   1.139   1.683 -0.8875 -0.1230 -0.4766
19436SOL     OW64143   9.644   1.342   0.869  0.3129 -0.1333 -0.0474
19436SOL    HW164144   9.697   1.284   0.924 -0.5426 -0.5504  0.3497
19436SOL    HW264145   9.593   1.393   0.932  0.6722  0.6855 -0.4111
19437SOL     OW64146   9.876   1.502   1.590 -0.1305  0.1594 -0.6705
19437SOL    HW164147   9.849   1.593   1.580  2.1392  0.8168 -1.5288
19437SOL    HW264148   9.832   1.456   1.519  0.2045  0.9775 -1.4314
19438SOL     OW64149   0.186   3.344   6.700  0.2996  0.2805 -0.4428
19438SOL    HW164150   0.210   3.323   6.610  1.0687 -0.6163 -0.0310
19438SOL    HW264151   0.192   3.261   6.747  0.6047  0.8801  0.5942
19439SOL     OW64152   4.812   8.768  10.106  0.2197 -0.8663  0.1564
19439SOL    HW164153   4.797   8.712  10.030  2.1504  0.0794 -0.9926
19439SOL    HW264154   4.842   8.851  10.069 -1.2699  0.5206  1.8688
19440SOL     OW64155   0.983  10.525   7.125  0.4287  0.2875  0.2138
19440SOL    HW164156   1.015  10.541   7.214 -1.6745 -0.9141  1.2555
19440SOL    HW264157   0.967  10.431   7.121 -0.5718  0.4830 -1.0474
19441SOL     OW64158   8.848   5.210   2.291  0.5122  0.3544 -0.2889
19441SOL    HW164159   8.877   5.119   2.289  0.6873  0.4251 -1.6189
19441SOL    HW264160   8.753   5.204   2.303  0.7038  0.0631  1.3533
19442SOL     OW64161   3.768   7.166   3.563  0.6462  0.2855 -0.2740
19442SOL    HW164162   3.741   7.237   3.504 -1.0395 -0.6010 -0.6443
19442SOL    HW264163   3.695   7.104   3.561  1.8079 -1.1879  0.4985
19443SOL     OW64164   4.203   6.254   9.071 -0.2165  0.3962  0.4679
19443SOL    HW164165   4.246   6.338   9.055 -2.2209  1.2067 -1.0571
19443SOL    HW264166   4.245   6.194   9.010  0.4551  0.5368  0.7768
19444SOL     OW64167   4.153   8.715   0.682  0.1329  0.3678 -0.0058
19444SOL    HW164168   4.155   8.620   0.676 -0.1460  0.1417  2.3412
19444SOL    HW264169   4.092   8.743   0.614  1.4555 -0.9484 -1.8461
19445SOL     OW64170   7.926   3.607   7.267 -0.8254 -0.6074  0.2988
19445SOL    HW164171   7.906   3.701   7.262 -0.1408 -0.4043  1.0808
19445SOL    HW264172   7.897   3.581   7.354 -0.1262 -0.8981  0.4500
19446SOL     OW64173   5.805   1.927   7.282  0.5000 -0.2924 -0.6405
19446SOL    HW164174   5.748   1.851   7.289 -2.0085  1.4539 -0.4898
19446SOL    HW264175   5.796   1.954   7.190  0.7466  0.2395 -0.5112
19447SOL     OW64176   0.439   0.650   3.387  0.2940  0.0358 -0.1809
19447SOL    HW164177   0.382   0.673   3.461  0.2431 -1.8645  0.4077
19447SOL    HW264178   0.386   0.591   3.334  0.8027  0.3644 -1.0629
19448SOL     OW64179   1.475   5.811   4.713 -0.2139  0.0495  0.0014
19448SOL    HW164180   1.507   5.800   4.802  1.5814 -1.0811 -0.7077
19448SOL    HW264181   1.454   5.721   4.684  3.9072 -0.4444 -2.2361
19449SOL     OW64182   7.913   7.836   4.294  0.0328 -0.0005  0.7341
19449SOL    HW164183   7.826   7.846   4.333 -0.0863  0.1999  0.4162
19449SOL    HW264184   7.956   7.920   4.308 -1.2465  1.3639 -2.6315
19450SOL     OW64185  10.121   3.828   4.666  0.0460  0.6735 -0.0420
19450SOL    HW164186  10.203   3.827   4.617 -0.3288  0.2317 -0.6659
19450SOL    HW264187  10.109   3.737   4.694 -0.1973  0.7503  0.1106
19451SOL     OW64188   4.424   0.864   7.037 -0.3523 -0.7334 -0.8009
19451SOL    HW164189   4.406   0.928   6.968 -1.1608 -1.0436 -0.8952
19451SOL    HW264190   4.342   0.815   7.046 -0.1017 -1.0199  0.0433
19452SOL     OW64191   9.121   1.127   3.586 -0.0953 -0.2711  0.1071
19452SOL    HW164192   9.093   1.041   3.619 -0.5925 -0.0588  0.2420
19452SOL    HW264193   9.043   1.163   3.544 -0.4183  0.8962  1.6389
19453SOL     OW64194   0.018   0.439   9.916  0.0432  0.5899  0.2389
19453SOL    HW164195   0.083   0.476   9.856  0.9552 -0.7379  0.3759
19453SOL    HW264196   0.052   0.352   9.938 -1.6100  0.0018  0.5987
19454SOL     OW64197   5.364   7.793  10.594 -0.2161  0.3255 -0.4404
19454SOL    HW164198   5.371   7.888  10.606 -0.9122  0.7400 -2.7816
19454SOL    HW264199   5.443   7.768  10.547  0.3858 -0.4517  0.9164
19455SOL     OW64200   1.564   2.028   3.349 -0.1863  0.2498  0.4300
19455SOL    HW164201   1.615   1.987   3.278  2.4174 -0.3160  2.4718
19455SOL    HW264202   1.527   2.107   3.309  2.3336  0.6984 -1.2857
19456SOL     OW64203   0.288   4.596   5.805  0.4420  0.9218 -0.1554
19456SOL    HW164204   0.329   4.595   5.892 -0.6470 -1.2356  0.4146
19456SOL    HW264205   0.361   4.611   5.745  1.3601  1.5712  1.0659
19457SOL     OW64206   7.131   7.218   1.807  0.2437  0.5267 -0.2521
19457SOL    HW164207   7.134   7.265   1.890  1.2182  1.3238 -0.7080
19457SOL    HW264208   7.222   7.219   1.776  0.3348 -1.8446 -0.2104
19458SOL     OW64209   3.469   4.283   9.805 -0.2465  0.2146 -0.1836
19458SOL    HW164210   3.448   4.370   9.841  0.7422  0.1583  0.5906
19458SOL    HW264211   3.558   4.265   9.837 -0.8252 -1.5338  0.5604
19459SOL     OW64212   0.449   1.060   4.752 -0.2560  0.0099  0.4307
19459SOL    HW164213   0.382   1.092   4.691 -0.0206 -1.2912 -0.5689
19459SOL    HW264214   0.418   1.088   4.838 -1.5481  0.3373 -0.1084
19460SOL     OW64215   1.529   8.325   0.004 -0.1702  0.2348  0.0822
19460SOL    HW164216   1.536   8.405  -0.049  0.1699 -0.2094 -0.5574
19460SOL    HW264217   1.547   8.354   0.093 -0.0135  0.8645 -0.1456
19461SOL     OW64218   6.521   0.233   0.596  0.0885  0.1871  0.0710
19461SOL    HW164219   6.607   0.193   0.611 -1.0459 -2.2336  0.5353
19461SOL    HW264220   6.529   0.275   0.511  1.5313 -0.6208 -0.2267
19462SOL     OW64221   2.919   6.958   2.004 -0.1459  0.2377  0.3999
19462SOL    HW164222   2.945   6.891   1.941  0.1917  0.4714  0.2922
19462SOL    HW264223   2.936   6.918   2.090  1.0664  0.5829  0.3300
19463SOL     OW64224   2.394   9.778   2.092  0.1830 -0.2307  0.1944
19463SOL    HW164225   2.410   9.691   2.055  0.9095  0.1181 -0.3373
19463SOL    HW264226   2.413   9.767   2.186 -1.4769 -1.0680  0.4723
19464SOL     OW64227   8.862   4.322   0.582 -0.2153 -0.0256  0.0682
19464SOL    HW164228   8.932   4.352   0.524  0.3936 -0.6985  0.4544
19464SOL    HW264229   8.848   4.231   0.558 -2.1243  0.5260 -1.1551
19465SOL     OW64230   8.206   9.251   1.944  0.2509  0.1037  0.1598
19465SOL    HW164231   8.153   9.186   1.898  0.9032 -1.0182  0.9419
19465SOL    HW264232   8.164   9.335   1.925 -1.6905 -0.7255  0.5982
19466SOL     OW64233   3.705   1.192   2.727 -0.0208 -0.5138  0.3666
19466SOL    HW164234   3.736   1.124   2.666 -1.2389  0.1252 -1.0286
19466SOL    HW264235   3.781   1.211   2.782  0.5848 -2.4241  0.2839
19467SOL     OW64236   7.934   3.151   2.071 -0.8872  0.1665  0.3866
19467SOL    HW164237   7.908   3.186   1.986 -0.7654  1.2227  0.7668
19467SOL    HW264238   7.913   3.221   2.134  1.7413  0.6484  0.8546
19468SOL     OW64239   3.207   8.070   8.910 -0.3994 -0.1358 -0.6662
19468SOL    HW164240   3.223   8.007   8.840 -2.1253 -1.4063  0.0186
19468SOL    HW264241   3.116   8.056   8.935 -0.1754  1.1006  1.0388
19469SOL     OW64242   3.320   9.100   7.752  0.2117 -0.0763  0.3076
19469SOL    HW164243   3.258   9.152   7.700  1.2693  1.3161  0.3758
19469SOL    HW264244   3.405   9.115   7.711  0.6396 -1.3322  0.6851
19470SOL     OW64245   7.885   9.297   4.399 -0.2303  0.0762  0.2801
19470SOL    HW164246   7.793   9.299   4.372  0.4192  0.1543 -2.1432
19470SOL    HW264247   7.887   9.346   4.481 -2.1779  0.9862 -0.1643
19471SOL     OW64248   9.641   0.945   6.000  0.4485  0.1429  0.0022
19471SOL    HW164249   9.655   0.898   6.082 -1.6898 -0.7459 -0.0741
19471SOL    HW264250   9.578   0.892   5.952  2.0138  0.3570 -2.5061
19472SOL     OW64251   0.874   7.812   2.448  0.2683  0.0555 -0.6366
19472SOL    HW164252   0.853   7.904   2.467  1.1148  0.5194 -1.8440
19472SOL    HW264253   0.793   7.765   2.468 -1.4141  1.5252 -3.2949
19473SOL     OW64254   8.943   9.941  10.442  0.7671  0.3182 -0.1292
19473SOL    HW164255   8.935   9.932  10.347 -0.7420  0.1263 -0.0064
19473SOL    HW264256   8.895   9.866  10.477  0.1901  1.1038  0.7907
19474SOL     OW64257   5.780  10.157   1.069 -0.0530  0.2651  0.9948
19474SOL    HW164258   5.869  10.174   1.037  0.3182 -0.0713  1.8263
19474SOL    HW264259   5.755  10.236   1.115 -0.4357  0.5972  0.2409
19475SOL     OW64260   7.040   1.084   3.123 -0.3893  0.2923  0.1337
19475SOL    HW164261   6.945   1.074   3.119 -0.2412 -0.8573 -2.9560
19475SOL    HW264262   7.071   1.005   3.167 -0.8261  0.5238  0.8708
19476SOL     OW64263   9.806   3.999   3.284 -0.0147 -0.1623  0.0005
19476SOL    HW164264   9.770   3.913   3.263 -0.8612  0.1657  0.0691
19476SOL    HW264265   9.888   3.980   3.329 -0.0863 -0.9287 -0.1778
19477SOL     OW64266   2.444  10.177   2.674  0.5459 -0.2602  0.3637
19477SOL    HW164267   2.475  10.265   2.698 -1.4098  0.4658  0.3978
19477SOL    HW264268   2.353  10.190   2.648  0.0630 -2.3681  0.8394
19478SOL     OW64269   3.847   0.782   7.962  0.1709  0.1627 -0.4076
19478SOL    HW164270   3.758   0.747   7.975  0.8269 -1.5049 -0.1303
19478SOL    HW264271   3.884   0.784   8.050  1.5900 -2.6289 -0.8224
19479SOL     OW64272   3.960   6.989   3.455  0.2925  0.3562  0.5071
19479SOL    HW164273   3.904   6.911   3.463  0.7814 -0.2022 -1.1274
19479SOL    HW264274   3.916   7.056   3.508 -0.9754 -0.5769  0.6731
19480SOL     OW64275   7.269   4.715   1.832 -0.8121  0.1560 -0.0312
19480SOL    HW164276   7.360   4.739   1.849 -1.5069  1.2420  2.5062
19480SOL    HW264277   7.248   4.759   1.749  1.3377 -1.3642 -1.5098
19481SOL     OW64278   1.377   5.092   0.409 -0.0243  0.2836  0.7998
19481SOL    HW164279   1.361   5.150   0.334 -0.2446  2.4902  2.4277
19481SOL    HW264280   1.314   5.021   0.398  1.3059 -0.5628 -2.1055
19482SOL     OW64281   8.476   5.132   3.992  0.5051  0.3104 -0.2094
19482SOL    HW164282   8.505   5.223   3.991  1.6248  0.0110  1.3276
19482SOL    HW264283   8.548   5.083   3.952  0.3958 -0.0242 -0.0062
19483SOL     OW64284  10.080   4.306   7.505 -0.2924 -0.1253  0.9080
19483SOL    HW164285  10.053   4.394   7.530  0.0867  0.4731 -0.6362
19483SOL    HW264286  10.093   4.312   7.410 -0.6632 -1.9614  0.7200
19484SOL     OW64287  10.648   5.740  10.236  0.2372 -0.0257 -0.2226
19484SOL    HW164288  10.588   5.814  10.245 -0.3006 -0.4044 -0.6364
19484SOL    HW264289  10.727   5.767  10.283  0.6008  1.3998 -1.5906
19485SOL     OW64290  10.225   0.581   9.975 -0.6067 -0.2087  0.7040
19485SOL    HW164291  10.202   0.636   9.900  1.7673  0.4068  0.3241
19485SOL    HW264292  10.174   0.501   9.964 -1.4553  0.4941 -0.7011
19486SOL     OW64293   9.700   6.601   9.012 -0.1616 -0.1035  0.0857
19486SOL    HW164294   9.738   6.652   9.084 -0.2581  0.1408 -0.0354
19486SOL    HW264295   9.618   6.646   8.992  1.4426  1.9806 -2.5251
19487SOL     OW64296   5.410   1.935   2.799  0.7838 -0.9902 -0.1976
19487SOL    HW164297   5.493   1.959   2.757  0.4716  0.2198 -0.1536
19487SOL    HW264298   5.420   1.963   2.890 -0.2168  0.5624 -0.5388
19488SOL     OW64299   1.434   7.905   4.703 -0.0397 -0.7747  0.1380
19488SOL    HW164300   1.405   7.985   4.660 -1.0629 -1.4060 -0.4058
19488SOL    HW264301   1.383   7.835   4.660  0.7296 -1.6947  0.6817
19489SOL     OW64302   2.262   9.879   8.420  0.4396  0.5335  0.4775
19489SOL    HW164303   2.302   9.867   8.334 -1.3670 -0.7711 -0.2597
19489SOL    HW264304   2.167   9.876   8.403  0.0258 -0.7219  2.6250
19490SOL     OW64305   7.382   9.127   5.658 -0.2264  0.0872 -0.1418
19490SOL    HW164306   7.307   9.153   5.712 -0.9937  0.0365 -1.1691
19490SOL    HW264307   7.385   9.193   5.588  1.1423  0.5193  0.2932
19491SOL     OW64308   4.631   1.230   7.348  0.0642  0.4144 -0.1688
19491SOL    HW164309   4.690   1.280   7.291 -0.5176  0.9854 -0.2888
19491SOL    HW264310   4.629   1.143   7.309  0.4286  0.5341 -0.4646
19492SOL     OW64311   1.782   0.449   8.404 -0.0841 -0.1685  0.0108
19492SOL    HW164312   1.705   0.505   8.406 -0.3174 -0.4275 -1.1415
19492SOL    HW264313   1.763   0.380   8.469 -0.5825  0.0698  0.1251
19493SOL     OW64314   0.149   1.252   7.783 -0.0589  0.0023 -0.6619
19493SOL    HW164315   0.190   1.290   7.705  0.1824  1.4290  0.1297
19493SOL    HW264316   0.061   1.290   7.785  0.5654  1.5367  0.7582
19494SOL     OW64317   6.280   8.211   0.035 -0.1264  0.0678 -0.8798
19494SOL    HW164318   6.292   8.213   0.130 -0.5772 -0.5041 -0.8054
19494SOL    HW264319   6.318   8.293   0.004 -0.9733  0.7865 -0.0855
19495SOL     OW64320   9.257  10.553   0.100 -0.3930 -0.1884  0.0582
19495SOL    HW164321   9.295  10.465   0.096 -0.8033 -0.4097  0.8586
19495SOL    HW264322   9.242  10.568   0.193 -1.7364  0.1114 -0.1804
19496SOL     OW64323   6.530   7.231   9.014  0.4133 -0.0115  0.4086
19496SOL    HW164324   6.527   7.320   9.049 -0.2478  0.3572 -0.5565
19496SOL    HW264325   6.623   7.206   9.018  0.5984  0.7203  0.6794
19497SOL     OW64326  10.385   8.368   5.963  0.5061  0.3431  0.6064
19497SOL    HW164327  10.349   8.348   6.049  0.1303  1.2901  0.6737
19497SOL    HW264328  10.325   8.326   5.901  0.5070  0.0720  0.7891
19498SOL     OW64329   4.646  10.530   2.394  0.2573  0.3243  0.5711
19498SOL    HW164330   4.562  10.557   2.357  0.4651  1.2566  0.7553
19498SOL    HW264331   4.644  10.561   2.484  0.7943  0.3391  0.5837
19499SOL     OW64332   4.869   9.090   9.228 -0.0254  0.4080  0.0762
19499SOL    HW164333   4.820   9.086   9.310 -1.2301 -0.2205 -0.6459
19499SOL    HW264334   4.816   9.042   9.165  1.6804 -0.5951 -0.6868
19500SOL     OW64335   0.496   5.924   1.569  0.3195 -0.0684  0.3827
19500SOL    HW164336   0.523   5.847   1.519  2.7291  0.3125  0.9765
19500SOL    HW264337   0.532   5.998   1.520 -1.8675  0.7578 -0.1294
19501SOL     OW64338  10.309   2.036   9.631  0.3135 -0.2380 -0.9562
19501SOL    HW164339  10.223   2.064   9.601  0.4933  0.5599 -0.7466
19501SOL    HW264340  10.295   2.007   9.721  0.7232  2.5318  0.0893
19502SOL     OW64341   9.540   4.450   9.247  0.4961 -0.4921 -0.0460
19502SOL    HW164342   9.471   4.418   9.304  1.5672 -2.0828  0.4214
19502SOL    HW264343   9.566   4.374   9.195  0.9950  0.4026 -1.1758
19503SOL     OW64344   8.006   0.313   5.082  0.0140 -0.4153  0.1184
19503SOL    HW164345   7.930   0.358   5.119  0.8236  1.3587 -0.2639
19503SOL    HW264346   7.987   0.309   4.988  0.4423  0.2042 -0.0049
19504SOL     OW64347   8.937   7.279  10.075  0.0337 -1.0601  0.0109
19504SOL    HW164348   8.952   7.193  10.035 -0.2389 -0.2563 -1.9643
19504SOL    HW264349   8.961   7.342  10.006  0.0387  0.4467  1.3298
19505SOL     OW64350   5.915   9.645   5.875  0.0875 -0.4961  0.4898
19505SOL    HW164351   5.881   9.728   5.842 -0.1883 -0.8598 -0.1454
19505SOL    HW264352   5.964   9.608   5.803  1.3109 -0.2939  1.1887
19506SOL     OW64353   1.012   5.453   1.703  0.1788 -0.3713 -0.2682
19506SOL    HW164354   0.950   5.407   1.646  1.0385 -2.0380  0.0750
19506SOL    HW264355   1.067   5.504   1.644 -0.3763 -0.2857 -0.7172
19507SOL     OW64356   9.965   4.132   9.296 -0.8065  0.3202 -0.2282
19507SOL    HW164357   9.943   4.222   9.321 -0.2012  0.0119  1.5230
19507SOL    HW264358  10.050   4.140   9.253 -0.9481  0.6225 -0.4611
19508SOL     OW64359   3.481   0.327   7.519 -0.2342 -0.2881  0.5581
19508SOL    HW164360   3.532   0.250   7.494 -0.1052  0.0063 -0.1229
19508SOL    HW264361   3.476   0.323   7.614  1.2416 -0.2178  0.6618
19509SOL     OW64362   7.497   3.753   7.952  0.2033  0.4269 -0.5204
19509SOL    HW164363   7.519   3.839   7.986 -0.7505 -0.2921  2.1910
19509SOL    HW264364   7.581   3.707   7.949  0.3673  0.5820  0.8439
19510SOL     OW64365   6.166   4.964   9.416 -0.6886 -0.3585  0.0050
19510SOL    HW164366   6.176   4.896   9.483  0.6057  0.7535  1.0145
19510SOL    HW264367   6.209   4.928   9.338 -0.4207 -0.8812  0.3908
19511SOL     OW64368   7.558   7.140   0.895  0.4313  0.1006  0.5807
19511SOL    HW164369   7.577   7.216   0.951  0.8544  0.4304  0.0071
19511SOL    HW264370   7.525   7.178   0.814 -0.0335 -0.3662  0.5490
19512SOL     OW64371   6.975   4.026   3.503 -0.0783  0.4254  0.2404
19512SOL    HW164372   7.021   3.975   3.570 -0.4641 -1.2528 -0.7413
19512SOL    HW264373   7.045   4.054   3.443 -0.2882 -2.8509 -1.7311
19513SOL     OW64374   2.890   8.735   3.634  0.1790  0.6755  0.1617
19513SOL    HW164375   2.926   8.700   3.553  0.2521 -0.4349  0.6607
19513SOL    HW264376   2.817   8.791   3.606 -1.0933 -1.2673 -0.5746
19514SOL     OW64377   6.043   0.453   2.271  0.2349 -0.8588 -0.2118
19514SOL    HW164378   6.075   0.531   2.225 -0.7692 -0.3905 -0.1277
19514SOL    HW264379   6.107   0.439   2.341 -0.7044  1.1834  1.1375
19515SOL     OW64380   7.393   7.879   4.914 -0.4405 -0.4767 -0.0428
19515SOL    HW164381   7.365   7.799   4.871  2.5667 -0.8358 -1.5787
19515SOL    HW264382   7.392   7.858   5.008 -2.1211 -1.4186 -0.2411
19516SOL     OW64383   0.991   9.893   0.830  0.4875 -0.5279 -0.3148
19516SOL    HW164384   0.961   9.955   0.764  0.5874 -0.5937 -0.4224
19516SOL    HW264385   1.060   9.941   0.878  0.3046 -0.4230 -0.1523
19517SOL     OW64386   8.901  10.302   6.517  0.2330 -0.0536 -0.2701
19517SOL    HW164387   8.904  10.332   6.607 -0.3585  1.1322 -0.6233
19517SOL    HW264388   8.809  10.277   6.502  0.0144  1.0776 -0.9330
19518SOL     OW64389   1.438   8.580   2.069  0.3090 -0.4140  1.0087
19518SOL    HW164390   1.415   8.561   1.978  0.3971 -1.0131  1.1036
19518SOL    HW264391   1.529   8.611   2.065 -0.4782  2.0689  0.6208
19519SOL     OW64392   0.171   9.364   8.008 -0.0659 -0.3010 -0.0090
19519SOL    HW164393   0.089   9.393   7.967 -0.3601 -1.6447 -0.4078
19519SOL    HW264394   0.175   9.270   7.991  1.9392 -0.1481 -0.6595
19520SOL     OW64395   4.871   6.375   6.831 -0.1506 -0.2881  0.5052
19520SOL    HW164396   4.930   6.443   6.798 -1.2295 -0.9384 -3.3745
19520SOL    HW264397   4.929   6.303   6.856  0.8395  0.4727  0.4583
19521SOL     OW64398  10.593   9.224   7.772 -0.4972  0.5634  0.1770
19521SOL    HW164399  10.539   9.144   7.770  0.0516  0.1768  0.5412
19521SOL    HW264400  10.666   9.202   7.829  0.5722  0.7513 -1.0852
19522SOL     OW64401   2.841   2.988   8.800 -0.8273 -0.5069  0.1560
19522SOL    HW164402   2.894   2.953   8.728 -1.6714 -0.2459 -0.5965
19522SOL    HW264403   2.829   2.913   8.859 -0.9163 -0.9656 -0.4366
19523SOL     OW64404   8.230   6.229   9.520 -0.5903 -0.0390  0.5325
19523SOL    HW164405   8.185   6.274   9.448 -0.1829  0.9521  0.8768
19523SOL    HW264406   8.319   6.265   9.518 -0.3350 -0.6457  0.9860
19524SOL     OW64407   3.893   9.765   3.290 -0.5466 -0.5134  0.0389
19524SOL    HW164408   3.952   9.787   3.218  0.1275 -1.5939  0.2345
19524SOL    HW264409   3.947   9.773   3.369 -0.1511 -3.0348  0.1072
19525SOL     OW64410   2.983   6.237   2.217  0.6162 -0.1437 -0.4304
19525SOL    HW164411   3.063   6.201   2.257 -1.1833 -2.0036  1.8338
19525SOL    HW264412   2.999   6.232   2.123  2.1527 -3.1025 -0.1498
19526SOL     OW64413   6.764   3.322   8.354  0.1421 -0.8220  0.5853
19526SOL    HW164414   6.746   3.415   8.339 -1.0924 -0.8364  1.7124
19526SOL    HW264415   6.715   3.301   8.434 -0.6952 -2.7446 -0.3515
19527SOL     OW64416   9.884   2.582   9.927 -0.3168 -0.4709  0.9428
19527SOL    HW164417   9.930   2.660   9.956 -1.0739 -0.0185  0.9495
19527SOL    HW264418   9.828   2.612   9.855  1.0497 -1.4314 -0.6218
19528SOL     OW64419   3.387   0.035   8.631  0.0339 -0.2307  0.0705
19528SOL    HW164420   3.354  -0.052   8.653 -0.1782 -0.2614 -0.3559
19528SOL    HW264421   3.449   0.020   8.559  0.1675 -0.0531  0.1466
19529SOL     OW64422   0.724   0.319   9.014 -0.0393 -0.2041  0.4528
19529SOL    HW164423   0.693   0.318   9.105 -0.1793  1.2121  0.4344
19529SOL    HW264424   0.756   0.408   9.000  0.0628 -0.4300 -0.8661
19530SOL     OW64425   2.326   4.277   9.598 -0.0294 -0.0705  0.0589
19530SOL    HW164426   2.295   4.307   9.683 -1.2417 -1.9834  0.3685
19530SOL    HW264427   2.249   4.282   9.541  0.1658 -0.9116 -0.3021
19531SOL     OW64428   0.530  10.557   0.180 -0.4128 -0.7402  0.0650
19531SOL    HW164429   0.608  10.561   0.124 -0.4719  2.0203  0.0255
19531SOL    HW264430   0.491  10.645   0.173 -2.4226 -1.4227  1.6471
19532SOL     OW64431   4.866   0.785   3.357  0.2664 -0.1645 -0.6316
19532SOL    HW164432   4.808   0.736   3.415 -2.2165  2.3445 -0.8108
19532SOL    HW264433   4.826   0.776   3.270  0.5729  0.9805 -0.9098
19533SOL     OW64434   8.953   0.155   8.235 -0.4595 -0.1353  0.3327
19533SOL    HW164435   8.933   0.100   8.311  0.5650  2.1771  2.4175
19533SOL    HW264436   8.959   0.244   8.271 -0.1122  1.0945 -2.5201
19534SOL     OW64437   6.659   2.043   5.349 -0.4298  0.7122  0.3400
19534SOL    HW164438   6.628   1.966   5.398 -0.9776  1.1607  0.7135
19534SOL    HW264439   6.734   2.073   5.399 -0.2865  0.4905  0.2602
19535SOL     OW64440   0.935   3.112   6.978 -0.3205  0.1750 -0.0338
19535SOL    HW164441   0.902   3.037   6.930 -0.6440  0.0794  0.3323
19535SOL    HW264442   0.961   3.175   6.910  0.8777 -0.6465 -0.3599
19536SOL     OW64443   7.732   3.272   2.262 -0.1176  0.5692 -0.0826
19536SOL    HW164444   7.669   3.267   2.334 -2.9957 -0.1856 -2.4692
19536SOL    HW264445   7.709   3.200   2.204  1.6812  1.4897 -2.0776
19537SOL     OW64446   4.453   9.056   9.104 -0.0546  0.1533 -0.1301
19537SOL    HW164447   4.366   9.039   9.068 -0.8619  1.3459  1.1382
19537SOL    HW264448   4.462   9.151   9.099  2.7893 -0.0712 -3.6959
19538SOL     OW64449   3.550   7.394   6.938 -0.1487 -0.5670 -0.3563
19538SOL    HW164450   3.464   7.353   6.927  0.2871 -1.6713  0.1756
19538SOL    HW264451   3.611   7.334   6.895  0.2870  0.5817 -1.3800
19539SOL     OW64452   1.827   9.088   0.609  0.4002 -0.4018 -0.3819
19539SOL    HW164453   1.867   9.096   0.696  0.7862 -0.0301 -0.5848
19539SOL    HW264454   1.900   9.105   0.549 -0.2003  0.9844 -0.7537
19540SOL     OW64455   7.557   7.073   4.374 -0.6176 -0.3341 -0.3871
19540SOL    HW164456   7.571   7.085   4.280 -0.0144 -0.2886 -0.2945
19540SOL    HW264457   7.463   7.059   4.382 -0.4887 -1.9756 -1.1822
19541SOL     OW64458   2.406   7.674   8.319  0.2974 -0.3222  0.2198
19541SOL    HW164459   2.318   7.696   8.349  0.1407  0.9898 -1.0436
19541SOL    HW264460   2.415   7.723   8.237  1.8643 -1.1734 -0.1423
19542SOL     OW64461  10.556   2.734  10.334  0.2484 -0.0412 -0.1460
19542SOL    HW164462  10.521   2.731  10.423  0.7733 -0.3803  0.0525
19542SOL    HW264463  10.634   2.788  10.341 -1.0558  2.0668 -0.8934
19543SOL     OW64464  10.213   3.708   7.327  0.0354  0.2446 -0.2049
19543SOL    HW164465  10.294   3.685   7.282  0.4518 -0.5641  0.8914
19543SOL    HW264466  10.199   3.800   7.306  0.1985 -0.0956 -1.9458
19544SOL     OW64467   7.156   6.332   2.412  0.7066  0.3695  0.0420
19544SOL    HW164468   7.140   6.268   2.481 -3.2602  1.4113  0.3504
19544SOL    HW264469   7.148   6.417   2.456  1.0506  1.0499 -1.1641
19545SOL     OW64470   0.971   0.261   9.781  0.2195 -0.2463 -0.2825
19545SOL    HW164471   0.999   0.332   9.839 -1.7957  0.3746 -0.0145
19545SOL    HW264472   0.881   0.242   9.807 -0.0787 -1.2802 -1.9250
19546SOL     OW64473   0.453   1.549   9.514 -0.5401  0.2765  0.0936
19546SOL    HW164474   0.377   1.507   9.555  0.0739  0.1164  1.0861
19546SOL    HW264475   0.421   1.637   9.490 -0.7998  0.5265  1.2919
19547SOL     OW64476   5.523   0.013   4.586 -0.4521  0.2875 -0.6104
19547SOL    HW164477   5.463  -0.052   4.549 -0.6935 -0.8085  1.5344
19547SOL    HW264478   5.575  -0.036   4.650 -1.0245  2.2425  1.5031
19548SOL     OW64479   3.468   1.450   1.546 -0.6944  0.1862  0.0010
19548SOL    HW164480   3.425   1.490   1.470  0.9304  3.4128  0.6133
19548SOL    HW264481   3.434   1.499   1.621  2.3340  1.4722  0.6817
19549SOL     OW64482  10.667   3.095   0.519  0.6754  0.6576 -0.2917
19549SOL    HW164483  10.596   3.158   0.508 -0.5232 -0.8845 -2.1091
19549SOL    HW264484  10.636   3.036   0.588  0.7601  0.6932 -0.2221
19550SOL     OW64485   5.145   7.919   5.778 -0.1565  0.1333  0.1285
19550SOL    HW164486   5.203   7.845   5.793  0.6666  0.5845 -0.7224
19550SOL    HW264487   5.105   7.936   5.864  0.2141 -0.8089  0.4987
19551SOL     OW64488   5.285   2.786   1.352 -0.3149 -0.0804 -0.3001
19551SOL    HW164489   5.311   2.819   1.437  0.7059 -0.8514 -0.2924
19551SOL    HW264490   5.357   2.808   1.294  0.5397 -2.4076 -0.2405
19552SOL     OW64491   6.332   2.733   4.578  0.1820  0.0486 -0.0030
19552SOL    HW164492   6.328   2.801   4.645 -2.1274  0.8575 -0.8590
19552SOL    HW264493   6.241   2.720   4.551  1.0357  0.6586 -3.8541
19553SOL     OW64494   1.984   4.203   6.079 -0.2880 -0.0717 -0.1854
19553SOL    HW164495   2.028   4.288   6.081 -0.6159  0.0932  1.3232
19553SOL    HW264496   1.899   4.220   6.038 -1.9889  1.2449  3.4497
19554SOL     OW64497   1.316   1.961   1.835 -0.2035  0.5844  0.2571
19554SOL    HW164498   1.310   2.044   1.788  1.4191  0.2847 -0.5432
19554SOL    HW264499   1.389   1.915   1.794 -3.2492 -2.8983 -1.8929
19555SOL     OW64500  10.710   3.093   4.872 -0.1473  0.5862 -0.1719
19555SOL    HW164501  10.670   3.086   4.959  2.9511 -1.5429  1.2471
19555SOL    HW264502  10.702   3.005   4.835  3.8752 -0.3694  0.7045
19556SOL     OW64503   5.678   8.876   5.090  0.1325 -0.1178  0.1985
19556SOL    HW164504   5.722   8.797   5.060 -0.3533 -0.1980 -0.3198
19556SOL    HW264505   5.729   8.948   5.052 -0.3500 -0.2156 -0.6638
19557SOL     OW64506   6.175   3.409   0.535 -0.1122  0.1350  0.3235
19557SOL    HW164507   6.189   3.323   0.494 -2.8595 -0.1445 -0.2376
19557SOL    HW264508   6.171   3.470   0.462 -0.8376  0.3145  0.5114
19558SOL     OW64509   1.186   0.144   7.437 -0.2172 -0.3634  0.4656
19558SOL    HW164510   1.092   0.123   7.432 -0.6480  1.4928 -0.2798
19558SOL    HW264511   1.192   0.205   7.511 -0.1327  1.7382 -1.1642
19559SOL     OW64512   3.533   8.062  10.519  0.0725  0.0361 -0.4824
19559SOL    HW164513   3.620   8.059  10.480 -0.0800 -0.0150 -0.8270
19559SOL    HW264514   3.539   8.129  10.587  0.5173 -0.3286 -0.1610
19560SOL     OW64515   1.112   5.460   2.732 -0.2114 -0.4360 -0.2190
19560SOL    HW164516   1.121   5.540   2.783 -0.2770 -1.1444  0.9218
19560SOL    HW264517   1.202   5.432   2.716 -0.2029 -0.4729 -0.0993
19561SOL     OW64518   0.685   5.076   2.487 -0.0836 -0.2814 -0.3053
19561SOL    HW164519   0.751   5.144   2.473  1.1683 -1.7837 -2.3783
19561SOL    HW264520   0.631   5.078   2.408 -0.3501 -1.2978 -0.1668
19562SOL     OW64521   8.845   0.533   2.487  0.3497  0.5565  0.1074
19562SOL    HW164522   8.772   0.478   2.517 -0.0215  0.2852 -1.2440
19562SOL    HW264523   8.923   0.477   2.499  0.1509  0.2679  0.0689
19563SOL     OW64524   0.880   3.641  10.187  0.0957  0.8230 -0.2852
19563SOL    HW164525   0.864   3.603  10.100 -0.2782  0.8237 -0.2182
19563SOL    HW264526   0.835   3.725  10.185  1.5221  1.6253 -0.6848
19564SOL     OW64527   8.598   8.149   6.838  0.6698 -0.2155  0.1171
19564SOL    HW164528   8.631   8.148   6.928  0.1045  0.3417  0.3307
19564SOL    HW264529   8.564   8.061   6.824  0.7637 -0.3052  0.4464
19565SOL     OW64530   8.249   0.541   4.991 -0.2264 -0.4060 -0.2466
19565SOL    HW164531   8.268   0.596   5.067 -0.1120  0.6489 -1.0095
19565SOL    HW264532   8.204   0.464   5.027 -2.2443  1.1094  0.6913
19566SOL     OW64533   5.846   2.372   4.605 -0.1389 -0.1829  0.0285
19566SOL    HW164534   5.764   2.354   4.558 -0.3498  2.4453 -0.7499
19566SOL    HW264535   5.819   2.417   4.685  0.5293  1.5536 -0.6792
19567SOL     OW64536   3.903   6.723   2.261 -0.1732  0.0341  0.5882
19567SOL    HW164537   3.887   6.683   2.175  2.1468  1.5417 -0.6330
19567SOL    HW264538   3.815   6.736   2.297 -1.3435  0.4994 -2.1157
19568SOL     OW64539   9.951   0.132   5.150  0.0518 -0.3806  0.3746
19568SOL    HW164540  10.015   0.168   5.088  0.3974 -1.9144 -0.2279
19568SOL    HW264541   9.901   0.069   5.098 -0.1430 -1.1657  1.4764
19569SOL     OW64542   4.014   9.011   3.662 -0.0371  0.7306 -0.4301
19569SOL    HW164543   3.967   9.013   3.578 -0.6039  0.2815 -0.1340
19569SOL    HW264544   4.041   8.920   3.672  0.8955  0.9868 -0.5893
19570SOL     OW64545   4.603   7.934   5.907  0.3588 -0.2374  0.1410
19570SOL    HW164546   4.660   7.971   5.839  2.2007  0.2274  1.8399
19570SOL    HW264547   4.527   7.992   5.909  1.2023  0.9179 -0.1864
19571SOL     OW64548   1.075   0.149   1.443 -0.8469 -0.1519  0.3432
19571SOL    HW164549   1.149   0.205   1.419  0.0823 -1.5640 -0.2648
19571SOL    HW264550   1.008   0.167   1.377 -1.3048  1.5467  1.2188
19572SOL     OW64551   8.261   4.146   1.148 -0.2895 -0.1745  0.4298
19572SOL    HW164552   8.250   4.068   1.094 -0.7256 -1.0100  1.6843
19572SOL    HW264553   8.355   4.154   1.161 -0.2962 -1.2101  1.2707
19573SOL     OW64554   3.413  10.487   1.113 -0.6338 -0.3829 -0.2083
19573SOL    HW164555   3.344  10.433   1.073 -0.5367  0.4585 -1.5397
19573SOL    HW264556   3.372  10.572   1.127 -0.7886 -0.7435  1.9043
19574SOL     OW64557   2.194   1.548   4.743 -0.2881 -0.3196 -0.4800
19574SOL    HW164558   2.243   1.511   4.816 -0.0056  1.3604  0.2241
19574SOL    HW264559   2.224   1.498   4.667 -0.9524 -2.4334  0.5745
19575SOL     OW64560  10.192   7.168   9.012 -0.1459 -0.1904 -0.0056
19575SOL    HW164561  10.270   7.201   9.058  0.0515  0.0777 -0.5244
19575SOL    HW264562  10.225   7.099   8.955 -0.2586  0.0524 -0.3670
19576SOL     OW64563  10.713  10.070   5.523 -0.0011  0.2282 -0.6845
19576SOL    HW164564  10.779  10.010   5.559  1.1904  2.3384  0.8427
19576SOL    HW264565  10.682  10.026   5.444  0.9794 -2.2700  0.2088
19577SOL     OW64566   4.117   0.158   0.342  0.2161  0.1346  0.3157
19577SOL    HW164567   4.038   0.119   0.307  0.8199 -1.0621  0.2508
19577SOL    HW264568   4.089   0.204   0.421 -0.4557 -0.7599  0.6076
19578SOL     OW64569  10.233   9.312   9.344 -0.0054  0.2519  0.0362
19578SOL    HW164570  10.222   9.332   9.437 -1.0999  0.8968 -0.2163
19578SOL    HW264571  10.328   9.314   9.330  0.0792  2.3897  0.6638
19579SOL     OW64572   4.283   4.315   3.396  0.2427  0.2693  0.5248
19579SOL    HW164573   4.319   4.250   3.336 -0.2949  1.2296 -0.9006
19579SOL    HW264574   4.359   4.369   3.421 -0.0446  2.5900 -2.8463
19580SOL     OW64575   1.116   0.380   5.775  0.1302  0.1632  0.0547
19580SOL    HW164576   1.193   0.437   5.776  0.2228  0.0427 -0.1807
19580SOL    HW264577   1.147   0.298   5.814 -0.1781  0.4952  1.0239
19581SOL     OW64578   6.805   9.416   0.879  0.1508  0.0949 -0.0924
19581SOL    HW164579   6.745   9.387   0.810  2.0409 -1.4362 -1.1826
19581SOL    HW264580   6.771   9.377   0.959 -0.8403  0.0692 -0.5107
19582SOL     OW64581   0.414   8.515  10.532  0.0628  0.2795  0.6890
19582SOL    HW164582   0.464   8.447  10.487  0.2281  1.5272 -1.1121
19582SOL    HW264583   0.468   8.593  10.524 -0.4318  0.7950  2.1428
19583SOL     OW64584   4.745   4.322   5.106  0.4444 -0.3801  0.0106
19583SOL    HW164585   4.727   4.330   5.200 -0.3161 -1.2746 -0.0415
19583SOL    HW264586   4.659   4.310   5.066  0.3134  3.6170 -1.2805
19584SOL     OW64587   4.648   8.803   3.535 -0.3447 -0.6019  0.2397
19584SOL    HW164588   4.651   8.781   3.441 -2.1928  0.1767 -0.0351
19584SOL    HW264589   4.737   8.834   3.554  0.3181 -1.5878 -1.0253
19585SOL     OW64590   7.290   2.274   7.004 -0.2741  0.0262  0.0310
19585SOL    HW164591   7.290   2.179   6.994  0.1759  0.1031 -0.7873
19585SOL    HW264592   7.341   2.289   7.083  0.4028 -0.3796 -0.3139
19586SOL     OW64593   7.531   3.140   8.061  0.1094 -0.0862  0.7247
19586SOL    HW164594   7.469   3.213   8.063  1.4693  1.2922 -1.9293
19586SOL    HW264595   7.478   3.065   8.034 -0.7162  0.6929  0.1200
19587SOL     OW64596   7.757   4.774   5.638 -0.0639  0.3731  0.4951
19587SOL    HW164597   7.669   4.741   5.620  0.3204 -1.6640  1.8597
19587SOL    HW264598   7.755   4.799   5.731  0.6890  0.6460  0.4496
19588SOL     OW64599   2.040   0.566   8.333  0.0290  0.0177  0.6184
19588SOL    HW164600   2.085   0.527   8.408  1.5037 -2.1085 -1.2058
19588SOL    HW264601   1.951   0.531   8.338  0.2336 -0.4475  1.1649
19589SOL     OW64602   6.591   5.510   2.045 -0.2271  0.4318 -0.4741
19589SOL    HW164603   6.632   5.424   2.048 -0.5560  0.2524 -0.9429
19589SOL    HW264604   6.659   5.569   2.013  0.0340  0.3672 -0.0372
19590SOL     OW64605  10.423   5.432   1.675  0.0278 -0.3156  0.6896
19590SOL    HW164606  10.378   5.374   1.737 -2.6737  1.2514  0.3237
19590SOL    HW264607  10.387   5.409   1.590  1.4723 -0.3799  0.0725
19591SOL     OW64608   4.535   6.504   6.624 -0.3377 -0.9755 -0.4149
19591SOL    HW164609   4.610   6.548   6.585 -1.0620 -0.3654 -1.1565
19591SOL    HW264610   4.477   6.484   6.550 -1.2237 -0.8060  0.2177
19592SOL     OW64611   8.837   6.864   2.002 -0.1279 -0.0531  0.0248
19592SOL    HW164612   8.759   6.848   1.950  1.1715 -1.6747 -1.5465
19592SOL    HW264613   8.820   6.819   2.085 -0.6300 -0.9697 -0.5518
19593SOL     OW64614   1.275   3.096   5.862  0.2194 -0.2317  0.5736
19593SOL    HW164615   1.238   3.148   5.933 -2.0269  0.7174 -1.1748
19593SOL    HW264616   1.235   3.009   5.872 -0.6368  0.1000  0.0866
19594SOL     OW64617   4.383   7.136   3.492 -0.5280  0.2096 -0.1806
19594SOL    HW164618   4.433   7.166   3.569  0.9178  0.0374 -1.0065
19594SOL    HW264619   4.375   7.214   3.437 -4.4182  1.2159  1.4772
19595SOL     OW64620   3.059   1.098   1.124 -0.1787  0.0091  0.1281
19595SOL    HW164621   3.028   1.097   1.033  0.7583 -1.0656 -0.2026
19595SOL    HW264622   2.980   1.089   1.176 -0.5113 -3.8557 -0.7200
19596SOL     OW64623   4.858   0.199  10.426 -0.1221  0.1121 -0.7368
19596SOL    HW164624   4.837   0.286  10.394 -1.6069  0.4852  1.0931
19596SOL    HW264625   4.853   0.206  10.521 -1.0377 -2.1226 -0.5578
19597SOL     OW64626   6.392   9.226   5.808  0.2155 -0.0771  0.1344
19597SOL    HW164627   6.368   9.309   5.848 -0.5596  0.2608 -1.0042
19597SOL    HW264628   6.464   9.247   5.749  0.8755 -0.4501  0.7868
19598SOL     OW64629   7.927   3.366   2.903  0.0436  0.1228  0.2228
19598SOL    HW164630   7.841   3.337   2.874  0.3167  0.3194 -0.8371
19598SOL    HW264631   7.988   3.323   2.843  0.7770 -1.0128  1.7436
19599SOL     OW64632   6.827   8.727   3.120  0.2056 -0.0399  0.0752
19599SOL    HW164633   6.810   8.789   3.049 -1.0657  0.4243  0.7644
19599SOL    HW264634   6.877   8.777   3.184  2.0121 -0.6600 -0.7505
19600SOL     OW64635   5.020   7.644   3.170 -0.4195 -0.4664  0.6045
19600SOL    HW164636   5.051   7.669   3.083  0.6039 -0.6490  0.9002
19600SOL    HW264637   4.944   7.588   3.153 -0.5921 -0.0218 -0.1494
19601SOL     OW64638   7.282   7.550   5.859 -0.0786 -1.2508 -0.4963
19601SOL    HW164639   7.312   7.500   5.784  0.4447  0.1094 -1.2315
19601SOL    HW264640   7.351   7.615   5.875 -0.2932 -1.3447  1.0123
19602SOL     OW64641   5.283   5.994  10.268  0.1065 -0.1568  0.1901
19602SOL    HW164642   5.369   6.008  10.228  0.5197  1.2524  1.4699
19602SOL    HW264643   5.291   5.909  10.312  0.7871 -0.1204  0.1554
19603SOL     OW64644   6.809   3.931   7.440  0.3242 -0.4040  0.2531
19603SOL    HW164645   6.720   3.961   7.421  0.4972 -0.1968 -0.2545
19603SOL    HW264646   6.842   3.995   7.504 -0.5175 -1.5242  1.8829
19604SOL     OW64647   9.272   5.415   9.161  0.0303  0.2267 -0.1468
19604SOL    HW164648   9.223   5.488   9.198 -3.7272 -2.1273 -0.0027
19604SOL    HW264649   9.318   5.377   9.236 -1.4044  0.0198  0.6681
19605SOL     OW64650   0.033   2.954   5.824 -0.1039  0.1758  0.4744
19605SOL    HW164651   0.005   2.865   5.846 -1.9920  0.8250  0.8737
19605SOL    HW264652   0.026   2.959   5.728 -1.0137  0.2142  0.5435
19606SOL     OW64653   1.056   0.726   6.499  0.0114  0.0833 -0.0039
19606SOL    HW164654   0.998   0.660   6.460  1.5234 -0.4614 -1.4356
19606SOL    HW264655   1.058   0.796   6.434 -0.4148  0.8963  0.8467
19607SOL     OW64656   6.724   3.310   9.390  0.1269 -0.2399 -0.2816
19607SOL    HW164657   6.736   3.404   9.404  0.3921 -0.2110 -0.6907
19607SOL    HW264658   6.813   3.275   9.386  0.0747 -0.9995  2.9443
19608SOL     OW64659   0.077   0.901   5.804 -0.0932  0.0702 -0.5345
19608SOL    HW164660   0.162   0.912   5.847 -0.1163  0.5103 -0.5959
19608SOL    HW264661   0.079   0.812   5.770  0.1390 -0.1001 -0.0892
19609SOL     OW64662   8.341   4.082   4.888  0.0044  0.2549  0.1400
19609SOL    HW164663   8.253   4.107   4.861  0.0763 -0.7247 -1.1064
19609SOL    HW264664   8.393   4.087   4.808  0.5768 -1.2257  0.3843
19610SOL     OW64665   9.806   8.808   5.915 -0.3665 -0.7270  0.2822
19610SOL    HW164666   9.714   8.790   5.934 -0.1609 -1.6151  0.4983
19610SOL    HW264667   9.811   8.903   5.904 -1.2184 -0.6226  0.7627
19611SOL     OW64668   6.240   8.862   5.323 -0.1287  0.4974 -0.2036
19611SOL    HW164669   6.238   8.874   5.418 -1.6659  0.8546 -0.2496
19611SOL    HW264670   6.315   8.805   5.307 -0.3936 -0.3162  1.3170
19612SOL     OW64671   6.896   8.920   2.558  0.3744 -0.0106 -0.0582
19612SOL    HW164672   6.905   8.942   2.465  0.8787  0.1597  0.0290
19612SOL    HW264673   6.802   8.920   2.573  0.3135  0.8775 -0.3540
19613SOL     OW64674   8.586  10.366   3.203  0.1343 -0.1274  0.7907
19613SOL    HW164675   8.580  10.404   3.116  0.4551 -2.1305 -0.1760
19613SOL    HW264676   8.679  10.347   3.214 -0.0456 -0.8932  1.0799
19614SOL     OW64677   4.759   5.608   3.179 -0.2440  0.2343  0.2730
19614SOL    HW164678   4.696   5.602   3.107  0.2433 -0.3313 -0.1200
19614SOL    HW264679   4.756   5.700   3.205 -1.7285  0.0818  0.7330
19615SOL     OW64680   3.869   0.531   2.740 -0.9060  0.0680 -0.9729
19615SOL    HW164681   3.926   0.563   2.810 -1.1761 -0.2823 -0.5864
19615SOL    HW264682   3.893   0.583   2.663 -1.1367  0.9964 -0.4329
19616SOL     OW64683   6.207   1.353   6.182 -0.4689  0.4873  0.1415
19616SOL    HW164684   6.165   1.272   6.152 -1.0775  1.2840 -1.2848
19616SOL    HW264685   6.134   1.410   6.205 -0.0468  0.6662  1.0609
19617SOL     OW64686   2.540   0.781   0.417  1.1808  0.0203 -0.5548
19617SOL    HW164687   2.477   0.722   0.458 -0.3869  2.5301  0.9173
19617SOL    HW264688   2.625   0.742   0.436  0.2890 -1.1653  1.3582
19618SOL     OW64689   3.349   3.732   6.223 -0.1621 -0.1644  0.1426
19618SOL    HW164690   3.268   3.696   6.259  0.1146 -0.5601  0.3766
19618SOL    HW264691   3.349   3.824   6.251  0.1295 -0.5064  1.2968
19619SOL     OW64692   8.066   8.329   6.452  0.5202 -0.5985 -0.5482
19619SOL    HW164693   7.979   8.331   6.414 -0.0917 -0.7167  0.7789
19619SOL    HW264694   8.051   8.329   6.547  1.9648  1.1876 -0.2378
19620SOL     OW64695   9.657   9.256  10.549  0.2868 -0.0765  0.6871
19620SOL    HW164696   9.744   9.250  10.587  0.8140  0.7027 -0.3557
19620SOL    HW264697   9.638   9.168  10.517  0.7360 -0.2171  0.8069
19621SOL     OW64698   1.954  10.595   2.721  0.0580  0.2498 -0.1182
19621SOL    HW164699   2.039  10.587   2.764 -0.7361 -1.1665  1.3357
19621SOL    HW264700   1.930  10.505   2.700 -1.6139  0.4744  0.6667
19622SOL     OW64701   7.622   0.516   9.403 -0.3515 -0.4694 -0.3793
19622SOL    HW164702   7.717   0.516   9.388 -0.0308 -0.5378  1.4157
19622SOL    HW264703   7.590   0.592   9.355  0.5882 -0.5142 -1.1126
19623SOL     OW64704   9.599   7.183   9.858  0.4118  0.1096  0.2030
19623SOL    HW164705   9.554   7.268   9.856  1.8062  0.9119  1.2307
19623SOL    HW264706   9.665   7.189   9.789  1.2220  0.2981  0.9776
19624SOL     OW64707   6.551   1.579   3.557  0.0808 -0.5464 -0.2732
19624SOL    HW164708   6.545   1.659   3.609 -0.1043 -1.6022  1.4166
19624SOL    HW264709   6.583   1.608   3.471 -0.8029  1.4209  0.0170
19625SOL     OW64710   0.925   2.269   6.151  0.1570  0.6938  0.1383
19625SOL    HW164711   0.944   2.212   6.077 -2.0753  1.3187 -0.9889
19625SOL    HW264712   0.832   2.257   6.169  0.2355  1.9129  1.6856
19626SOL     OW64713   0.432   2.124  10.060  0.2187 -0.5138 -0.1838
19626SOL    HW164714   0.458   2.120   9.968 -1.1414  1.3064 -0.7100
19626SOL    HW264715   0.414   2.217  10.076 -0.9331 -0.9815  1.5477
19627SOL     OW64716  10.686   4.402   0.431  0.2896  0.4868  0.3695
19627SOL    HW164717  10.670   4.349   0.354 -0.1363  0.5499  0.4115
19627SOL    HW264718  10.715   4.339   0.498  2.9709  0.7059 -0.4739
19628SOL     OW64719   1.074   4.150   8.858  0.1623 -0.2227 -0.5411
19628SOL    HW164720   1.019   4.194   8.923 -1.0570 -2.6182  0.1804
19628SOL    HW264721   1.149   4.209   8.846 -1.0671  1.7303  0.7144
19629SOL     OW64722   2.144   8.997   2.106 -0.3197  0.5650 -0.3032
19629SOL    HW164723   2.049   8.988   2.100 -0.3202  0.7102 -0.5067
19629SOL    HW264724   2.177   8.971   2.020 -0.0671 -0.8599  0.2034
19630SOL     OW64725   0.570   0.125   5.813 -0.2703  0.5945  0.5308
19630SOL    HW164726   0.479   0.106   5.837 -0.3657  1.6525  1.0887
19630SOL    HW264727   0.573   0.111   5.718 -0.0969 -2.8389  0.9428
19631SOL     OW64728   0.673   7.407   2.950  0.7757 -0.1280 -0.2313
19631SOL    HW164729   0.732   7.431   3.022 -1.0972  0.6937  1.1092
19631SOL    HW264730   0.700   7.464   2.878  1.3458  0.5530  0.4925
19632SOL     OW64731   9.473   3.548   8.449  0.0937 -0.1546  0.1424
19632SOL    HW164732   9.515   3.606   8.386 -1.2152 -0.1044 -0.7157
19632SOL    HW264733   9.416   3.492   8.396 -2.0051  0.7151  1.3487
19633SOL     OW64734   5.233   4.342   2.939  0.5199 -0.3757  0.5646
19633SOL    HW164735   5.188   4.283   3.000 -1.6250 -0.0845 -0.6201
19633SOL    HW264736   5.219   4.302   2.853  4.4892 -1.4083  0.2062
19634SOL     OW64737   8.389   7.398   3.717  0.1223 -0.3901  0.2249
19634SOL    HW164738   8.471   7.354   3.739  0.2925  0.2217  0.8388
19634SOL    HW264739   8.322   7.348   3.763  0.1172 -0.9917 -0.4103
19635SOL     OW64740   7.780   7.065   7.810  0.1256 -0.0066 -0.0215
19635SOL    HW164741   7.750   7.154   7.793 -1.9456 -1.0542 -2.4375
19635SOL    HW264742   7.701   7.012   7.806  1.5950 -2.2673 -1.1588
19636SOL     OW64743   7.416   3.300   1.334 -0.2013 -0.4152 -0.8227
19636SOL    HW164744   7.394   3.340   1.250 -2.0636 -1.8216 -1.0709
19636SOL    HW264745   7.391   3.208   1.324 -0.1650 -0.6794  1.1590
19637SOL     OW64746   8.098   0.953   1.528  0.0358 -0.0351  0.4438
19637SOL    HW164747   8.123   0.960   1.436  2.6149 -0.3522  1.0333
19637SOL    HW264748   8.099   0.859   1.546  1.3888  0.1004  1.2059
19638SOL     OW64749   4.201   0.627   8.089 -0.2734 -0.0217  0.0264
19638SOL    HW164750   4.148   0.584   8.156 -2.1199 -1.1533 -2.0435
19638SOL    HW264751   4.272   0.565   8.071 -2.2182 -1.7978 -2.0436
19639SOL     OW64752   2.446   1.136   5.302  0.0399 -0.5263 -0.3613
19639SOL    HW164753   2.524   1.092   5.268  0.3273 -0.5641  0.3260
19639SOL    HW264754   2.377   1.071   5.295 -0.1409 -0.2080 -1.7824
19640SOL     OW64755   7.684   9.253   7.235 -0.9393 -0.0805  0.6679
19640SOL    HW164756   7.715   9.307   7.307 -0.8053  0.2877  0.3373
19640SOL    HW264757   7.737   9.279   7.160 -1.8154  0.3314  0.1701
19641SOL     OW64758   0.795   0.307   8.620  0.2405  0.3589 -0.2458
19641SOL    HW164759   0.743   0.268   8.690  0.9017  0.4489  0.3018
19641SOL    HW264760   0.749   0.389   8.600  0.6044  0.8365  0.8011
19642SOL     OW64761  10.245   6.284   0.291  0.5104 -0.1698 -0.3038
19642SOL    HW164762  10.236   6.354   0.227 -2.4980  0.6151  0.8308
19642SOL    HW264763  10.329   6.302   0.335  0.7985  1.4568 -1.4392
19643SOL     OW64764   0.439   2.185   6.305 -0.3914 -0.6442  0.2521
19643SOL    HW164765   0.374   2.255   6.307 -1.1103 -1.2965  1.2310
19643SOL    HW264766   0.388   2.105   6.291  0.3704 -1.0178 -0.5015
19644SOL     OW64767   3.588   1.041   3.515 -0.3248 -0.2290  0.1517
19644SOL    HW164768   3.600   1.005   3.427 -1.2562 -0.9895  0.3224
19644SOL    HW264769   3.660   1.002   3.566  0.1271  0.0946 -0.2296
19645SOL     OW64770   7.437   1.468   8.124 -0.8842  0.4347 -0.4819
19645SOL    HW164771   7.405   1.467   8.034 -0.6133 -1.9677 -0.6327
19645SOL    HW264772   7.359   1.448   8.177 -1.1156  2.1790 -0.1057
19646SOL     OW64773   8.479   4.588   0.618 -0.0526  0.3492  0.4002
19646SOL    HW164774   8.407   4.646   0.646 -0.7815 -0.4374  0.1993
19646SOL    HW264775   8.528   4.641   0.555 -0.5140  0.8684  0.4595
19647SOL     OW64776   6.101  10.464   3.896 -0.0866  0.0336 -0.0947
19647SOL    HW164777   6.192  10.462   3.867 -0.3231 -0.7116 -0.8153
19647SOL    HW264778   6.090  10.550   3.936  0.4519  0.8455 -1.6150
19648SOL     OW64779   5.162   8.615   8.367  0.7216  0.0723  0.4430
19648SOL    HW164780   5.070   8.621   8.342  0.6174 -1.8927  0.1488
19648SOL    HW264781   5.161   8.613   8.463  0.5049  0.6420  0.4512
19649SOL     OW64782   3.640   7.880   0.808  0.0090 -0.1955  0.1918
19649SOL    HW164783   3.574   7.921   0.864 -0.8595 -1.5748  0.2316
19649SOL    HW264784   3.604   7.886   0.720 -1.1161 -2.5516  0.4070
19650SOL     OW64785   6.967   1.367   9.401 -0.2359  1.0491 -0.4514
19650SOL    HW164786   7.024   1.419   9.344  1.3584 -0.9574 -0.7760
19650SOL    HW264787   6.987   1.399   9.489 -0.2369  1.8517 -0.7272
19651SOL     OW64788   7.136   0.331   4.450  0.0209 -0.5572  0.1418
19651SOL    HW164789   7.134   0.426   4.439 -0.8097 -0.7671 -1.9118
19651SOL    HW264790   7.184   0.299   4.374  2.1227 -1.7198  1.8262
19652SOL     OW64791   9.093   1.282   9.498 -0.2760 -0.0400  0.5944
19652SOL    HW164792   9.144   1.339   9.440 -1.8714 -0.0265 -0.8641
19652SOL    HW264793   9.023   1.339   9.532 -0.8823 -0.7015  0.4715
19653SOL     OW64794   1.198   3.773   5.095  0.5297  0.0645  0.1357
19653SOL    HW164795   1.143   3.713   5.145 -0.1142  0.9502  0.5304
19653SOL    HW264796   1.266   3.718   5.057  0.1441 -0.8588  0.7455
19654SOL     OW64797  10.381   2.112   2.304  0.0991  0.4186  0.5830
19654SOL    HW164798  10.470   2.079   2.293  0.0479  0.6316 -0.5804
19654SOL    HW264799  10.379   2.194   2.256 -0.9032  0.0750 -0.0053
19655SOL     OW64800   4.606   6.878   6.124 -0.5502 -0.6724  0.8089
19655SOL    HW164801   4.520   6.835   6.124 -0.9307 -0.1705 -2.2506
19655SOL    HW264802   4.669   6.806   6.124 -1.1633 -1.4976 -3.4104
19656SOL     OW64803   4.960   4.791   0.369  0.6979  0.5037 -0.2613
19656SOL    HW164804   4.879   4.792   0.318  0.7491 -0.5198 -0.3798
19656SOL    HW264805   5.003   4.874   0.347  0.1260  0.6401 -0.9068
19657SOL     OW64806   1.992   3.420   7.639 -0.1207  0.3050  0.4156
19657SOL    HW164807   1.905   3.385   7.621  0.4782 -1.1844  0.2492
19657SOL    HW264808   1.984   3.461   7.725 -1.1429  0.7670  0.1089
19658SOL     OW64809   5.600   1.776   1.481  0.0191  0.0482 -0.0414
19658SOL    HW164810   5.681   1.765   1.431 -0.8818  0.5792 -1.7200
19658SOL    HW264811   5.628   1.804   1.568  1.6318  0.1763 -0.5785
19659SOL     OW64812   7.852   4.778   7.536 -0.3987 -0.2233  0.0321
19659SOL    HW164813   7.791   4.756   7.466 -2.1735  1.2431  1.0469
19659SOL    HW264814   7.809   4.749   7.616  0.6094  0.1144  0.7176
19660SOL     OW64815   5.783   9.480   5.343  0.6862  0.0752 -0.7242
19660SOL    HW164816   5.739   9.402   5.377 -0.1723  0.7140 -0.3127
19660SOL    HW264817   5.791   9.464   5.249  0.1142 -0.3235 -0.7117
19661SOL     OW64818   7.474   7.463   0.904 -0.3066  0.8100  0.4866
19661SOL    HW164819   7.552   7.498   0.860 -1.3044  2.6123  0.0633
19661SOL    HW264820   7.498   7.460   0.996  1.1485 -1.2090  0.1222
19662SOL     OW64821   9.837   0.989   4.861  0.3073  0.3909 -0.2061
19662SOL    HW164822   9.804   1.001   4.772  1.3854 -0.6927 -0.7740
19662SOL    HW264823   9.814   1.070   4.906  2.0818  2.1039 -2.1869
19663SOL     OW64824   7.910   2.733   6.468  0.0761  0.3137 -0.2950
19663SOL    HW164825   7.904   2.725   6.373 -1.0513  0.7704 -0.2819
19663SOL    HW264826   7.989   2.684   6.492 -0.1512 -0.6167 -1.3695
19664SOL     OW64827   6.357   1.646   3.946  0.0175  0.8182 -0.3599
19664SOL    HW164828   6.393   1.733   3.961  1.5211  0.1218  0.2906
19664SOL    HW264829   6.379   1.597   4.025 -0.5011 -0.2545 -0.8589
19665SOL     OW64830   0.049  10.274   1.017  0.2103 -0.2284 -0.1481
19665SOL    HW164831   0.056  10.329   1.095 -1.2319 -0.7483  0.3777
19665SOL    HW264832   0.041  10.336   0.944 -0.2656  0.2650  0.3181
19666SOL     OW64833   5.629   1.326   7.546  0.2174  0.2409 -0.0513
19666SOL    HW164834   5.648   1.399   7.605  0.4040  0.4845 -0.4142
19666SOL    HW264835   5.706   1.270   7.552  0.3376  0.3843 -0.2412
19667SOL     OW64836   3.567   4.919   0.343 -0.0848  0.2647  0.0790
19667SOL    HW164837   3.600   4.980   0.278 -0.8067 -0.3520 -0.8890
19667SOL    HW264838   3.635   4.851   0.350  0.3635  0.7577  0.5846
19668SOL     OW64839   1.606  10.461   7.319  0.2466  0.2124 -0.2019
19668SOL    HW164840   1.664  10.427   7.251 -1.2136 -0.0022 -1.3869
19668SOL    HW264841   1.518  10.453   7.282 -0.4432  1.9059  0.9567
19669SOL     OW64842   2.901   6.803   2.234  0.2043 -0.7692  0.2426
19669SOL    HW164843   2.868   6.714   2.251  3.0460 -1.9982 -0.1472
19669SOL    HW264844   2.975   6.813   2.293 -0.1491  1.4689  0.4010
19670SOL     OW64845  10.149   8.766   9.984 -0.3415 -0.3498  0.3969
19670SOL    HW164846  10.125   8.764   9.892  1.3756  1.4854 -0.1679
19670SOL    HW264847  10.078   8.812  10.027 -0.6690 -0.3161 -0.1780
19671SOL     OW64848   6.698   2.135   3.284 -0.1426 -0.0587 -0.1674
19671SOL    HW164849   6.790   2.161   3.293 -0.5792  2.7376 -2.4636
19671SOL    HW264850   6.698   2.078   3.207 -0.5778  2.2345 -1.9817
19672SOL     OW64851   8.191   2.964   9.697 -0.1468  0.1226 -0.0416
19672SOL    HW164852   8.272   2.975   9.646 -0.2247  1.6580  0.1267
19672SOL    HW264853   8.132   3.032   9.664 -0.4518  0.6995  1.5760
19673SOL     OW64854   1.067   8.432  10.307 -0.0216 -0.5266 -0.1436
19673SOL    HW164855   0.987   8.385  10.330 -0.8583  0.1722 -1.5034
19673SOL    HW264856   1.115   8.439  10.390 -1.4930 -0.7120  0.7592
19674SOL     OW64857   0.191   3.305   8.630 -0.1104  0.2902 -0.0437
19674SOL    HW164858   0.147   3.240   8.685  0.7785 -0.1915  0.1126
19674SOL    HW264859   0.164   3.389   8.668  1.0579 -0.0354  1.6289
19675SOL     OW64860   7.992   9.190   6.081  0.2773  0.0149 -0.0085
19675SOL    HW164861   7.927   9.219   6.145 -0.2220 -0.0456 -0.4867
19675SOL    HW264862   7.953   9.114   6.039  1.6640 -1.5273  1.3735
19676SOL     OW64863   6.448   4.565   9.549 -0.1092  0.5592  0.1999
19676SOL    HW164864   6.460   4.541   9.457 -1.2742  1.2235 -0.1485
19676SOL    HW264865   6.494   4.648   9.558  0.4109  0.2569  0.3431
19677SOL     OW64866   8.229   8.834   6.195 -0.5426  0.7835 -0.1243
19677SOL    HW164867   8.315   8.791   6.200 -1.1739 -0.6550 -1.0900
19677SOL    HW264868   8.166   8.765   6.217 -1.5374  1.4203 -0.8611
19678SOL     OW64869   7.008   8.895   1.386  0.5085 -0.0824 -0.3297
19678SOL    HW164870   7.037   8.923   1.299  2.8049 -1.4778 -0.0887
19678SOL    HW264871   6.982   8.804   1.374  1.1587 -0.3857  0.5007
19679SOL     OW64872   9.723   8.208   3.134 -0.5198 -0.3266 -0.9402
19679SOL    HW164873   9.806   8.246   3.162 -0.6242 -1.3906  1.0263
19679SOL    HW264874   9.661   8.230   3.204 -1.8856  0.2977 -2.2860
19680SOL     OW64875   0.738   3.151   8.389 -0.0921 -0.2037 -0.1023
19680SOL    HW164876   0.749   3.062   8.422 -1.4263 -1.1074 -1.9393
19680SOL    HW264877   0.645   3.171   8.402  0.4468  1.5541  1.6305
19681SOL     OW64878   3.567   2.565   6.754  0.2706  0.8549  0.3816
19681SOL    HW164879   3.532   2.513   6.827  0.3321  1.6400  0.9907
19681SOL    HW264880   3.645   2.517   6.726 -0.1509  0.1641  0.3510
19682SOL     OW64881   3.620   5.001   2.565 -0.0541 -0.2345  0.1641
19682SOL    HW164882   3.558   5.061   2.523  0.1396  0.7956  1.2842
19682SOL    HW264883   3.703   5.016   2.519 -0.0063  0.3671  0.4406
19683SOL     OW64884   3.970   2.379   4.248  0.4333  0.4943 -0.5586
19683SOL    HW164885   4.055   2.423   4.249  2.1291 -2.4401 -2.6721
19683SOL    HW264886   3.985   2.295   4.291 -0.9063 -0.8225 -2.5144
19684SOL     OW64887   8.306   9.029   4.199 -0.4083  0.1079 -0.0802
19684SOL    HW164888   8.276   8.957   4.255 -2.2849  1.1504  0.3020
19684SOL    HW264889   8.247   9.027   4.124  0.0240  0.7887 -0.4488
19685SOL     OW64890   4.702   0.472   7.199 -0.7127  0.3463 -0.1997
19685SOL    HW164891   4.729   0.493   7.288 -0.5312 -0.4002 -0.0770
19685SOL    HW264892   4.617   0.429   7.209 -0.4941 -0.1195 -0.3575
19686SOL     OW64893   0.986   7.890   9.563 -0.3098  0.0224 -0.0668
19686SOL    HW164894   0.978   7.812   9.507  2.4845  0.1724 -0.8291
19686SOL    HW264895   0.975   7.857   9.652 -0.9181 -0.9375 -0.4854
19687SOL     OW64896   4.615   2.421   8.672 -0.1345 -0.7903  0.3900
19687SOL    HW164897   4.618   2.495   8.611 -0.6352 -0.9778  0.1347
19687SOL    HW264898   4.662   2.351   8.626  0.3913 -0.6201  0.6562
19688SOL     OW64899   7.621   7.545   3.808  0.4470  0.5895 -0.1990
19688SOL    HW164900   7.602   7.567   3.899  2.0842 -1.7363  0.7873
19688SOL    HW264901   7.536   7.527   3.769 -0.2577  1.3836  0.8993
19689SOL     OW64902   6.085   9.841   8.255  0.1704  0.2441  0.1677
19689SOL    HW164903   6.091   9.841   8.159  0.7131  0.8170  0.1909
19689SOL    HW264904   6.133   9.763   8.282  1.9610  1.2461  0.0450
19690SOL     OW64905   6.622   3.494   6.695  0.3977  0.1559  0.1919
19690SOL    HW164906   6.532   3.480   6.725  0.2187  0.7204 -0.0758
19690SOL    HW264907   6.674   3.430   6.745 -0.1270 -0.0730  0.4531
19691SOL     OW64908   3.578   7.008   0.277 -0.2223 -0.1243 -0.1495
19691SOL    HW164909   3.561   7.059   0.356 -0.4363 -0.0430 -0.2473
19691SOL    HW264910   3.665   7.035   0.249 -0.0902 -0.2542  0.1355
19692SOL     OW64911   4.459   7.394   3.083 -0.4783 -0.1964 -0.0920
19692SOL    HW164912   4.381   7.337   3.082 -0.0042 -0.8777 -1.7547
19692SOL    HW264913   4.532   7.334   3.070  0.0437  0.7462 -1.8336
19693SOL     OW64914   2.903   0.839   7.247 -0.1945  0.3474  0.4451
19693SOL    HW164915   2.953   0.843   7.329  0.3849 -0.3992  0.1516
19693SOL    HW264916   2.965   0.869   7.180 -0.8359  1.4786  0.3377
19694SOL     OW64917   9.656   5.702   5.610  0.1479 -0.2925 -0.2704
19694SOL    HW164918   9.565   5.716   5.636  0.1864  0.0283 -0.3015
19694SOL    HW264919   9.701   5.782   5.638  0.3970 -0.4055 -0.3528
19695SOL     OW64920   7.384   8.873   0.277  0.2313 -0.1278  0.7798
19695SOL    HW164921   7.321   8.878   0.205  2.5647 -1.5324 -1.5437
19695SOL    HW264922   7.393   8.964   0.306 -0.4047  0.6005 -1.1029
19696SOL     OW64923   3.796   9.516   1.698  0.2634  0.1371 -0.0126
19696SOL    HW164924   3.782   9.531   1.792 -2.0616 -0.0742 -0.2603
19696SOL    HW264925   3.828   9.599   1.665 -0.5983  0.7695  0.6881
19697SOL     OW64926   7.930   1.228   6.264  0.8026 -0.3679 -0.3386
19697SOL    HW164927   8.011   1.219   6.315 -0.1520  1.8112  1.7282
19697SOL    HW264928   7.872   1.161   6.301  0.6694  0.0877  0.2862
19698SOL     OW64929   6.508   9.193   3.368  0.1500 -0.4143 -0.1699
19698SOL    HW164930   6.451   9.270   3.356 -1.7950 -1.4432  1.7447
19698SOL    HW264931   6.546   9.178   3.282 -0.9669  1.5103 -1.0718
19699SOL     OW64932   6.938   1.717   5.344  0.3105 -0.3445 -0.4509
19699SOL    HW164933   6.853   1.685   5.313 -0.1091 -1.6445  1.7538
19699SOL    HW264934   6.999   1.693   5.275 -0.8389 -1.0944 -1.2602
19700SOL     OW64935   3.160   8.899   3.516 -0.2974 -0.2312 -0.3259
19700SOL    HW164936   3.228   8.871   3.577 -1.1586 -0.8582  0.3669
19700SOL    HW264937   3.163   8.995   3.519 -0.7046 -0.2347  1.1655
19701SOL     OW64938   3.892   4.797   4.928 -0.3231 -0.3049 -0.5125
19701SOL    HW164939   3.818   4.849   4.897  0.1168  0.6303 -0.0458
19701SOL    HW264940   3.926   4.846   5.003  0.9901 -0.5120 -0.9426
19702SOL     OW64941   7.659   6.608   9.020  0.1868 -0.4547 -0.1179
19702SOL    HW164942   7.673   6.542   9.088 -0.0792  0.6292  1.0104
19702SOL    HW264943   7.742   6.655   9.014 -0.5163  1.0217  1.1968
19703SOL     OW64944   7.927   2.296   3.803 -0.6934  0.5655  0.1827
19703SOL    HW164945   8.007   2.331   3.764 -0.0236 -0.5441  0.5004
19703SOL    HW264946   7.949   2.283   3.896 -1.6075  1.2750  0.5132
19704SOL     OW64947   5.859   9.051   4.944  0.2608 -0.4122  0.1821
19704SOL    HW164948   5.843   9.115   4.875 -1.9205 -1.1246 -0.0534
19704SOL    HW264949   5.905   9.100   5.012 -0.5561  1.1990 -0.3597
19705SOL     OW64950   0.453   7.324   0.001  0.5613 -0.1562 -0.6529
19705SOL    HW164951   0.448   7.408  -0.045 -0.9014 -0.3862 -0.9571
19705SOL    HW264952   0.474   7.261  -0.068 -0.6538 -0.3581 -0.8599
19706SOL     OW64953   6.730   2.517   5.508  0.2149 -0.4214 -0.8368
19706SOL    HW164954   6.634   2.513   5.511  0.1676  0.3131 -1.3150
19706SOL    HW264955   6.755   2.440   5.457  0.0265 -2.0209  1.3317
19707SOL     OW64956   1.247  10.347   4.253 -0.0582  0.9931  0.3671
19707SOL    HW164957   1.206  10.432   4.234  0.6413  1.4082  0.6820
19707SOL    HW264958   1.178  10.296   4.295 -0.4692  1.4199  0.2242
19708SOL     OW64959   2.039   9.669   9.597 -0.6935 -0.1257 -0.5871
19708SOL    HW164960   2.054   9.747   9.650 -0.2888  0.1718 -1.1197
19708SOL    HW264961   2.056   9.698   9.507 -0.7765 -0.7648 -0.8139
19709SOL     OW64962   4.618   9.228   1.663 -0.0799  0.2756  0.0417
19709SOL    HW164963   4.541   9.285   1.674  0.8733  1.4260  1.1200
19709SOL    HW264964   4.588   9.158   1.605 -1.6112  1.3118 -0.4905
19710SOL     OW64965   7.582   3.564   4.978  0.1107  0.2729 -0.2689
19710SOL    HW164966   7.611   3.559   4.887 -0.6393  2.5528 -0.6724
19710SOL    HW264967   7.663   3.560   5.029  0.6453  0.3555 -1.0939
19711SOL     OW64968   7.841   8.745  10.061  0.3673 -0.0425  0.3237
19711SOL    HW164969   7.876   8.694   9.988  0.7451 -0.1876  0.5996
19711SOL    HW264970   7.897   8.721  10.135  2.0661  2.4963 -0.0095
19712SOL     OW64971   2.773   6.909   1.130 -0.2983 -0.0923  0.0119
19712SOL    HW164972   2.716   6.857   1.073  0.3919 -0.2252 -0.5668
19712SOL    HW264973   2.784   6.856   1.208 -4.5579  1.7049  2.2150
19713SOL     OW64974   1.512   4.993   0.004  0.3428  0.5984  0.3587
19713SOL    HW164975   1.542   5.020   0.090 -0.7547  0.6827  0.7311
19713SOL    HW264976   1.451   4.921   0.021  1.4074 -0.5505 -0.4666
19714SOL     OW64977   0.463   9.933   5.759  0.1199  0.2987 -0.3856
19714SOL    HW164978   0.546   9.961   5.797 -0.8844  1.1413  1.3141
19714SOL    HW264979   0.397   9.987   5.802 -1.2942 -0.0125 -2.0233
19715SOL     OW64980   9.092   5.009   4.533  0.2561 -0.3404  0.0898
19715SOL    HW164981   9.110   5.059   4.453 -0.9994  1.5582  0.9240
19715SOL    HW264982   9.178   4.994   4.572  0.6414  3.0603  0.8513
19716SOL     OW64983   2.740   5.046   1.305  0.5396 -0.4299 -0.6913
19716SOL    HW164984   2.752   4.976   1.242  3.2454  0.0803 -0.8807
19716SOL    HW264985   2.714   5.122   1.252  1.0216 -0.4556 -0.9723
19717SOL     OW64986  10.291   9.193   0.067  0.5442 -0.4517 -0.2458
19717SOL    HW164987  10.278   9.133   0.141 -2.9987 -0.9413 -1.1101
19717SOL    HW264988  10.208   9.240   0.058  1.8720  1.7528 -2.1085
19718SOL     OW64989   1.163   4.248   0.844  0.3813  0.2520  0.0888
19718SOL    HW164990   1.235   4.236   0.906  0.9340 -0.0958 -0.6054
19718SOL    HW264991   1.140   4.341   0.852 -0.1227  0.0364  1.4007
19719SOL     OW64992   3.394   8.066   7.409  0.4488  0.5973  0.7318
19719SOL    HW164993   3.415   8.012   7.334  0.9566  0.5722  0.8891
19719SOL    HW264994   3.479   8.093   7.445  0.2188  0.5010  1.3714
19720SOL     OW64995   8.365   4.720   9.168  0.0640 -0.5749 -0.6564
19720SOL    HW164996   8.414   4.704   9.087 -1.0710 -0.5837 -1.3601
19720SOL    HW264997   8.292   4.776   9.141 -1.4405 -2.1696 -0.0246
19721SOL     OW64998   8.086   2.966   4.111  0.0317  0.3661 -0.6913
19721SOL    HW164999   8.066   2.874   4.125 -2.2193  0.9143  0.0902
19721SOL    HW265000   8.182   2.970   4.110  0.2508 -1.5563  2.1981
19722SOL     OW65001   3.192  10.389   0.978 -0.1076 -0.4811 -0.0810
19722SOL    HW165002   3.110  10.402   0.931  0.5966 -1.1288 -1.5293
19722SOL    HW265003   3.256  10.367   0.911  1.1247 -0.6384  1.0901
19723SOL     OW65004   3.100   5.983   9.001  0.5951 -0.1291 -0.3591
19723SOL    HW165005   3.165   5.915   9.021 -1.0845 -1.3101  1.4519
19723SOL    HW265006   3.081   6.023   9.086  0.4829  1.6330 -1.1908
19724SOL     OW65007   8.300   9.260   5.366  0.4243  0.2005 -0.4696
19724SOL    HW165008   8.211   9.293   5.382  0.7889  0.4829  1.1399
19724SOL    HW265009   8.315   9.277   5.273 -1.1027  0.3933 -0.7183
19725SOL     OW65010   1.253   4.272   5.344 -0.4909  0.0465 -0.2068
19725SOL    HW165011   1.234   4.245   5.434 -0.1914 -1.1350 -0.4793
19725SOL    HW265012   1.184   4.335   5.323 -0.1922  0.8336  1.0615
19726SOL     OW65013   6.443  10.127   6.035 -0.1705 -0.4143  0.2397
19726SOL    HW165014   6.513  10.085   5.986  1.4701  0.1689  1.9798
19726SOL    HW265015   6.380  10.057   6.053  1.1953 -1.5305  0.7964
19727SOL     OW65016   1.672   8.086   0.129 -0.1344  0.2914  0.4901
19727SOL    HW165017   1.690   7.996   0.153 -1.0107 -0.3278 -1.0121
19727SOL    HW265018   1.577   8.089   0.116  0.0604  0.9847 -1.0550
19728SOL     OW65019   8.879   1.446   6.014  0.0844 -0.2333  0.4387
19728SOL    HW165020   8.862   1.461   6.107  2.7125 -0.4023  1.0235
19728SOL    HW265021   8.935   1.368   6.012 -1.2572 -1.2375 -1.4589
19729SOL     OW65022   9.840   4.243   2.082  0.1670 -0.2439 -0.5635
19729SOL    HW165023   9.916   4.288   2.046  0.0816  0.5234  0.2061
19729SOL    HW265024   9.767   4.302   2.065 -0.1291 -0.6063 -0.5550
19730SOL     OW65025   6.751   5.660   3.966 -0.2185 -0.0572 -0.2320
19730SOL    HW165026   6.789   5.748   3.971  0.1129 -0.3024  3.1303
19730SOL    HW265027   6.667   5.674   3.922 -0.4766  2.0892  0.8215
19731SOL     OW65028   3.150   8.579   9.268  0.2868 -0.3942  0.3555
19731SOL    HW165029   3.133   8.669   9.241  0.5727 -0.3691  0.2545
19731SOL    HW265030   3.230   8.554   9.220 -0.9329 -1.4194 -1.2604
19732SOL     OW65031   9.682   4.646   1.876  0.5034  0.1152  0.0894
19732SOL    HW165032   9.762   4.691   1.904 -0.0027  0.5013  0.9524
19732SOL    HW265033   9.611   4.702   1.907 -0.1025 -0.0431 -0.9869
19733SOL     OW65034   4.098   2.801   3.497  0.1983 -0.3952 -0.4252
19733SOL    HW165035   4.079   2.708   3.508  1.9040 -0.7946 -0.6754
19733SOL    HW265036   4.144   2.807   3.414  0.5839  0.6059 -0.1511
19734SOL     OW65037   5.122   9.503   1.127  0.3769  0.6717  0.1685
19734SOL    HW165038   5.112   9.440   1.056  1.6602  0.8468 -0.1891
19734SOL    HW265039   5.119   9.589   1.083 -1.7638  0.9193  0.6930
19735SOL     OW65040   1.305   9.771   6.660  0.7250  0.3868 -0.4174
19735SOL    HW165041   1.385   9.820   6.647  1.9463 -1.1983  0.7174
19735SOL    HW265042   1.304   9.751   6.754  0.6927 -2.3224 -0.9096
19736SOL     OW65043   4.653   6.672   2.392  0.1305 -0.1543 -0.3192
19736SOL    HW165044   4.705   6.673   2.311 -0.0078  1.8931 -0.4263
19736SOL    HW265045   4.692   6.603   2.445  3.3835  1.5956 -0.1784
19737SOL     OW65046   3.663   5.112   7.124  0.6656  0.6633 -0.4871
19737SOL    HW165047   3.737   5.054   7.140 -0.6303 -0.9766 -0.1261
19737SOL    HW265048   3.619   5.074   7.048  0.5626  2.0216 -1.1381
19738SOL     OW65049   3.731   6.683   5.760  0.2856  0.0449 -0.6557
19738SOL    HW165050   3.728   6.606   5.817  1.8369  0.1897 -0.3276
19738SOL    HW265051   3.821   6.684   5.726  0.6849  2.3421  0.2522
19739SOL     OW65052   4.987   3.973   1.941 -0.4633 -0.0677 -0.2491
19739SOL    HW165053   5.045   3.989   1.866 -0.1138  0.1505  0.0641
19739SOL    HW265054   5.008   4.042   2.003  0.4269 -1.1794  0.7401
19740SOL     OW65055   2.495   3.153   9.174  0.5425 -0.1843 -0.0837
19740SOL    HW165056   2.427   3.203   9.128  1.3422 -0.5772 -1.7774
19740SOL    HW265057   2.447   3.097   9.235 -0.5981  0.0689 -0.7307
19741SOL     OW65058   6.748   8.074   2.906 -0.3018  0.1164 -0.4369
19741SOL    HW165059   6.793   7.996   2.875  2.7038  2.2143 -1.9209
19741SOL    HW265060   6.807   8.111   2.972 -1.9377  0.8710  0.6822
19742SOL     OW65061   3.189   4.470   7.715 -0.4525 -0.1116  0.4026
19742SOL    HW165062   3.244   4.421   7.655 -0.7073  1.2457 -0.9771
19742SOL    HW265063   3.247   4.493   7.788  0.4311  0.1146 -0.3649
19743SOL     OW65064  10.519   8.468   7.861  0.4373  0.4775  0.6559
19743SOL    HW165065  10.559   8.519   7.932  0.5095  1.9173 -0.3760
19743SOL    HW265066  10.431   8.449   7.893  0.9107 -0.0988  1.6920
19744SOL     OW65067   9.608   2.698   0.723  0.4028 -0.0250 -0.1625
19744SOL    HW165068   9.695   2.662   0.710  0.0368 -1.1281  0.3665
19744SOL    HW265069   9.623   2.780   0.772  1.0371 -1.0683  1.4720
19745SOL     OW65070   3.769   6.012   4.038 -0.0137 -0.3663 -0.5660
19745SOL    HW165071   3.824   6.071   3.985 -0.1799 -0.1185 -0.4647
19745SOL    HW265072   3.827   5.983   4.108  0.9423 -2.5334 -2.1366
19746SOL     OW65073   7.915   2.996   0.575  0.1313  0.0767 -0.2082
19746SOL    HW165074   7.830   2.952   0.565  0.1140 -0.1223  0.7300
19746SOL    HW265075   7.919   3.020   0.668  1.0866  0.1109 -0.2492
19747SOL     OW65076   4.375   6.155   0.255 -0.2804 -0.4316  0.4264
19747SOL    HW165077   4.407   6.220   0.193 -0.2583 -0.3225  0.5525
19747SOL    HW265078   4.423   6.075   0.234 -0.7806 -0.5869 -0.1653
19748SOL     OW65079   9.869   2.678   0.753  0.1113 -0.2156 -0.2446
19748SOL    HW165080   9.915   2.761   0.759  1.5300 -0.8566 -1.4692
19748SOL    HW265081   9.913   2.620   0.815 -0.2096 -0.3442 -0.1310
19749SOL     OW65082   1.397   3.545   2.948  0.6266 -0.7702 -0.2295
19749SOL    HW165083   1.394   3.451   2.963  4.9597 -1.1956 -0.6556
19749SOL    HW265084   1.419   3.555   2.855 -0.3903  0.7359 -0.3575
19750SOL     OW65085   0.170   3.496   3.435  0.4182  0.2586  0.2749
19750SOL    HW165086   0.230   3.536   3.497  0.1516  0.3668  0.4622
19750SOL    HW265087   0.217   3.497   3.352  0.0749  1.7632  0.0857
19751SOL     OW65088   2.448   6.998   1.259  0.0498 -0.1798  0.1239
19751SOL    HW165089   2.500   6.935   1.308  0.3256  0.3218  0.4839
19751SOL    HW265090   2.512   7.062   1.226 -0.2941  0.2617  0.2998
19752SOL     OW65091   8.057   7.157   3.702  0.3835  0.4842  0.4370
19752SOL    HW165092   7.993   7.220   3.735 -0.3027  0.6381 -1.1043
19752SOL    HW265093   8.005   7.088   3.661  1.1855  0.6019 -0.8342
19753SOL     OW65094   4.391   2.823   3.414 -0.0725 -0.0478  0.3572
19753SOL    HW165095   4.453   2.836   3.343 -1.3282 -2.2922 -1.2752
19753SOL    HW265096   4.437   2.766   3.476  0.1789 -0.0538  0.1653
19754SOL     OW65097   2.310   7.570   1.642 -0.5838  0.3283  0.3461
19754SOL    HW165098   2.370   7.644   1.646 -0.1085 -0.1072  2.9390
19754SOL    HW265099   2.364   7.497   1.612 -0.7001  0.6629 -0.7340
19755SOL     OW65100   8.883   0.772   9.454 -0.2360  0.2663  0.1021
19755SOL    HW165101   8.952   0.718   9.494 -0.5306  0.2225  0.5562
19755SOL    HW265102   8.924   0.858   9.441  0.8693 -0.5130 -2.3702
19756SOL     OW65103   5.503   0.204   2.807 -0.0788 -0.2762  0.0696
19756SOL    HW165104   5.475   0.278   2.754 -1.5011 -0.6631  0.2499
19756SOL    HW265105   5.590   0.229   2.839  0.5656  0.1914 -1.9543
19757SOL     OW65106   0.533   9.277   7.147 -0.1650 -0.0940  0.1544
19757SOL    HW165107   0.579   9.215   7.204  0.6451  0.2389 -0.1383
19757SOL    HW265108   0.541   9.240   7.059 -1.1521 -0.4469  0.1921
19758SOL     OW65109   3.644   7.437   9.409  0.6013 -0.5611 -0.0836
19758SOL    HW165110   3.588   7.440   9.487  1.7136 -1.1889  0.7636
19758SOL    HW265111   3.666   7.529   9.392 -0.1784 -0.3626 -0.0537
19759SOL     OW65112   7.957   0.881  10.069 -0.5294 -0.6072 -0.2801
19759SOL    HW165113   7.884   0.820  10.080 -1.2280  0.2621  0.0268
19759SOL    HW265114   8.033   0.825  10.055 -1.0122 -1.5763  0.8124
19760SOL     OW65115   4.702   4.580   2.543 -0.1044 -0.1335 -0.1474
19760SOL    HW165116   4.775   4.608   2.598 -0.3480 -0.4788  0.3600
19760SOL    HW265117   4.699   4.644   2.473 -0.8903  1.3522  1.1876
19761SOL     OW65118   1.165   5.349  10.094  0.4040  0.7841  0.7075
19761SOL    HW165119   1.256   5.371  10.116  0.5066  0.3559  0.7261
19761SOL    HW265120   1.132   5.427  10.049  1.0596  0.6250 -0.0890
19762SOL     OW65121   7.242  10.155   8.864 -0.5112 -0.2411  0.7893
19762SOL    HW165122   7.312  10.216   8.885 -1.5079  0.6588  1.5943
19762SOL    HW265123   7.177  10.208   8.818 -0.7335 -1.0344  0.1657
19763SOL     OW65124   9.577  10.724   4.030  0.3993 -0.1654 -0.4532
19763SOL    HW165125   9.516  10.667   3.982  0.3015  0.2810 -0.8718
19763SOL    HW265126   9.659  10.718   3.981  0.1937  0.5829 -0.9022
19764SOL     OW65127   6.322   3.317   8.237 -0.0230 -0.0830 -0.6917
19764SOL    HW165128   6.357   3.403   8.261 -0.6488  0.5750 -2.0447
19764SOL    HW265129   6.247   3.306   8.294  0.4700 -0.0566 -0.0217
19765SOL     OW65130   1.967   0.806   0.943 -0.0341  0.0862  0.4191
19765SOL    HW165131   2.002   0.819   0.856 -2.9726  1.7468 -0.6749
19765SOL    HW265132   1.970   0.711   0.957  0.0837 -0.2524 -1.6835
19766SOL     OW65133   1.007   9.952   2.542 -0.1143 -0.7973  0.3082
19766SOL    HW165134   1.069   9.915   2.604 -1.0236 -1.4805  0.8333
19766SOL    HW265135   0.923   9.952   2.588 -0.4067  0.7246 -0.1400
19767SOL     OW65136   4.989   9.980   7.713  0.2846  0.1916  0.6849
19767SOL    HW165137   4.938   9.948   7.787  0.7439 -0.1686  0.8572
19767SOL    HW265138   5.046  10.048   7.749 -1.8375  2.4507  0.0075
19768SOL     OW65139   9.842   0.728   9.745 -0.4634  0.4119  0.1098
19768SOL    HW165140   9.753   0.712   9.715 -1.1734  1.0279  1.7784
19768SOL    HW265141   9.846   0.823   9.759  0.0796  0.2556  1.1360
19769SOL     OW65142   2.330   1.073   4.429  0.5576 -0.3987  0.4824
19769SOL    HW165143   2.329   1.054   4.523  0.4252  0.0652  0.5753
19769SOL    HW265144   2.268   1.011   4.391 -0.8656  0.7110  0.9484
19770SOL     OW65145   7.113   8.574   2.798  0.0122 -0.1098  0.1174
19770SOL    HW165146   7.046   8.591   2.731  0.4058  1.1238 -0.0026
19770SOL    HW265147   7.155   8.659   2.810  1.0957 -0.7161  0.6913
19771SOL     OW65148   9.426   8.853   9.868  0.0281  0.2071 -0.0023
19771SOL    HW165149   9.366   8.886   9.802  0.2615 -1.3016 -1.0132
19771SOL    HW265150   9.369   8.829   9.942 -0.3242  1.0412  0.0121
19772SOL     OW65151   3.581   0.076   7.383  0.3836 -0.4916 -0.5159
19772SOL    HW165152   3.615   0.005   7.436 -2.6184 -0.8444  1.1498
19772SOL    HW265153   3.565   0.037   7.297 -0.9849 -1.8607  0.3003
19773SOL     OW65154   8.257   1.472   9.829  0.7822  0.2474  0.0806
19773SOL    HW165155   8.229   1.392   9.875  1.3975  0.3937  0.7355
19773SOL    HW265156   8.191   1.537   9.852  2.7707  1.3014  3.6851
19774SOL     OW65157   8.655   2.474   7.043  0.2525  0.1220  0.0798
19774SOL    HW165158   8.590   2.485   7.113 -0.2246 -0.0777 -0.3328
19774SOL    HW265159   8.639   2.547   6.984  0.5450  0.1924  0.0870
19775SOL     OW65160   0.130   8.421   3.187  0.0825  0.0409 -0.0873
19775SOL    HW165161   0.125   8.466   3.103  0.3682  0.0280 -0.1109
19775SOL    HW265162   0.041   8.390   3.203 -0.0560  0.3728 -0.2008
19776SOL     OW65163   1.545   1.198   3.042 -0.0366  0.1320  0.2763
19776SOL    HW165164   1.472   1.234   2.992  0.1839 -0.8802 -0.8120
19776SOL    HW265165   1.615   1.262   3.031  0.7723 -1.0957 -2.7125
19777SOL     OW65166   0.569   7.777   1.398  0.4427 -0.3401  0.1936
19777SOL    HW165167   0.563   7.737   1.311 -1.4082  0.4155 -0.0685
19777SOL    HW265168   0.547   7.705   1.458  0.3624 -0.5207 -0.0487
19778SOL     OW65169  10.483   4.427   2.605  0.0834  0.2641  0.0887
19778SOL    HW165170  10.507   4.500   2.548  1.7796  0.0683  0.5023
19778SOL    HW265171  10.532   4.352   2.571  1.4645  0.2361  1.9875
19779SOL     OW65172   9.919   3.135   7.298  0.3044 -0.5383 -0.5359
19779SOL    HW165173   9.959   3.183   7.226  2.4586  0.8651  1.4851
19779SOL    HW265174   9.962   3.050   7.297  1.7211  0.1503  0.2129
19780SOL     OW65175   4.318   7.900   4.735  0.4939 -0.4461  0.1245
19780SOL    HW165176   4.374   7.916   4.811  0.6854  0.2477 -0.1522
19780SOL    HW265177   4.261   7.828   4.761 -0.3285  0.6271  1.4229
19781SOL     OW65178   0.641   8.832   4.660 -0.5747 -0.5100 -0.3392
19781SOL    HW165179   0.618   8.833   4.753 -0.7293 -3.0321 -0.3015
19781SOL    HW265180   0.613   8.918   4.629 -0.7064  0.3317  1.8831
19782SOL     OW65181   2.278   4.393   9.149  1.2868  0.5653 -0.2460
19782SOL    HW165182   2.203   4.333   9.143  1.0074  0.8792  0.0447
19782SOL    HW265183   2.336   4.352   9.213  0.5425  1.1761  0.8612
19783SOL     OW65184   7.249   0.451   8.071  0.8230 -0.3103  0.0655
19783SOL    HW165185   7.214   0.363   8.081  2.0549 -0.6415  2.2720
19783SOL    HW265186   7.307   0.446   7.995  1.1746 -1.5279  0.3915
19784SOL     OW65187   8.615   0.586   8.437 -0.2642 -0.3377 -0.0559
19784SOL    HW165188   8.603   0.536   8.518  0.6916 -1.2687 -0.4754
19784SOL    HW265189   8.708   0.606   8.435  0.3264 -2.7382 -2.2582
19785SOL     OW65190   5.529   3.258   3.326  0.2035  0.3330 -0.0641
19785SOL    HW165191   5.546   3.165   3.318  1.2267  0.4907  0.1286
19785SOL    HW265192   5.593   3.299   3.268 -0.1949  0.9223 -0.0989
19786SOL     OW65193   3.489   5.566   4.439 -0.2825  0.1580 -0.7629
19786SOL    HW165194   3.411   5.612   4.408  1.3846  2.2100 -2.1998
19786SOL    HW265195   3.532   5.628   4.497 -0.6297 -1.6913  1.6094
19787SOL     OW65196  10.020   7.972   3.650  0.2279  0.0481 -0.3198
19787SOL    HW165197  10.092   7.976   3.714  0.9075  0.3567 -1.0878
19787SOL    HW265198  10.049   7.906   3.586 -0.7820 -0.8085  0.0797
19788SOL     OW65199  10.633   3.663   4.081 -0.3011  0.0561  0.4846
19788SOL    HW165200  10.632   3.747   4.036 -0.8716  0.2996  0.9446
19788SOL    HW265201  10.726   3.642   4.092 -0.1430  1.1331  1.3178
19789SOL     OW65202   1.592   9.076   0.902  0.1919  0.2592 -0.1605
19789SOL    HW165203   1.608   9.146   0.839 -0.8063  0.3622 -0.3093
19789SOL    HW265204   1.660   9.087   0.968 -1.3205  2.8348  1.0968
19790SOL     OW65205   7.284   6.585   8.550 -0.0158  0.0361  0.4529
19790SOL    HW165206   7.323   6.672   8.544 -2.1340  1.0560  0.5521
19790SOL    HW265207   7.263   6.575   8.643 -0.0492 -0.4476  0.3916
19791SOL     OW65208   9.540   6.208   0.426 -0.3409  0.9693  0.0610
19791SOL    HW165209   9.633   6.185   0.422 -0.3038  1.2498 -0.8322
19791SOL    HW265210   9.537   6.288   0.479 -0.2866 -0.0573  1.6847
19792SOL     OW65211   6.018   5.824   3.188 -0.4586 -0.1427  0.0484
19792SOL    HW165212   6.005   5.905   3.140 -1.5011  0.2990  1.0159
19792SOL    HW265213   6.075   5.848   3.261 -1.5363 -0.0236  0.8843
19793SOL     OW65214   7.752   0.027   9.816 -0.0932  0.1697 -0.6821
19793SOL    HW165215   7.683  -0.022   9.860  0.8341 -2.0877 -1.5941
19793SOL    HW265216   7.726   0.119   9.824 -2.5421 -0.5307  0.0593
19794SOL     OW65217   4.248   6.529   9.897 -0.4665 -0.0569  0.9889
19794SOL    HW165218   4.319   6.585   9.927 -0.6948  0.4426  0.6259
19794SOL    HW265219   4.203   6.582   9.830  0.1519 -1.1807 -0.3772
19795SOL     OW65220   2.111   5.775   5.110 -0.1138  0.0350 -0.2919
19795SOL    HW165221   2.105   5.686   5.073 -0.9207  0.4232 -1.1230
19795SOL    HW265222   2.203   5.786   5.131 -0.2971 -1.8306  1.9292
19796SOL     OW65223   0.881   1.755   9.933  0.0832  0.0721 -0.5013
19796SOL    HW165224   0.827   1.829   9.907  1.8909  0.8541 -2.2956
19796SOL    HW265225   0.949   1.750   9.865  1.1761 -1.9894  0.6528
19797SOL     OW65226   8.563   8.417   4.209  0.2329 -0.5098  0.4353
19797SOL    HW165227   8.619   8.396   4.283 -0.2802 -0.0922  0.9570
19797SOL    HW265228   8.622   8.453   4.143  0.6190 -0.3742  0.8542
19798SOL     OW65229  10.634   8.199  10.503  0.3591  0.1282  0.6148
19798SOL    HW165230  10.584   8.172  10.427  0.3683  1.2446  0.1885
19798SOL    HW265231  10.646   8.119  10.554  0.2123 -0.6012 -0.4669
19799SOL     OW65232   3.064  10.033   2.654  0.2050 -0.6185 -0.3466
19799SOL    HW165233   3.153  10.066   2.643 -0.2977  1.2331  0.6656
19799SOL    HW265234   3.009  10.103   2.618 -0.8913 -0.7680  0.9803
19800SOL     OW65235   8.107   9.937   4.113 -0.5366  0.3747 -0.6247
19800SOL    HW165236   8.115   9.974   4.201  0.1410  0.2363 -0.6219
19800SOL    HW265237   8.082   9.846   4.127  0.2163  0.1727 -0.5464
19801SOL     OW65238   4.684   5.899   8.836  0.2104  0.0921  0.2189
19801SOL    HW165239   4.765   5.951   8.837 -0.1928  0.7229  0.9253
19801SOL    HW265240   4.650   5.909   8.747  0.6839  0.1772  0.0456
19802SOL     OW65241   9.873   0.839   2.564 -0.0920  0.4407 -0.1756
19802SOL    HW165242   9.828   0.904   2.618  0.2759  0.3911  0.1904
19802SOL    HW265243   9.942   0.889   2.520  0.4399  0.2295  0.4037
19803SOL     OW65244   8.242  10.480   5.195 -0.1895 -0.2245 -0.1071
19803SOL    HW165245   8.218  10.494   5.103  2.5697 -0.7849 -0.9964
19803SOL    HW265246   8.220  10.563   5.237  0.9540  1.0675 -1.8813
19804SOL     OW65247  10.231  10.328  10.231 -0.0369 -0.2146 -0.1340
19804SOL    HW165248  10.255  10.311  10.322 -1.5979 -2.3114 -0.0457
19804SOL    HW265249  10.299  10.284  10.179  0.1784 -0.0618  0.0149
19805SOL     OW65250   9.217   4.266   1.705 -0.2941  0.2272  0.3547
19805SOL    HW165251   9.182   4.233   1.788  0.3333  0.1255  0.5910
19805SOL    HW265252   9.141   4.282   1.651 -0.7451  0.7672  1.1326
19806SOL     OW65253   0.222   5.887   2.417  0.2460 -0.1569  0.5945
19806SOL    HW165254   0.317   5.895   2.406  0.1154  2.3171  0.6360
19806SOL    HW265255   0.187   5.900   2.329 -0.0917  0.4558  0.8158
19807SOL     OW65256  10.680   0.858   7.171  0.1103  0.1602  0.5410
19807SOL    HW165257  10.712   0.910   7.097  0.0759  2.5497  2.1077
19807SOL    HW265258  10.647   0.923   7.234 -0.5919 -1.8162  2.3262
19808SOL     OW65259   0.508   7.426   3.707  0.0300 -0.2192  0.6202
19808SOL    HW165260   0.508   7.520   3.688 -0.6370 -0.2632  0.3796
19808SOL    HW265261   0.416   7.403   3.712  0.1926 -0.7555  1.2497
19809SOL     OW65262   1.697   4.502   6.791  0.4173 -0.3084 -0.0526
19809SOL    HW165263   1.629   4.517   6.856  0.2262 -1.4311  0.0196
19809SOL    HW265264   1.725   4.590   6.765 -1.5306  0.2039 -0.5913
19810SOL     OW65265   5.165   1.972   3.505 -0.5871  0.2452 -0.5258
19810SOL    HW165266   5.230   1.909   3.536 -0.5193  0.2111 -0.7392
19810SOL    HW265267   5.099   1.919   3.461 -0.6329  0.3032 -0.5270
19811SOL     OW65268   3.012  10.179   4.758 -0.4235 -0.1725  0.4979
19811SOL    HW165269   3.035  10.256   4.810  1.9057 -0.0726 -0.5314
19811SOL    HW265270   3.046  10.199   4.670 -2.8513 -0.9743 -0.6914
19812SOL     OW65271   5.868   8.662   4.988  0.2236  0.6091  0.3521
19812SOL    HW165272   5.854   8.608   4.910  1.5958 -0.2420  0.6559
19812SOL    HW265273   5.947   8.712   4.968  0.4284  0.5854  1.0914
19813SOL     OW65274   5.320   7.342   4.053  0.0238 -0.4161 -0.6712
19813SOL    HW165275   5.415   7.347   4.061 -0.0715 -0.7542  1.3124
19813SOL    HW265276   5.299   7.250   4.069 -0.7075 -0.1010  0.3112
19814SOL     OW65277   6.863   4.287   8.369 -0.1645  0.9722  0.4026
19814SOL    HW165278   6.810   4.342   8.428 -0.7218  1.2140 -0.3168
19814SOL    HW265279   6.908   4.350   8.312  0.0659  0.7180  0.3007
19815SOL     OW65280   8.966   1.930   5.454 -0.3409 -0.0002 -0.6846
19815SOL    HW165281   8.909   2.002   5.428  0.2385 -0.0392 -2.1838
19815SOL    HW265282   9.048   1.946   5.406  0.6067 -0.4234  0.7151
19816SOL     OW65283   5.718   1.678   7.269  0.1765  0.2388 -0.1851
19816SOL    HW165284   5.662   1.604   7.246  0.1555  0.4085 -0.7004
19816SOL    HW265285   5.798   1.664   7.218  0.0473  0.7320 -0.5310
19817SOL     OW65286   0.220   8.327   8.221 -0.4529 -0.3044  0.2997
19817SOL    HW165287   0.183   8.367   8.142  0.7334  0.7615  0.2450
19817SOL    HW265288   0.170   8.364   8.293  0.6845  1.4555  0.2587
19818SOL     OW65289   1.811   5.856   3.199  0.4337 -0.7000 -0.4858
19818SOL    HW165290   1.894   5.818   3.228  1.9636  1.9380 -1.0260
19818SOL    HW265291   1.744   5.796   3.231  2.5459 -3.1392 -0.3374
19819SOL     OW65292   4.566   3.637   9.156 -0.2751 -0.1610  0.3897
19819SOL    HW165293   4.643   3.581   9.152  0.3329  0.6175  0.7982
19819SOL    HW265294   4.511   3.598   9.224  1.8133  1.6921  3.4074
19820SOL     OW65295   0.612   9.406   4.964 -0.2632  0.1093 -0.3472
19820SOL    HW165296   0.584   9.475   5.025  1.6564  0.7668 -0.1109
19820SOL    HW265297   0.635   9.332   5.021 -0.1417  0.1033 -0.4035
19821SOL     OW65298   2.954   1.341   1.848  0.2050 -0.1090 -0.1998
19821SOL    HW165299   2.915   1.354   1.935 -0.4684 -0.2868 -0.4740
19821SOL    HW265300   3.024   1.276   1.863  0.7033  0.5377  0.3710
19822SOL     OW65301   6.013   6.158   9.416  0.8916  0.4029 -0.3283
19822SOL    HW165302   5.991   6.236   9.366  1.7181  0.6756 -0.2757
19822SOL    HW265303   6.103   6.138   9.392  1.2223  0.3864  0.8624
19823SOL     OW65304   8.632   0.712   6.330 -0.0442  0.3325  0.2073
19823SOL    HW165305   8.672   0.785   6.376 -0.6537 -0.0088  1.2982
19823SOL    HW265306   8.707   0.662   6.295  0.4047  0.8617  0.4025
19824SOL     OW65307   1.873   4.774   2.789 -0.0403  0.2532  0.1677
19824SOL    HW165308   1.864   4.805   2.698  1.2102  0.6742  0.1803
19824SOL    HW265309   1.967   4.772   2.805 -0.2619  0.9184  1.7098
19825SOL     OW65310   0.881   2.794  10.094 -0.0371  0.6508  0.1729
19825SOL    HW165311   0.801   2.742  10.105  0.2051 -0.0468 -1.1731
19825SOL    HW265312   0.852   2.873  10.048 -0.2472  1.3097  1.3900
19826SOL     OW65313   4.705   2.935   9.225 -0.3086  0.2715  0.2536
19826SOL    HW165314   4.642   2.876   9.184 -0.1749 -0.3580  0.9210
19826SOL    HW265315   4.740   2.885   9.299  0.1333  1.0314  0.5751
19827SOL     OW65316   2.844   4.750   0.495  0.3684 -0.5771  0.2112
19827SOL    HW165317   2.877   4.661   0.512  3.1100  0.3943  0.3255
19827SOL    HW265318   2.786   4.739   0.419  0.5706 -2.4593  0.2612
19828SOL     OW65319   4.333   5.307  10.698 -0.4886 -0.2153 -0.7452
19828SOL    HW165320   4.395   5.379  10.702 -1.0722  0.3108 -1.0426
19828SOL    HW265321   4.357   5.251  10.772 -1.7853  1.7527  1.2965
19829SOL     OW65322   8.734   0.826   4.355  0.3976 -0.4543  0.7510
19829SOL    HW165323   8.810   0.870   4.394  0.8145 -1.0456  0.6222
19829SOL    HW265324   8.685   0.793   4.430 -0.6664  1.3904  0.9291
19830SOL     OW65325   9.385   0.953   0.495 -0.3200 -0.1061  0.0381
19830SOL    HW165326   9.380   0.960   0.590  0.5798  0.3995  0.0586
19830SOL    HW265327   9.468   0.994   0.472 -0.3243 -0.6014 -0.9305
19831SOL     OW65328  10.189   7.467   0.459 -0.6993  0.2851 -0.2116
19831SOL    HW165329  10.230   7.381   0.461  0.3876  0.7250 -1.4665
19831SOL    HW265330  10.097   7.451   0.480 -0.5515 -1.2022 -0.5904
19832SOL     OW65331   2.831   7.115   2.758  0.3724  0.1603  0.2330
19832SOL    HW165332   2.789   7.186   2.710  0.0179 -1.2417 -1.6328
19832SOL    HW265333   2.797   7.035   2.718  3.0680 -1.0741  0.1827
19833SOL     OW65334   7.401   3.731   5.103  0.3902  0.0714  0.0451
19833SOL    HW165335   7.333   3.744   5.037  1.9476  1.0906 -1.4618
19833SOL    HW265336   7.464   3.673   5.061  1.2018  0.3891  0.7930
19834SOL     OW65337  10.419   7.659   1.365  0.4400 -0.1714  0.1051
19834SOL    HW165338  10.410   7.564   1.375  0.5765 -0.2280 -0.2716
19834SOL    HW265339  10.329   7.690   1.352  0.0949  0.0657  2.6182
19835SOL     OW65340   7.988   7.102   0.702  0.0165  0.3867  0.4610
19835SOL    HW165341   8.049   7.110   0.775  0.5737 -2.0645  0.3579
19835SOL    HW265342   8.026   7.156   0.633  0.7962  0.7729  1.1792
19836SOL     OW65343   1.102  10.600   4.218  0.4241  0.0600 -0.1198
19836SOL    HW165344   1.006  10.600   4.218  0.3909  1.8553 -0.4572
19836SOL    HW265345   1.126  10.664   4.285  1.3628  0.1493 -0.5257
19837SOL     OW65346   6.181   7.975   9.304 -0.4805 -0.3780 -0.1421
19837SOL    HW165347   6.158   8.035   9.375  0.2623 -0.9783  0.6201
19837SOL    HW265348   6.251   8.020   9.257 -1.7771  0.5620 -1.2632
19838SOL     OW65349   6.303   1.367   8.247 -0.1964 -0.1881  0.1909
19838SOL    HW165350   6.230   1.311   8.222  0.2402 -0.6646 -0.0279
19838SOL    HW265351   6.346   1.320   8.319 -0.1900  0.1636  0.4221
19839SOL     OW65352   9.330   3.395   4.830  0.0117  0.3354 -0.0573
19839SOL    HW165353   9.370   3.316   4.866  0.0183 -0.1072 -0.9902
19839SOL    HW265354   9.237   3.387   4.853  0.0216  0.0836 -0.1055
19840SOL     OW65355   0.865   1.052  10.037 -0.5450 -0.0354  0.5362
19840SOL    HW165356   0.797   0.985  10.033 -1.3543  0.7736  0.2672
19840SOL    HW265357   0.855   1.092  10.123  0.3999 -0.7159  0.9757
19841SOL     OW65358   1.361   5.219   3.859  0.4783 -0.6198 -0.1929
19841SOL    HW165359   1.339   5.179   3.775 -2.5162  1.3071 -0.5089
19841SOL    HW265360   1.424   5.287   3.837 -0.5404  0.1009 -1.0314
19842SOL     OW65361   3.401  10.381   3.149  0.0550  0.2166 -0.1675
19842SOL    HW165362   3.358  10.348   3.070  0.3304  0.0060 -0.2314
19842SOL    HW265363   3.385  10.314   3.215 -0.6509  0.6550  0.1106
19843SOL     OW65364   2.677   2.145   9.795  1.0186  0.2891 -0.0872
19843SOL    HW165365   2.602   2.112   9.746  1.0566 -0.4969  0.3553
19843SOL    HW265366   2.642   2.165   9.882  1.0813  1.0680 -0.2333
19844SOL     OW65367   2.636   1.644   3.563  0.1079 -0.3804  0.1568
19844SOL    HW165368   2.557   1.594   3.584 -1.1950  1.4341 -0.1646
19844SOL    HW265369   2.670   1.672   3.648 -0.0375 -0.5200  0.2623
19845SOL     OW65370   1.818   4.594   7.951  0.1546 -0.1814  0.5356
19845SOL    HW165371   1.799   4.588   7.857 -1.7012 -1.2755  0.9376
19845SOL    HW265372   1.913   4.605   7.955  0.4803 -1.7137 -1.4450
19846SOL     OW65373   7.322   4.447   1.319  0.1129 -0.0455  0.7487
19846SOL    HW165374   7.345   4.389   1.391 -0.9219 -1.2080  0.1860
19846SOL    HW265375   7.337   4.535   1.353  3.0966 -0.6135  1.1523
19847SOL     OW65376   4.250   4.508   5.922 -0.5217 -0.2029  0.0337
19847SOL    HW165377   4.170   4.457   5.910  0.6989 -2.3911  0.5673
19847SOL    HW265378   4.312   4.470   5.860  0.6117  0.2478  0.8578
19848SOL     OW65379   8.970   6.341   7.701  0.2489 -0.0092 -0.0880
19848SOL    HW165380   8.989   6.394   7.779  1.2131  0.1821 -0.4378
19848SOL    HW265381   9.008   6.391   7.629 -0.2728 -0.3911 -0.6392
19849SOL     OW65382   7.065   0.001   8.011  0.0567 -0.0003  0.0649
19849SOL    HW165383   7.069   0.008   7.915 -0.9298  0.7402  0.0584
19849SOL    HW265384   6.971   0.003   8.031  0.2561  3.0849  1.2406
19850SOL     OW65385   9.496   0.296   8.228  0.1719 -0.1369 -0.3597
19850SOL    HW165386   9.407   0.291   8.262  0.0400 -0.2301 -0.7127
19850SOL    HW265387   9.518   0.206   8.204 -0.1119  0.0777 -1.4566
19851SOL     OW65388   9.425   4.297   6.397 -0.3424 -0.4793  0.3116
19851SOL    HW165389   9.492   4.359   6.426 -1.4393  1.5225 -1.2031
19851SOL    HW265390   9.459   4.211   6.423  3.2896  0.3315 -1.2173
19852SOL     OW65391   6.740   9.783   7.662  0.1292  0.9224 -0.0052
19852SOL    HW165392   6.662   9.838   7.666 -0.2636  0.5744 -1.9220
19852SOL    HW265393   6.802   9.833   7.610  1.2627  1.2395  1.5841
19853SOL     OW65394   2.315   0.194   3.359 -0.4131  0.1269  0.2574
19853SOL    HW165395   2.377   0.266   3.351  0.5181 -0.4082  2.0979
19853SOL    HW265396   2.349   0.126   3.302  1.5005 -0.6416  2.1927
19854SOL     OW65397   0.764   0.781   4.811  0.0269  0.1315 -0.4649
19854SOL    HW165398   0.738   0.767   4.902 -0.4411  0.6897 -0.5060
19854SOL    HW265399   0.858   0.765   4.810  0.3290  1.6224  0.4504
19855SOL     OW65400   4.686   5.369   9.014  0.3451  0.7081  0.0431
19855SOL    HW165401   4.618   5.431   8.988 -0.3248  0.5398  1.3404
19855SOL    HW265402   4.763   5.423   9.031  0.3568  0.9666 -0.7648
19856SOL     OW65403   3.311   9.643   0.919 -0.1088 -0.4763 -0.1612
19856SOL    HW165404   3.267   9.693   0.987  0.4827  0.3755 -0.3878
19856SOL    HW265405   3.249   9.641   0.846  0.1495  0.5754 -0.4208
19857SOL     OW65406   2.200   2.497   3.177  0.3693 -0.4563  0.6067
19857SOL    HW165407   2.107   2.507   3.159  0.4934 -1.3585 -0.6583
19857SOL    HW265408   2.218   2.559   3.248 -1.2860 -0.6202  1.2137
19858SOL     OW65409   7.718   4.192   0.263  0.0300  0.4493 -0.0471
19858SOL    HW165410   7.764   4.276   0.261 -2.3784  1.8591 -0.5182
19858SOL    HW265411   7.656   4.201   0.335  0.1002 -1.1897  0.2592
19859SOL     OW65412   9.875   0.562   0.807  0.7186 -0.2140 -0.3821
19859SOL    HW165413   9.942   0.537   0.743  0.0522  0.9272 -1.5753
19859SOL    HW265414   9.794   0.569   0.756 -0.3828 -1.6680  1.0436
19860SOL     OW65415   9.270   9.816   0.439 -0.4676  0.5515 -0.1186
19860SOL    HW165416   9.279   9.721   0.442  1.6375  0.6747 -0.7335
19860SOL    HW265417   9.221   9.833   0.358  0.0102  0.0115 -0.5305
19861SOL     OW65418   1.358   7.204   8.362  0.4278 -0.6954 -0.2987
19861SOL    HW165419   1.340   7.137   8.296  1.0244 -0.3398 -0.8370
19861SOL    HW265420   1.309   7.281   8.331  1.9572 -0.0439 -1.2027
19862SOL     OW65421   2.069   1.587   8.729  0.5567 -0.0916 -0.4923
19862SOL    HW165422   2.025   1.516   8.777  1.5160 -0.1107  0.3803
19862SOL    HW265423   2.144   1.544   8.687  1.5102  0.5076  0.5626
19863SOL     OW65424   0.906  10.724   8.876  0.0836 -0.0906  0.0740
19863SOL    HW165425   0.989  10.698   8.835  0.2763 -1.5597  1.3105
19863SOL    HW265426   0.880  10.803   8.829  0.8331 -1.0727 -2.1411
19864SOL     OW65427   8.078   0.560  10.131  0.5951  1.2859  0.4568
19864SOL    HW165428   8.108   0.631  10.073 -0.8868  0.5380 -1.3080
19864SOL    HW265429   8.134   0.485  10.108 -0.4081  0.8092 -0.5042
19865SOL     OW65430   8.195   5.297   6.378 -0.2820 -0.1824  0.5764
19865SOL    HW165431   8.241   5.369   6.335 -1.4410 -0.7061 -1.7203
19865SOL    HW265432   8.108   5.332   6.396 -1.2385 -1.2310 -1.5829
19866SOL     OW65433   8.530   1.280   8.092  0.4315 -0.1738  0.2126
19866SOL    HW165434   8.582   1.227   8.152 -0.8034 -1.9496 -0.2192
19866SOL    HW265435   8.469   1.327   8.149 -0.0756 -1.0966  0.4532
19867SOL     OW65436   0.254   3.970   0.644 -0.3146  0.3197 -0.4168
19867SOL    HW165437   0.260   4.053   0.692  1.1050  0.9977 -1.6543
19867SOL    HW265438   0.233   3.996   0.555 -0.4644 -0.7104 -0.6909
19868SOL     OW65439   6.694   8.757   8.271  0.0063  0.2242  0.0173
19868SOL    HW165440   6.785   8.784   8.266  0.0075  0.1903 -0.1677
19868SOL    HW265441   6.692   8.671   8.227 -0.1378  0.2845 -0.0959
19869SOL     OW65442   7.771   5.256   2.513 -0.2237 -0.3059  0.3847
19869SOL    HW165443   7.818   5.215   2.585 -0.0628 -0.3616  0.2476
19869SOL    HW265444   7.685   5.278   2.550 -0.7783 -1.8948  0.1188
19870SOL     OW65445   6.593   5.922   0.202 -0.0291  0.0602  0.6833
19870SOL    HW165446   6.562   6.002   0.243  3.1883 -0.1775  4.0223
19870SOL    HW265447   6.670   5.948   0.153 -1.0211 -0.5139 -1.2965
19871SOL     OW65448   6.400   2.077   7.101  0.0901  0.4579 -0.1639
19871SOL    HW165449   6.393   1.984   7.079 -0.3163  0.3541  0.3719
19871SOL    HW265450   6.323   2.094   7.155  0.3977  1.0018  0.1090
19872SOL     OW65451   3.515   2.284   2.472  0.2182 -0.5068 -0.4959
19872SOL    HW165452   3.543   2.211   2.417 -0.7039 -1.1440 -0.1351
19872SOL    HW265453   3.421   2.271   2.484  0.4951 -0.7680  1.7895
19873SOL     OW65454   9.701   7.687   7.866  0.3796 -0.0307  0.4880
19873SOL    HW165455   9.671   7.675   7.776  0.2129  0.8320  0.4206
19873SOL    HW265456   9.751   7.608   7.886 -0.8564 -0.9293  0.1601
19874SOL     OW65457   0.105   5.669   2.776 -0.5300  0.2101  0.5738
19874SOL    HW165458   0.191   5.702   2.803  0.2581 -0.6538 -0.7474
19874SOL    HW265459   0.112   5.660   2.681 -1.4120 -1.6895  0.6419
19875SOL     OW65460  10.147   6.959   2.196 -0.8467  0.5790  0.2249
19875SOL    HW165461  10.196   6.877   2.202 -1.2351  0.4074  1.2726
19875SOL    HW265462  10.187   7.006   2.123  0.3905  0.1303  0.5926
19876SOL     OW65463   8.867   7.996   6.595 -0.1144  0.0006 -0.1387
19876SOL    HW165464   8.890   7.923   6.537 -2.4142 -0.9429  0.0261
19876SOL    HW265465   8.884   8.074   6.543  1.0443 -0.6911 -0.8426
19877SOL     OW65466   4.652   6.171   6.162 -0.1646 -0.3598  0.1104
19877SOL    HW165467   4.632   6.190   6.254  0.1937 -1.1971  0.3709
19877SOL    HW265468   4.568   6.182   6.117 -0.2702  0.3922  0.4745
19878SOL     OW65469   5.505   3.062   2.621 -0.3526 -0.0552  0.0035
19878SOL    HW165470   5.423   3.109   2.639  0.0196 -0.0468  1.7620
19878SOL    HW265471   5.562   3.083   2.694  0.5886 -1.5452 -0.2687
19879SOL     OW65472   7.962   7.557   2.213  0.0085 -0.2532  0.3690
19879SOL    HW165473   7.973   7.635   2.268  0.5765  0.1511 -0.2992
19879SOL    HW265474   8.030   7.565   2.146  0.6106 -1.7317  0.7538
19880SOL     OW65475   9.958   1.764   3.854  0.2549 -0.0481 -0.2578
19880SOL    HW165476   9.950   1.766   3.759 -0.4951  0.5219 -0.1903
19880SOL    HW265477  10.049   1.739   3.870 -0.2173 -2.5800 -1.1033
19881SOL     OW65478  10.618   6.779  10.119  0.3215 -0.0508 -0.8792
19881SOL    HW165479  10.698   6.806  10.073  1.1300 -1.0348 -0.1026
19881SOL    HW265480  10.632   6.687  10.140 -0.8411 -0.1286 -0.3327
19882SOL     OW65481   2.524   0.857   1.642  0.3559  0.3609 -0.2628
19882SOL    HW165482   2.445   0.849   1.694 -0.9008 -1.8477 -2.2934
19882SOL    HW265483   2.589   0.804   1.688  0.4159  1.4201  0.9182
19883SOL     OW65484   4.718   0.278   9.796 -0.0749  0.4070  0.0204
19883SOL    HW165485   4.647   0.214   9.798  0.5575 -0.4059 -1.6780
19883SOL    HW265486   4.699   0.333   9.720  0.3082  1.1619  0.4554
19884SOL     OW65487   5.426   1.798   7.925  0.0425  0.1530  0.3725
19884SOL    HW165488   5.384   1.866   7.977 -0.6420 -1.5905  2.2477
19884SOL    HW265489   5.360   1.772   7.861 -0.8472 -0.7503  1.5993
19885SOL     OW65490   9.179   3.262   0.031 -0.2061 -0.3152  0.0721
19885SOL    HW165491   9.112   3.226   0.089  1.1765 -1.2843  1.1379
19885SOL    HW265492   9.180   3.204  -0.045  0.4349 -1.2034  0.7419
19886SOL     OW65493   9.558   5.647   4.946  0.5624 -0.4686  0.2023
19886SOL    HW165494   9.509   5.665   5.026  0.1943 -0.3535 -0.0448
19886SOL    HW265495   9.543   5.725   4.892  0.5377 -0.6901 -0.1095
19887SOL     OW65496   1.562   3.492   9.080 -0.1389 -0.5657  0.0795
19887SOL    HW165497   1.494   3.524   9.139  0.5181 -1.0399  1.1043
19887SOL    HW265498   1.571   3.400   9.101 -0.0249 -0.7877 -0.9043
19888SOL     OW65499   7.417   7.473   9.740  0.1408 -0.6967  0.1779
19888SOL    HW165500   7.379   7.503   9.823  0.2870 -0.8003  0.2838
19888SOL    HW265501   7.375   7.388   9.724  0.0893 -0.6626  0.1282
19889SOL     OW65502   8.858   8.716   6.812  0.0757 -0.3282 -1.4912
19889SOL    HW165503   8.952   8.708   6.799  0.2495 -0.3629 -0.3604
19889SOL    HW265504   8.819   8.660   6.745  0.9279 -1.8532 -0.7747
19890SOL     OW65505   9.177  10.240   8.707 -0.2179 -0.1067 -0.0684
19890SOL    HW165506   9.223  10.173   8.757  0.2322  0.0449 -0.2726
19890SOL    HW265507   9.192  10.215   8.615  1.1455  1.0282 -0.1971
19891SOL     OW65508   4.148   0.884   0.178  0.0990 -0.4866 -0.1844
19891SOL    HW165509   4.064   0.903   0.136 -1.5195  3.0051  3.9814
19891SOL    HW265510   4.127   0.819   0.245  0.6872  0.4018  0.8793
19892SOL     OW65511  10.580   2.889   2.905 -0.4189  0.0161  0.1880
19892SOL    HW165512  10.523   2.942   2.960  0.1160  0.4154  0.3707
19892SOL    HW265513  10.636   2.841   2.967 -0.8115 -0.6739  0.0229
19893SOL     OW65514   6.562   5.063   6.124 -0.1194 -0.5635  0.0793
19893SOL    HW165515   6.543   5.040   6.033 -0.1312  0.7426 -0.2647
19893SOL    HW265516   6.516   5.146   6.138 -0.7335 -1.1152  1.5157
19894SOL     OW65517   8.651   1.724   4.810  0.0902  0.1310  0.6087
19894SOL    HW165518   8.632   1.756   4.722  0.4397  0.5458  0.6828
19894SOL    HW265519   8.614   1.790   4.868 -0.1792 -0.1638  0.7760
19895SOL     OW65520   0.855  10.574   7.759 -0.3176 -0.5384  0.4692
19895SOL    HW165521   0.840  10.668   7.764  0.7798 -0.1035 -2.3691
19895SOL    HW265522   0.869  10.556   7.666  1.5942 -3.1636  1.1072
19896SOL     OW65523  10.139   1.586   7.559  0.9609 -0.2248  0.4627
19896SOL    HW165524  10.193   1.665   7.563  0.1569  0.2845  2.0901
19896SOL    HW265525  10.069   1.602   7.623 -1.0965 -0.8827 -1.4792
19897SOL     OW65526   4.845   6.318   1.536 -0.3915  0.2365 -0.5609
19897SOL    HW165527   4.863   6.313   1.442  1.2912 -0.1619 -0.2445
19897SOL    HW265528   4.761   6.364   1.542 -0.9967 -0.5700 -2.2913
19898SOL     OW65529   2.912   9.615   8.031 -0.6738 -0.0550  0.1535
19898SOL    HW165530   2.895   9.532   7.986 -1.8975  1.5621 -2.6381
19898SOL    HW265531   3.005   9.633   8.013 -1.0851  0.4542 -1.7024
19899SOL     OW65532   4.794  10.345   5.202  0.3319 -0.8303  0.4628
19899SOL    HW165533   4.859  10.285   5.167  0.7649 -0.2474  0.2427
19899SOL    HW265534   4.710  10.301   5.187  0.4685 -0.5244 -1.5736
19900SOL     OW65535   4.861  10.350   4.124 -0.3502  0.5215  0.2735
19900SOL    HW165536   4.908  10.433   4.119 -0.4981  0.6724  1.1961
19900SOL    HW265537   4.834  10.332   4.034  2.4208 -0.1439 -0.5125
19901SOL     OW65538  10.210   0.968   3.573 -0.0982 -0.3658  0.1674
19901SOL    HW165539  10.140   0.999   3.630  0.0404  0.9633 -0.3539
19901SOL    HW265540  10.289   0.975   3.627 -0.3055 -1.5971  0.6604
19902SOL     OW65541   1.829   0.308   4.048  0.1410 -0.1562  0.3365
19902SOL    HW165542   1.751   0.306   3.993  0.3550 -0.6785  0.0368
19902SOL    HW265543   1.866   0.395   4.035  0.1192 -0.2291 -0.2536
19903SOL     OW65544   6.133  10.208   0.367 -0.1625  0.8992 -0.0268
19903SOL    HW165545   6.134  10.267   0.292 -1.3594  0.3288 -0.5205
19903SOL    HW265546   6.207  10.150   0.354  0.7751  1.9979  0.2420
19904SOL     OW65547   9.536   2.867   3.347 -0.3145  0.1407 -0.5283
19904SOL    HW165548   9.481   2.921   3.403  0.8496 -0.2029  1.0127
19904SOL    HW265549   9.492   2.782   3.346 -0.2709  0.1039  0.0233
19905SOL     OW65550   1.905   3.358   1.216 -0.1734 -0.0885 -0.2085
19905SOL    HW165551   1.909   3.422   1.146 -0.2038 -0.0269 -0.1547
19905SOL    HW265552   1.820   3.315   1.205 -0.3600  0.2107  0.0407
19906SOL     OW65553   5.520   8.315   9.684  0.2391  0.4799  0.1073
19906SOL    HW165554   5.615   8.325   9.674  0.1784 -0.1343 -1.4368
19906SOL    HW265555   5.500   8.232   9.642 -1.2652  1.7472 -1.9046
19907SOL     OW65556   2.176   7.387   8.673  0.1239 -0.0085  0.1371
19907SOL    HW165557   2.134   7.367   8.590 -0.7877 -1.3309  0.8865
19907SOL    HW265558   2.122   7.343   8.739  1.0309  0.7033  1.4003
19908SOL     OW65559   9.718   2.577   3.237  0.4670 -0.2887 -0.0453
19908SOL    HW165560   9.747   2.504   3.291 -0.9110  0.2742  1.5560
19908SOL    HW265561   9.628   2.594   3.266  0.4298  1.4210 -1.0393
19909SOL     OW65562   2.399   2.626   1.768  0.4388  0.3857 -0.0906
19909SOL    HW165563   2.446   2.545   1.787  1.0080  0.4797 -1.0172
19909SOL    HW265564   2.355   2.610   1.685 -1.4520  0.2011  0.9087
19910SOL     OW65565   5.858   7.612   0.623 -1.2690  0.1996 -0.2312
19910SOL    HW165566   5.900   7.677   0.679 -4.2394  0.6633  1.7079
19910SOL    HW265567   5.845   7.656   0.539  0.4053  0.6101 -0.3050
19911SOL     OW65568   2.382   3.761   1.798  0.3043  0.0917  0.0757
19911SOL    HW165569   2.307   3.742   1.854 -0.5578  0.3783 -0.9405
19911SOL    HW265570   2.445   3.692   1.818 -0.9798 -1.2827 -0.3794
19912SOL     OW65571   7.878   9.732   4.355 -0.0615 -0.5372 -0.2058
19912SOL    HW165572   7.905   9.749   4.445 -0.2033 -1.0979 -0.0541
19912SOL    HW265573   7.813   9.799   4.337 -0.6525 -0.9349  0.3991
19913SOL     OW65574   3.936  10.198   9.011 -0.3360 -0.6019 -0.1434
19913SOL    HW165575   3.902  10.197   9.100 -3.6853 -0.9318 -1.2896
19913SOL    HW265576   3.909  10.114   8.974  1.1676 -0.5577 -1.4411
19914SOL     OW65577   8.231   2.340   7.375 -0.2705 -0.2362  0.2461
19914SOL    HW165578   8.248   2.347   7.469 -0.1277  0.4474  0.1756
19914SOL    HW265579   8.141   2.370   7.365  0.6601  2.7433 -0.1829
19915SOL     OW65580   5.906   1.130   0.065 -0.0504  0.2410  0.7929
19915SOL    HW165581   5.911   1.207   0.009 -1.9704  0.2649  0.5946
19915SOL    HW265582   5.967   1.148   0.137 -1.0980  2.3567  1.2303
19916SOL     OW65583  10.159   4.897   1.643  0.1970  0.5075 -0.3750
19916SOL    HW165584  10.101   4.969   1.668 -3.0678 -2.1821  0.6051
19916SOL    HW265585  10.213   4.883   1.721 -3.6527 -1.9741  2.2301
19917SOL     OW65586   2.149   3.495   9.357  0.4830  0.7469  0.2743
19917SOL    HW165587   2.224   3.542   9.392  0.5117  0.6265  0.3740
19917SOL    HW265588   2.096   3.562   9.315  1.4527  0.6306 -1.2381
19918SOL     OW65589   2.104   2.349   8.543  0.1511 -0.2346  0.2401
19918SOL    HW165590   2.075   2.440   8.542  0.8580  0.0164 -1.4942
19918SOL    HW265591   2.164   2.344   8.617  0.6192  0.8998 -0.0404
19919SOL     OW65592   8.166  10.033   4.345 -0.7967 -0.2896 -0.2420
19919SOL    HW165593   8.114  10.034   4.425 -0.3087 -1.5618  0.1121
19919SOL    HW265594   8.257  10.028   4.376 -0.1580  3.8265 -0.7605
19920SOL     OW65595   5.784   7.378   6.091 -0.1541 -0.5852 -0.2651
19920SOL    HW165596   5.855   7.328   6.131 -0.1804 -1.0438 -0.7838
19920SOL    HW265597   5.752   7.323   6.020 -0.6426 -0.1283 -0.4127
19921SOL     OW65598   2.693   7.474   9.163  0.2343 -0.2411 -0.6966
19921SOL    HW165599   2.762   7.476   9.229  0.8304  1.4452 -1.3083
19921SOL    HW265600   2.651   7.389   9.174  1.4459 -0.6969  0.6781
19922SOL     OW65601  10.309   9.324   0.413 -0.4169  0.5551  0.4708
19922SOL    HW165602  10.301   9.334   0.318  0.3343  0.3356  0.3822
19922SOL    HW265603  10.231   9.275   0.438 -0.5545  0.4991 -0.0536
19923SOL     OW65604   1.201   8.192   1.584 -0.0762 -0.3616  0.2811
19923SOL    HW165605   1.196   8.172   1.490 -0.5669  2.0410 -0.2959
19923SOL    HW265606   1.120   8.240   1.602  1.0317  1.1871  1.3570
19924SOL     OW65607   1.262   5.201   1.858 -0.0204  0.3016  0.2022
19924SOL    HW165608   1.265   5.188   1.953  0.1280 -1.7475 -0.0499
19924SOL    HW265609   1.186   5.152   1.829  0.2519  0.4580 -0.8061
19925SOL     OW65610   8.904   7.327   9.589  0.3050  0.2163 -0.3869
19925SOL    HW165611   8.851   7.256   9.625 -0.3514  2.1390  2.8576
19925SOL    HW265612   8.840   7.393   9.561  0.9159  0.8992 -0.2190
19926SOL     OW65613   0.706   3.368   0.541  0.3882  0.0366 -0.1894
19926SOL    HW165614   0.691   3.436   0.607 -2.8181 -0.1329 -0.5888
19926SOL    HW265615   0.738   3.416   0.464 -0.9431  1.0024 -0.1665
19927SOL     OW65616   0.631   3.604  10.412  0.2104 -0.8419 -0.0957
19927SOL    HW165617   0.691   3.533  10.434 -1.3384 -1.6163  1.9843
19927SOL    HW265618   0.551   3.559  10.384  0.0878  0.1438 -1.4115
19928SOL     OW65619  10.449   3.967   0.705 -0.3517  0.6903 -0.7968
19928SOL    HW165620  10.389   3.966   0.630 -0.7113  2.3190 -0.5810
19928SOL    HW265621  10.532   3.998   0.668 -0.1544  0.1996 -0.7635
19929SOL     OW65622   5.955   6.221   8.959 -0.0685  0.6364  0.5582
19929SOL    HW165623   6.006   6.148   8.996  0.1886  1.2317  1.3890
19929SOL    HW265624   6.001   6.242   8.877 -0.4109 -0.4213  0.0711
19930SOL     OW65625   2.659  10.322   2.412  0.0991 -0.2898 -0.3148
19930SOL    HW165626   2.626  10.374   2.338  2.2600  0.7706 -0.6026
19930SOL    HW265627   2.657  10.382   2.486  0.4966 -0.5107 -0.1261
19931SOL     OW65628   8.718   0.760   2.677 -0.3936 -0.7915 -0.2362
19931SOL    HW165629   8.627   0.743   2.702 -0.1966  1.5429  2.7296
19931SOL    HW265630   8.714   0.839   2.623 -0.1354 -0.2985  0.4447
19932SOL     OW65631   9.326   7.960   9.974  0.5092 -0.3872  0.0769
19932SOL    HW165632   9.384   8.034   9.955  0.4003 -0.1122  0.8071
19932SOL    HW265633   9.320   7.914   9.890 -1.1613  1.6412 -1.0248
19933SOL     OW65634   8.279   4.538   8.041 -0.1287 -0.4048  0.2380
19933SOL    HW165635   8.223   4.475   7.995 -0.6219  0.6245 -0.6056
19933SOL    HW265636   8.234   4.621   8.032  1.7554  0.5620 -0.9207
19934SOL     OW65637   5.952   4.605   4.806  0.3044 -0.3618 -0.1553
19934SOL    HW165638   5.891   4.667   4.847  1.9814  0.7183  0.7868
19934SOL    HW265639   6.014   4.582   4.875  1.2163 -1.1533 -1.1878
19935SOL     OW65640   3.120   9.987   0.833  0.0283 -0.4555  0.3817
19935SOL    HW165641   3.082  10.070   0.804 -0.2196 -0.9469 -0.7577
19935SOL    HW265642   3.214  10.003   0.838 -0.0893  0.1012  0.9069
19936SOL     OW65643   1.476   6.818  10.170 -0.2916  0.0903  0.2094
19936SOL    HW165644   1.471   6.858  10.257  0.8195  0.0926  0.2880
19936SOL    HW265645   1.428   6.735  10.179  0.0462 -0.0386  0.8984
19937SOL     OW65646   0.133   6.924   0.007  0.2794  0.2148 -0.0502
19937SOL    HW165647   0.055   6.893  -0.040  0.6773  0.4382 -0.8693
19937SOL    HW265648   0.206   6.883  -0.039  0.7484  1.4731 -0.4557
19938SOL     OW65649   6.753   9.181   0.555  0.2391 -0.4466  0.2146
19938SOL    HW165650   6.836   9.216   0.587  0.1873 -0.1296  0.0107
19938SOL    HW265651   6.707   9.152   0.634 -0.3004  1.2220  0.5546
19939SOL     OW65652   0.422   0.085   9.827 -0.2879  0.5364 -0.3724
19939SOL    HW165653   0.497   0.036   9.861  1.0128  1.7214 -1.3954
19939SOL    HW265654   0.402   0.148   9.897 -0.4734  0.0940 -0.0191
19940SOL     OW65655   7.708   4.539   4.366  0.1164  0.0382 -0.1018
19940SOL    HW165656   7.660   4.536   4.449  1.2489  0.3618  0.5907
19940SOL    HW265657   7.789   4.586   4.387  0.3306  0.3160 -1.4496
19941SOL     OW65658   5.059   0.156   0.479 -0.1038 -0.2217  0.4493
19941SOL    HW165659   4.983   0.099   0.465  0.0298 -0.0455 -1.1768
19941SOL    HW265660   5.071   0.200   0.395  0.1984  1.7303  1.4644
19942SOL     OW65661   1.556   4.713   9.527  0.0576  0.2367  0.2580
19942SOL    HW165662   1.572   4.687   9.618  0.9209 -1.6871 -0.3825
19942SOL    HW265663   1.461   4.705   9.516 -0.1029  0.8761  1.0826
19943SOL     OW65664   8.298   2.718   0.862  0.1640  0.0742  0.7637
19943SOL    HW165665   8.326   2.641   0.813 -1.8457 -0.4893  0.4295
19943SOL    HW265666   8.331   2.792   0.811  0.7011 -0.5281  0.2214
19944SOL     OW65667   4.096   5.992   2.357 -0.5852  0.2579  0.1013
19944SOL    HW165668   4.144   5.930   2.412 -0.5736  0.8094  0.7239
19944SOL    HW265669   4.061   5.938   2.285 -0.4664 -0.4440  0.5558
19945SOL     OW65670   2.689   2.607   0.743  0.0237 -0.2081 -0.6171
19945SOL    HW165671   2.648   2.603   0.656 -1.3362  1.6159 -0.1150
19945SOL    HW265672   2.660   2.690   0.779  0.5240 -0.9538  1.6297
19946SOL     OW65673   4.694   0.849   3.969 -0.1347  0.0249  0.1599
19946SOL    HW165674   4.677   0.756   3.951  0.9428 -0.4673  1.5304
19946SOL    HW265675   4.635   0.870   4.041 -0.8401  0.6056 -0.5677
19947SOL     OW65676   1.680   0.560   5.004  0.1308  0.8603 -0.3207
19947SOL    HW165677   1.649   0.470   5.007 -2.4772  1.7071  0.7986
19947SOL    HW265678   1.773   0.554   5.025 -0.7922 -1.2873  4.7542
19948SOL     OW65679   8.047   2.814   1.526 -0.1671 -0.2292 -0.6482
19948SOL    HW165680   8.126   2.866   1.511  0.2769 -1.1498 -1.6195
19948SOL    HW265681   7.985   2.876   1.565  0.7164  0.7396 -0.7369
19949SOL     OW65682  10.390   9.684  10.411  0.2515 -0.6451  0.1963
19949SOL    HW165683  10.406   9.738  10.333 -0.2489 -1.2116 -0.3156
19949SOL    HW265684  10.333   9.737  10.466  0.3693 -0.3536  0.0412
19950SOL     OW65685   9.875   4.212   1.364  0.5861  0.1306  0.4191
19950SOL    HW165686   9.822   4.272   1.417 -0.4917  0.6190 -1.1414
19950SOL    HW265687   9.906   4.266   1.291 -0.4843 -1.1956 -1.0808
19951SOL     OW65688   6.573   0.017   5.155  0.1184  0.3405 -0.0300
19951SOL    HW165689   6.537  -0.051   5.212  1.9777  0.1634  1.0407
19951SOL    HW265690   6.634  -0.030   5.098  1.2349  1.0416  0.5525
19952SOL     OW65691   8.193   0.067   3.264 -0.4336 -0.1325 -0.1596
19952SOL    HW165692   8.266   0.006   3.255 -0.7395 -0.7682  1.3260
19952SOL    HW265693   8.142   0.033   3.338 -2.2612  0.2842 -1.1711
19953SOL     OW65694   2.845   8.519   1.462 -0.3312 -0.4647  0.9339
19953SOL    HW165695   2.868   8.605   1.426 -0.0875 -0.7747  0.3418
19953SOL    HW265696   2.777   8.486   1.404  0.9894 -1.5356 -0.0762
19954SOL     OW65697   6.010   6.392   0.063 -0.0587 -0.3539 -0.2553
19954SOL    HW165698   5.958   6.472   0.075 -2.4079 -1.9430  0.7758
19954SOL    HW265699   6.080   6.399   0.128 -1.2736  0.0954  1.0568
19955SOL     OW65700   9.964   9.055   3.330  0.1876  0.3467 -0.1841
19955SOL    HW165701   9.989   9.063   3.423 -1.6037  1.6935  0.2483
19955SOL    HW265702   9.927   8.967   3.322  0.4460  0.1853  0.3674
19956SOL     OW65703   4.372   4.546   0.746  0.5488 -0.0273 -0.3754
19956SOL    HW165704   4.460   4.543   0.707  0.8757  1.2793  0.2297
19956SOL    HW265705   4.348   4.454   0.757  1.9719 -0.4041 -0.2628
19957SOL     OW65706   2.835   3.096   5.494  0.5423  0.3976 -0.0816
19957SOL    HW165707   2.759   3.091   5.436  0.6284 -0.4185 -0.1356
19957SOL    HW265708   2.812   3.039   5.568  0.8712  0.5958  0.1746
19958SOL     OW65709  10.163   0.368   5.882 -0.1389  0.4941  0.3760
19958SOL    HW165710  10.257   0.363   5.870 -0.4703 -1.1076 -2.2430
19958SOL    HW265711  10.142   0.296   5.942  0.1746 -0.0117 -0.1179
19959SOL     OW65712   2.791   3.868   9.674 -0.1326 -0.0437 -0.1805
19959SOL    HW165713   2.825   3.783   9.646  0.5785  0.1240  0.1414
19959SOL    HW265714   2.790   3.921   9.595  2.7240  0.7102  0.1887
19960SOL     OW65715   8.999   5.460   0.785  0.0880  0.3502  0.1392
19960SOL    HW165716   9.050   5.395   0.736  0.4652  0.0149  0.9602
19960SOL    HW265717   8.962   5.411   0.859 -1.7108  0.5107 -0.6031
19961SOL     OW65718   4.029   1.120   8.437 -0.2129  0.0196 -0.3768
19961SOL    HW165719   3.950   1.117   8.492  0.1039  0.6118  0.1240
19961SOL    HW265720   4.008   1.185   8.369  0.4378  1.4485  0.7364
19962SOL     OW65721   1.028   3.971   2.863  0.7257 -0.4365 -0.5071
19962SOL    HW165722   1.090   4.037   2.830 -1.5289  1.1256 -1.8717
19962SOL    HW265723   0.999   4.006   2.947  0.0075  0.0129 -0.9346
19963SOL     OW65724   1.677   2.055  10.104 -0.3887  0.2144 -0.4689
19963SOL    HW165725   1.626   1.997  10.047  1.1429 -0.8614 -0.8118
19963SOL    HW265726   1.706   2.126  10.047 -0.4961  0.1922 -0.5531
19964SOL     OW65727   3.775  10.065   6.569 -0.4180  0.1342  0.3197
19964SOL    HW165728   3.733   9.987   6.603  0.0591 -0.3543 -0.1940
19964SOL    HW265729   3.815  10.107   6.646 -0.4821 -0.2401  0.5565
19965SOL     OW65730  10.539   9.054   3.644  0.3341  0.3756 -0.2590
19965SOL    HW165731  10.474   8.986   3.630 -0.3361  1.2906 -1.8094
19965SOL    HW265732  10.586   9.060   3.561  0.2195  1.9594 -0.2372
19966SOL     OW65733  10.525   8.542   7.046  0.4340  0.0997  0.0671
19966SOL    HW165734  10.494   8.608   7.109  0.0292  1.1498 -1.1709
19966SOL    HW265735  10.497   8.458   7.083 -0.1017  0.7141  1.1058
19967SOL     OW65736  10.184   8.306   4.094  0.1343  0.2917 -0.0399
19967SOL    HW165737  10.158   8.311   4.186  2.6405  0.4737  0.7280
19967SOL    HW265738  10.279   8.298   4.096  0.3725  1.4197 -2.6616
19968SOL     OW65739   4.109   8.284   7.219  0.2063 -0.2512 -0.4484
19968SOL    HW165740   4.077   8.315   7.303  0.8043  1.4775 -0.8105
19968SOL    HW265741   4.037   8.230   7.184 -0.7435  0.4253  0.4038
19969SOL     OW65742   5.151   1.185   5.718 -0.5899  0.0445 -0.0908
19969SOL    HW165743   5.218   1.209   5.782 -1.3460 -0.1013  0.7843
19969SOL    HW265744   5.184   1.105   5.677  0.7834  1.1331 -1.2606
19970SOL     OW65745   2.543   2.530   3.335  0.1903 -0.1886 -0.3069
19970SOL    HW165746   2.512   2.475   3.407  0.5508 -1.2617 -0.9486
19970SOL    HW265747   2.599   2.472   3.284  0.1603  0.6379 -1.2932
19971SOL     OW65748   5.367   4.792   3.210 -0.8316  0.3606 -0.2048
19971SOL    HW165749   5.272   4.803   3.206 -1.0050 -0.9335 -0.0505
19971SOL    HW265750   5.397   4.809   3.121 -1.4081 -0.8110 -0.6372
19972SOL     OW65751   5.162   7.426   8.260 -0.7991 -0.4667 -0.6807
19972SOL    HW165752   5.110   7.459   8.187 -0.7056  1.3314  0.0113
19972SOL    HW265753   5.200   7.344   8.228 -0.2158  0.5907 -2.8851
19973SOL     OW65754   9.563   6.746   2.509  0.1232 -0.2575 -0.7167
19973SOL    HW165755   9.505   6.798   2.453  0.7901  0.8821 -0.3878
19973SOL    HW265756   9.615   6.694   2.447 -0.0587 -0.0028 -1.0887
19974SOL     OW65757   7.631   5.725   9.895 -0.0615  0.1622  0.1584
19974SOL    HW165758   7.585   5.690   9.819 -0.1286  1.0314 -0.2181
19974SOL    HW265759   7.575   5.797   9.925  1.7415  2.2924 -1.2659
19975SOL     OW65760   6.934   2.252   2.524 -0.3131  0.0444  0.2994
19975SOL    HW165761   7.021   2.250   2.484  0.5973  1.2442  2.1082
19975SOL    HW265762   6.946   2.301   2.605 -2.5895 -0.2027  0.8416
19976SOL     OW65763   7.089  10.698   4.844  0.0256 -0.2375  0.1068
19976SOL    HW165764   7.134  10.762   4.789 -0.6145 -0.4277 -0.6643
19976SOL    HW265765   7.141  10.618   4.836  0.0476 -0.2062 -0.0536
19977SOL     OW65766   3.991   5.687   6.899  0.2123  0.8243 -0.3781
19977SOL    HW165767   4.074   5.698   6.945 -0.0322  1.5522 -0.0990
19977SOL    HW265768   3.997   5.600   6.860  0.7138  0.4834  0.4353
19978SOL     OW65769   9.140   5.798   2.450  0.5216  0.2245  0.2562
19978SOL    HW165770   9.153   5.716   2.499 -1.3885 -1.7072 -2.1533
19978SOL    HW265771   9.227   5.823   2.420  1.0362 -1.5088  0.2123
19979SOL     OW65772   2.748   8.221   4.117  0.0857  0.1736  0.2159
19979SOL    HW165773   2.833   8.230   4.162 -0.0919  2.2246  0.2614
19979SOL    HW265774   2.758   8.144   4.061  1.5653 -0.3132  1.0880
19980SOL     OW65775   8.846   2.022   4.693  0.3248 -0.4586 -0.0431
19980SOL    HW165776   8.858   2.001   4.786 -2.8567 -1.7486  0.1949
19980SOL    HW265777   8.900   2.101   4.679  2.1389 -1.1318  2.4391
19981SOL     OW65778   3.874   8.151   7.118  0.5068  0.1279  0.7621
19981SOL    HW165779   3.791   8.106   7.102  0.7778 -0.3670  0.7137
19981SOL    HW265780   3.858   8.241   7.092  0.5574 -0.3807 -1.1782
19982SOL     OW65781   9.756   9.909   4.966  0.6071 -0.2541  0.0877
19982SOL    HW165782   9.716   9.909   5.053  1.5791  1.2909  0.5857
19982SOL    HW265783   9.705   9.846   4.916  1.3677 -2.9367  2.3755
19983SOL     OW65784   1.375  10.528   7.159 -0.2801 -0.2220 -0.3264
19983SOL    HW165785   1.403  10.587   7.088 -1.1683  1.7715  0.8908
19983SOL    HW265786   1.359  10.444   7.115  1.8530  0.1615 -2.0051
19984SOL     OW65787   5.522   0.680   2.016  0.3086 -0.4771  0.2902
19984SOL    HW165788   5.431   0.681   1.987  0.5174 -1.2078 -0.4263
19984SOL    HW265789   5.518   0.696   2.110 -0.5521 -0.4644  0.2548
19985SOL     OW65790   7.429   4.852   4.919 -0.1858 -0.6289  0.1580
19985SOL    HW165791   7.407   4.935   4.961 -0.5141 -0.8698  0.4644
19985SOL    HW265792   7.470   4.800   4.988  4.2685  0.8658 -1.0181
19986SOL     OW65793   9.280   9.712   4.520 -0.1636  0.4764 -0.0190
19986SOL    HW165794   9.288   9.690   4.613  1.3608  0.5063 -0.1170
19986SOL    HW265795   9.218   9.785   4.517  0.7204  1.3064  1.1091
19987SOL     OW65796   6.224   8.542   0.338  0.0536 -0.2849  0.0464
19987SOL    HW165797   6.245   8.478   0.270 -1.7943  0.4090 -1.2323
19987SOL    HW265798   6.130   8.533   0.352 -0.0096  1.2537  0.7923
19988SOL     OW65799   3.442   5.625   2.623 -0.4250 -0.1855 -0.0865
19988SOL    HW165800   3.487   5.627   2.707 -1.5439  0.3687  0.5341
19988SOL    HW265801   3.476   5.548   2.579 -0.1829 -0.7758  1.0880
19989SOL     OW65802   3.675   4.144   7.209  0.0020  0.4376 -0.3918
19989SOL    HW165803   3.671   4.238   7.225  0.2909  0.1326  1.6965
19989SOL    HW265804   3.764   4.119   7.234 -1.3069 -1.0457  3.5446
19990SOL     OW65805   8.892   9.550   0.896 -0.6289  0.3672 -0.8889
19990SOL    HW165806   8.841   9.625   0.927 -0.3050  0.2610 -0.0974
19990SOL    HW265807   8.831   9.477   0.897 -0.6469  0.3875 -0.6174
19991SOL     OW65808   9.726   2.154   4.282 -0.0646  0.3258 -0.2239
19991SOL    HW165809   9.690   2.078   4.235  0.2231  0.9973 -1.5754
19991SOL    HW265810   9.820   2.137   4.288 -0.1060  0.2215  0.1601
19992SOL     OW65811  10.086   3.965   6.511 -0.1720  0.3037  0.3722
19992SOL    HW165812  10.127   3.878   6.506 -1.2092 -0.1190 -1.1713
19992SOL    HW265813  10.116   4.010   6.433 -0.6168  0.9033  0.5431
19993SOL     OW65814   1.690   8.634   3.484 -0.6327 -0.0536  0.8702
19993SOL    HW165815   1.657   8.547   3.504 -2.6326  0.1225 -1.2802
19993SOL    HW265816   1.620   8.694   3.510 -1.3454  0.4910 -2.0429
19994SOL     OW65817   4.244   6.472   3.478  0.2046  0.5867 -0.0689
19994SOL    HW165818   4.311   6.455   3.545  0.1874 -0.7606 -0.3614
19994SOL    HW265819   4.294   6.494   3.399  0.2846  0.1589 -0.1374
19995SOL     OW65820   8.204   7.267   2.655  0.4526 -0.3239  0.1663
19995SOL    HW165821   8.153   7.320   2.716 -0.4036 -1.4794  0.4832
19995SOL    HW265822   8.176   7.298   2.568  1.1296  0.8086  0.3296
19996SOL     OW65823   6.484   1.772   1.542  0.1693 -0.1999  0.1853
19996SOL    HW165824   6.560   1.783   1.599  0.8278 -0.5919 -0.5962
19996SOL    HW265825   6.518   1.727   1.465 -1.0347 -1.2091  0.2048
19997SOL     OW65826   1.789   9.380   5.033  0.9332 -0.1348 -0.5013
19997SOL    HW165827   1.753   9.338   5.110  1.7970 -1.0289 -0.5622
19997SOL    HW265828   1.742   9.342   4.959  0.7700  0.0133 -0.4734
19998SOL     OW65829   4.766   5.590   6.196 -0.0985 -0.6194 -0.2086
19998SOL    HW165830   4.746   5.504   6.232  0.3463 -0.8263 -0.4535
19998SOL    HW265831   4.780   5.645   6.274 -1.5239 -0.4722 -0.0243
19999SOL     OW65832  10.578   0.591  10.501  0.7141 -0.3601  0.4509
19999SOL    HW165833  10.532   0.649  10.562  0.7409 -1.3361  1.4399
19999SOL    HW265834  10.658   0.638  10.478 -0.5319  1.1898 -0.9668
20000SOL     OW65835   1.804   7.146   1.778 -0.2699  0.0415  0.0617
20000SOL    HW165836   1.838   7.057   1.776 -0.5719 -0.0783  0.1643
20000SOL    HW265837   1.873   7.198   1.818 -0.1555 -0.1743  0.1435
20001SOL     OW65838   3.443   9.495   2.916 -0.7088 -0.5299 -0.0834
20001SOL    HW165839   3.447   9.564   2.983  0.3047 -0.1424 -0.5321
20001SOL    HW265840   3.374   9.523   2.857 -0.2254  0.1671 -0.3265
20002SOL     OW65841   6.725   4.902   2.026 -0.2067 -0.1398  0.2537
20002SOL    HW165842   6.691   4.843   2.094 -1.4341 -0.8278 -0.9138
20002SOL    HW265843   6.820   4.890   2.030 -0.0614  1.1065  2.9571
20003SOL     OW65844   9.578   5.720   3.979  0.4605 -0.0890  0.4119
20003SOL    HW165845   9.580   5.767   3.896  0.9531 -0.8555 -0.0128
20003SOL    HW265846   9.626   5.639   3.963 -2.6063 -2.0771  0.3140
20004SOL     OW65847   0.953   0.804   9.884 -0.1655 -0.1200  0.0328
20004SOL    HW165848   0.860   0.802   9.861 -1.2518 -0.5843  3.8673
20004SOL    HW265849   0.978   0.712   9.890  0.0006 -0.0312  0.7866
20005SOL     OW65850   3.041   6.805   7.674  0.3536 -0.0609  0.0823
20005SOL    HW165851   3.030   6.875   7.611 -0.2604  0.0136  0.2670
20005SOL    HW265852   3.109   6.837   7.734  0.3777  0.1930 -0.0813
20006SOL     OW65853   2.828  10.721  10.429  0.4184 -0.0672 -0.4173
20006SOL    HW165854   2.904  10.758  10.475  0.3730 -0.4201 -0.0501
20006SOL    HW265855   2.859  10.637  10.396  0.0169 -0.4946  0.2602
20007SOL     OW65856   6.640   1.776   2.585  0.0884  0.3387 -0.2687
20007SOL    HW165857   6.717   1.830   2.603  0.7762 -0.8432  0.4704
20007SOL    HW265858   6.575   1.805   2.650  0.7514 -0.2844  0.7041
20008SOL     OW65859   5.881   4.343   0.797  0.5494 -0.1494  0.7428
20008SOL    HW165860   5.790   4.370   0.811  0.3633  0.8951 -1.9292
20008SOL    HW265861   5.933   4.419   0.826  0.4107  0.2157  0.0631
20009SOL     OW65862  10.282   0.978   5.225  0.0983 -0.1133  0.5625
20009SOL    HW165863  10.206   1.008   5.175  1.6143 -0.7833 -2.3215
20009SOL    HW265864  10.252   0.897   5.267 -0.3676 -1.3407 -1.9661
20010SOL     OW65865   7.131   9.530   2.638 -0.0277  0.3533 -0.4064
20010SOL    HW165866   7.179   9.531   2.555 -0.7172 -1.2985 -0.8689
20010SOL    HW265867   7.190   9.487   2.700  0.3224  1.2152 -0.1210
20011SOL     OW65868   7.526   6.602   8.325 -0.0365  0.2091  0.0914
20011SOL    HW165869   7.610   6.646   8.334  0.4853 -0.5828 -0.8254
20011SOL    HW265870   7.517   6.551   8.406  0.4558  0.1373  0.1039
20012SOL     OW65871   7.431   6.107   8.774  0.2966 -0.1778  0.0822
20012SOL    HW165872   7.450   6.117   8.681 -0.6306 -0.9864 -0.2150
20012SOL    HW265873   7.516   6.100   8.816  0.7592  1.2562 -0.5629
20013SOL     OW65874   6.481   6.341   3.542 -0.0787  0.3721  0.5982
20013SOL    HW165875   6.436   6.258   3.556 -1.6499  0.9473 -0.6757
20013SOL    HW265876   6.431   6.383   3.472  0.8883  2.2417  0.9796
20014SOL     OW65877   8.419   6.990   2.970 -0.0974  0.6707  0.1638
20014SOL    HW165878   8.377   7.016   2.888  0.4614  2.1801  0.3123
20014SOL    HW265879   8.510   7.018   2.961  0.1372  0.2391  1.0349
20015SOL     OW65880   4.453   1.044   3.313  0.2271 -0.0314 -0.1243
20015SOL    HW165881   4.367   1.068   3.280 -0.4384 -2.8830 -0.7500
20015SOL    HW265882   4.509   1.040   3.235  0.2527 -0.7043 -0.0769
20016SOL     OW65883   1.121  10.233   1.280  0.3175 -0.0429 -0.4612
20016SOL    HW165884   1.093  10.325   1.276  2.4860  0.7014  0.2027
20016SOL    HW265885   1.086  10.194   1.200 -2.4548  0.7607  0.2473
20017SOL     OW65886   0.152   2.413   8.392  0.2445  0.2815 -0.0152
20017SOL    HW165887   0.242   2.446   8.384  0.8468 -1.0084  1.0825
20017SOL    HW265888   0.141   2.356   8.315  1.6353 -2.2590  1.5271
20018SOL     OW65889   9.997   9.890  10.318  0.2095  0.0346  0.3638
20018SOL    HW165890   9.987   9.977  10.280  0.8782 -0.5512 -1.2237
20018SOL    HW265891   9.925   9.883  10.382 -1.0421  1.0190 -0.8808
20019SOL     OW65892   8.333   8.410   4.639 -0.0611 -0.5544 -0.1520
20019SOL    HW165893   8.358   8.450   4.556 -0.9424  1.7267  0.5916
20019SOL    HW265894   8.264   8.468   4.673  0.1778 -1.5001  2.0960
20020SOL     OW65895   5.821   2.937   8.506 -0.0631 -0.4396 -0.1619
20020SOL    HW165896   5.809   2.998   8.578 -1.5098 -0.6997 -0.1632
20020SOL    HW265897   5.772   2.859   8.531  1.4766 -1.5053 -0.3055
20021SOL     OW65898   5.195   8.766   1.488 -0.6866 -0.0604 -0.0732
20021SOL    HW165899   5.187   8.684   1.440 -2.1399 -1.2389  2.0130
20021SOL    HW265900   5.130   8.760   1.558 -1.0043  2.9997  0.0342
20022SOL     OW65901   4.235   4.103   4.340 -0.9033  0.0124 -0.7559
20022SOL    HW165902   4.197   4.049   4.271 -1.4724 -0.7922  0.1442
20022SOL    HW265903   4.245   4.043   4.414 -1.5777  1.1390  0.2933
20023SOL     OW65904   6.733   7.774   6.768  0.0634  0.1023 -0.8918
20023SOL    HW165905   6.740   7.844   6.832  0.1250 -0.7027 -0.0064
20023SOL    HW265906   6.823   7.757   6.740  0.0957  0.0824 -0.7770
20024SOL     OW65907   3.633   7.602   2.045 -0.0695  0.2876 -0.2417
20024SOL    HW165908   3.672   7.537   2.104 -1.0155  0.1450  0.2496
20024SOL    HW265909   3.686   7.681   2.058  0.4334 -0.0761 -0.0492
20025SOL     OW65910   4.567   5.325   1.228  0.5113 -0.3359  0.1952
20025SOL    HW165911   4.624   5.400   1.246  0.8436  0.2163 -2.6504
20025SOL    HW265912   4.486   5.364   1.195  0.4500 -1.1809 -0.6960
20026SOL     OW65913   8.373   2.790   6.745  0.4595 -0.2171  0.3260
20026SOL    HW165914   8.447   2.748   6.789 -1.0544 -0.6863  2.5981
20026SOL    HW265915   8.402   2.880   6.730  2.1573 -0.8749 -0.6191
20027SOL     OW65916   5.909   7.166   8.634 -0.1911 -0.4598  0.4718
20027SOL    HW165917   5.836   7.199   8.685 -1.5218  1.7174 -2.5314
20027SOL    HW265918   5.970   7.240   8.629  1.5563 -1.7358  1.6070
20028SOL     OW65919   0.267   5.995   0.860 -0.4178 -0.0422  0.3949
20028SOL    HW165920   0.310   5.933   0.802 -1.9024 -0.6666 -0.0945
20028SOL    HW265921   0.259   6.076   0.810 -1.1821 -0.4064 -0.0955
20029SOL     OW65922   5.339   4.757   8.530 -0.2370  0.9084  0.4618
20029SOL    HW165923   5.363   4.779   8.440  0.0804 -2.3000 -0.3934
20029SOL    HW265924   5.258   4.706   8.521  0.4819 -0.5487  1.7954
20030SOL     OW65925   8.548   9.375   0.375 -0.5992  0.0703 -0.1412
20030SOL    HW165926   8.631   9.372   0.422 -1.1865 -2.1936  0.8930
20030SOL    HW265927   8.534   9.285   0.346 -0.5843  1.2167 -4.2308
20031SOL     OW65928   8.386   6.005   9.193 -0.3685  0.2065 -0.6232
20031SOL    HW165929   8.366   5.989   9.101 -0.9916 -2.6076 -0.1116
20031SOL    HW265930   8.353   6.093   9.211  0.4136  1.0994 -3.2230
20032SOL     OW65931   1.121   6.816   9.713  0.1677 -0.2950 -0.2480
20032SOL    HW165932   1.172   6.840   9.790  1.7900 -0.5791 -1.1642
20032SOL    HW265933   1.097   6.724   9.727  0.0757 -0.2173  0.1043
20033SOL     OW65934   1.190   0.665  10.495 -1.0613 -0.1993  0.4139
20033SOL    HW165935   1.283   0.644  10.480 -1.1814 -0.5121  0.0939
20033SOL    HW265936   1.155   0.587  10.537 -1.4488 -0.5460 -0.5325
20034SOL     OW65937   1.128  10.563   7.348 -0.2184  0.4067 -0.4949
20034SOL    HW165938   1.207  10.572   7.294 -0.1471  1.8681 -0.1791
20034SOL    HW265939   1.160  10.561   7.438 -0.5272  0.7293 -0.3767
20035SOL     OW65940   6.357   5.089   7.427  0.0682 -0.2918  0.3751
20035SOL    HW165941   6.334   5.092   7.334  0.5857 -0.8087  0.2261
20035SOL    HW265942   6.387   5.000   7.442  3.0600  0.5714  0.2653
20036SOL     OW65943   4.596   8.743   1.241  0.3235  0.6374 -0.6135
20036SOL    HW165944   4.608   8.774   1.330 -0.1754  1.7044 -0.9055
20036SOL    HW265945   4.505   8.711   1.238  1.1144 -1.9070 -0.0325
20037SOL     OW65946   2.248   9.193   0.514 -0.0729  0.2721 -0.0139
20037SOL    HW165947   2.313   9.190   0.444  0.2872 -1.1031  0.3485
20037SOL    HW265948   2.169   9.156   0.475  0.5235 -1.8582  0.6467
20038SOL     OW65949   6.241   3.903   0.293  0.0426  0.0763 -0.4545
20038SOL    HW165950   6.159   3.953   0.289 -1.0940 -1.7651 -1.4907
20038SOL    HW265951   6.309   3.966   0.271 -1.1740  1.4675 -0.3542
20039SOL     OW65952   1.535   0.722   8.112  0.2244 -0.1546  0.0203
20039SOL    HW165953   1.583   0.797   8.148 -0.1308 -0.8287  2.0425
20039SOL    HW265954   1.603   0.660   8.088  0.4439 -0.1904  0.7194
20040SOL     OW65955   2.907   9.288   1.384 -0.5172 -0.4028  0.1685
20040SOL    HW165956   2.943   9.307   1.471  0.8712  0.2948 -0.5408
20040SOL    HW265957   2.815   9.268   1.401 -0.3352 -0.0171  1.7751
20041SOL     OW65958   7.551   8.707  10.121 -0.6662 -0.7533 -0.0038
20041SOL    HW165959   7.551   8.614  10.142  0.7062 -0.7095  0.3072
20041SOL    HW265960   7.632   8.720  10.071 -0.9929  0.2175 -0.2981
20042SOL     OW65961   5.019  10.287   1.355  0.1447 -0.0874 -0.3890
20042SOL    HW165962   5.009  10.370   1.309 -1.3740  0.1990  0.3960
20042SOL    HW265963   5.103  10.294   1.401  1.3941 -0.1266 -2.5117
20043SOL     OW65964  10.517   1.097   6.152 -0.4691 -0.0836 -0.2464
20043SOL    HW165965  10.572   1.165   6.113 -0.6148 -0.4661 -1.1416
20043SOL    HW265966  10.543   1.017   6.107  0.6988 -0.9059  1.7540
20044SOL     OW65967   6.939   9.225   1.860  0.2495 -0.0847 -0.2721
20044SOL    HW165968   6.902   9.245   1.946  1.5414 -1.0710  0.5554
20044SOL    HW265969   7.004   9.156   1.877  1.3698  0.5116 -1.8608
20045SOL     OW65970   7.425   0.313   0.556 -0.0282 -0.0231 -0.0630
20045SOL    HW165971   7.438   0.367   0.635  1.2244 -1.2680  0.6064
20045SOL    HW265972   7.347   0.352   0.515 -0.1687  1.2430  1.2778
20046SOL     OW65973   9.974   2.324   9.943  0.1268  0.4022 -0.2701
20046SOL    HW165974  10.058   2.308   9.899  0.3907  1.2774 -0.1116
20046SOL    HW265975   9.954   2.416   9.923 -1.9862 -0.3924 -2.2984
20047SOL     OW65976   1.245   9.228   1.115 -0.2542  0.2653  0.1703
20047SOL    HW165977   1.175   9.178   1.072 -0.0631 -1.0332  1.3118
20047SOL    HW265978   1.314   9.233   1.049 -0.6201 -0.2363 -0.2587
20048SOL     OW65979   2.643   2.345   2.761  0.0665  0.6271  0.4524
20048SOL    HW165980   2.548   2.354   2.767 -0.2723 -0.6570 -1.8650
20048SOL    HW265981   2.662   2.260   2.801 -0.1806 -0.4298 -1.5430
20049SOL     OW65982   6.662   5.316  10.353 -0.1361 -0.0990  0.0785
20049SOL    HW165983   6.647   5.397  10.402 -4.3056 -0.0373 -0.9049
20049SOL    HW265984   6.649   5.247  10.418  0.4376 -0.0260  0.2811
20050SOL     OW65985   1.160   2.221   9.118 -0.1531  0.1625 -0.0309
20050SOL    HW165986   1.117   2.306   9.114 -1.5182 -0.5645 -1.6585
20050SOL    HW265987   1.199   2.209   9.032  0.9214 -0.4421  0.5108
20051SOL     OW65988   2.899   7.297   5.120  0.0211 -0.5340 -0.5458
20051SOL    HW165989   2.943   7.293   5.205 -0.9863  0.3961  0.0410
20051SOL    HW265990   2.944   7.231   5.067  0.0720 -1.8053  0.9953
20052SOL     OW65991   3.668   2.158  10.692  0.1162  0.0747 -0.5842
20052SOL    HW165992   3.593   2.153  10.751 -0.1777 -0.2507 -0.9793
20052SOL    HW265993   3.684   2.068  10.665  2.1865 -0.2362  1.3513
20053SOL     OW65994   9.682   4.792   9.726  0.7341 -0.1254 -0.0016
20053SOL    HW165995   9.625   4.763   9.655  1.6331  0.8979 -1.1787
20053SOL    HW265996   9.624   4.800   9.802 -0.9332  1.8502 -1.3752
20054SOL     OW65997   1.132   3.650   0.063 -0.9109  0.4129  0.3586
20054SOL    HW165998   1.090   3.718   0.010  0.1309  1.3148  0.6337
20054SOL    HW265999   1.123   3.570   0.012  2.5973  1.7094 -2.7503
20055SOL     OW66000   3.036   6.671  10.280 -0.1263  0.0197 -0.0298
20055SOL    HW166001   3.115   6.655  10.332 -0.7205 -0.1631  0.8400
20055SOL    HW266002   2.984   6.591  10.291 -0.7526  0.4250  0.0113
20056SOL     OW66003   4.019   0.291   4.774  0.0546  0.0043 -0.2672
20056SOL    HW166004   4.062   0.369   4.809  0.0223 -0.2840  0.4106
20056SOL    HW266005   3.945   0.326   4.723  0.1338  0.4197 -0.0987
20057SOL     OW66006   4.302   2.032   5.352 -0.4170 -0.7905 -0.0828
20057SOL    HW166007   4.383   2.026   5.403  0.3261  1.1749 -0.9116
20057SOL    HW266008   4.233   2.043   5.418  0.2364 -0.6044  0.5837
20058SOL     OW66009   1.471   9.607   2.914  1.0529 -0.3699  0.3301
20058SOL    HW166010   1.404   9.651   2.967 -1.3677 -0.2154 -2.6077
20058SOL    HW266011   1.467   9.515   2.943  2.8723  0.3497  3.2620
20059SOL     OW66012   9.058   3.339   8.740  0.4142  0.0329  0.0884
20059SOL    HW166013   9.121   3.393   8.693 -0.0960  1.5301  1.0505
20059SOL    HW266014   9.096   3.327   8.827 -0.1422  0.0402  0.3373
20060SOL     OW66015   1.323   9.743   0.926  0.2889 -1.1229 -0.2545
20060SOL    HW166016   1.327   9.649   0.906 -0.7892 -1.2297 -0.0131
20060SOL    HW266017   1.295   9.747   1.017 -0.7147 -0.5605 -0.5705
20061SOL     OW66018  10.217   0.499   0.372  0.1494 -0.2855 -0.5948
20061SOL    HW166019  10.156   0.549   0.318  0.0790 -1.5127 -1.6800
20061SOL    HW266020  10.267   0.447   0.309  1.0462 -0.6837  0.4271
20062SOL     OW66021   0.226  10.584   7.521  0.9796  0.0736  0.2485
20062SOL    HW166022   0.266  10.670   7.515 -0.8356  1.0091  0.8762
20062SOL    HW266023   0.293  10.524   7.489  2.1213  1.7472 -0.6239
20063SOL     OW66024   3.243   0.811   5.721  0.2431 -0.4610  0.5136
20063SOL    HW166025   3.233   0.867   5.645 -1.4667 -0.8949  0.3752
20063SOL    HW266026   3.311   0.749   5.696  0.1175 -0.2286 -0.4464
20064SOL     OW66027  10.526   9.084   5.548  0.3894  1.0108  0.3219
20064SOL    HW166028  10.433   9.109   5.549  0.4739  1.5124 -1.4143
20064SOL    HW266029  10.553   9.090   5.639 -1.6023 -0.3974  1.0878
20065SOL     OW66030   5.445  10.583   3.970  0.0896 -0.1996 -1.0119
20065SOL    HW166031   5.390  10.643   4.021  0.3681 -1.2658  0.6256
20065SOL    HW266032   5.385  10.513   3.945  0.8926 -2.2664  2.2588
20066SOL     OW66033   2.071   6.789   1.247 -0.1274 -0.1414  0.0308
20066SOL    HW166034   2.114   6.765   1.330 -1.3547 -0.1059  0.7010
20066SOL    HW266035   2.019   6.713   1.224 -1.5513  0.6461  0.4996
20067SOL     OW66036   0.844   2.346   2.685 -0.2551  0.8412 -0.1119
20067SOL    HW166037   0.765   2.389   2.719 -0.1873  2.5556 -1.9673
20067SOL    HW266038   0.895   2.417   2.645  1.2912 -0.5416 -0.7108
20068SOL     OW66039   4.018   5.184   4.519  0.1517 -0.4054 -0.2427
20068SOL    HW166040   3.998   5.190   4.425 -0.2296  2.5743 -0.0599
20068SOL    HW266041   4.112   5.200   4.525 -0.2983  2.6078  0.0154
20069SOL     OW66042   6.615   6.497  10.458  0.4718  0.3816 -0.2080
20069SOL    HW166043   6.686   6.556  10.484  2.2929 -2.2494  1.2278
20069SOL    HW266044   6.554   6.498  10.532  0.7207  0.1605  0.0022
20070SOL     OW66045   8.855   0.642   6.910 -0.4596 -0.0183 -0.7738
20070SOL    HW166046   8.781   0.583   6.896  0.8903 -1.5933 -1.6065
20070SOL    HW266047   8.826   0.726   6.875 -2.8887  0.2506  1.5344
20071SOL     OW66048   9.305   3.318   7.448  0.1014 -0.6428  0.5479
20071SOL    HW166049   9.237   3.385   7.443 -0.7651 -1.5653 -1.2276
20071SOL    HW266050   9.384   3.364   7.475 -0.1359  1.3780 -1.9065
20072SOL     OW66051   1.427   2.222   4.986  0.5261 -0.2731  0.2643
20072SOL    HW166052   1.422   2.150   5.048  0.4619  1.5695  2.5300
20072SOL    HW266053   1.476   2.290   5.032  2.0763  0.5805 -2.4069
20073SOL     OW66054   6.948   8.995   0.436 -0.2224 -0.2024 -0.1550
20073SOL    HW166055   6.974   9.069   0.491 -1.1422 -0.2441  0.3507
20073SOL    HW266056   6.863   8.968   0.470 -1.2380  0.3059 -2.0984
20074SOL     OW66057   3.863   5.199   0.326  0.2153 -0.6079 -0.1754
20074SOL    HW166058   3.879   5.150   0.407 -1.0984 -1.6864 -0.5339
20074SOL    HW266059   3.949   5.210   0.287  0.7794 -0.7649  0.9722
20075SOL     OW66060   2.285   8.882   8.400 -0.4319 -0.1141  0.4254
20075SOL    HW166061   2.322   8.960   8.358 -1.7336 -0.4210 -1.3946
20075SOL    HW266062   2.262   8.912   8.488  0.6226  1.0880  0.3273
20076SOL     OW66063   2.855   5.440   2.100  0.3976 -0.2659  0.1081
20076SOL    HW166064   2.844   5.418   2.007  1.5725 -0.0007 -0.1141
20076SOL    HW266065   2.872   5.356   2.143  0.1332 -0.3563  0.0356
20077SOL     OW66066   4.859   8.463   2.102 -0.3542 -0.3032  0.8362
20077SOL    HW166067   4.785   8.507   2.061 -0.2644  0.8627  1.8653
20077SOL    HW266068   4.937   8.509   2.070  0.0283 -1.9928 -0.8242
20078SOL     OW66069   5.803   6.876   5.192 -0.0768  0.0827 -0.0906
20078SOL    HW166070   5.762   6.791   5.178 -2.2560  1.2791 -1.6715
20078SOL    HW266071   5.867   6.884   5.121 -1.4266  0.5683 -1.3216
20079SOL     OW66072   2.356   5.377  10.721 -1.1476 -0.0700 -0.6437
20079SOL    HW166073   2.406   5.437  10.665 -0.5792 -0.2238 -0.3023
20079SOL    HW266074   2.416   5.305  10.739 -1.2766  0.0530  0.2970
20080SOL     OW66075   8.023   7.665  10.614 -0.5258  0.1995  0.1970
20080SOL    HW166076   8.044   7.757  10.594  0.0978 -0.2840 -1.5796
20080SOL    HW266077   8.099   7.616  10.582 -0.9646 -0.9666  0.8905
20081SOL     OW66078   2.236   7.582   4.887  0.6009 -0.5314 -0.1728
20081SOL    HW166079   2.220   7.631   4.807  0.5334 -0.7556 -0.2983
20081SOL    HW266080   2.325   7.547   4.876  1.3975  1.1328  0.7425
20082SOL     OW66081   1.839   1.691   1.264  0.1964  0.4583  0.9237
20082SOL    HW166082   1.814   1.779   1.292 -0.3641  0.7495 -0.4211
20082SOL    HW266083   1.766   1.635   1.292 -0.2315  0.7011  0.3033
20083SOL     OW66084   6.430   0.957   9.930  0.6231 -0.2137  0.0713
20083SOL    HW166085   6.517   0.950   9.969  0.6023 -2.9146 -0.1635
20083SOL    HW266086   6.372   0.914   9.993  0.4060 -3.5750 -2.1548
20084SOL     OW66087   7.080   1.672   3.039 -0.1450  0.2714  0.6118
20084SOL    HW166088   7.004   1.620   3.013  0.1598  0.4788 -0.8175
20084SOL    HW266089   7.151   1.607   3.047 -0.1647  0.2417  0.5517
20085SOL     OW66090   7.143  10.574   9.811  0.4178 -0.7134  0.0031
20085SOL    HW166091   7.222  10.620   9.838 -0.6918  3.3227 -2.7648
20085SOL    HW266092   7.080  10.590   9.881  0.7975 -0.2519  0.2401
20086SOL     OW66093   0.468   9.634   0.544 -0.3944 -0.5873  0.8532
20086SOL    HW166094   0.508   9.559   0.500 -1.2603 -0.6587  0.1408
20086SOL    HW266095   0.538   9.699   0.550 -0.1014 -0.7939 -0.1401
20087SOL     OW66096   1.919   9.686   3.358 -0.0614 -0.1780  0.4993
20087SOL    HW166097   1.989   9.721   3.302 -0.0273 -0.1547  0.5554
20087SOL    HW266098   1.964   9.660   3.439 -0.1291 -0.0852  0.5681
20088SOL     OW66099   7.130   9.165   7.339 -0.0610  0.7055  0.3014
20088SOL    HW166100   7.222   9.159   7.314 -0.0170  2.3272 -0.0282
20088SOL    HW266101   7.086   9.203   7.263 -0.7482  1.3165  0.9826
20089SOL     OW66102   6.791  10.084   7.024  0.0261 -0.4054  0.0383
20089SOL    HW166103   6.886  10.094   7.033  0.2248 -1.7330 -0.2475
20089SOL    HW266104   6.768  10.137   6.948  0.6791 -0.7262 -0.3902
20090SOL     OW66105   3.893   4.862   3.023 -0.0189  1.1718  0.4095
20090SOL    HW166106   3.980   4.874   2.984 -1.2262  2.3990 -2.2103
20090SOL    HW266107   3.837   4.840   2.948 -1.5319 -2.5996  2.4021
20091SOL     OW66108   0.492   1.907   4.425  0.0000  0.2894 -0.0410
20091SOL    HW166109   0.476   1.918   4.519  1.4395  0.7593  0.1745
20091SOL    HW266110   0.469   1.816   4.408 -2.3065  0.7535  0.2943
20092SOL     OW66111   0.960   0.336   4.744 -0.3573 -0.3667  0.3006
20092SOL    HW166112   0.956   0.423   4.704  1.5519 -0.9930 -1.4113
20092SOL    HW266113   1.006   0.349   4.826  0.5679  0.1625 -0.2835
20093SOL     OW66114   5.232   0.329   1.304 -0.1040  0.0104  0.5014
20093SOL    HW166115   5.213   0.238   1.279 -0.1971  0.0031  0.6012
20093SOL    HW266116   5.303   0.355   1.245 -2.2530  0.9515 -1.8775
20094SOL     OW66117   3.586   4.847   5.802  0.2372 -0.3765  0.1739
20094SOL    HW166118   3.629   4.918   5.754  1.5559 -1.7758 -0.7826
20094SOL    HW266119   3.531   4.892   5.866  0.9966  1.5051 -0.4262
20095SOL     OW66120   1.387   8.599   5.480  0.8251  0.1802 -0.0531
20095SOL    HW166121   1.298   8.566   5.490  0.9895  0.0972  1.2927
20095SOL    HW266122   1.443   8.522   5.491  1.1641  0.6786  2.0311
20096SOL     OW66123   9.316   9.400   2.399  0.5634 -0.7951 -0.4824
20096SOL    HW166124   9.240   9.430   2.349  0.4510 -0.2094  0.0382
20096SOL    HW266125   9.363   9.480   2.421  0.7099 -1.0689  0.1955
20097SOL     OW66126   3.487   6.214   8.237 -0.2328 -0.2036  0.3587
20097SOL    HW166127   3.433   6.269   8.294 -1.5140 -0.9076 -0.1312
20097SOL    HW266128   3.534   6.156   8.297 -0.1207  0.3139  0.7852
20098SOL     OW66129   5.399   6.515   1.448 -0.3602 -0.1252 -0.0355
20098SOL    HW166130   5.381   6.524   1.355 -5.2102  0.0709  0.6990
20098SOL    HW266131   5.413   6.604   1.480  1.3245 -0.1947 -0.4519
20099SOL     OW66132   3.865   2.004   9.633  0.2591  0.5302  0.1918
20099SOL    HW166133   3.858   1.933   9.568  1.7445 -0.8808  1.4792
20099SOL    HW266134   3.954   1.995   9.668 -0.9228  0.2518  3.4466
20100SOL     OW66135   5.581   9.819   1.878 -0.1337 -0.4912  0.2328
20100SOL    HW166136   5.517   9.833   1.948 -1.7852  1.7792 -1.5741
20100SOL    HW266137   5.551   9.740   1.833 -0.9433 -0.1776  0.1984
20101SOL     OW66138  10.639   6.858   3.345  0.2230 -1.0648 -0.2325
20101SOL    HW166139  10.660   6.924   3.279  0.5477 -0.3073  0.6194
20101SOL    HW266140  10.697   6.784   3.324  0.5811 -0.6915 -0.5728
20102SOL     OW66141   0.027   9.814   4.233  0.2226 -0.6860  0.3036
20102SOL    HW166142   0.122   9.825   4.235  0.1315  0.1293  0.3477
20102SOL    HW266143  -0.005   9.889   4.183 -0.4979 -0.2171  1.4332
20103SOL     OW66144   9.234   5.316   1.135  0.3541 -0.3196 -0.7349
20103SOL    HW166145   9.317   5.357   1.157  0.7045 -0.3641 -1.8947
20103SOL    HW266146   9.243   5.226   1.167  0.7342 -0.3067 -0.7956
20104SOL     OW66147   0.939   9.679   5.608  0.0694 -0.2165  0.0563
20104SOL    HW166148   0.846   9.700   5.608  0.5385  2.3218 -1.7275
20104SOL    HW266149   0.947   9.603   5.551 -0.8933 -0.3999  0.1559
20105SOL     OW66150   6.661   5.155  10.568  0.0435 -0.3843  0.5127
20105SOL    HW166151   6.721   5.224  10.597 -1.1737  1.5403 -1.2744
20105SOL    HW266152   6.581   5.170  10.618 -0.1651 -0.6005  0.2482
20106SOL     OW66153   7.495   1.751   6.383  0.3539  0.2014 -0.7501
20106SOL    HW166154   7.580   1.770   6.423  1.6401 -2.5617 -1.8879
20106SOL    HW266155   7.517   1.698   6.306 -2.3152  1.1343 -2.2670
20107SOL     OW66156   0.940   0.567   1.076 -0.1681  0.0055 -0.0131
20107SOL    HW166157   0.856   0.595   1.040 -1.1818 -0.8704  1.5351
20107SOL    HW266158   0.933   0.471   1.079  1.4085 -0.1780 -1.0060
20108SOL     OW66159   3.773   9.297   3.365  0.5208  0.0398  0.5531
20108SOL    HW166160   3.794   9.363   3.298 -0.9607  0.1662  0.1903
20108SOL    HW266161   3.772   9.346   3.447 -0.0095  0.3629  0.3566
20109SOL     OW66162   6.734   7.631   5.653  0.0272  0.0183 -0.0409
20109SOL    HW166163   6.674   7.698   5.686 -0.5363 -0.9695  1.0411
20109SOL    HW266164   6.819   7.655   5.689 -0.1147  0.3227  0.0938
20110SOL     OW66165   6.463   0.941   9.638  0.0874 -0.1775  0.6046
20110SOL    HW166166   6.467   0.968   9.730  2.5497  0.6134  0.3399
20110SOL    HW266167   6.482   1.021   9.589 -1.7683 -0.4625 -0.6635
20111SOL     OW66168   0.968   1.956   8.217 -0.5831  0.4315  0.5345
20111SOL    HW166169   1.033   1.887   8.206 -1.0011 -0.6916  3.9991
20111SOL    HW266170   1.015   2.025   8.264 -0.9867  1.2214 -0.1971
20112SOL     OW66171  10.220   4.193   9.179 -0.2070  0.0179 -0.0851
20112SOL    HW166172  10.262   4.165   9.098 -2.3898 -1.9589 -0.6105
20112SOL    HW266173  10.194   4.284   9.162 -0.0427 -0.1499 -1.3283
20113SOL     OW66174   7.108   3.694   9.106 -0.6020 -0.7724 -1.0896
20113SOL    HW166175   7.142   3.781   9.129 -0.8291 -1.0905  0.5921
20113SOL    HW266176   7.110   3.692   9.011  1.2649  0.3306 -1.1154
20114SOL     OW66177   4.145   6.172   2.067  0.0848 -0.1078  0.4528
20114SOL    HW166178   4.083   6.245   2.071 -0.5637 -0.5705 -0.6778
20114SOL    HW266179   4.089   6.094   2.064  0.6450 -0.4951 -1.7514
20115SOL     OW66180   4.861   1.556   3.323  0.8362  0.3286 -0.4928
20115SOL    HW166181   4.772   1.555   3.288  1.2950 -0.4697 -1.6795
20115SOL    HW266182   4.916   1.585   3.250  1.6586 -0.0871 -0.0586
20116SOL     OW66183   1.143   1.923   5.491 -0.2977 -0.0633  0.5645
20116SOL    HW166184   1.139   2.017   5.506  2.7944  0.1866  0.5088
20116SOL    HW266185   1.234   1.900   5.509 -0.4815 -2.7054 -1.3085
20117SOL     OW66186   1.252   2.794   1.087  0.1046 -0.3135  0.4902
20117SOL    HW166187   1.317   2.860   1.063 -0.9005 -0.1897 -2.2421
20117SOL    HW266188   1.302   2.724   1.128  2.0835 -0.4733 -1.9962
20118SOL     OW66189   7.571   6.525   7.232 -0.3444 -0.2727  0.2398
20118SOL    HW166190   7.513   6.522   7.308 -1.5334  1.4387 -0.5230
20118SOL    HW266191   7.513   6.541   7.158  0.9296 -0.3893 -0.8200
20119SOL     OW66192   9.486   2.233   1.929 -0.4197 -0.3986 -0.1541
20119SOL    HW166193   9.542   2.280   1.867 -1.4783  0.4968 -0.4597
20119SOL    HW266194   9.547   2.203   1.997  0.4454  0.4968 -0.5005
20120SOL     OW66195   8.874   3.967   6.946  0.5512  0.2078  0.4318
20120SOL    HW166196   8.878   4.062   6.935  0.9252  0.1987  0.5009
20120SOL    HW266197   8.810   3.939   6.880 -0.5281  0.6393  1.2714
20121SOL     OW66198  10.488   5.836   9.478  0.2862  0.4075  0.1468
20121SOL    HW166199  10.429   5.812   9.406  1.6417 -1.7218 -0.3445
20121SOL    HW266200  10.430   5.853   9.552 -0.9910 -0.3489 -0.6412
20122SOL     OW66201   6.411   0.613   2.205  0.6031 -0.6862 -0.1693
20122SOL    HW166202   6.366   0.671   2.266  1.1562 -1.2307  0.7714
20122SOL    HW266203   6.369   0.528   2.216  1.1020 -0.9290 -0.1111
20123SOL     OW66204   2.579   1.892   3.941  0.5348 -0.2482  0.1615
20123SOL    HW166205   2.553   1.884   3.849 -1.4932 -0.7226  0.7326
20123SOL    HW266206   2.601   1.802   3.967  2.2831  0.0602 -0.1499
20124SOL     OW66207   3.403   6.134   9.205  0.0908 -0.4599  0.1016
20124SOL    HW166208   3.388   6.226   9.225  0.9369 -0.2524 -0.1794
20124SOL    HW266209   3.339   6.087   9.259 -1.1816  0.3379 -0.6577
20125SOL     OW66210   7.564   7.724   1.327 -0.4308 -0.3533 -0.1423
20125SOL    HW166211   7.497   7.745   1.392  1.2068  1.1694  1.1561
20125SOL    HW266212   7.543   7.780   1.252 -0.7808 -0.1435  0.1097
20126SOL     OW66213   4.042   2.239   1.569 -0.0386 -0.1633 -0.0977
20126SOL    HW166214   3.955   2.273   1.545  0.1967 -0.2594 -1.1635
20126SOL    HW266215   4.081   2.214   1.485  0.1923 -2.1125  0.5529
20127SOL     OW66216   1.337   4.727   7.105 -0.2758 -0.4626 -0.5085
20127SOL    HW166217   1.382   4.724   7.189  1.7181 -1.8268 -1.5325
20127SOL    HW266218   1.252   4.687   7.121  0.0434 -0.6406  0.8566
20128SOL     OW66219   5.754  10.510   4.600 -0.2410 -0.0203 -0.2130
20128SOL    HW166220   5.693  10.439   4.581 -0.7479  0.4230 -0.2577
20128SOL    HW266221   5.822  10.503   4.532 -1.4492  0.8712 -1.5747
20129SOL     OW66222   6.186   9.607   8.675 -0.0690 -0.3552 -0.1879
20129SOL    HW166223   6.093   9.621   8.694 -0.8768  0.6828 -3.9117
20129SOL    HW266224   6.229   9.686   8.707 -0.6604 -0.3416  0.5963
20130SOL     OW66225   8.580   1.713   1.041 -0.0347 -0.3829 -0.7439
20130SOL    HW166226   8.619   1.774   0.979  0.3078  0.5665  0.3677
20130SOL    HW266227   8.501   1.680   0.997 -0.5567  1.3233 -1.1456
20131SOL     OW66228   7.684   0.769   0.845  0.9038  0.5684  0.6242
20131SOL    HW166229   7.676   0.818   0.927  0.8574  0.6722  0.5582
20131SOL    HW266230   7.769   0.797   0.810  1.1919  0.0791  0.9263
20132SOL     OW66231   7.377   5.457   0.788  0.0319  0.6637 -0.1074
20132SOL    HW166232   7.300   5.464   0.846  0.5588 -0.5675  0.7760
20132SOL    HW266233   7.340   5.447   0.701 -0.7875  2.0342  0.0416
20133SOL     OW66234   4.362   4.023   1.910  0.2991  0.0570 -0.3843
20133SOL    HW166235   4.424   4.092   1.930 -0.7624  0.7139  0.8246
20133SOL    HW266236   4.291   4.067   1.863 -0.2004 -0.2659  0.0529
20134SOL     OW66237   7.000   4.368   7.776 -0.6946 -1.2177 -0.1966
20134SOL    HW166238   7.045   4.337   7.698 -2.4707 -4.1153 -0.2369
20134SOL    HW266239   6.919   4.408   7.743  0.1329  0.7721  0.0521
20135SOL     OW66240   1.670   7.310   8.769  0.0852 -0.9162  0.5490
20135SOL    HW166241   1.702   7.280   8.854 -0.2092  0.4962  1.1881
20135SOL    HW266242   1.640   7.399   8.785 -0.8334 -0.9495 -0.8460
20136SOL     OW66243   6.387   1.718   8.538 -0.5333 -0.0775 -0.2792
20136SOL    HW166244   6.429   1.804   8.535  0.3995 -0.4971  0.1904
20136SOL    HW266245   6.394   1.691   8.630 -1.0638 -0.5327 -0.3703
20137SOL     OW66246   0.990   4.432   5.542 -0.3909 -0.9056  0.2713
20137SOL    HW166247   0.902   4.409   5.570 -0.0460  0.5774  2.9137
20137SOL    HW266248   1.047   4.398   5.611  1.0508 -1.0321 -0.9157
20138SOL     OW66249   1.292   0.595   6.114  0.1048  0.3013  0.2218
20138SOL    HW166250   1.368   0.541   6.134  1.8152  1.4290 -2.6105
20138SOL    HW266251   1.221   0.533   6.099  1.5006 -1.0925 -0.9389
20139SOL     OW66252  10.304  10.458   8.900 -0.4893  0.0287  0.4662
20139SOL    HW166253  10.316  10.370   8.865  0.1432 -0.1069  1.0080
20139SOL    HW266254  10.263  10.506   8.828 -0.6899 -0.6610  0.1061
20140SOL     OW66255   0.946   8.892   7.045  0.2152 -0.7059 -0.0990
20140SOL    HW166256   0.922   8.846   7.125  2.5873 -2.4257 -0.2623
20140SOL    HW266257   1.030   8.934   7.065 -0.2605  0.7834 -1.0191
20141SOL     OW66258  10.721   0.119   9.364  0.6653  1.0082 -0.1772
20141SOL    HW166259  10.794   0.058   9.367  0.7654  1.1538  0.5485
20141SOL    HW266260  10.736   0.171   9.285  0.8908  0.4883 -0.4791
20142SOL     OW66261   8.061   6.333   8.208  0.1476  0.0079 -0.2057
20142SOL    HW166262   7.969   6.311   8.219 -0.4221  1.5908 -1.4240
20142SOL    HW266263   8.089   6.365   8.294 -0.6413  0.1603 -0.0008
20143SOL     OW66264   0.901   3.696   4.927 -0.2908 -0.0084  0.5239
20143SOL    HW166265   0.928   3.693   5.019 -0.5316 -0.8441  0.5744
20143SOL    HW266266   0.944   3.620   4.887 -0.7681 -0.0685  0.1117
20144SOL     OW66267   7.382   4.516   6.159  0.3271 -0.1056  0.2027
20144SOL    HW166268   7.288   4.536   6.156  0.3052 -0.1328  0.5903
20144SOL    HW266269   7.386   4.422   6.179  0.4345 -0.3291 -0.8402
20145SOL     OW66270   4.615   4.545   3.729  0.3565 -0.2095 -0.0911
20145SOL    HW166271   4.554   4.590   3.788  1.2268  1.7225 -0.5734
20145SOL    HW266272   4.644   4.469   3.778 -3.8177 -2.4002 -0.5221
20146SOL     OW66273   4.630   0.259   3.651  0.5384  0.2199 -0.4782
20146SOL    HW166274   4.575   0.311   3.594  2.4689  3.0311  0.0257
20146SOL    HW266275   4.635   0.309   3.733  0.6432 -1.9576  0.9307
20147SOL     OW66276   2.661   6.738   3.792 -0.4969  0.4072  0.4737
20147SOL    HW166277   2.741   6.739   3.844 -0.7374 -0.9626  0.8925
20147SOL    HW266278   2.692   6.744   3.701  0.1523 -1.0010  0.5754
20148SOL     OW66279   9.929   2.236  10.198  0.1090 -0.0358  0.1126
20148SOL    HW166280   9.982   2.157  10.190 -3.0618 -2.5033  1.4957
20148SOL    HW266281   9.944   2.283  10.115  2.4588 -1.7760 -0.5608
20149SOL     OW66282   5.210   1.740   8.251  0.6361 -0.1401  0.3068
20149SOL    HW166283   5.296   1.779   8.233 -0.0661  1.2401 -0.2010
20149SOL    HW266284   5.209   1.659   8.199  0.5385  1.2929 -2.0884
20150SOL     OW66285   4.396   4.296  10.508  0.1465 -0.0324  0.5442
20150SOL    HW166286   4.398   4.284  10.603 -1.3136 -2.1730  0.3592
20150SOL    HW266287   4.449   4.224  10.474  0.5318  0.6293 -0.3008
20151SOL     OW66288   2.787   0.119   6.534 -0.2314  0.5545 -0.1525
20151SOL    HW166289   2.769   0.128   6.441  1.0588  0.5136 -0.4334
20151SOL    HW266290   2.882   0.109   6.539 -0.3066  0.2671  1.1484
20152SOL     OW66291   2.938   4.554   7.696  0.2365  0.1871 -0.2947
20152SOL    HW166292   3.032   4.541   7.686  0.4768  0.3764  1.4077
20152SOL    HW266293   2.929   4.606   7.776 -1.3609 -0.8700  0.2701
20153SOL     OW66294   3.698   1.991   8.836  0.6957  0.4400 -0.4194
20153SOL    HW166295   3.633   2.050   8.875  0.8281 -0.0645  0.6245
20153SOL    HW266296   3.781   2.018   8.875  0.9272  0.2860 -0.8006
20154SOL     OW66297   7.205   2.022   9.907  0.1707  0.1683  0.2784
20154SOL    HW166298   7.143   2.017   9.979  0.1043 -2.7012  0.1267
20154SOL    HW266299   7.159   2.073   9.839 -1.1879 -0.1496  0.9340
20155SOL     OW66300   3.171   2.525   8.420  0.6789 -0.2140 -0.1645
20155SOL    HW166301   3.176   2.450   8.479 -1.5872 -1.1978 -1.0950
20155SOL    HW266302   3.252   2.573   8.435  1.3023 -1.7703  1.8995
20156SOL     OW66303   3.244   4.262   6.631 -0.0298  0.4657 -0.1434
20156SOL    HW166304   3.235   4.193   6.565 -0.9416  1.1370 -0.7352
20156SOL    HW266305   3.308   4.226   6.694 -0.1792 -0.7436 -0.6500
20157SOL     OW66306  10.632   3.576   0.912 -0.0495 -0.0640 -0.3928
20157SOL    HW166307  10.641   3.515   0.838 -1.3248 -1.1192  0.2755
20157SOL    HW266308  10.558   3.631   0.889 -0.4605 -0.4043  0.0791
20158SOL     OW66309   3.066  10.413   4.895  0.4302 -0.2115  0.4411
20158SOL    HW166310   2.975  10.403   4.923  0.7236 -1.3264  1.0695
20158SOL    HW266311   3.079  10.507   4.885 -0.2767  0.0945  2.1163
20159SOL     OW66312   0.394   8.643   4.073 -0.4125  0.0832 -0.0071
20159SOL    HW166313   0.431   8.731   4.072  3.5584 -1.3162  2.2699
20159SOL    HW266314   0.371   8.627   4.164 -2.0277 -0.9755 -0.5478
20160SOL     OW66315   9.543   3.915   9.955 -0.3886  0.5286  0.5614
20160SOL    HW166316   9.520   3.854   9.885  1.0318  0.6806 -0.0501
20160SOL    HW266317   9.608   3.868  10.007  0.8792  1.5701 -0.0370
20161SOL     OW66318   7.807   6.459  10.512  0.1964  0.3449  0.4344
20161SOL    HW166319   7.739   6.496  10.456 -0.7306  0.3633  1.5388
20161SOL    HW266320   7.847   6.390  10.459  0.0425  1.0418 -0.6162
20162SOL     OW66321   9.084   3.140  10.194 -0.1850 -0.2719  0.1566
20162SOL    HW166322   9.149   3.184  10.248 -0.0075 -0.7002  0.2926
20162SOL    HW266323   9.001   3.183  10.217  0.2218  1.3190 -1.1117
20163SOL     OW66324   7.204   9.966   3.475  0.0573  0.6434  0.1718
20163SOL    HW166325   7.191  10.028   3.547 -0.3786  1.6086 -0.7081
20163SOL    HW266326   7.230  10.021   3.401  0.8488 -0.3746 -0.3212
20164SOL     OW66327   4.039   3.566   8.068 -0.7515  0.2447  0.1236
20164SOL    HW166328   4.130   3.562   8.098 -0.4892 -1.4015 -0.7560
20164SOL    HW266329   4.005   3.647   8.105  0.2963 -0.3828  2.6590
20165SOL     OW66330   5.471   0.637   8.320 -0.0784 -0.1632 -0.1058
20165SOL    HW166331   5.383   0.600   8.307  0.1652 -1.2689  1.1625
20165SOL    HW266332   5.530   0.566   8.292  0.4163  0.4249 -0.5678
20166SOL     OW66333   6.444   3.988   5.139  0.3662 -0.2245 -0.2401
20166SOL    HW166334   6.383   3.927   5.097  0.1511 -1.0252  1.1587
20166SOL    HW266335   6.522   3.986   5.083  0.3997 -1.8809 -0.2074
20167SOL     OW66336   5.645   2.615   8.371 -0.0285 -0.2552  0.4015
20167SOL    HW166337   5.643   2.645   8.280  0.8389 -1.3663 -0.0172
20167SOL    HW266338   5.556   2.585   8.389 -0.5124  1.0683  0.3307
20168SOL     OW66339   7.773   5.994   4.545  0.1878  0.1661  0.0635
20168SOL    HW166340   7.697   5.938   4.557 -0.1481  0.3151 -1.2264
20168SOL    HW266341   7.747   6.056   4.476  1.9718 -0.7553 -1.5378
20169SOL     OW66342   8.917   6.459   2.901  0.0350  0.6594  0.5870
20169SOL    HW166343   8.994   6.440   2.954 -0.2251 -0.4225  0.6035
20169SOL    HW266344   8.845   6.419   2.949  0.0452 -2.2384 -1.5194
20170SOL     OW66345   3.473   1.157   1.598  0.1411  0.5561  0.2109
20170SOL    HW166346   3.391   1.116   1.569  0.0118 -0.7693  2.2336
20170SOL    HW266347   3.464   1.248   1.571 -2.5170  0.7104  1.2474
20171SOL     OW66348   2.514   3.846   6.098  0.0458  0.0550  0.3653
20171SOL    HW166349   2.443   3.905   6.124 -1.2959 -1.4752  0.2634
20171SOL    HW266350   2.550   3.813   6.180 -0.8092 -0.8347  0.3920
20172SOL     OW66351   9.234   9.866   1.810  0.1610 -0.4693 -0.1328
20172SOL    HW166352   9.306   9.803   1.808 -1.3399 -2.2974  0.5808
20172SOL    HW266353   9.198   9.864   1.722  1.4739  1.1310 -0.7587
20173SOL     OW66354   3.940   6.280   0.983  0.6184  0.2679 -0.2238
20173SOL    HW166355   3.930   6.193   0.943 -1.4546  1.2052 -1.9712
20173SOL    HW266356   3.892   6.275   1.065 -1.7850  0.3976 -1.5268
20174SOL     OW66357   4.989   7.361   8.458 -0.3633 -0.3510  0.3011
20174SOL    HW166358   4.956   7.273   8.441  1.1102 -1.0618  0.9075
20174SOL    HW266359   5.035   7.386   8.378 -0.4231 -0.3031  0.2814
20175SOL     OW66360   8.238   9.266   8.366  0.5247  0.3804 -0.4430
20175SOL    HW166361   8.298   9.192   8.378  0.7199  0.7457  0.9564
20175SOL    HW266362   8.213   9.261   8.273 -0.2311 -2.0035 -0.1813
20176SOL     OW66363   2.544   1.511   4.332 -0.3755 -0.1676  0.5472
20176SOL    HW166364   2.497   1.577   4.280 -0.7034 -0.9917 -0.2280
20176SOL    HW266365   2.498   1.429   4.313  0.7118 -0.8091  0.6218
20177SOL     OW66366   3.428   8.865   0.034 -0.6553 -0.2436 -0.4160
20177SOL    HW166367   3.353   8.850   0.091  0.3845  0.4201  1.2152
20177SOL    HW266368   3.427   8.959   0.017  1.0732  0.2379  1.6286
20178SOL     OW66369   6.410   3.546   9.419 -0.2797 -0.5791  0.0974
20178SOL    HW166370   6.488   3.567   9.367 -1.0537 -1.5922 -1.5424
20178SOL    HW266371   6.445   3.524   9.506  1.2888 -1.1812 -0.6504
20179SOL     OW66372   3.665   9.646  10.309 -0.2072  0.1608 -0.5910
20179SOL    HW166373   3.664   9.619  10.217 -0.1788  0.7234 -0.7593
20179SOL    HW266374   3.682   9.740  10.306 -2.5981  0.6767 -0.1478
20180SOL     OW66375   8.564   2.772   9.657  0.0756 -0.0461  0.0251
20180SOL    HW166376   8.509   2.738   9.728 -0.9240  0.1659 -0.6215
20180SOL    HW266377   8.541   2.718   9.581 -0.3830  1.0265 -0.6241
20181SOL     OW66378   6.922   0.296   7.704 -0.2272  0.6804 -0.5875
20181SOL    HW166379   6.998   0.337   7.746 -0.4148  0.6268 -0.1868
20181SOL    HW266380   6.861   0.280   7.776 -0.0908 -0.4633 -0.7041
20182SOL     OW66381   3.627   1.437   0.563  0.1127 -0.7735  0.3255
20182SOL    HW166382   3.646   1.509   0.624 -0.8170  0.6219 -0.9603
20182SOL    HW266383   3.546   1.399   0.595 -0.0276 -0.4624  0.3482
20183SOL     OW66384   2.824   1.865   8.185 -0.2847 -0.0875 -0.3029
20183SOL    HW166385   2.860   1.792   8.134  1.4032  0.4054  0.1423
20183SOL    HW266386   2.778   1.919   8.120 -2.8933 -2.2703 -0.4299
20184SOL     OW66387   5.611   8.329   6.360 -0.1787 -0.3956  1.3779
20184SOL    HW166388   5.627   8.261   6.294  1.9267  0.5341  0.8280
20184SOL    HW266389   5.544   8.385   6.321  1.8134  0.7902 -0.6093
20185SOL     OW66390   1.352   5.591   4.621  0.4104 -0.0249 -0.5575
20185SOL    HW166391   1.384   5.525   4.560  0.1466 -0.6989  0.0269
20185SOL    HW266392   1.267   5.557   4.651  0.4327  0.4099  0.0145
20186SOL     OW66393   5.024   8.975   5.756 -0.1826 -0.0883  0.2458
20186SOL    HW166394   4.938   8.993   5.795 -0.6989  0.9026 -1.2699
20186SOL    HW266395   5.086   9.021   5.813 -0.7665  0.1516  0.7014
20187SOL     OW66396   5.839   2.409   8.090  0.0843  0.8718  0.4508
20187SOL    HW166397   5.899   2.418   8.017  0.8354  1.3048  1.1027
20187SOL    HW266398   5.775   2.345   8.061  2.3192 -1.6482  0.6476
20188SOL     OW66399   2.222   4.742  10.607 -0.1314 -0.5566  0.1777
20188SOL    HW166400   2.213   4.765  10.514 -0.1466 -2.7866 -0.4137
20188SOL    HW266401   2.140   4.773  10.647 -1.2255 -1.7417 -1.0521
20189SOL     OW66402  10.195   3.036   9.437 -0.4238 -0.3726  0.0557
20189SOL    HW166403  10.226   3.126   9.442 -1.1859  0.0006 -1.4738
20189SOL    HW266404  10.266   2.989   9.393 -1.0881  0.0710 -1.5936
20190SOL     OW66405   0.966   4.325   8.644  0.1257  0.4376  0.1117
20190SOL    HW166406   1.034   4.325   8.712  0.0494  1.6866  0.2232
20190SOL    HW266407   0.971   4.239   8.604  0.0216 -0.4256  1.8698
20191SOL     OW66408   7.231   4.216   5.966  0.9283 -0.5764 -0.0870
20191SOL    HW166409   7.306   4.213   6.026  1.3443 -0.7633 -0.6102
20191SOL    HW266410   7.196   4.127   5.969  0.8981 -0.5639 -0.0614
20192SOL     OW66411   8.640   0.112   1.812  0.1606 -0.1879 -0.5695
20192SOL    HW166412   8.576   0.168   1.766 -1.3993  0.7265  2.4549
20192SOL    HW266413   8.723   0.159   1.803 -0.4740  0.9330 -0.8768
20193SOL     OW66414   5.187   9.766  10.153  0.4122 -0.0373  0.3119
20193SOL    HW166415   5.095   9.754  10.129 -0.4112  3.0627  1.4518
20193SOL    HW266416   5.185   9.788  10.246  2.5993 -2.2868  0.9836
20194SOL     OW66417   5.769   1.467   1.617  0.0384  0.1713  0.5485
20194SOL    HW166418   5.810   1.503   1.538 -0.5566 -1.5340 -0.5988
20194SOL    HW266419   5.677   1.455   1.593  0.5297 -4.0261 -0.0010
20195SOL     OW66420   8.226   3.489   1.732  0.6384  0.0549 -0.2576
20195SOL    HW166421   8.306   3.437   1.737 -0.3486 -1.4200  0.9580
20195SOL    HW266422   8.177   3.451   1.658  1.4213  1.5879 -1.6473
20196SOL     OW66423   1.608   4.159   2.437 -0.3277  0.6965 -0.2659
20196SOL    HW166424   1.565   4.215   2.502  0.1706  0.3895  0.3495
20196SOL    HW266425   1.570   4.073   2.451  1.2070  0.1729  1.0320
20197SOL     OW66426   1.813   4.879   3.652 -0.4105  0.1292 -0.1510
20197SOL    HW166427   1.763   4.840   3.723 -1.2963 -0.6974 -1.1982
20197SOL    HW266428   1.903   4.883   3.685 -0.5080 -1.7230  0.4321
20198SOL     OW66429   8.415   6.962   8.500 -0.4289 -0.1721 -0.8995
20198SOL    HW166430   8.392   6.893   8.562 -1.3417  0.7083 -0.2368
20198SOL    HW266431   8.452   6.915   8.425  0.5740 -1.2674  0.2391
20199SOL     OW66432   7.734  10.103   1.348 -0.1455 -0.1191 -0.2249
20199SOL    HW166433   7.788  10.168   1.303  0.4040 -0.2113  0.2872
20199SOL    HW266434   7.772  10.019   1.323 -0.6466 -0.2298 -0.6185
20200SOL     OW66435   7.941  10.010   9.464  0.0712  0.1372 -0.1397
20200SOL    HW166436   7.967   9.919   9.451 -1.2984 -0.4122  0.7545
20200SOL    HW266437   7.908  10.038   9.379 -2.0408 -1.1069  0.1962
20201SOL     OW66438   1.449   7.697   2.210  0.1330 -0.1553 -0.4813
20201SOL    HW166439   1.399   7.777   2.228 -1.8212 -1.8498  2.7775
20201SOL    HW266440   1.527   7.704   2.266 -0.3247 -0.6738  0.2560
20202SOL     OW66441   1.211   4.400   6.109 -0.0675  0.5136 -0.1749
20202SOL    HW166442   1.209   4.447   6.025 -0.4475  2.6698  0.9794
20202SOL    HW266443   1.190   4.466   6.174  0.4551 -1.0632  1.6815
20203SOL     OW66444   6.434   6.901   7.133 -0.7469 -0.1111  0.1649
20203SOL    HW166445   6.347   6.902   7.092 -0.7964  1.4113  0.2539
20203SOL    HW266446   6.493   6.936   7.066 -0.2445 -0.8716  0.2027
20204SOL     OW66447   0.422   9.982   7.062 -0.1001  0.4096 -0.0646
20204SOL    HW166448   0.344  10.031   7.035  0.4169  1.1606 -0.2035
20204SOL    HW266449   0.468  10.042   7.121  1.0091  0.4509 -0.9585
20205SOL     OW66450   2.683   7.556   0.167 -0.1555 -0.3241 -0.7109
20205SOL    HW166451   2.610   7.615   0.185 -0.2493 -0.6783  0.1265
20205SOL    HW266452   2.728   7.548   0.251 -0.9666 -2.5415 -0.4192
20206SOL     OW66453   7.974   3.945   0.876  0.5680 -0.3004 -0.4873
20206SOL    HW166454   7.998   4.035   0.854  2.1326 -0.7811 -0.8393
20206SOL    HW266455   8.056   3.903   0.901 -0.0862 -1.7227 -0.6211
20207SOL     OW66456   8.226   4.967   9.023 -0.3817 -0.4684  0.3180
20207SOL    HW166457   8.147   5.010   9.055  0.6569  1.0458  0.9689
20207SOL    HW266458   8.271   5.034   8.972  0.6192 -1.2079  0.1899
20208SOL     OW66459   9.268   1.114   4.960  0.2948  0.0992  0.0808
20208SOL    HW166460   9.294   1.060   4.885 -1.3252 -1.2239  0.4303
20208SOL    HW266461   9.319   1.079   5.034  0.8588  0.5049 -0.1037
20209SOL     OW66462   5.312   0.397   5.645  0.5251 -0.2121  0.0931
20209SOL    HW166463   5.300   0.492   5.639 -0.5101 -0.4033 -1.2733
20209SOL    HW266464   5.320   0.381   5.739 -0.5835  1.0963  0.4528
20210SOL     OW66465   7.975   2.681   2.695 -0.2709 -0.9880 -0.0230
20210SOL    HW166466   7.960   2.710   2.606 -0.7632  0.4889  0.5094
20210SOL    HW266467   7.951   2.589   2.695 -3.5928 -0.2276 -0.6490
20211SOL     OW66468   5.896  10.605   9.259 -0.3920  0.0785 -0.1807
20211SOL    HW166469   5.957  10.532   9.247 -0.5462  0.1220 -1.3540
20211SOL    HW266470   5.819  10.565   9.299 -0.5719 -0.4626 -1.0353
20212SOL     OW66471   4.079   3.603   5.106  0.3832 -0.6117 -0.2767
20212SOL    HW166472   4.045   3.674   5.051 -0.4178 -0.8705 -0.1185
20212SOL    HW266473   4.160   3.639   5.143  0.4778 -0.1184 -0.9330
20213SOL     OW66474   4.552  10.137   9.019  0.3807 -0.0893  0.0373
20213SOL    HW166475   4.457  10.150   9.007  0.3933  1.7107  1.4279
20213SOL    HW266476   4.570  10.052   8.979 -2.0422 -1.0568  0.8072
20214SOL     OW66477   6.096   5.595   5.337 -0.4137  0.2222  0.1455
20214SOL    HW166478   6.116   5.580   5.245 -1.9169 -0.5704 -0.0846
20214SOL    HW266479   6.166   5.550   5.384 -0.2706 -0.3725 -0.6135
20215SOL     OW66480   8.055   5.369   4.588  0.6717  0.2436 -0.0540
20215SOL    HW166481   8.057   5.367   4.684  0.7399  1.5542 -0.0064
20215SOL    HW266482   8.128   5.315   4.561  1.2029  0.5897  0.6620
20216SOL     OW66483   8.436   1.739   3.670  0.0994  0.1585  0.1267
20216SOL    HW166484   8.364   1.682   3.697  0.3048  0.1623  0.6898
20216SOL    HW266485   8.512   1.707   3.720  0.0132  1.5391  1.2101
20217SOL     OW66486   2.159   4.831   1.967  0.1263 -0.7938  0.0264
20217SOL    HW166487   2.248   4.798   1.980 -0.0592 -1.9249 -1.3271
20217SOL    HW266488   2.102   4.756   1.984 -0.4055 -0.7752 -1.4765
20218SOL     OW66489   1.582   0.341   0.595 -0.1430 -0.2420  0.4281
20218SOL    HW166490   1.609   0.250   0.604 -1.0882 -0.7054 -1.0331
20218SOL    HW266491   1.664   0.391   0.594  0.4357 -1.1891  0.1411
20219SOL     OW66492   2.767   7.618   8.932 -0.1991  0.3640  0.3862
20219SOL    HW166493   2.850   7.575   8.911 -0.4334 -0.6341  1.3694
20219SOL    HW266494   2.735   7.570   9.009 -0.6175  2.1293  1.3657
20220SOL     OW66495   1.468   7.562   3.816  0.1589 -0.4171  0.2893
20220SOL    HW166496   1.502   7.610   3.891 -1.1739 -1.1149  1.3858
20220SOL    HW266497   1.447   7.630   3.752  0.0655  0.3085  1.0683
20221SOL     OW66498   8.212   1.776   9.565 -0.2390  0.1871 -0.0950
20221SOL    HW166499   8.223   1.792   9.659 -0.6801  0.1659 -0.0380
20221SOL    HW266500   8.157   1.849   9.535  0.7792  0.7945 -0.5484
20222SOL     OW66501   8.447   3.167   3.560 -0.0028 -0.5205 -0.0501
20222SOL    HW166502   8.399   3.085   3.572 -0.5456 -0.2224 -0.1100
20222SOL    HW266503   8.537   3.146   3.582 -0.5432 -0.5370  2.3651
20223SOL     OW66504   5.533   2.384   4.701 -0.0986  0.1739  0.2185
20223SOL    HW166505   5.561   2.369   4.610 -2.6167 -0.0651 -0.6182
20223SOL    HW266506   5.485   2.305   4.724  1.4750 -0.2492  2.2265
20224SOL     OW66507   9.984   0.247   3.780  0.1867 -0.3583 -0.0371
20224SOL    HW166508  10.053   0.190   3.815  0.7263 -0.0601 -0.5934
20224SOL    HW266509   9.935   0.275   3.857  1.5688  0.5681  0.5314
20225SOL     OW66510   9.702   6.887   2.688  0.2460 -0.3903  0.3249
20225SOL    HW166511   9.656   6.841   2.618 -1.0763 -0.8186  1.4445
20225SOL    HW266512   9.786   6.911   2.649 -0.2300 -1.1089 -1.2247
20226SOL     OW66513   2.919   5.218   3.559 -0.0916 -0.2330  0.5736
20226SOL    HW166514   3.012   5.234   3.570  0.0368 -1.3967  1.3770
20226SOL    HW266515   2.908   5.200   3.466  0.0598  2.2932 -0.0088
20227SOL     OW66516   0.609   5.955  10.473  0.1391  0.0066  0.1461
20227SOL    HW166517   0.513   5.954  10.472  0.1035  0.9975 -1.4209
20227SOL    HW266518   0.635   5.869  10.439 -0.2527  0.3762 -1.1486
20228SOL     OW66519   0.756   6.843   1.805 -0.9367  0.5518  0.1624
20228SOL    HW166520   0.805   6.763   1.784  0.0424  1.3877 -0.8292
20228SOL    HW266521   0.709   6.865   1.725 -1.4819  0.7950  0.5411
20229SOL     OW66522   6.593   0.077   3.561 -0.0325  0.5831  0.1477
20229SOL    HW166523   6.540   0.022   3.504  1.1305 -0.0942 -0.3109
20229SOL    HW266524   6.561   0.166   3.545 -1.9692  0.0753  0.9358
20230SOL     OW66525  10.524   4.821   7.365  0.2535 -0.1166  0.2146
20230SOL    HW166526  10.588   4.889   7.388 -0.7109  0.7633  0.3870
20230SOL    HW266527  10.567   4.769   7.297  0.9849  0.7074  0.0326
20231SOL     OW66528   2.593   5.275   4.078  0.1216 -0.3940 -0.1273
20231SOL    HW166529   2.682   5.262   4.110  0.1061  0.3365  0.2279
20231SOL    HW266530   2.585   5.214   4.005  0.7171 -0.8758  0.2024
20232SOL     OW66531   6.375  10.069   3.184  0.5553  0.3840  0.0396
20232SOL    HW166532   6.377  10.017   3.265 -0.2024  0.6770  0.2556
20232SOL    HW266533   6.443  10.135   3.196  2.9558 -1.7342 -1.0787
20233SOL     OW66534   8.900   2.467   7.133  0.4570  0.7463  0.3812
20233SOL    HW166535   8.807   2.448   7.134  0.6887 -0.5185 -0.2252
20233SOL    HW266536   8.928   2.453   7.043  1.5077 -0.4313  0.8492
20234SOL     OW66537   0.435   4.958   5.580  0.1288  0.5664 -0.5093
20234SOL    HW166538   0.471   4.893   5.520 -1.3063 -0.8633  0.1159
20234SOL    HW266539   0.379   5.013   5.526  0.8165  0.8852 -0.9160
20235SOL     OW66540   2.579   6.772   1.019 -0.0299  0.1263 -0.1768
20235SOL    HW166541   2.594   6.785   0.926 -0.3757 -1.0802 -0.4289
20235SOL    HW266542   2.484   6.783   1.030 -0.0698 -0.2857 -0.0803
20236SOL     OW66543   3.119   5.123   0.209 -0.2635  0.0168  0.5100
20236SOL    HW166544   3.200   5.158   0.247 -0.6815  1.5925  0.0401
20236SOL    HW266545   3.074   5.082   0.283 -0.4373  1.8416  1.4725
20237SOL     OW66546   5.516   9.077   7.651  0.9353 -0.3605  0.3447
20237SOL    HW166547   5.514   9.100   7.744  0.5138  0.1479  0.2074
20237SOL    HW266548   5.609   9.081   7.628  0.9726  0.1743  0.5749
20238SOL     OW66549   6.070   8.340   0.198  0.1247 -0.4347 -0.3066
20238SOL    HW166550   6.064   8.250   0.231 -0.4121 -1.4791 -2.9888
20238SOL    HW266551   5.982   8.375   0.206  0.0155 -0.6556 -0.5238
20239SOL     OW66552   7.527   3.017   5.763  0.1918  0.1954 -0.0250
20239SOL    HW166553   7.436   3.016   5.734  0.0829  0.7092  0.2950
20239SOL    HW266554   7.556   2.925   5.755 -0.5717 -0.1012  0.5710
20240SOL     OW66555   9.012   8.414   8.460 -0.1274  0.0297 -0.6622
20240SOL    HW166556   9.088   8.470   8.446 -0.2931 -0.0360 -1.9190
20240SOL    HW266557   9.049   8.327   8.475  0.1224  0.4009  1.0663
20241SOL     OW66558   8.978  10.360   7.495 -0.2262  0.0882 -0.3765
20241SOL    HW166559   9.041  10.297   7.460 -0.6771  0.4039 -1.7865
20241SOL    HW266560   8.980  10.434   7.435  1.4999  2.2487  2.0876
20242SOL     OW66561   6.294   7.496   4.118 -0.1550  0.0606 -0.0279
20242SOL    HW166562   6.257   7.576   4.080 -0.0094 -0.8360 -2.1897
20242SOL    HW266563   6.388   7.503   4.102 -0.1665 -0.6364 -0.4246
20243SOL     OW66564   0.713   3.106   9.104 -0.0924 -0.0315  0.1588
20243SOL    HW166565   0.629   3.132   9.143 -0.5039 -0.4895 -0.3875
20243SOL    HW266566   0.768   3.184   9.109 -0.5883  0.3070  0.4340
20244SOL     OW66567   7.855   3.977   2.873 -0.4345 -0.5869  0.9650
20244SOL    HW166568   7.875   3.952   2.964  1.4421 -0.5504  0.6020
20244SOL    HW266569   7.857   4.072   2.873  1.3513 -0.5978  0.5567
20245SOL     OW66570   3.744   3.325   2.673  0.4745 -0.1003 -0.3297
20245SOL    HW166571   3.702   3.339   2.758  1.6219 -1.3358  0.4807
20245SOL    HW266572   3.684   3.265   2.627  0.8399 -1.0883  0.4421
20246SOL     OW66573   7.032   7.019   2.045 -0.2964 -0.0294  0.0418
20246SOL    HW166574   7.076   7.022   1.960 -0.4408  0.5655 -0.0160
20246SOL    HW266575   7.098   6.987   2.105 -0.0605 -0.0346 -0.2204
20247SOL     OW66576   5.007  10.397   6.745 -0.2939  0.3842 -0.1579
20247SOL    HW166577   5.100  10.390   6.723 -0.7963  1.1159 -2.8521
20247SOL    HW266578   5.005  10.448   6.826  1.6024  1.4584 -0.7251
20248SOL     OW66579   8.117   6.478   7.996  0.6312  0.0956  0.4519
20248SOL    HW166580   8.188   6.421   7.966  0.5484  0.2055  0.0386
20248SOL    HW266581   8.087   6.438   8.078 -1.1212 -1.9698 -1.0679
20249SOL     OW66582   1.215   9.246   4.052 -0.3485  0.1271 -0.1100
20249SOL    HW166583   1.284   9.289   4.002  0.9558  0.2967  1.7303
20249SOL    HW266584   1.256   9.167   4.087 -0.8240  0.5862  1.5889
20250SOL     OW66585   3.722   8.337   7.477  0.0386  0.7332  0.7894
20250SOL    HW166586   3.709   8.244   7.494 -0.5307  0.6714  0.0564
20250SOL    HW266587   3.664   8.356   7.404  1.4159  1.2991 -0.1865
20251SOL     OW66588   8.651   8.244   7.632  0.7861  0.7040  0.0855
20251SOL    HW166589   8.599   8.256   7.711 -0.6967  0.0842 -0.7566
20251SOL    HW266590   8.665   8.332   7.598 -1.8009  0.8047 -0.9282
20252SOL     OW66591   5.382   3.866   3.963  0.1595 -0.2883 -0.4016
20252SOL    HW166592   5.335   3.784   3.976  1.2028 -0.8631 -0.1837
20252SOL    HW266593   5.461   3.842   3.915  0.6807  0.5186  0.0192
20253SOL     OW66594   6.098   0.349   6.660  0.3178 -0.1370  0.1579
20253SOL    HW166595   6.187   0.384   6.657 -0.2205  1.3088  0.3846
20253SOL    HW266596   6.042   0.420   6.628 -0.7971 -0.8674  0.4048
20254SOL     OW66597   1.328   5.538   2.047  0.4934 -0.3657  0.2216
20254SOL    HW166598   1.260   5.601   2.021 -0.3734 -1.3919 -0.1078
20254SOL    HW266599   1.409   5.574   2.012  0.4331  1.7690  2.0952
20255SOL     OW66600   6.980   2.487   6.532 -0.3995  0.2707  0.1654
20255SOL    HW166601   6.944   2.563   6.486  1.1439 -0.2286 -2.0375
20255SOL    HW266602   6.970   2.414   6.470 -1.1944 -1.1926  1.9389
20256SOL     OW66603   6.104   3.202   7.921  0.2982  0.1337 -0.0195
20256SOL    HW166604   6.091   3.201   8.015  1.2457  1.9213  0.1692
20256SOL    HW266605   6.183   3.149   7.907 -0.5470 -1.1749  0.0288
20257SOL     OW66606   9.020   4.577   1.211 -0.0342 -0.8308 -0.2530
20257SOL    HW166607   9.085   4.558   1.144  1.6386 -1.9416  1.5922
20257SOL    HW266608   8.948   4.618   1.163  1.5797 -0.4614 -2.5241
20258SOL     OW66609   5.260   4.499   9.721  0.4163 -0.0227  0.0609
20258SOL    HW166610   5.260   4.415   9.767  0.1152 -0.6465 -1.0363
20258SOL    HW266611   5.342   4.541   9.749  0.3581 -0.4840  0.9572
20259SOL     OW66612   3.372   2.373   2.145  0.3199 -0.3616 -0.5472
20259SOL    HW166613   3.413   2.288   2.166  1.5014  0.3069 -0.0288
20259SOL    HW266614   3.309   2.387   2.215 -1.1414 -1.5815 -1.5553
20260SOL     OW66615   1.203   4.373   2.743  0.2536  0.0855 -0.3781
20260SOL    HW166616   1.186   4.383   2.836  1.6244  0.7748 -0.1801
20260SOL    HW266617   1.118   4.350   2.705 -0.0182 -1.8709  1.2540
20261SOL     OW66618   7.472  10.504   4.167  0.0905 -0.3289  0.2826
20261SOL    HW166619   7.487  10.411   4.185 -0.0044 -0.8351 -1.9209
20261SOL    HW266620   7.377  10.515   4.174 -0.3967 -1.3343 -2.8513
20262SOL     OW66621   3.539   1.573   1.075  0.4583 -0.4938  0.3882
20262SOL    HW166622   3.444   1.571   1.062  0.6601 -1.1690 -1.1689
20262SOL    HW266623   3.551   1.556   1.168 -0.8624 -3.1465  0.1478
20263SOL     OW66624   1.565   8.790  10.449  0.1888  0.6248  0.5936
20263SOL    HW166625   1.594   8.882  10.446 -0.9555  1.0337  1.4662
20263SOL    HW266626   1.478   8.794  10.488  0.1701 -0.8592  0.7348
20264SOL     OW66627   2.320   8.709   0.204  0.2525  0.0269  0.3011
20264SOL    HW166628   2.369   8.633   0.173 -0.8472 -0.0512 -1.3484
20264SOL    HW266629   2.308   8.764   0.127  0.0097  1.3255  1.2167
20265SOL     OW66630   7.212   2.348   6.194  0.4048 -0.3991 -0.4837
20265SOL    HW166631   7.279   2.355   6.262 -0.0686  0.6875 -0.1132
20265SOL    HW266632   7.139   2.304   6.237  1.2308 -2.5721 -1.1840
20266SOL     OW66633  10.254   5.545   9.959 -0.1527 -0.2444  0.4066
20266SOL    HW166634  10.199   5.468   9.975 -0.7580  0.3934  1.5749
20266SOL    HW266635  10.306   5.554  10.039  1.0357 -0.3249 -0.3435
20267SOL     OW66636   1.503   3.040   6.074 -0.3427 -0.6760 -0.0816
20267SOL    HW166637   1.545   2.960   6.043 -1.9531 -1.4637 -0.3197
20267SOL    HW266638   1.433   3.057   6.010 -0.4481  0.5478  0.3337
20268SOL     OW66639   9.885   5.053   6.542 -0.1720  0.3672 -0.4382
20268SOL    HW166640   9.876   5.146   6.564  2.0812  0.2610  1.2698
20268SOL    HW266641   9.942   5.053   6.466 -1.7350  0.3948 -1.6713
20269SOL     OW66642   2.609   7.613   2.802 -0.0937  0.3353 -0.2522
20269SOL    HW166643   2.699   7.643   2.791 -0.3620  2.3096  2.0387
20269SOL    HW266644   2.557   7.668   2.744  0.0861 -0.3792 -1.1071
20270SOL     OW66645   3.560   1.898   8.589 -0.1006 -0.1250  0.2045
20270SOL    HW166646   3.466   1.884   8.579 -0.4987  1.9660  0.6370
20270SOL    HW266647   3.586   1.943   8.509  0.9662 -2.3757 -0.7987
20271SOL     OW66648   8.227  10.381   1.496 -0.2436 -0.2026  0.4589
20271SOL    HW166649   8.175  10.453   1.459  0.5394 -0.5729 -1.5244
20271SOL    HW266650   8.251  10.411   1.583 -0.7013  1.5520  0.0328
20272SOL     OW66651   6.294   5.687   0.318  0.0914 -0.1956 -0.1961
20272SOL    HW166652   6.237   5.613   0.297  2.5966 -2.2373 -0.4171
20272SOL    HW266653   6.295   5.741   0.239 -0.3182 -0.9863 -0.7501
20273SOL     OW66654   9.118   1.974   6.746 -0.4597 -0.0569 -0.5450
20273SOL    HW166655   9.101   1.884   6.717 -0.7944 -0.0495 -0.3798
20273SOL    HW266656   9.039   2.022   6.719 -0.7081 -0.0155  0.2253
20274SOL     OW66657   2.474   9.055   8.648  0.1577  0.2268  0.2955
20274SOL    HW166658   2.500   9.144   8.672 -0.2132  0.9859 -1.8334
20274SOL    HW266659   2.556   9.008   8.636  0.3754  0.5008  0.6739
20275SOL     OW66660   4.310   4.038   6.915  0.5936  0.0295  0.0854
20275SOL    HW166661   4.237   4.006   6.862  0.9692  2.0306 -1.8053
20275SOL    HW266662   4.337   3.963   6.967 -0.8729 -1.6103 -1.3705
20276SOL     OW66663   4.667   1.427   6.514  0.1156 -0.0359 -0.2501
20276SOL    HW166664   4.628   1.509   6.546 -0.0904  0.7690 -2.3911
20276SOL    HW266665   4.630   1.359   6.571 -0.0898  1.2802  1.2717
20277SOL     OW66666   1.053   8.790  10.291 -0.6444 -0.0517  0.6518
20277SOL    HW166667   1.057   8.843  10.212 -0.4808 -2.2530 -0.9010
20277SOL    HW266668   0.963   8.798  10.322 -0.9345  0.1749 -0.2406
20278SOL     OW66669   6.223   6.132   1.370 -0.1464  0.1861  0.0912
20278SOL    HW166670   6.186   6.220   1.370 -1.3628 -0.2693  1.3696
20278SOL    HW266671   6.248   6.116   1.279 -0.8603  1.4674 -0.3590
20279SOL     OW66672   8.566   7.739   5.748  0.1896 -0.3809  0.0348
20279SOL    HW166673   8.493   7.697   5.793 -0.9337  0.4473 -0.9464
20279SOL    HW266674   8.601   7.801   5.811  0.3469 -1.1049  0.6693
20280SOL     OW66675   7.298   4.798   7.734  0.7232 -0.1880 -0.0894
20280SOL    HW166676   7.315   4.707   7.759 -1.1669 -0.5797 -0.0724
20280SOL    HW266677   7.212   4.796   7.692  0.5449  1.6208  0.0906
20281SOL     OW66678   3.017  10.169   6.014 -0.2269  0.2992  0.1641
20281SOL    HW166679   3.008  10.138   5.925 -0.0454  0.3896  0.1138
20281SOL    HW266680   2.936  10.218   6.031 -0.1159  0.5687 -0.0674
20282SOL     OW66681   4.783   6.207   1.105  0.6781 -0.3776  0.1160
20282SOL    HW166682   4.776   6.117   1.136  0.1221 -0.2037  0.5186
20282SOL    HW266683   4.806   6.258   1.183 -0.3639  0.0121  0.1983
20283SOL     OW66684   0.152   9.589   3.342 -0.2159 -0.9871 -0.1407
20283SOL    HW166685   0.209   9.556   3.412 -1.3324 -0.7354  0.9215
20283SOL    HW266686   0.203   9.575   3.262  0.9169 -1.7061  0.6604
20284SOL     OW66687   8.989   5.307   9.085  0.4047  0.0443 -0.4689
20284SOL    HW166688   9.075   5.296   9.125 -0.1713 -2.4232  0.2969
20284SOL    HW266689   8.928   5.303   9.159 -0.4370  0.9657 -1.0833
20285SOL     OW66690   2.108   3.443   6.060 -0.0343 -0.0277 -0.0109
20285SOL    HW166691   2.150   3.523   6.091  1.1678 -0.5918 -0.1140
20285SOL    HW266692   2.018   3.469   6.040  0.5139  1.4503 -0.6918
20286SOL     OW66693   1.854   9.088   7.808 -0.0144  0.1335 -0.0847
20286SOL    HW166694   1.820   9.067   7.895 -0.9196  2.1589  0.1011
20286SOL    HW266695   1.949   9.086   7.819 -0.1206  0.6226  1.0304
20287SOL     OW66696   3.077   7.884   6.361  0.3179 -0.2554 -0.0928
20287SOL    HW166697   3.063   7.952   6.427 -2.9755 -0.1624 -0.7634
20287SOL    HW266698   3.111   7.810   6.411 -1.8665 -0.1221  1.7638
20288SOL     OW66699   7.010   3.675   2.864 -0.1573 -0.0493 -0.1918
20288SOL    HW166700   7.100   3.706   2.875  0.3339 -1.0777 -1.0962
20288SOL    HW266701   6.978   3.720   2.786 -0.0971 -0.4043 -0.4214
20289SOL     OW66702   9.281   1.462  10.020  0.0809 -0.4019  0.3752
20289SOL    HW166703   9.240   1.376  10.005 -2.6673  0.6437  1.2345
20289SOL    HW266704   9.237   1.496  10.098  2.7026  0.8938  1.3779
20290SOL     OW66705   6.361   0.201   2.777  0.1838 -0.4887 -0.3709
20290SOL    HW166706   6.451   0.186   2.750  0.5128 -1.2736  1.0589
20290SOL    HW266707   6.311   0.131   2.735 -0.0172  0.7530 -2.2861
20291SOL     OW66708   4.705   0.794   6.773  0.3965  0.2236 -0.2036
20291SOL    HW166709   4.747   0.879   6.763  1.1485 -0.2070 -0.7608
20291SOL    HW266710   4.624   0.801   6.723  0.0147  0.8901  0.4709
20292SOL     OW66711   6.761   4.793   9.190 -0.3295 -0.7098 -0.3839
20292SOL    HW166712   6.744   4.842   9.109  0.2473  2.8293  1.4313
20292SOL    HW266713   6.756   4.859   9.259  3.1221 -2.7342  2.1123
20293SOL     OW66714   1.043   3.957   4.612 -0.3099  0.3873  0.2432
20293SOL    HW166715   1.046   3.967   4.707 -2.5094  0.2605  0.3777
20293SOL    HW266716   1.032   3.862   4.599 -0.1862  0.4248 -0.1332
20294SOL     OW66717   9.987   3.682   3.226 -0.2889 -0.0804  0.0442
20294SOL    HW166718   9.962   3.670   3.134 -1.3697 -2.0339  0.5381
20294SOL    HW266719   9.957   3.602   3.269  1.3329  0.2334  1.8755
20295SOL     OW66720   4.989   9.943   4.396 -0.2730  0.7369  0.6640
20295SOL    HW166721   5.003  10.007   4.326  0.4200  0.5805  0.6565
20295SOL    HW266722   5.067   9.950   4.451 -0.3362  0.1193  0.8367
20296SOL     OW66723   0.208   1.312   0.050 -0.0178  0.0334 -0.2096
20296SOL    HW166724   0.296   1.349   0.043  0.2041 -0.2421  0.8767
20296SOL    HW266725   0.187   1.319   0.144 -1.5500  0.9873 -0.5805
20297SOL     OW66726  10.542   6.608  10.461 -0.1700 -0.2732 -0.3435
20297SOL    HW166727  10.543   6.514  10.475  0.5495 -0.0881  1.1582
20297SOL    HW266728  10.599   6.622  10.386  1.8687 -0.8857  0.9960
20298SOL     OW66729   7.405   6.710   8.933 -0.4906  0.4522  0.4628
20298SOL    HW166730   7.417   6.803   8.951  0.1649  0.1628  1.5534
20298SOL    HW266731   7.471   6.666   8.986 -1.2501 -0.6822  0.4924
20299SOL     OW66732   2.822   7.232   5.553 -0.1337  0.2764 -0.2622
20299SOL    HW166733   2.809   7.150   5.599  0.8364  0.6540  0.7395
20299SOL    HW266734   2.742   7.244   5.501 -1.5834  0.1508  1.8223
20300SOL     OW66735   3.545   7.048   9.518  0.6244 -0.0933  0.6727
20300SOL    HW166736   3.466   6.996   9.531  1.8072 -1.6784  1.9905
20300SOL    HW266737   3.529   7.097   9.438 -2.5641  1.3507  2.0100
20301SOL     OW66738   7.141   7.472   3.567  0.1007 -0.1197 -0.1976
20301SOL    HW166739   7.072   7.438   3.624  0.0796  0.2124 -0.0260
20301SOL    HW266740   7.093   7.513   3.495  0.1273 -0.8562 -0.6510
20302SOL     OW66741   5.633   7.253   9.961  0.1610 -0.2474 -0.1761
20302SOL    HW166742   5.539   7.263   9.977 -0.5542 -2.7882 -2.1344
20302SOL    HW266743   5.670   7.241  10.048 -1.0896  1.8936  0.7488
20303SOL     OW66744   0.982   5.963   9.607 -0.6067  0.0253 -0.0276
20303SOL    HW166745   1.033   5.967   9.526  1.2670  4.3609  1.0606
20303SOL    HW266746   0.893   5.986   9.581 -0.5696 -0.9295 -1.0810
20304SOL     OW66747   0.341   4.076   5.919 -0.3227 -0.5761  0.5186
20304SOL    HW166748   0.291   4.151   5.885  0.2032  0.7684  2.5009
20304SOL    HW266749   0.429   4.088   5.883  0.1003  0.5527  1.8352
20305SOL     OW66750   7.953   9.897   3.471  0.0999  0.0822  0.0944
20305SOL    HW166751   8.029   9.899   3.529 -0.6074  0.3968  1.0269
20305SOL    HW266752   7.894   9.963   3.506 -1.3194 -1.2908  0.3663
20306SOL     OW66753   7.045   3.933   8.413 -0.7219 -0.0694  0.0494
20306SOL    HW166754   7.109   3.996   8.381 -1.7350  0.1704 -1.6567
20306SOL    HW266755   6.981   3.925   8.341 -1.6303 -1.6256  0.9657
20307SOL     OW66756   4.216   5.889   8.789 -0.5427 -0.0213 -0.1964
20307SOL    HW166757   4.240   5.971   8.831  2.0145 -1.7231  2.0761
20307SOL    HW266758   4.156   5.913   8.719 -0.0015  3.7026  0.4550
20308SOL     OW66759   5.115   2.492   9.645  0.0403 -0.3026  0.1113
20308SOL    HW166760   5.211   2.488   9.641  0.0625 -1.2674  1.1308
20308SOL    HW266761   5.094   2.582   9.622  1.2230  0.0135  0.2073
20309SOL     OW66762   9.922   0.141  10.165  0.1694  0.7224  0.5680
20309SOL    HW166763   9.848   0.097  10.207 -0.6626  0.2123 -1.3354
20309SOL    HW266764   9.998   0.086  10.186 -0.4358 -0.1994  0.3791
20310SOL     OW66765  10.226   0.488   4.627 -0.3987 -0.2731 -0.1364
20310SOL    HW166766  10.195   0.400   4.650 -1.2303  0.7329  3.3045
20310SOL    HW266767  10.303   0.501   4.682 -1.0207  1.5289  0.3804
20311SOL     OW66768   7.135   2.706   8.015 -0.1505  0.1463 -0.4811
20311SOL    HW166769   7.203   2.733   8.077 -0.5140  2.1099 -0.8519
20311SOL    HW266770   7.082   2.643   8.063  0.2333  0.7773  0.8264
20312SOL     OW66771   1.654   1.344   8.779 -0.1136  0.6235 -0.1728
20312SOL    HW166772   1.740   1.367   8.742 -0.3125  1.2155 -0.2719
20312SOL    HW266773   1.646   1.250   8.763  0.1624  0.7181 -0.8853
20313SOL     OW66774   2.265   8.643   7.211  0.3141  0.1326  0.0840
20313SOL    HW166775   2.196   8.700   7.245  0.4799  0.7182 -0.5479
20313SOL    HW266776   2.334   8.646   7.277  0.8473  1.6628 -0.5055
20314SOL     OW66777   6.024   0.668   3.762 -0.3742  0.0500  0.7687
20314SOL    HW166778   6.015   0.737   3.696 -1.2847  0.9091  1.7387
20314SOL    HW266779   6.066   0.596   3.716  1.9505  1.7425  0.0683
20315SOL     OW66780   1.785   7.780   3.703  0.2083 -0.8089  0.2984
20315SOL    HW166781   1.760   7.802   3.614  0.5343 -2.0830 -0.1245
20315SOL    HW266782   1.789   7.684   3.705  2.3892 -0.7600  1.0462
20316SOL     OW66783   7.310   9.119   0.949  0.2394  0.0258  0.3858
20316SOL    HW166784   7.357   9.097   0.869  0.5298  1.4769  0.1169
20316SOL    HW266785   7.218   9.107   0.927  0.3327  0.1165 -0.0673
20317SOL     OW66786   5.863   5.609   8.616  0.0872 -0.1158  0.2890
20317SOL    HW166787   5.850   5.634   8.524  0.5847 -0.4176  0.1289
20317SOL    HW266788   5.796   5.658   8.664  1.3154  1.9254  0.0650
20318SOL     OW66789   6.125   0.220   3.034  0.3546  0.2977  0.4072
20318SOL    HW166790   6.130   0.127   3.011 -0.5968  0.5577 -0.9603
20318SOL    HW266791   6.216   0.245   3.051  0.9677 -0.3220 -1.6258
20319SOL     OW66792   3.636  10.506   6.368 -0.3256 -0.1965 -0.0847
20319SOL    HW166793   3.558  10.510   6.313  0.7147 -0.4417 -1.6295
20319SOL    HW266794   3.709  10.514   6.307  0.8705  2.3877  1.5232
20320SOL     OW66795   6.652   2.992   3.152  0.4961 -0.3399  0.2133
20320SOL    HW166796   6.642   2.999   3.247  0.1188 -1.1009  0.2373
20320SOL    HW266797   6.726   3.049   3.131  1.2426 -0.9615  1.0970
20321SOL     OW66798   1.105   8.403   3.409 -0.0367  0.1327  0.7839
20321SOL    HW166799   1.031   8.463   3.417  1.3568  2.2180 -0.8061
20321SOL    HW266800   1.083   8.348   3.334  0.3106  1.3362 -0.2519
20322SOL     OW66801   3.723   9.915   7.541  0.8554 -0.3627 -0.1454
20322SOL    HW166802   3.732  10.005   7.509  1.4665 -0.4162 -0.1448
20322SOL    HW266803   3.789   9.908   7.610  1.1599 -0.9627 -0.4875
20323SOL     OW66804   2.433   5.189   1.875 -0.5408  0.6316 -0.5514
20323SOL    HW166805   2.432   5.105   1.829  2.3819  1.1917 -1.8276
20323SOL    HW266806   2.465   5.168   1.963 -3.5699 -0.0420  0.5189
20324SOL     OW66807   8.852   7.043   4.026 -0.8457 -0.3354 -0.0299
20324SOL    HW166808   8.764   7.039   4.065 -0.8490  0.4434  0.0463
20324SOL    HW266809   8.856   6.966   3.970 -0.5984 -1.9155  2.0261
20325SOL     OW66810  10.336   6.113   2.903  0.0743 -0.8403  0.4036
20325SOL    HW166811  10.297   6.106   2.990 -2.3325 -0.2197 -0.5555
20325SOL    HW266812  10.266   6.087   2.843  1.3927 -0.3872 -1.4139
20326SOL     OW66813   6.047   2.734   1.812 -0.2833  0.2539  0.5299
20326SOL    HW166814   6.097   2.653   1.802  0.4197  0.8267 -0.7953
20326SOL    HW266815   5.988   2.716   1.885 -2.2387 -2.5086 -1.5161
20327SOL     OW66816   1.956   1.205   6.388 -0.2390 -0.3292 -0.2667
20327SOL    HW166817   1.862   1.221   6.394 -0.6281 -2.5225  0.3434
20327SOL    HW266818   1.971   1.181   6.297  0.1590  2.0481 -0.9033
20328SOL     OW66819  10.069   3.770   0.364  0.1788 -0.0131  0.3833
20328SOL    HW166820  10.104   3.766   0.275 -0.3878 -1.0162  0.1937
20328SOL    HW266821  10.056   3.679   0.389 -3.1087  0.2603  0.1020
20329SOL     OW66822   3.742   6.422   5.934  0.2936  0.4962  0.0190
20329SOL    HW166823   3.751   6.327   5.940  1.0125  0.5451 -0.1603
20329SOL    HW266824   3.771   6.454   6.020 -0.5023  0.5285  0.2867
20330SOL     OW66825   3.655   6.032   8.392  0.5749 -0.8737 -0.1571
20330SOL    HW166826   3.613   5.947   8.392  1.4213 -1.3021 -0.1237
20330SOL    HW266827   3.696   6.039   8.478  0.1901 -0.2664 -0.0156
20331SOL     OW66828   7.442  10.362   8.874 -0.2737  0.8727  0.2374
20331SOL    HW166829   7.458  10.449   8.838  0.8923  0.7183  0.3455
20331SOL    HW266830   7.521  10.342   8.925 -0.0778 -0.6686 -0.6138
20332SOL     OW66831   0.701   8.006   0.414  0.2922 -0.1163 -0.5399
20332SOL    HW166832   0.631   7.956   0.373  2.1523 -3.9128  0.4806
20332SOL    HW266833   0.676   8.012   0.506  0.9685 -0.9968 -0.2814
20333SOL     OW66834   1.935   4.623   6.081 -0.3803  0.4742  0.2585
20333SOL    HW166835   1.855   4.571   6.082 -0.8940  1.2508  1.8799
20333SOL    HW266836   2.000   4.568   6.124 -0.3017  0.2510 -0.1403
20334SOL     OW66837   3.231   3.972   9.341  0.2509 -0.5281 -0.2712
20334SOL    HW166838   3.204   4.063   9.354  2.1030 -0.0484  0.5139
20334SOL    HW266839   3.151   3.922   9.356 -0.5449  0.8923  0.5525
20335SOL     OW66840   7.145   3.428   5.192 -0.7864  0.0790 -0.3828
20335SOL    HW166841   7.193   3.401   5.271 -2.0976  1.1692  0.8566
20335SOL    HW266842   7.209   3.423   5.122  0.2286 -1.6758  0.5999
20336SOL     OW66843  10.724   3.292  10.377  0.3028  0.6513  0.3785
20336SOL    HW166844  10.755   3.304  10.467 -0.7304 -0.7544  0.9494
20336SOL    HW266845  10.634   3.323  10.378  0.0200 -0.1420  0.0453
20337SOL     OW66846   0.715  10.178  10.512 -0.4142 -0.0082  0.2390
20337SOL    HW166847   0.695  10.086  10.528 -1.7677  0.5338  1.8764
20337SOL    HW266848   0.630  10.219  10.494  0.2259  0.8517 -1.0122
20338SOL     OW66849   4.642   2.087   2.650 -0.2593  0.1410  0.1868
20338SOL    HW166850   4.608   2.065   2.563 -3.3092 -0.1746  1.3610
20338SOL    HW266851   4.686   2.171   2.638 -1.0689  0.3594 -1.5749
20339SOL     OW66852   8.444   9.199   0.992  0.4434  0.5295 -0.6180
20339SOL    HW166853   8.509   9.128   0.987  0.4675  0.3076  1.9135
20339SOL    HW266854   8.363   9.158   0.962  0.4387 -0.6543  0.8850
20340SOL     OW66855   6.460   5.227   8.997  0.6758  0.0103  0.0276
20340SOL    HW166856   6.512   5.307   9.010  2.4296 -0.8074 -1.5419
20340SOL    HW266857   6.431   5.232   8.906 -1.6152  0.1582  0.6998
20341SOL     OW66858   9.439   3.390   6.329  0.5481  0.5780 -0.2754
20341SOL    HW166859   9.507   3.329   6.355 -0.6029 -0.9843 -0.7667
20341SOL    HW266860   9.478   3.440   6.257  1.8348  1.1359  0.7678
20342SOL     OW66861   0.957   8.241   0.727 -0.5333 -0.3218  0.0573
20342SOL    HW166862   0.898   8.314   0.709 -0.0865  0.2898  1.0367
20342SOL    HW266863   0.923   8.170   0.673  0.4011  1.2243 -2.8012
20343SOL     OW66864  10.540   4.551   2.374  0.3634 -0.0623 -0.4160
20343SOL    HW166865  10.634   4.572   2.371  0.3492  0.3721  1.2625
20343SOL    HW266866  10.536   4.456   2.358  1.4952 -0.8562  3.0874
20344SOL     OW66867   9.582   9.516   2.869 -0.2380 -0.2587 -0.2942
20344SOL    HW166868   9.510   9.571   2.837 -3.0610 -1.3419  3.4156
20344SOL    HW266869   9.562   9.429   2.835  0.0318 -0.3249 -0.2834
20345SOL     OW66870   4.803   0.574   3.698 -0.3104 -0.4274 -0.5154
20345SOL    HW166871   4.764   0.535   3.619  0.8524  1.3861 -2.0636
20345SOL    HW266872   4.730   0.580   3.759 -1.3224 -1.6280 -1.5331
20346SOL     OW66873   2.150   0.992   6.586 -0.2447 -0.4368  0.1664
20346SOL    HW166874   2.212   1.021   6.519 -0.1630 -0.6239  0.1618
20346SOL    HW266875   2.064   1.009   6.549 -0.1991  0.1763  0.3212
20347SOL     OW66876   4.401   8.696   1.616  0.1237  0.0744  0.5275
20347SOL    HW166877   4.331   8.749   1.579  0.4316 -0.2178 -0.5052
20347SOL    HW266878   4.374   8.606   1.601 -0.0849 -0.0720  1.6810
20348SOL     OW66879   6.865   3.481   3.557  0.2197  0.7903  0.1413
20348SOL    HW166880   6.947   3.506   3.599 -0.5220 -0.3563  2.4312
20348SOL    HW266881   6.885   3.398   3.514  0.7065  1.4263 -0.8820
20349SOL     OW66882   9.429   4.208   9.597 -0.1580 -0.7607 -0.4263
20349SOL    HW166883   9.445   4.179   9.687  1.1346 -1.0555 -0.7294
20349SOL    HW266884   9.336   4.229   9.595 -0.3768 -1.4951  0.7744
20350SOL     OW66885   8.096   8.611   6.288  0.0353 -0.3891  0.3001
20350SOL    HW166886   8.016   8.598   6.339  0.9034  0.0464  1.8147
20350SOL    HW266887   8.080   8.564   6.206 -1.7444 -0.3453  0.5945
20351SOL     OW66888   1.982  10.238   4.817 -0.2009  0.0134 -0.4533
20351SOL    HW166889   2.038  10.164   4.791  0.9550  0.8023 -0.2988
20351SOL    HW266890   1.898  10.198   4.840  0.1988 -1.1812 -0.9904
20352SOL     OW66891   3.863   4.662   1.580  0.5551  0.4652  0.4856
20352SOL    HW166892   3.953   4.692   1.566  1.2982 -1.6040  0.3779
20352SOL    HW266893   3.871   4.566   1.586 -1.4178  0.3386  2.2400
20353SOL     OW66894   6.206   1.496   5.879 -0.4198  0.3493  0.2589
20353SOL    HW166895   6.237   1.543   5.802 -2.8032 -0.1129 -1.0758
20353SOL    HW266896   6.208   1.560   5.950  0.5612  1.1524 -0.4713
20354SOL     OW66897   9.549   7.491   9.004 -0.1926  0.3470  0.1182
20354SOL    HW166898   9.494   7.447   8.940  1.2196 -0.9879 -0.2448
20354SOL    HW266899   9.524   7.453   9.088  0.5215 -0.6739 -0.1109
20355SOL     OW66900   6.909   9.401   5.883  0.1246 -0.0379 -0.1894
20355SOL    HW166901   6.903   9.496   5.872  0.2882  0.0776  0.6673
20355SOL    HW266902   6.985   9.387   5.939  0.2481 -0.6919 -0.5046
20356SOL     OW66903   5.118   1.957   0.413 -0.0762  0.9011 -0.0216
20356SOL    HW166904   5.042   1.973   0.357  0.0105  0.8982 -0.1395
20356SOL    HW266905   5.089   1.985   0.500 -0.4213  0.3217  0.0541
20357SOL     OW66906   5.612   8.287  10.641 -0.1241  0.5490  0.2184
20357SOL    HW166907   5.656   8.266  10.559 -0.4504  0.0215  0.1717
20357SOL    HW266908   5.543   8.349  10.617  0.5258  1.3167  0.2799
20358SOL     OW66909   0.977  10.069   6.139  0.1341 -0.0466 -0.2877
20358SOL    HW166910   1.018  10.079   6.053  0.4735  1.8112  0.0375
20358SOL    HW266911   0.949   9.978   6.142  2.5518 -0.9165 -1.2929
20359SOL     OW66912   3.652   6.928   4.754 -0.6392  0.2398  0.3840
20359SOL    HW166913   3.694   6.972   4.680 -0.2536 -0.5823  0.1068
20359SOL    HW266914   3.700   6.960   4.831 -0.0848 -0.0066  0.1485
20360SOL     OW66915   6.979   2.389   5.783 -0.2604 -0.0787 -0.6267
20360SOL    HW166916   7.073   2.401   5.797 -0.3542  1.1128 -0.9180
20360SOL    HW266917   6.973   2.318   5.719  0.4199 -0.4739 -0.2610
20361SOL     OW66918   5.923   6.652   3.787 -0.0512  0.1127  0.5019
20361SOL    HW166919   5.902   6.592   3.715 -3.0241 -0.1110  1.4041
20361SOL    HW266920   5.939   6.736   3.743  1.7230 -0.7500 -0.6040
20362SOL     OW66921   0.778   5.010  10.486  0.4547 -0.7998 -0.6403
20362SOL    HW166922   0.868   5.042  10.491  0.5175 -0.8387 -1.3409
20362SOL    HW266923   0.746   5.042  10.401 -0.0338 -1.1776 -0.6050
20363SOL     OW66924   0.537   2.017   6.771  0.1436 -0.0029 -0.2239
20363SOL    HW166925   0.447   1.995   6.748 -0.9380  0.9608  2.6464
20363SOL    HW266926   0.570   2.068   6.697 -2.6407  1.9391 -0.2675
20364SOL     OW66927   5.692   3.325   9.034 -0.6210 -0.4995 -0.1193
20364SOL    HW166928   5.620   3.262   9.047 -1.4425  0.2024 -1.1371
20364SOL    HW266929   5.663   3.380   8.962  0.9275 -0.1476 -0.5110
20365SOL     OW66930   5.066   3.569   1.862 -0.1668  0.0029  0.1144
20365SOL    HW166931   5.077   3.579   1.956  0.1262  0.0786  0.0726
20365SOL    HW266932   5.103   3.483   1.842 -1.2402 -0.5052  0.2325
20366SOL     OW66933   7.434   9.528   8.496  0.1323  0.1698 -0.2054
20366SOL    HW166934   7.441   9.516   8.591  0.8294 -1.9355 -0.4668
20366SOL    HW266935   7.521   9.555   8.469  0.2973 -0.5218 -0.3855
20367SOL     OW66936   6.557   6.943   8.518 -0.0455  0.3960 -0.0052
20367SOL    HW166937   6.556   6.984   8.604  1.8035 -0.3896  0.4556
20367SOL    HW266938   6.548   7.015   8.456  0.8439  1.2413  0.8244
20368SOL     OW66939   8.686   1.285   0.938 -0.5716  0.0318 -0.2574
20368SOL    HW166940   8.729   1.323   0.861 -1.5764  0.4283 -0.6478
20368SOL    HW266941   8.622   1.224   0.901 -1.6591  0.8558  0.2052
20369SOL     OW66942   1.573   8.705   3.071 -0.2968 -0.2877  0.0246
20369SOL    HW166943   1.488   8.670   3.098 -1.5296  2.5562  0.1102
20369SOL    HW266944   1.575   8.692   2.976 -1.2832  0.5389 -0.1169
20370SOL     OW66945   5.049   1.113   7.742  0.3469  0.7336  0.0244
20370SOL    HW166946   5.007   1.185   7.694 -1.1019 -0.1939 -0.1822
20370SOL    HW266947   5.032   1.133   7.834 -2.2228 -0.5030 -0.0900
20371SOL     OW66948   5.111   7.351   6.962  0.4251 -0.4962 -0.2742
20371SOL    HW166949   5.205   7.363   6.954  0.2041  0.2642 -1.9767
20371SOL    HW266950   5.078   7.351   6.872 -1.4212  1.2445  0.3114
20372SOL     OW66951   2.102   4.787   4.738 -0.0175 -0.2400 -0.1205
20372SOL    HW166952   2.042   4.781   4.663 -0.7674 -2.4245  0.5853
20372SOL    HW266953   2.181   4.827   4.702 -0.2527 -1.4796 -2.1658
20373SOL     OW66954   5.558  10.059   4.407  0.3936 -0.2830 -0.1967
20373SOL    HW166955   5.604  10.044   4.325  2.2250  0.0983  0.7113
20373SOL    HW266956   5.482  10.001   4.403  0.8955 -0.8797 -1.7880
20374SOL     OW66957   1.770   0.404   6.217 -0.2879 -0.2313 -0.0784
20374SOL    HW166958   1.817   0.370   6.294  2.0901  0.3449 -1.1652
20374SOL    HW266959   1.796   0.345   6.146  0.0741  1.0329 -1.0300
20375SOL     OW66960  10.314   5.312   0.785 -0.4068 -0.5825  0.0640
20375SOL    HW166961  10.228   5.272   0.772 -1.2978  1.1458  0.2965
20375SOL    HW266962  10.368   5.242   0.822 -1.6992 -1.7089 -0.0944
20376SOL     OW66963   7.150   6.751   7.281  0.7542  0.2071 -0.3151
20376SOL    HW166964   7.097   6.684   7.238 -0.8307  0.1749  1.5594
20376SOL    HW266965   7.092   6.790   7.345  2.3643  1.7601  0.2790
20377SOL     OW66966   3.408   8.941   2.320  0.1887  0.5481  0.1183
20377SOL    HW166967   3.384   9.030   2.294  1.2759  0.8018 -0.0733
20377SOL    HW266968   3.352   8.922   2.396 -0.8836  0.9344 -0.5580
20378SOL     OW66969   8.276   9.496   6.423 -0.5897 -0.0142 -0.2865
20378SOL    HW166970   8.292   9.478   6.330 -1.2925  0.7494 -0.5688
20378SOL    HW266971   8.299   9.415   6.468 -2.2937 -1.1276 -1.3373
20379SOL     OW66972   0.597   1.258   0.414 -0.1870 -0.2079 -0.1292
20379SOL    HW166973   0.666   1.229   0.355 -1.0430  1.9128 -2.3874
20379SOL    HW266974   0.527   1.194   0.403  0.7917 -1.5433  1.0475
20380SOL     OW66975   1.127   9.000   9.780 -0.0793 -0.1751 -0.3446
20380SOL    HW166976   1.170   8.944   9.716  2.0231  1.6217 -0.6210
20380SOL    HW266977   1.068   9.056   9.729 -0.3223 -0.4468 -0.3654
20381SOL     OW66978   9.955   5.538   4.190  0.1340  0.3152  0.3977
20381SOL    HW166979  10.036   5.575   4.224  0.1246  1.1908 -0.5019
20381SOL    HW266980   9.953   5.449   4.225  1.9085 -0.0112 -0.2538
20382SOL     OW66981   1.257  10.636   0.038 -0.8961  0.1664 -0.3447
20382SOL    HW166982   1.189  10.666   0.098 -0.6093  1.1929 -0.5206
20382SOL    HW266983   1.278  10.712  -0.016  1.2403  0.2455  0.4869
20383SOL     OW66984   3.812   7.955   4.393  0.2393  0.2723 -0.4930
20383SOL    HW166985   3.856   7.881   4.352 -0.4599 -1.9695  2.4640
20383SOL    HW266986   3.842   8.031   4.343  4.3278 -1.5032 -1.1474
20384SOL     OW66987   4.581   3.183   5.407 -0.0536  0.1369  0.4946
20384SOL    HW166988   4.634   3.259   5.382  0.6152  0.0117  1.4517
20384SOL    HW266989   4.611   3.113   5.350 -1.2908  0.7754 -1.0096
20385SOL     OW66990   4.951   4.272   5.533 -0.5345 -0.3311 -0.6748
20385SOL    HW166991   4.985   4.360   5.516 -0.7297  0.0070  0.5731
20385SOL    HW266992   4.857   4.284   5.546 -0.6696 -0.8284 -1.1575
20386SOL     OW66993   4.930   8.730   1.097 -0.8068 -0.0320 -0.1577
20386SOL    HW166994   4.869   8.804   1.089 -0.1863  0.6128  0.8001
20386SOL    HW266995   5.001   8.752   1.037 -1.3702 -0.6554 -1.0779
20387SOL     OW66996   2.702   6.010   8.705  0.7848  0.0214 -0.0433
20387SOL    HW166997   2.700   6.075   8.634 -1.2744 -1.2846 -1.2677
20387SOL    HW266998   2.677   6.060   8.783 -1.6033  0.6095 -1.1013
20388SOL     OW66999  10.470   8.187   2.480 -0.2693 -0.0486 -0.5364
20388SOL    HW167000  10.393   8.237   2.505  0.7450  0.1794  2.6736
20388SOL    HW267001  10.471   8.112   2.540  0.9048 -1.1994 -1.8969
20389SOL     OW67002   5.497   4.419  10.295 -0.3796  0.0351  0.2908
20389SOL    HW167003   5.436   4.437  10.224 -0.5949  0.4581  0.5784
20389SOL    HW267004   5.459   4.343  10.340 -1.4876  1.1582  1.3401
20390SOL     OW67005   1.786   8.216   4.063 -0.3169 -0.0134 -0.4086
20390SOL    HW167006   1.849   8.148   4.087  1.0723  0.9675 -1.1638
20390SOL    HW267007   1.801   8.285   4.127 -0.3306  0.3953 -0.8461
20391SOL     OW67008   4.370   8.190   8.253 -0.6966 -0.1236  0.3622
20391SOL    HW167009   4.346   8.103   8.220 -0.0901 -0.5257  0.9440
20391SOL    HW267010   4.382   8.177   8.347 -2.6957  1.0638  0.8359
20392SOL     OW67011   4.651   2.568   2.598  0.6596  0.1401 -0.2159
20392SOL    HW167012   4.582   2.585   2.662  1.5264 -2.1050  1.4720
20392SOL    HW267013   4.731   2.599   2.640  1.0061  0.3910 -1.0522
20393SOL     OW67014   4.880   5.679   1.645  0.3211 -0.1111  0.2321
20393SOL    HW167015   4.956   5.737   1.641 -0.6941  1.2171 -0.7045
20393SOL    HW267016   4.804   5.737   1.638 -0.7652 -1.4959 -0.1273
20394SOL     OW67017   0.901   1.817   0.313 -0.4678  0.3339  0.0746
20394SOL    HW167018   0.851   1.804   0.394  1.1551  0.2629  1.0999
20394SOL    HW267019   0.916   1.912   0.309 -2.0808  0.5825 -1.1337
20395SOL     OW67020   3.124   7.602   7.252  0.0940  0.7680  0.1407
20395SOL    HW167021   3.196   7.644   7.299 -0.0514 -0.8027  1.8970
20395SOL    HW267022   3.123   7.644   7.166  3.1997  0.7189 -0.0014
20396SOL     OW67023   5.029   7.929   9.190  0.0821 -0.7585  0.0476
20396SOL    HW167024   5.002   8.020   9.207  1.2188 -0.1310 -1.3958
20396SOL    HW267025   4.958   7.893   9.138 -0.9194 -1.0959  1.5573
20397SOL     OW67026   1.152   2.943  10.627  0.2194 -0.6212 -0.2973
20397SOL    HW167027   1.132   2.901  10.710  0.1532 -1.4669 -0.7318
20397SOL    HW267028   1.116   3.031  10.635 -0.2939 -0.8885  0.3491
20398SOL     OW67029   1.572   0.411   3.784  0.1733 -0.3041  0.1657
20398SOL    HW167030   1.509   0.483   3.786 -0.6008 -0.9351 -0.4570
20398SOL    HW267031   1.631   0.434   3.712  1.8494  1.2139  1.9274
20399SOL     OW67032   0.579   5.574   4.373  0.7302 -0.3121 -0.7442
20399SOL    HW167033   0.670   5.544   4.377  0.8614 -0.0938 -1.9305
20399SOL    HW267034   0.570   5.633   4.448  1.5339 -0.4057 -0.5689
20400SOL     OW67035   2.429   6.301   1.510 -0.3384 -0.0025  0.3297
20400SOL    HW167036   2.367   6.350   1.456  0.2917  0.7669  0.2878
20400SOL    HW267037   2.467   6.236   1.450  1.2865  1.6615 -0.5339
20401SOL     OW67038   2.400   4.400   2.717  0.0576 -0.4167  0.1831
20401SOL    HW167039   2.341   4.362   2.652 -1.9897  2.8850 -0.1227
20401SOL    HW267040   2.431   4.481   2.677 -0.4374  1.2223  2.8187
20402SOL     OW67041   7.232   2.216   8.300  0.1046  0.0871 -0.1919
20402SOL    HW167042   7.222   2.219   8.204 -1.7542  0.9604 -0.0121
20402SOL    HW267043   7.287   2.292   8.320  1.7227 -0.9167 -0.6538
20403SOL     OW67044   7.830   1.850   8.056  0.1247  0.0223 -0.0307
20403SOL    HW167045   7.789   1.927   8.017  1.7184 -0.4486 -2.9308
20403SOL    HW267046   7.765   1.780   8.045 -0.0803  0.2693 -0.4104
20404SOL     OW67047   1.040   9.806  10.395  0.0692  0.4928 -0.3142
20404SOL    HW167048   0.957   9.761  10.412  0.8955 -1.7343 -1.7790
20404SOL    HW267049   1.102   9.765  10.455  0.0773  2.6109  1.2575
20405SOL     OW67050   6.066   0.389   9.985  0.8444  0.0991  0.3991
20405SOL    HW167051   6.044   0.457  10.050  0.2377  2.0635 -1.7383
20405SOL    HW267052   5.982   0.361   9.949  1.2003 -0.6120  0.0984
20406SOL     OW67053   5.559   8.098   6.502 -0.4087  0.5541  0.0393
20406SOL    HW167054   5.548   8.139   6.588  0.1051 -2.1545  1.5173
20406SOL    HW267055   5.591   8.169   6.446  2.0697  1.8270  2.7780
20407SOL     OW67056   8.561   9.950   5.692 -0.3485 -0.1776  0.5921
20407SOL    HW167057   8.656   9.965   5.685 -0.5906  0.9726 -0.6030
20407SOL    HW267058   8.551   9.856   5.677  0.6195 -0.3572  0.9512
20408SOL     OW67059   9.314   2.295   1.640  0.0685  0.3399  0.2130
20408SOL    HW167060   9.231   2.298   1.688  0.2736 -0.3110  0.6156
20408SOL    HW267061   9.377   2.259   1.702  0.8007  1.3755  0.0995
20409SOL     OW67062   5.241   2.178  10.231 -0.0523 -0.5664  0.1544
20409SOL    HW167063   5.213   2.087  10.242 -0.7059 -0.3244  0.5555
20409SOL    HW267064   5.214   2.200  10.142 -2.0918 -0.0375  0.8388
20410SOL     OW67065   4.290  10.204   4.694  0.1508 -0.4172  0.7489
20410SOL    HW167066   4.353  10.274   4.681 -1.9175  1.4691  0.2013
20410SOL    HW267067   4.276  10.166   4.607 -1.4137  1.0317  0.3083
20411SOL     OW67068   4.606   0.404   4.283  0.1324  0.3021 -0.7899
20411SOL    HW167069   4.512   0.416   4.272  0.2224  0.2730 -1.6575
20411SOL    HW267070   4.614   0.342   4.356 -0.5153  0.2274 -0.7749
20412SOL     OW67071  10.083   2.043   8.219  0.0313  0.3275 -0.1609
20412SOL    HW167072   9.993   2.023   8.193  0.9198 -0.9517 -2.6024
20412SOL    HW267073  10.081   2.042   8.314 -2.8824  2.2052 -0.0864
20413SOL     OW67074   4.257   4.399   5.349 -0.1677 -0.0042 -0.2349
20413SOL    HW167075   4.271   4.475   5.291 -3.0013  0.1537 -0.8572
20413SOL    HW267076   4.194   4.430   5.414  0.8510 -1.0210  1.2876
20414SOL     OW67077   4.927   0.245   8.698  0.3268 -0.2138 -0.0227
20414SOL    HW167078   4.836   0.251   8.669  0.2652  1.2666  0.4034
20414SOL    HW267079   4.951   0.154   8.683 -0.9907 -0.4481 -0.8373
20415SOL     OW67080   8.234   6.615   7.786  0.2028 -0.1332 -0.2979
20415SOL    HW167081   8.179   6.570   7.721 -0.8485  0.4473  0.1741
20415SOL    HW267082   8.190   6.599   7.869 -0.2928  1.8740 -0.1242
20416SOL     OW67083  10.612   0.279   9.587  0.2646 -0.1762 -0.0162
20416SOL    HW167084  10.608   0.233   9.671  2.0809  0.3422  0.3910
20416SOL    HW267085  10.632   0.211   9.523  4.1630  0.0585  0.7441
20417SOL     OW67086   6.836   4.616   2.768 -0.5163  0.1198  0.3272
20417SOL    HW167087   6.766   4.635   2.831 -1.0208  0.1431 -0.2388
20417SOL    HW267088   6.905   4.575   2.821 -1.3681 -0.8488  0.7066
20418SOL     OW67089   1.399   7.505   9.131 -0.1740 -0.4585 -0.4983
20418SOL    HW167090   1.388   7.480   9.039 -2.6016 -1.0824 -0.1127
20418SOL    HW267091   1.485   7.470   9.155  0.6574 -0.0084 -2.5832
20419SOL     OW67092   8.974   6.834  10.690 -0.4061 -0.1790 -0.0299
20419SOL    HW167093   9.069   6.843  10.682 -0.3225 -0.3201  0.7507
20419SOL    HW267094   8.939   6.912  10.648 -0.0052 -0.8316 -1.6484
20420SOL     OW67095  10.496   5.691   0.270  0.0033  0.8108 -0.3827
20420SOL    HW167096  10.590   5.685   0.253  0.3604 -0.9575  1.6966
20420SOL    HW267097  10.487   5.768   0.326  0.1918  1.0698 -0.7074
20421SOL     OW67098   0.845   2.753   2.790  0.6648  0.1729  0.3420
20421SOL    HW167099   0.842   2.733   2.697 -1.3372 -2.9355  0.9148
20421SOL    HW267100   0.784   2.826   2.801 -1.5165 -1.4142 -0.5067
20422SOL     OW67101   9.064   4.459   7.329 -0.4710  0.2663  0.6285
20422SOL    HW167102   9.018   4.497   7.255  0.0909  0.1741  0.2312
20422SOL    HW267103   9.122   4.528   7.360 -0.0670  0.0149  0.4338
20423SOL     OW67104   4.258   5.686   4.628 -0.3444 -0.5476  0.0616
20423SOL    HW167105   4.189   5.685   4.562  1.9183 -1.2994 -2.5385
20423SOL    HW267106   4.244   5.606   4.678 -1.2900 -0.7448 -0.4901
20424SOL     OW67107   5.685   7.723   1.800 -0.0739  0.2410 -0.3442
20424SOL    HW167108   5.620   7.792   1.812  0.2388  0.9285 -2.2222
20424SOL    HW267109   5.769   7.766   1.817  0.0120 -0.2526  0.5620
20425SOL     OW67110   5.351   0.603   2.211 -0.6660  0.8104  0.0369
20425SOL    HW167111   5.271   0.555   2.232 -1.3806  1.7749 -0.4220
20425SOL    HW267112   5.366   0.661   2.285  0.4294 -0.3602  0.7829
20426SOL     OW67113   0.828   2.653   9.836 -0.0981  0.0376 -0.2562
20426SOL    HW167114   0.872   2.569   9.833  0.4186  0.2814  0.3726
20426SOL    HW267115   0.898   2.718   9.844 -0.4773  0.5457 -0.8763
20427SOL     OW67116   8.309   4.946   4.113  0.2191  0.1871  0.3052
20427SOL    HW167117   8.226   4.933   4.068  0.4639  0.6651 -0.2872
20427SOL    HW267118   8.358   5.007   4.058  1.2229 -0.5896  0.3089
20428SOL     OW67119   6.757   3.541   0.281 -0.1067  0.0021  0.2645
20428SOL    HW167120   6.815   3.468   0.303 -0.9248 -0.3358  1.4001
20428SOL    HW267121   6.794   3.616   0.327 -1.8993 -0.7337  3.1649
20429SOL     OW67122   1.447   4.942   2.969 -0.0527  0.2579 -0.5773
20429SOL    HW167123   1.359   4.934   2.933  0.0619 -0.6043 -0.6779
20429SOL    HW267124   1.495   4.990   2.902 -0.3504  0.4073 -0.6860
20430SOL     OW67125   5.120   8.514   7.703  0.2542 -0.0567 -0.3228
20430SOL    HW167126   5.136   8.424   7.675  0.2064 -0.2079  0.1205
20430SOL    HW267127   5.041   8.539   7.656  0.1096 -0.3449 -0.2383
20431SOL     OW67128   8.394   0.989  10.541 -0.5273 -0.7109  0.2168
20431SOL    HW167129   8.378   0.990  10.636  0.2534 -0.9570  0.3547
20431SOL    HW267130   8.489   0.984  10.533 -0.6006 -0.8694 -0.5854
20432SOL     OW67131   3.503   7.782   6.181  0.1067 -0.1650  0.4295
20432SOL    HW167132   3.596   7.804   6.178 -0.3005  1.6817 -0.0615
20432SOL    HW267133   3.485   7.767   6.274  0.9841 -1.0356  0.4725
20433SOL     OW67134   5.054   3.480   5.895 -0.1231  0.4089  0.5351
20433SOL    HW167135   5.113   3.412   5.926  1.2977  0.9310 -0.9024
20433SOL    HW267136   4.995   3.435   5.835  0.5622  0.3707 -0.1119
20434SOL     OW67137   7.291   9.979   2.144  0.3028  0.1997 -0.7580
20434SOL    HW167138   7.272   9.885   2.139 -0.5775  0.4149 -2.8477
20434SOL    HW267139   7.370   9.990   2.090  1.0958  0.5270  0.4428
20435SOL     OW67140   7.842   4.784   9.950 -0.1584  0.4237 -0.2520
20435SOL    HW167141   7.876   4.718   9.889 -0.1156  0.3684 -0.1694
20435SOL    HW267142   7.753   4.801   9.920 -1.4495 -2.1561  1.6782
20436SOL     OW67143   3.404  10.484   9.478 -0.0818  0.2443  0.1105
20436SOL    HW167144   3.422  10.578   9.482  0.8788  0.2561 -2.4417
20436SOL    HW267145   3.311  10.478   9.457 -0.3698  0.5893  1.2670
20437SOL     OW67146   6.747   5.515  10.143  0.3528 -0.3002 -0.2921
20437SOL    HW167147   6.842   5.526  10.156  0.4118 -0.5738 -0.4879
20437SOL    HW267148   6.720   5.455  10.212  0.1941  0.3301  0.2010
20438SOL     OW67149   6.905   2.601  10.207 -0.1035  0.0582  0.2291
20438SOL    HW167150   6.951   2.542  10.147  1.3802  1.1261  0.2528
20438SOL    HW267151   6.922   2.566  10.294 -0.3047 -0.1907  0.1690
20439SOL     OW67152   2.531   1.591   0.940  0.2147 -0.2578  0.4399
20439SOL    HW167153   2.567   1.660   0.885 -2.3132 -0.4139 -1.6023
20439SOL    HW267154   2.442   1.620   0.961 -0.4666 -2.2565  0.6119
20440SOL     OW67155   2.944   9.054   3.418 -0.0770 -0.3611  0.2297
20440SOL    HW167156   2.971   9.054   3.327  0.5548 -1.7076  0.3932
20440SOL    HW267157   3.000   8.989   3.460 -0.2481  0.3479  1.6171
20441SOL     OW67158   0.857   7.705   0.334  0.3006  0.1298  0.2091
20441SOL    HW167159   0.874   7.652   0.412 -0.1486  0.6256  0.6539
20441SOL    HW267160   0.882   7.794   0.360 -1.7011  0.6624  0.4711
20442SOL     OW67161   0.474   3.278   0.226 -0.1177  0.0225  0.2842
20442SOL    HW167162   0.569   3.289   0.224 -0.2380  2.0296  1.9961
20442SOL    HW267163   0.454   3.226   0.148  2.4395 -1.1905  0.3307
20443SOL     OW67164   7.814   2.904   1.038  0.1024  0.8353  0.6206
20443SOL    HW167165   7.852   2.840   0.977  1.2663  0.8578  1.2939
20443SOL    HW267166   7.889   2.940   1.085 -0.2015  4.2321 -1.1431
20444SOL     OW67167   0.172   5.153   2.765 -0.5741 -0.1147 -0.0030
20444SOL    HW167168   0.177   5.246   2.786  0.9416 -0.6628  2.4667
20444SOL    HW267169   0.125   5.115   2.840 -0.6446 -1.4231 -0.6901
20445SOL     OW67170   9.723   0.578   6.637  0.0191  0.4106  0.3891
20445SOL    HW167171   9.746   0.562   6.728  0.1978  0.3253  0.3281
20445SOL    HW267172   9.627   0.574   6.636 -0.0230  1.2135  0.7253
20446SOL     OW67173   7.384   9.608   3.522  0.1691  0.0790  0.6303
20446SOL    HW167174   7.309   9.623   3.465  0.2952 -0.1829  0.3957
20446SOL    HW267175   7.409   9.696   3.552 -0.9096  0.0813  1.5880
20447SOL     OW67176   2.792   9.830   9.017  0.1487  0.0082  0.6131
20447SOL    HW167177   2.862   9.773   9.049 -0.1978 -1.2372 -0.7591
20447SOL    HW267178   2.712   9.779   9.031 -0.4574  1.1896  1.6513
20448SOL     OW67179   0.100   4.609   4.184  0.3299 -0.4929 -0.2243
20448SOL    HW167180   0.010   4.604   4.216  0.7515  0.7419  1.2678
20448SOL    HW267181   0.091   4.621   4.089 -1.0294 -1.7350 -0.2845
20449SOL     OW67182   4.167   2.536   6.893 -0.2534 -0.1365 -0.1806
20449SOL    HW167183   4.139   2.461   6.945 -2.7159  1.1424  0.4712
20449SOL    HW267184   4.233   2.579   6.947 -1.8551  0.4547  1.3704
20450SOL     OW67185   6.666   5.928   2.604 -0.0282 -0.2457  0.1705
20450SOL    HW167186   6.599   5.982   2.562  1.1564  0.1823 -1.2944
20450SOL    HW267187   6.640   5.838   2.586 -1.4912 -0.1698  1.7570
20451SOL     OW67188   2.802   7.710   5.649  0.1773  0.1212 -0.2294
20451SOL    HW167189   2.829   7.630   5.694  1.0327 -0.9863 -2.5456
20451SOL    HW267190   2.862   7.777   5.682  0.9930 -0.7195  0.0554
20452SOL     OW67191   1.804   1.341   1.363 -0.0445  0.2087 -0.5494
20452SOL    HW167192   1.788   1.422   1.314  0.5134  0.4767 -0.2928
20452SOL    HW267193   1.893   1.315   1.340  0.7576  1.0703  1.3236
20453SOL     OW67194   1.540   1.297   6.706  0.1202  0.1199 -0.1908
20453SOL    HW167195   1.508   1.303   6.617  0.9863  0.0889 -0.5132
20453SOL    HW267196   1.529   1.385   6.743  0.4376  0.3224 -0.5725
20454SOL     OW67197   0.487   4.917   6.574 -0.2558  0.2239  0.3280
20454SOL    HW167198   0.505   4.853   6.505 -0.0839  0.4375  0.1743
20454SOL    HW267199   0.403   4.956   6.548 -0.0630  0.4861  0.1061
20455SOL     OW67200   9.937   2.832   9.209  0.0876 -0.2230  0.0477
20455SOL    HW167201   9.861   2.774   9.211 -0.1965  0.1646  0.6700
20455SOL    HW267202   9.975   2.824   9.296  1.3897 -1.2332 -0.5722
20456SOL     OW67203   2.265   5.211   8.909  0.2330  0.2410 -0.0143
20456SOL    HW167204   2.264   5.232   8.816  1.0189 -1.3264 -0.4055
20456SOL    HW267205   2.197   5.145   8.920  0.6950 -0.1728  0.3708
20457SOL     OW67206   7.813   1.879   3.133 -0.2979 -0.0534  0.0095
20457SOL    HW167207   7.879   1.936   3.092 -0.9165  0.5469 -0.1863
20457SOL    HW267208   7.730   1.922   3.112 -0.8138 -1.2807 -0.5159
20458SOL     OW67209   4.870   8.592   3.572 -0.2503 -0.0006 -0.2767
20458SOL    HW167210   4.910   8.579   3.658 -1.0843  0.6928  0.2329
20458SOL    HW267211   4.821   8.512   3.556  2.3380 -1.4898 -1.5384
20459SOL     OW67212   4.506   8.505   5.759  0.5598  0.5873 -0.5099
20459SOL    HW167213   4.565   8.485   5.687 -1.1169 -0.2868 -1.6935
20459SOL    HW267214   4.483   8.597   5.747  1.9513  1.0531  0.2013
20460SOL     OW67215   0.598   0.016   1.214 -0.3376 -0.0378 -0.0401
20460SOL    HW167216   0.540   0.086   1.244  0.4161 -0.3742  2.5103
20460SOL    HW267217   0.580  -0.056   1.274  1.3820 -0.7896 -0.3703
20461SOL     OW67218   1.439   7.340   0.099  0.3022 -0.5632 -0.0803
20461SOL    HW167219   1.373   7.409   0.090  0.9008  0.2738  1.4884
20461SOL    HW267220   1.400   7.278   0.160 -0.5730 -2.1271 -2.1005
20462SOL     OW67221   6.039   2.573  10.469 -0.8280  0.4143  0.3400
20462SOL    HW167222   6.131   2.596  10.452 -0.5886  0.4419  1.6035
20462SOL    HW267223   5.994   2.657  10.477 -0.9261  0.4009 -0.0371
20463SOL     OW67224   7.223   2.806   5.971 -0.0220 -0.1691  0.4225
20463SOL    HW167225   7.149   2.748   5.986 -0.9805  0.5207 -1.3251
20463SOL    HW267226   7.274   2.763   5.902  1.4532 -0.8106  1.8443
20464SOL     OW67227   5.102   1.329   6.170 -0.0337 -0.4102  0.9143
20464SOL    HW167228   5.025   1.316   6.225 -0.6680 -1.5205 -0.1730
20464SOL    HW267229   5.177   1.321   6.230 -0.7232 -0.6678  1.7554
20465SOL     OW67230   3.686   8.079   7.545  0.4150 -0.3596 -0.1189
20465SOL    HW167231   3.669   8.092   7.638  0.3632  0.6723 -0.2641
20465SOL    HW267232   3.781   8.074   7.539  0.4668  0.5479 -0.1253
20466SOL     OW67233   5.659   4.464   5.974 -0.0343 -0.4436  0.3593
20466SOL    HW167234   5.574   4.433   5.944 -0.8035 -0.5834  2.5381
20466SOL    HW267235   5.709   4.385   5.992 -0.0247 -0.3795  0.6236
20467SOL     OW67236   1.917   7.906   5.966  0.3815  0.9442 -0.1331
20467SOL    HW167237   1.982   7.911   5.895 -0.6040 -0.2703 -1.1602
20467SOL    HW267238   1.914   7.814   5.989 -1.2583  0.9102 -0.3833
20468SOL     OW67239   2.697   5.643   1.385 -0.0229  0.8520  0.6729
20468SOL    HW167240   2.786   5.658   1.352 -0.5217 -0.9654 -1.7971
20468SOL    HW267241   2.641   5.694   1.327 -0.8421 -1.4223 -0.6796
20469SOL     OW67242   6.042   7.887   0.537 -0.3908 -0.1287  0.2179
20469SOL    HW167243   6.042   7.832   0.616 -1.5952 -0.5262 -0.0426
20469SOL    HW267244   5.955   7.928   0.536  0.4210  1.6947  0.3265
20470SOL     OW67245   1.537   4.437   7.360 -0.0029  0.3395 -0.0100
20470SOL    HW167246   1.621   4.414   7.400  0.0657  0.3014 -0.1727
20470SOL    HW267247   1.523   4.529   7.384 -0.8596 -0.1980  1.6428
20471SOL     OW67248   2.615   6.266   4.995 -0.2051 -0.1466 -0.4552
20471SOL    HW167249   2.562   6.201   4.949 -3.0428  1.4864  0.2523
20471SOL    HW267250   2.596   6.348   4.950  0.7244  0.7212  0.6791
20472SOL     OW67251  10.215   2.152   6.969  0.6352  0.0850  0.3478
20472SOL    HW167252  10.168   2.070   6.979 -0.2380  0.4380 -0.6703
20472SOL    HW267253  10.160   2.217   7.014  0.1893  0.4757 -0.7255
20473SOL     OW67254   5.233   1.391   9.478 -0.0600  0.9546 -0.1972
20473SOL    HW167255   5.253   1.411   9.570  1.4627  1.8977 -0.6805
20473SOL    HW267256   5.185   1.309   9.481 -0.5640  1.2650  1.4810
20474SOL     OW67257   5.147   3.978   0.483 -0.0968 -0.3269  0.0043
20474SOL    HW167258   5.192   3.928   0.414  1.0224  0.0419  0.4433
20474SOL    HW267259   5.089   4.037   0.436  0.9705  0.2261 -0.6678
20475SOL     OW67260   9.251   8.665   5.535 -0.7040  0.4058 -0.2779
20475SOL    HW167261   9.197   8.604   5.486 -2.8751  1.0631  1.1110
20475SOL    HW267262   9.214   8.663   5.624 -0.3955  3.1422 -0.0067
20476SOL     OW67263   9.905   4.923   2.205 -0.1881 -0.3249  0.2732
20476SOL    HW167264   9.970   4.858   2.232  0.8472  1.1127  1.3324
20476SOL    HW267265   9.881   4.896   2.116  0.6008 -1.8405  0.4807
20477SOL     OW67266   4.729   6.303   8.991  0.1445  0.1331  0.1413
20477SOL    HW167267   4.801   6.252   8.955 -0.2747  0.0535 -0.6104
20477SOL    HW267268   4.671   6.238   9.031 -0.6535 -0.0798 -1.2732
20478SOL     OW67269   7.296   8.250   4.191  0.0704 -0.2945 -0.6747
20478SOL    HW167270   7.289   8.163   4.151 -1.5576 -1.4810  1.9352
20478SOL    HW267271   7.387   8.256   4.220  0.1362 -1.2348 -0.6656
20479SOL     OW67272  10.214   3.725   6.531 -0.6355  0.1355  0.3666
20479SOL    HW167273  10.248   3.636   6.542  1.9340  0.9422 -0.3094
20479SOL    HW267274  10.232   3.768   6.615 -0.9137  0.3005  0.3423
20480SOL     OW67275   7.304   7.545   2.712 -0.3121 -0.2938 -0.2418
20480SOL    HW167276   7.354   7.582   2.784 -1.6201  2.0161 -0.4096
20480SOL    HW267277   7.223   7.596   2.711 -1.3262 -1.8339 -1.8866
20481SOL     OW67278   3.389   7.660   2.151  0.2024 -0.0959  0.4491
20481SOL    HW167279   3.412   7.745   2.190 -1.8444  1.4891 -1.5293
20481SOL    HW267280   3.473   7.624   2.123  1.0987  1.5174  0.8986
20482SOL     OW67281   2.650   9.743   4.842  0.0403 -0.1161 -0.9095
20482SOL    HW167282   2.684   9.662   4.880  2.6867  1.2425 -0.1051
20482SOL    HW267283   2.695   9.812   4.891 -1.2448  1.8246 -2.3524
20483SOL     OW67284   0.571   5.897   3.493 -0.7975  0.0488 -0.5881
20483SOL    HW167285   0.562   5.929   3.404 -1.4653  0.3471 -0.4211
20483SOL    HW267286   0.590   5.804   3.483  0.2638  0.3028 -1.0560
20484SOL     OW67287   7.136   8.975   2.660 -0.0781  0.4560 -0.5643
20484SOL    HW167288   7.051   8.953   2.623  0.3093 -0.4863 -0.9270
20484SOL    HW267289   7.152   9.066   2.633 -0.0170 -0.0511 -2.3197
20485SOL     OW67290   0.534   4.371   4.777 -0.2437  0.5192 -0.3821
20485SOL    HW167291   0.525   4.456   4.819 -0.5414  1.3746 -2.0853
20485SOL    HW267292   0.468   4.372   4.707 -2.2239 -2.2011  1.2319
20486SOL     OW67293   9.276   1.922   0.232  0.4249  0.0572 -0.0116
20486SOL    HW167294   9.227   1.982   0.175 -0.8065  1.0679  2.0104
20486SOL    HW267295   9.231   1.838   0.221  0.4210  0.1518 -0.7770
20487SOL     OW67296   2.465   7.901   6.061 -0.1194 -0.3002 -0.2222
20487SOL    HW167297   2.378   7.869   6.040 -0.9503  0.7085  1.4216
20487SOL    HW267298   2.450   7.969   6.128  1.8866  0.1984 -0.2068
20488SOL     OW67299   0.411   0.045  10.252  0.3436 -0.2548  0.6683
20488SOL    HW167300   0.445   0.134  10.262 -0.3484  0.4030 -2.0834
20488SOL    HW267301   0.345   0.038  10.321  0.9873  1.0533  1.4733
20489SOL     OW67302   9.117   8.779   4.465  0.1836  1.0783 -0.3761
20489SOL    HW167303   9.034   8.759   4.422  0.4260 -0.0180 -0.3484
20489SOL    HW267304   9.183   8.773   4.395  0.3558  1.0169 -0.2108
20490SOL     OW67305   2.794   9.943   5.038  0.0708 -0.9349  0.6987
20490SOL    HW167306   2.848  10.004   5.088  0.6288  1.0295 -2.0604
20490SOL    HW267307   2.704   9.964   5.063  0.3425 -0.0509  0.9439
20491SOL     OW67308   3.204   1.685   8.978  0.0567  0.3590 -0.4210
20491SOL    HW167309   3.111   1.667   8.988 -0.3960  3.0303  1.0398
20491SOL    HW267310   3.240   1.677   9.066  0.5130  2.5253 -0.3625
20492SOL     OW67311   8.206   2.700   9.536 -0.0544  0.5552  0.0901
20492SOL    HW167312   8.110   2.697   9.539 -0.1637 -0.9883 -2.1385
20492SOL    HW267313   8.226   2.782   9.491 -0.4239  0.1635 -0.8062
20493SOL     OW67314   5.338   4.948   4.483 -0.0579  0.2437  0.3711
20493SOL    HW167315   5.321   4.861   4.448  1.4912  1.1240 -2.9866
20493SOL    HW267316   5.408   4.936   4.547 -0.4387 -1.0267  0.5675
20494SOL     OW67317   2.312   0.985   3.228 -0.0527 -0.1107 -0.4649
20494SOL    HW167318   2.359   1.035   3.295  0.1257 -0.4995 -0.2932
20494SOL    HW267319   2.380   0.937   3.181 -0.2627 -0.6480 -0.2400
20495SOL     OW67320   0.618   1.679   9.023  0.1810 -0.1707 -0.1642
20495SOL    HW167321   0.625   1.709   8.933  0.3490  1.1569  0.2608
20495SOL    HW267322   0.689   1.615   9.033  0.3416 -0.1148 -0.8904
20496SOL     OW67323   4.746   3.489   2.773  0.0651 -0.3397 -0.4082
20496SOL    HW167324   4.761   3.402   2.808 -0.5896 -0.6412 -0.8603
20496SOL    HW267325   4.675   3.478   2.709  0.0882  0.4882 -0.5937
20497SOL     OW67326   8.212   7.656   3.142  0.1718 -0.2213  0.0153
20497SOL    HW167327   8.237   7.643   3.234  0.6127 -0.7410 -0.1759
20497SOL    HW267328   8.269   7.728   3.112  0.3723 -0.3794  0.0135
20498SOL     OW67329  10.645   4.835   0.966 -0.5729  0.4710 -0.2275
20498SOL    HW167330  10.643   4.856   0.873  0.4122 -1.8938 -0.8579
20498SOL    HW267331  10.591   4.757   0.975  1.1485 -0.6901  0.7376
20499SOL     OW67332   7.896   4.401   0.273  0.7655 -0.6975 -0.2658
20499SOL    HW167333   7.987   4.382   0.294  0.2066 -2.0817  1.0217
20499SOL    HW267334   7.878   4.483   0.319  1.1358 -0.8371  0.1373
20500SOL     OW67335   1.819  10.535   5.454  0.4972 -0.3967  0.4634
20500SOL    HW167336   1.889  10.492   5.406  0.7212  0.1331  0.3050
20500SOL    HW267337   1.863  10.577   5.528 -0.0629 -2.7415  2.2488
20501SOL     OW67338   6.796   9.448   8.258 -0.0125 -0.3533 -0.0973
20501SOL    HW167339   6.811   9.387   8.330 -0.8475 -0.2602  0.1700
20501SOL    HW267340   6.712   9.420   8.220  0.5233 -0.5391 -1.1787
20502SOL     OW67341   6.353   2.119   7.476 -0.1359 -0.4979 -0.4021
20502SOL    HW167342   6.321   2.083   7.393  0.3762  1.7593 -1.6569
20502SOL    HW267343   6.281   2.104   7.538 -0.6970 -1.8426 -1.3261
20503SOL     OW67344   6.639   6.554   4.331 -0.2400 -0.0882  0.1313
20503SOL    HW167345   6.571   6.614   4.302 -0.1088 -0.9277 -2.1202
20503SOL    HW267346   6.609   6.468   4.302  0.1822 -0.9769  2.1566
20504SOL     OW67347   0.409   8.696   1.608  0.3494  0.0890 -0.2102
20504SOL    HW167348   0.447   8.780   1.579 -0.9978 -0.0458 -2.6875
20504SOL    HW267349   0.315   8.708   1.599  0.0438 -1.1820  1.0090
20505SOL     OW67350   0.505   2.462  10.670 -0.2275 -0.0454 -0.1625
20505SOL    HW167351   0.487   2.546  10.712  0.7538  0.3743 -0.5448
20505SOL    HW267352   0.420   2.418  10.665 -0.5586  0.4022  1.1467
20506SOL     OW67353  10.498  10.130   5.745 -0.7107 -0.2177  1.0124
20506SOL    HW167354  10.545  10.140   5.828 -0.8380 -1.1997  1.2083
20506SOL    HW267355  10.557  10.079   5.689  0.3964  2.3867 -0.3607
20507SOL     OW67356   4.419   9.758   9.733  0.5954 -0.0692  0.0628
20507SOL    HW167357   4.359   9.758   9.808 -1.3962  0.0124 -1.4654
20507SOL    HW267358   4.481   9.828   9.753  3.0224 -2.8098  3.7130
20508SOL     OW67359   5.503   6.401   7.939  0.3980 -0.1887 -0.1058
20508SOL    HW167360   5.548   6.381   7.857 -1.0698  0.9193 -1.2352
20508SOL    HW267361   5.410   6.403   7.916 -0.3518 -2.3987  2.1279
20509SOL     OW67362   6.003   9.851   6.568  0.2493 -0.0584 -0.8154
20509SOL    HW167363   6.094   9.836   6.544  0.0489 -1.0037 -1.0412
20509SOL    HW267364   5.985   9.787   6.637 -0.3975 -0.2714 -1.1722
20510SOL     OW67365   8.925   2.021   1.260  0.2574 -0.5685  0.0435
20510SOL    HW167366   8.877   2.050   1.337  2.2187 -1.3382  1.6759
20510SOL    HW267367   8.995   2.086   1.250 -0.9308  0.4552 -2.1741
20511SOL     OW67368   1.635   9.142   0.452 -0.1881 -0.0479 -0.4959
20511SOL    HW167369   1.631   9.055   0.412  1.2531 -0.6897  0.6471
20511SOL    HW267370   1.709   9.137   0.513 -0.0300  2.0061 -0.4396
20512SOL     OW67371   9.460   7.255   2.787  0.4247  0.1950 -0.1150
20512SOL    HW167372   9.500   7.251   2.873 -0.0974  2.5761  0.2859
20512SOL    HW267373   9.459   7.164   2.757  0.8511 -0.6488  2.2542
20513SOL     OW67374   3.945   2.848   1.962  0.3415 -0.1202 -0.3125
20513SOL    HW167375   3.958   2.754   1.978  2.6020 -0.0923 -1.4677
20513SOL    HW267376   3.894   2.852   1.881 -1.2835 -0.3078  0.6715
20514SOL     OW67377   5.905   3.959   1.685  0.5907  0.0043  0.4965
20514SOL    HW167378   5.959   3.894   1.728  0.6492  0.0497  0.4915
20514SOL    HW267379   5.932   4.043   1.724 -1.5914 -0.2191  2.7997
20515SOL     OW67380   6.791  10.657   1.468  0.5022 -0.2092  0.1109
20515SOL    HW167381   6.810  10.593   1.537  2.4997 -0.7274 -0.8409
20515SOL    HW267382   6.874  10.703   1.455 -0.2427  0.9043 -0.9301
20516SOL     OW67383   0.553   2.293   7.716  0.7094  0.1504  0.7681
20516SOL    HW167384   0.546   2.363   7.780 -0.4030  1.4245 -0.6656
20516SOL    HW267385   0.645   2.294   7.689  1.3702 -0.8682  2.7438
20517SOL     OW67386   9.921   9.909   5.938 -0.3233  0.5738  0.0053
20517SOL    HW167387   9.984   9.857   5.887 -1.1541 -0.0132 -0.4485
20517SOL    HW267388   9.848   9.923   5.878 -0.5260  1.4532  0.4492
20518SOL     OW67389   4.265   5.678   9.935 -0.5253 -0.0593 -0.0052
20518SOL    HW167390   4.328   5.671   9.863  0.6376  0.1019  0.9693
20518SOL    HW267391   4.233   5.589   9.947  2.0253 -0.8592  1.6393
20519SOL     OW67392   2.650  10.088   5.550  0.1281  0.2918 -0.0139
20519SOL    HW167393   2.558  10.114   5.554 -0.4476 -1.6989  1.7212
20519SOL    HW267394   2.674  10.070   5.641  1.7803 -0.6319 -0.5877
20520SOL     OW67395   3.643   7.568   3.833  0.3148  0.3671 -0.3468
20520SOL    HW167396   3.629   7.579   3.739  0.0317  0.5424 -0.2831
20520SOL    HW267397   3.657   7.474   3.844  0.6432  0.3827 -0.6036
20521SOL     OW67398   2.115   0.174   3.771 -0.3275 -0.0574  0.0402
20521SOL    HW167399   2.128   0.268   3.784 -0.4041 -0.0012 -0.2797
20521SOL    HW267400   2.021   0.163   3.766 -0.3319 -0.1981  0.4027
20522SOL     OW67401   4.137   6.029   4.206 -0.5424 -0.0498  1.1282
20522SOL    HW167402   4.096   6.081   4.137 -1.0711 -0.9673  0.7184
20522SOL    HW267403   4.124   5.938   4.178  3.2344 -0.4352  0.1172
20523SOL     OW67404   6.787   5.144   0.827 -0.0598 -0.0439  0.2937
20523SOL    HW167405   6.760   5.229   0.862  0.2607  0.7344 -1.2301
20523SOL    HW267406   6.716   5.119   0.768 -0.2807 -0.9795  0.9458
20524SOL     OW67407   6.787   5.778   9.859 -0.2904 -0.2181 -0.9844
20524SOL    HW167408   6.791   5.826   9.941 -1.4673  0.0093 -1.0492
20524SOL    HW267409   6.856   5.712   9.866  0.7926  0.9149 -0.5484
20525SOL     OW67410   5.830  10.213   5.031  0.4100  0.0809  0.3673
20525SOL    HW167411   5.883  10.273   5.084 -0.9711  0.8871  0.8796
20525SOL    HW267412   5.761  10.268   4.994  0.9949 -0.5730 -1.8622
20526SOL     OW67413   7.392   7.230   8.291 -0.4293  0.0817  0.4375
20526SOL    HW167414   7.362   7.141   8.308  1.1916 -0.4155  0.8874
20526SOL    HW267415   7.338   7.285   8.347 -0.0172 -0.8371  1.7742
20527SOL     OW67416   8.001   6.523   4.418 -0.0537 -0.0432  0.2880
20527SOL    HW167417   7.960   6.463   4.355 -0.4022 -0.3659  0.8143
20527SOL    HW267418   8.057   6.466   4.471 -3.4245 -0.7884  3.5168
20528SOL     OW67419   4.028   7.824   5.194 -0.4761  0.0935 -0.5387
20528SOL    HW167420   4.005   7.820   5.102 -0.0006  0.2032 -0.6658
20528SOL    HW267421   4.022   7.917   5.217  0.9619  0.2911 -0.8758
20529SOL     OW67422   3.443   0.718   1.605 -0.4175 -0.0942 -0.2710
20529SOL    HW167423   3.433   0.762   1.689  0.7923  0.0308 -0.1843
20529SOL    HW267424   3.354   0.689   1.583 -0.5304 -1.6036  1.8453
20530SOL     OW67425   8.764   8.969   8.228 -0.4278  0.0927 -0.0453
20530SOL    HW167426   8.828   8.942   8.162 -0.0108 -2.5635  1.3189
20530SOL    HW267427   8.802   9.047   8.268  0.9276 -0.2007 -0.6963
20531SOL     OW67428   0.786   5.923   3.675 -0.1843  0.0957 -0.5910
20531SOL    HW167429   0.836   6.004   3.667  0.3767 -0.2929 -1.1505
20531SOL    HW267430   0.725   5.926   3.601  0.6926 -0.5544 -1.3782
20532SOL     OW67431   4.964   8.082  10.458 -0.1630  0.0916  0.2530
20532SOL    HW167432   4.918   8.138  10.395  1.7213  0.7905 -0.5552
20532SOL    HW267433   4.968   8.136  10.537 -2.2951 -0.6873  0.9768
20533SOL     OW67434   3.939   0.768   5.629 -0.1728 -0.2263 -0.5156
20533SOL    HW167435   4.028   0.787   5.598 -0.6047  1.2502 -0.9312
20533SOL    HW267436   3.919   0.683   5.590  1.6869 -1.4835  1.0494
20534SOL     OW67437   8.886   8.668   5.917 -0.0817  0.2066  0.4059
20534SOL    HW167438   8.878   8.666   5.822 -2.2666  1.4395  0.4872
20534SOL    HW267439   8.978   8.686   5.934  0.5552 -1.0332 -1.4154
20535SOL     OW67440   9.736   8.833   3.090  0.2281  0.2891 -0.2947
20535SOL    HW167441   9.802   8.827   3.021 -0.5935 -1.4509 -1.0041
20535SOL    HW267442   9.736   8.925   3.116  1.0554  0.8571 -2.1521
20536SOL     OW67443   4.724   4.308   1.956  0.0886 -0.5291 -0.4239
20536SOL    HW167444   4.747   4.302   2.049  1.6909  0.2461 -0.7296
20536SOL    HW267445   4.663   4.381   1.951 -0.0822 -0.6393  0.0349
20537SOL     OW67446   8.616   5.999   4.025 -0.2577 -0.2447 -0.2780
20537SOL    HW167447   8.591   6.015   4.116  0.6997 -0.7484  0.0841
20537SOL    HW267448   8.599   5.906   4.011 -1.8778  0.1372 -1.1094
20538SOL     OW67449   8.613   5.701   8.619 -0.5164 -0.0045  0.6469
20538SOL    HW167450   8.645   5.625   8.570  1.2435  0.4902  0.9588
20538SOL    HW267451   8.600   5.668   8.708 -2.3433 -0.5554  0.2148
20539SOL     OW67452   0.426   5.177   9.693 -0.2006 -0.0622  0.1345
20539SOL    HW167453   0.351   5.234   9.707  1.0104  1.2898  1.6079
20539SOL    HW267454   0.446   5.143   9.780  0.6586 -0.6717 -0.2927
20540SOL     OW67455   3.767   8.380   8.580  0.3074  0.1418  0.3467
20540SOL    HW167456   3.843   8.397   8.524  0.5995 -0.2568  0.6183
20540SOL    HW267457   3.697   8.432   8.541  0.4848 -0.1925 -0.4440
20541SOL     OW67458   1.181   4.400   1.453 -0.3409  0.4058  0.0615
20541SOL    HW167459   1.166   4.495   1.458 -1.2296  0.2116  1.5058
20541SOL    HW267460   1.157   4.367   1.539  1.6850 -0.9260  0.2031
20542SOL     OW67461   2.446  10.013   8.561  0.3699 -0.2344 -0.1472
20542SOL    HW167462   2.419  10.104   8.573  1.1758 -0.2166  2.0828
20542SOL    HW267463   2.364   9.966   8.545 -0.6738  0.3364  2.8202
20543SOL     OW67464   5.306   5.901   2.191 -0.2221  0.2541 -0.1199
20543SOL    HW167465   5.258   5.974   2.153 -0.5439  0.3193  0.4112
20543SOL    HW267466   5.369   5.942   2.251 -0.7841  0.0700  0.6027
20544SOL     OW67467  10.491   9.396   4.661 -0.4291  0.2394 -0.2054
20544SOL    HW167468  10.439   9.378   4.582 -2.1969  1.8637  0.5090
20544SOL    HW267469  10.463   9.329   4.723  0.0660 -0.2940 -0.5441
20545SOL     OW67470   5.588   3.115   6.831  0.4978 -0.1243  0.3330
20545SOL    HW167471   5.535   3.172   6.887 -0.1311  0.7681 -1.0747
20545SOL    HW267472   5.534   3.104   6.752  1.9101 -0.1568 -0.6685
20546SOL     OW67473  10.359   7.313   0.227 -0.1751 -0.8020  0.2123
20546SOL    HW167474  10.353   7.404   0.200 -0.2528 -0.2563  1.9738
20546SOL    HW267475  10.432   7.277   0.175 -0.4057  0.1289 -0.7827
20547SOL     OW67476   8.377   4.776   6.925 -0.3972  0.5034  0.1595
20547SOL    HW167477   8.360   4.781   7.020 -2.0687  0.1378 -0.0787
20547SOL    HW267478   8.389   4.682   6.908 -1.2386  0.4375 -0.1374
20548SOL     OW67479   3.778   1.497   6.330 -0.7377 -0.5067 -0.6830
20548SOL    HW167480   3.756   1.498   6.423  1.8192 -1.9076  0.0330
20548SOL    HW267481   3.861   1.543   6.323 -0.1313 -1.6994 -2.0178
20549SOL     OW67482   2.766   2.917  10.118 -0.4331  0.3502  0.0779
20549SOL    HW167483   2.774   2.986  10.185  0.1652  0.9478 -0.5923
20549SOL    HW267484   2.712   2.956  10.050  0.0265  0.2062 -0.3733
20550SOL     OW67485  10.071   3.842   1.682  0.0359 -0.6073  0.5701
20550SOL    HW167486  10.070   3.930   1.643 -0.5539 -1.4117 -1.3131
20550SOL    HW267487   9.998   3.844   1.744 -1.3817 -0.3775 -1.0124
20551SOL     OW67488   6.090  10.241   9.109  0.0191  0.1361  0.2334
20551SOL    HW167489   6.079  10.287   9.192 -1.4720  0.1820  0.0313
20551SOL    HW267490   6.161  10.179   9.125 -0.0240  0.3753  1.4340
20552SOL     OW67491   7.588   1.768   5.175 -0.0176 -0.2125  0.3035
20552SOL    HW167492   7.596   1.707   5.102  2.6502 -0.3874  0.6438
20552SOL    HW267493   7.646   1.734   5.242  0.1890  1.7474  1.2074
20553SOL     OW67494   9.597   1.143  10.600 -0.2180  0.1671 -0.6604
20553SOL    HW167495   9.621   1.176  10.687  0.8808 -0.3725 -0.7387
20553SOL    HW267496   9.508   1.109  10.610 -0.5992  1.3188 -0.0850
20554SOL     OW67497   3.462   6.336   3.171  0.0239  0.1191  0.0405
20554SOL    HW167498   3.375   6.365   3.145  0.3097  0.8935 -0.0570
20554SOL    HW267499   3.485   6.390   3.246 -0.0716 -0.9197  0.8466
20555SOL     OW67500   1.573   7.578   4.536  0.0032  0.3671  0.2891
20555SOL    HW167501   1.523   7.541   4.463 -0.4028 -0.4676  0.9699
20555SOL    HW267502   1.591   7.668   4.509  0.2154 -0.0375 -1.0151
20556SOL     OW67503   1.578   5.494   5.623 -0.8680  0.8665  0.1152
20556SOL    HW167504   1.561   5.431   5.552 -0.7115  0.7645  0.1676
20556SOL    HW267505   1.664   5.529   5.603 -1.3462  1.7643 -0.4352
20557SOL     OW67506   1.878   2.644   0.693 -0.0647  0.2693  0.3434
20557SOL    HW167507   1.971   2.664   0.687  0.0847 -0.7093 -1.4534
20557SOL    HW267508   1.835   2.715   0.645 -0.2426  0.6100  0.9933
20558SOL     OW67509   7.352   7.331   4.167 -0.7935 -0.1039  0.1265
20558SOL    HW167510   7.310   7.252   4.132 -1.1267  0.1150  0.0248
20558SOL    HW267511   7.291   7.363   4.234  0.6833 -1.5755  2.3294
20559SOL     OW67512   7.908   5.390   0.651  0.3304  0.0765  0.4834
20559SOL    HW167513   7.930   5.474   0.611 -0.0145  0.1320  0.4133
20559SOL    HW267514   7.819   5.400   0.682  0.0982 -0.4372  0.0086
20560SOL     OW67515   5.411   4.419   7.645  0.0736  1.0303 -0.0913
20560SOL    HW167516   5.334   4.363   7.642 -0.0323  1.0592  1.4005
20560SOL    HW267517   5.388   4.495   7.591 -0.2559  0.2476 -1.0817
20561SOL     OW67518   0.508   0.452   9.822 -0.4112  0.5036 -0.9609
20561SOL    HW167519   0.434   0.493   9.867  0.1674  1.4726 -0.8631
20561SOL    HW267520   0.468   0.403   9.750 -1.3080 -0.6960  0.3105
20562SOL     OW67521   3.242   7.629   5.729 -0.0805 -0.9171 -0.0248
20562SOL    HW167522   3.256   7.703   5.669  0.0820 -1.0996 -0.2123
20562SOL    HW267523   3.311   7.638   5.794 -1.1493  0.1556  1.0160
20563SOL     OW67524   9.039   2.228   4.752  0.1721 -0.5718  0.0025
20563SOL    HW167525   9.073   2.228   4.662 -0.4826 -0.2841 -0.2473
20563SOL    HW267526   9.060   2.315   4.785 -1.8439  0.2404 -0.7454
20564SOL     OW67527   4.259   6.361   7.760  0.0632  0.4731 -0.4474
20564SOL    HW167528   4.176   6.395   7.792  0.5127  1.8266 -0.6089
20564SOL    HW267529   4.314   6.353   7.838  0.0184  0.3342 -0.4315
20565SOL     OW67530   3.562   2.568   6.119 -0.8606 -0.1223  0.1685
20565SOL    HW167531   3.538   2.640   6.060 -1.7733 -0.0938  0.5655
20565SOL    HW267532   3.497   2.571   6.188  0.4325  0.0887  1.4189
20566SOL     OW67533   7.790   9.154   6.425 -0.4434  0.5688 -0.2512
20566SOL    HW167534   7.876   9.196   6.421  0.1366 -0.5151  0.3416
20566SOL    HW267535   7.810   9.061   6.436 -1.6968  0.2375 -0.6374
20567SOL     OW67536   8.452   3.859   9.828 -0.3368  0.1187 -0.4834
20567SOL    HW167537   8.534   3.834   9.784  0.5850  1.4688  0.3648
20567SOL    HW267538   8.391   3.876   9.757  0.3588 -0.1390 -1.1637
20568SOL     OW67539   7.196   1.296   2.337 -0.2845  0.2784  1.0227
20568SOL    HW167540   7.236   1.210   2.324 -0.1156  0.5491 -0.2910
20568SOL    HW267541   7.104   1.276   2.358 -0.2483 -0.2197  0.7218
20569SOL     OW67542  10.196   5.124   6.668  0.3010 -0.0554 -0.4082
20569SOL    HW167543  10.279   5.136   6.714 -0.0402  0.5411  0.0769
20569SOL    HW267544  10.220   5.116   6.576  0.9223 -0.2852 -0.2333
20570SOL     OW67545   5.447   2.882  10.153 -0.4001 -0.4272  0.0077
20570SOL    HW167546   5.464   2.818  10.222 -2.1643  0.0260  0.9271
20570SOL    HW267547   5.417   2.829  10.079  1.8368 -0.9464 -0.5917
20571SOL     OW67548   2.528   4.050   4.335  0.0765 -0.0513  0.5664
20571SOL    HW167549   2.444   4.096   4.324 -0.9575 -2.0189 -0.2264
20571SOL    HW267550   2.506   3.973   4.387  1.3443 -0.7329  0.1238
20572SOL     OW67551   3.749   4.454   2.763  0.0535  0.2468 -0.1033
20572SOL    HW167552   3.724   4.540   2.729 -0.7949  0.2304  0.4368
20572SOL    HW267553   3.725   4.457   2.856 -1.3430 -1.0552 -0.3781
20573SOL     OW67554   5.895   5.219   3.442 -0.0743 -0.4254 -0.2429
20573SOL    HW167555   5.831   5.151   3.424 -1.1962  0.4111  0.4880
20573SOL    HW267556   5.961   5.176   3.497 -0.6906 -0.9453  0.0918
20574SOL     OW67557   8.059   1.892   0.049 -0.2912 -0.1864 -0.2948
20574SOL    HW167558   8.107   1.837  -0.013 -0.1332 -1.5653  1.0058
20574SOL    HW267559   7.987   1.838   0.080 -1.1158  0.9273 -0.1935
20575SOL     OW67560  10.505   9.205   9.494 -0.3693  0.0664  0.2004
20575SOL    HW167561  10.529   9.141   9.561 -1.9448 -0.2710  0.4674
20575SOL    HW267562  10.554   9.284   9.518  1.5358 -0.9579 -0.0861
20576SOL     OW67563   7.654   0.437   4.181 -0.9078 -0.3339 -0.3891
20576SOL    HW167564   7.583   0.497   4.204 -1.3407 -0.9950  0.0438
20576SOL    HW267565   7.659   0.377   4.256  2.3590  1.6937  1.2436
20577SOL     OW67566   5.321   7.181   5.312  0.5870 -0.2689  0.3802
20577SOL    HW167567   5.317   7.096   5.355  0.5672  0.4665  1.9127
20577SOL    HW267568   5.285   7.242   5.376  0.4904  0.8838 -0.7282
20578SOL     OW67569   6.507   4.351   5.217 -0.3977 -0.6790 -0.0838
20578SOL    HW167570   6.525   4.440   5.186 -1.1892 -0.5127 -0.0867
20578SOL    HW267571   6.416   4.353   5.245  0.1360 -0.9766  1.7593
20579SOL     OW67572   9.063   1.982   3.767  1.0658 -0.3115  0.0822
20579SOL    HW167573   9.073   1.909   3.706  1.5930 -0.1505 -0.0356
20579SOL    HW267574   8.973   2.011   3.756  1.3172  0.0984 -1.0724
20580SOL     OW67575  10.697  10.336   1.622 -0.3632 -0.7813 -0.4919
20580SOL    HW167576  10.748  10.257   1.640 -0.5791 -0.4485  1.9723
20580SOL    HW267577  10.625  10.306   1.566  0.3696 -2.0289 -0.7952
20581SOL     OW67578   9.105   2.016   0.914 -0.1665  0.1621  0.0202
20581SOL    HW167579   9.193   1.990   0.888  0.7749  0.6166  2.4505
20581SOL    HW267580   9.061   1.933   0.936 -0.2663 -0.0439 -0.9296
20582SOL     OW67581  10.589   0.413   0.671 -0.2763 -0.5316  0.1077
20582SOL    HW167582  10.564   0.425   0.763  1.5861 -0.5101  0.6510
20582SOL    HW267583  10.527   0.468   0.622 -0.3913  0.6246  1.4795
20583SOL     OW67584   5.563   4.433   9.098 -0.1938  0.1214  0.4661
20583SOL    HW167585   5.481   4.407   9.140 -1.8287 -0.3519 -2.7066
20583SOL    HW267586   5.629   4.426   9.167 -2.3878 -1.9389  2.5424
20584SOL     OW67587   7.971   0.449   0.838  0.7078 -0.0383  0.5712
20584SOL    HW167588   7.906   0.379   0.845  0.5530 -0.0625 -0.7525
20584SOL    HW267589   8.030   0.419   0.769  0.1448  1.4923 -0.6343
20585SOL     OW67590   3.809   2.606  10.206 -0.0073  0.0750 -0.2794
20585SOL    HW167591   3.828   2.583  10.116  0.2417 -1.1211  0.0583
20585SOL    HW267592   3.891   2.589  10.253 -0.6691 -1.2097  0.4812
20586SOL     OW67593   0.998   0.302   1.011 -0.0928  0.3625  0.0350
20586SOL    HW167594   0.927   0.248   1.046 -0.9486  2.0016  0.8986
20586SOL    HW267595   1.017   0.262   0.925 -0.8965 -1.1037  0.4998
20587SOL     OW67596   6.154   7.214  10.299 -0.6965 -0.4921 -0.5636
20587SOL    HW167597   6.084   7.263  10.342  1.3639 -0.2429  2.8925
20587SOL    HW267598   6.210   7.282  10.259  0.4413 -0.1743  1.4603
20588SOL     OW67599   5.213   4.440   6.375  0.2668  0.1703  0.4979
20588SOL    HW167600   5.165   4.512   6.415  1.8507  1.1393  0.7372
20588SOL    HW267601   5.304   4.453   6.402  0.9513 -0.6725 -1.2187
20589SOL     OW67602   0.056   5.175   0.290  0.4141  0.4681  0.1885
20589SOL    HW167603   0.023   5.135   0.209  1.2219 -1.0229  0.5689
20589SOL    HW267604   0.061   5.103   0.352  2.5719  0.9920  0.6979
20590SOL     OW67605   8.341   7.572   6.585 -0.3439  0.2945 -0.4153
20590SOL    HW167606   8.392   7.542   6.510  0.9588  0.1109  0.5238
20590SOL    HW267607   8.285   7.498   6.607 -1.4898  0.6993 -1.8071
20591SOL     OW67608   5.785   4.519   9.809 -0.5703 -0.0001  0.2249
20591SOL    HW167609   5.860   4.526   9.749 -1.5429 -1.0547 -1.2045
20591SOL    HW267610   5.793   4.594   9.867  1.8555 -0.3410  0.4444
20592SOL     OW67611   3.076   4.531   4.072 -0.1074 -0.5662  0.1696
20592SOL    HW167612   3.000   4.589   4.071  1.6259  1.8108 -0.0507
20592SOL    HW267613   3.058   4.470   4.144 -2.1405 -0.0024  0.2040
20593SOL     OW67614   3.135   9.108   9.834 -0.1521 -0.5528 -0.9194
20593SOL    HW167615   3.072   9.035   9.841 -0.0136 -0.6052 -0.1174
20593SOL    HW267616   3.113   9.151   9.752 -0.7222 -1.0579 -1.0380
20594SOL     OW67617   4.262   1.885   3.527 -0.1240  0.3798  0.1622
20594SOL    HW167618   4.199   1.888   3.455  1.7199 -0.8965 -1.6139
20594SOL    HW267619   4.344   1.916   3.488  1.0185 -0.6954  1.6212
20595SOL     OW67620   0.960   8.695   9.197 -0.0645 -0.0877  0.4379
20595SOL    HW167621   0.886   8.721   9.252  0.6331  1.0489  0.8904
20595SOL    HW267622   0.970   8.601   9.212 -1.3174 -0.2394  0.4651
20596SOL     OW67623   6.493   8.280   2.285 -0.0411  0.1668  0.1346
20596SOL    HW167624   6.492   8.353   2.347  0.4570  0.4024 -0.1246
20596SOL    HW267625   6.448   8.313   2.207 -0.8577 -0.2014  0.4463
20597SOL     OW67626   5.772   7.989   9.649  0.0710 -0.1856 -0.4459
20597SOL    HW167627   5.783   8.023   9.738 -0.1336  0.1627 -0.5530
20597SOL    HW267628   5.692   8.031   9.617  0.0087 -0.5037 -0.7035
20598SOL     OW67629   4.247   7.743   1.971  1.5815 -0.3214 -0.3262
20598SOL    HW167630   4.156   7.731   1.944  0.6182  0.8562  2.0587
20598SOL    HW267631   4.276   7.655   1.999  1.3617 -0.7833 -1.4925
20599SOL     OW67632   2.491   4.802  10.516 -0.2120 -0.2480  0.0949
20599SOL    HW167633   2.417   4.777  10.572  0.5359  1.0411  1.7544
20599SOL    HW267634   2.464   4.777  10.428 -2.8623  0.6464  0.5618
20600SOL     OW67635   2.033   3.972  10.105  0.4438  0.4627 -0.3596
20600SOL    HW167636   2.044   3.877  10.099  1.1445  0.5158  0.0136
20600SOL    HW267637   1.945   3.988  10.071  0.3428 -0.3137 -0.4791
20601SOL     OW67638   8.552   5.259   2.254  0.9068 -0.5952 -0.8585
20601SOL    HW167639   8.604   5.202   2.197  1.4028  0.0297 -1.0390
20601SOL    HW267640   8.469   5.213   2.265  1.3863 -1.4646 -0.8089
20602SOL     OW67641   3.704   6.557   3.827 -0.6809  0.8747 -0.0702
20602SOL    HW167642   3.782   6.501   3.835 -0.8700  0.7711  1.2314
20602SOL    HW267643   3.677   6.574   3.917  0.2797  4.3629 -0.2875
20603SOL     OW67644   0.282   6.838   2.462 -0.2513 -0.2527  0.0144
20603SOL    HW167645   0.189   6.845   2.440 -0.0718  1.0962 -0.3976
20603SOL    HW267646   0.307   6.751   2.430 -1.3340 -0.5733 -0.0036
20604SOL     OW67647   6.177   5.405   6.961 -0.0713 -0.0611  0.5044
20604SOL    HW167648   6.245   5.471   6.980 -1.9881  2.6243 -1.2694
20604SOL    HW267649   6.205   5.365   6.879 -0.4932  0.9760 -0.1746
20605SOL     OW67650   6.206  10.636   3.198 -0.1729  0.2763  0.2333
20605SOL    HW167651   6.188  10.567   3.262 -0.0640  0.3390  0.3320
20605SOL    HW267652   6.140  10.623   3.129 -0.3191  0.2362  0.3796
20606SOL     OW67653   7.251   1.405   4.449 -0.1846 -0.3876  0.3937
20606SOL    HW167654   7.236   1.461   4.373  1.3223 -0.5770 -0.0868
20606SOL    HW267655   7.341   1.423   4.474 -0.1287 -1.5602  1.0971
20607SOL     OW67656   5.235   1.276   5.090 -0.0941 -0.1788  0.0096
20607SOL    HW167657   5.222   1.182   5.099 -1.1830 -0.0122  0.3551
20607SOL    HW267658   5.148   1.313   5.102  0.4317  0.9274  0.5670
20608SOL     OW67659   9.274   4.433   4.173 -0.5747 -0.2747 -0.5435
20608SOL    HW167660   9.301   4.469   4.089 -0.5547 -0.3583 -0.5722
20608SOL    HW267661   9.318   4.488   4.238 -0.7194 -0.1084 -0.5855
20609SOL     OW67662   3.171   8.460   0.463 -0.2271 -0.3462  0.7147
20609SOL    HW167663   3.095   8.438   0.410  1.5079 -0.7142 -1.7757
20609SOL    HW267664   3.195   8.378   0.505  1.1656 -1.3483 -1.8126
20610SOL     OW67665   8.995   9.016   2.977  0.1194  0.5281 -0.3220
20610SOL    HW167666   8.987   8.950   3.047 -2.0646 -0.1416 -1.1072
20610SOL    HW267667   8.975   9.099   3.020 -0.3641  0.2325  0.0381
20611SOL     OW67668   2.778   1.382   5.585 -0.1349  0.1258 -0.0839
20611SOL    HW167669   2.712   1.428   5.533 -0.0574 -0.7058 -0.9663
20611SOL    HW267670   2.856   1.437   5.579 -0.3984  0.5071 -0.0609
20612SOL     OW67671   8.310   8.147   7.880 -0.1750  0.6291  0.1500
20612SOL    HW167672   8.229   8.197   7.879 -0.3075  0.4825  1.4209
20612SOL    HW267673   8.374   8.204   7.837 -0.3985  1.7797  1.2720
20613SOL     OW67674   4.100   0.820   6.697 -0.1799 -0.1626 -0.1376
20613SOL    HW167675   4.042   0.773   6.757  0.7763 -2.5845 -0.9519
20613SOL    HW267676   4.092   0.772   6.614  2.7487 -0.5156 -0.3439
20614SOL     OW67677   4.797   1.165   4.602  0.2562 -0.2787  0.0156
20614SOL    HW167678   4.853   1.150   4.679 -0.0398  3.0321  1.0488
20614SOL    HW267679   4.783   1.260   4.602 -2.1012 -0.5243 -2.5386
20615SOL     OW67680   5.987   4.883   6.733 -0.3740  0.4456  0.2863
20615SOL    HW167681   6.015   4.850   6.648  0.4387  0.6892  0.4487
20615SOL    HW267682   5.953   4.971   6.714  1.0412  1.0528  0.3637
20616SOL     OW67683   1.894  10.015   3.329  1.0856 -0.7260 -0.1554
20616SOL    HW167684   1.849   9.979   3.405 -1.1603  0.9629 -0.5659
20616SOL    HW267685   1.961   9.951   3.308  1.7712 -1.2864  3.1802
20617SOL     OW67686   0.686   4.336   6.312 -0.6329  0.7468 -0.1365
20617SOL    HW167687   0.669   4.424   6.278  0.0543  0.2464 -1.8682
20617SOL    HW267688   0.606   4.287   6.293 -0.9453  0.9348  0.6609
20618SOL     OW67689   1.036   5.205   2.937 -0.0558 -0.4446 -0.0775
20618SOL    HW167690   0.972   5.239   2.874  1.5512 -0.9232 -2.0896
20618SOL    HW267691   0.984   5.160   3.003 -1.8666  0.6725 -0.6821
20619SOL     OW67692   7.890   6.290   2.502 -0.3062  0.1342  0.9414
20619SOL    HW167693   7.832   6.220   2.469 -2.1463  1.7116  0.6355
20619SOL    HW267694   7.944   6.247   2.568 -1.2198 -1.6250  0.6143
20620SOL     OW67695  10.516   4.582   2.884 -0.3411 -0.3392 -0.6128
20620SOL    HW167696  10.561   4.519   2.940 -0.1453  1.5431  1.5195
20620SOL    HW267697  10.424   4.556   2.887 -0.1817 -0.8720 -0.2533
20621SOL     OW67698   4.179   4.872   0.567  0.6666 -0.1722  0.4227
20621SOL    HW167699   4.204   4.868   0.475 -2.0584  1.7241 -0.5219
20621SOL    HW267700   4.147   4.784   0.586 -0.2672 -0.1681 -0.9654
20622SOL     OW67701   4.459   9.051   1.503 -0.1983 -0.3754 -0.1310
20622SOL    HW167702   4.377   9.025   1.548  0.0456  0.1803  0.6630
20622SOL    HW267703   4.430   9.093   1.422 -0.7801  0.9827  0.7413
20623SOL     OW67704   6.307   3.011   8.220 -0.3535 -0.0643 -0.0837
20623SOL    HW167705   6.395   2.992   8.187  0.4886  0.9707  1.4636
20623SOL    HW267706   6.298   3.106   8.212 -0.5580  0.0844  1.5298
20624SOL     OW67707   1.165   0.773   0.589 -0.6033 -0.3856  0.0332
20624SOL    HW167708   1.184   0.686   0.554 -0.0220 -0.5691  0.7969
20624SOL    HW267709   1.070   0.778   0.591 -0.6361 -1.1195  0.2780
20625SOL     OW67710   8.586   8.692  10.665  0.0816  0.2410 -0.0680
20625SOL    HW167711   8.649   8.672  10.734  0.6269 -1.5368 -1.0068
20625SOL    HW267712   8.630   8.663  10.584 -0.2325  2.8579 -1.3043
20626SOL     OW67713   7.483   4.944   8.773 -0.0500 -0.2949  0.6686
20626SOL    HW167714   7.530   5.017   8.733 -0.2474 -0.1571  0.6878
20626SOL    HW267715   7.552   4.890   8.811  0.0671  0.1159  1.0436
20627SOL     OW67716   8.026   3.632   1.459  0.6991  0.3258  0.1361
20627SOL    HW167717   8.007   3.679   1.377 -1.2624  0.1682  0.4577
20627SOL    HW267718   8.031   3.701   1.525  0.2735  0.2955  0.2030
20628SOL     OW67719   8.071   1.211   2.573  0.2990  0.1840 -0.2853
20628SOL    HW167720   8.149   1.259   2.546  1.6431 -1.8169 -0.0928
20628SOL    HW267721   8.063   1.229   2.667  2.3864 -2.0173  0.3964
20629SOL     OW67722   9.033   1.042   2.985 -0.3000 -0.3868 -0.3401
20629SOL    HW167723   9.060   1.124   3.026 -1.8825 -0.4734  0.9574
20629SOL    HW267724   9.114   1.008   2.946  0.9293  0.5197  1.2794
20630SOL     OW67725   7.153   5.885   2.642 -0.1042  0.0975 -0.5663
20630SOL    HW167726   7.199   5.874   2.725 -0.1695  0.5813 -0.4633
20630SOL    HW267727   7.152   5.979   2.627 -1.0047  0.0867 -0.6005
20631SOL     OW67728   6.336  10.278   4.833 -0.4294  0.1506 -0.3568
20631SOL    HW167729   6.328  10.295   4.739 -1.3598 -0.7816 -0.4706
20631SOL    HW267730   6.430  10.276   4.849 -0.2662  0.9846 -1.1347
20632SOL     OW67731   5.243   4.457   8.740  0.0896 -0.2400 -0.6185
20632SOL    HW167732   5.330   4.455   8.778  0.6117  2.8958 -1.3652
20632SOL    HW267733   5.192   4.511   8.800 -1.2665 -1.6337 -0.4479
20633SOL     OW67734   7.294   5.490   9.414  0.2135  0.0471  0.0106
20633SOL    HW167735   7.354   5.531   9.352 -0.3836  1.6064  0.4299
20633SOL    HW267736   7.335   5.406   9.435 -0.3999 -1.4642 -3.8699
20634SOL     OW67737   5.583   2.275   6.663 -0.1574 -0.4672  0.3869
20634SOL    HW167738   5.649   2.206   6.668 -1.2667 -1.4891  1.8737
20634SOL    HW267739   5.511   2.236   6.614 -0.1753  0.1886 -0.1170
20635SOL     OW67740   3.252   0.574   3.828 -0.5127 -0.8419 -0.6160
20635SOL    HW167741   3.287   0.485   3.833 -2.3621 -1.6314 -0.7676
20635SOL    HW267742   3.324   0.627   3.795  0.6824 -2.2499 -0.3679
20636SOL     OW67743   4.786   8.439   4.522  0.4985 -0.5894  0.4032
20636SOL    HW167744   4.726   8.398   4.459  1.0962  0.5544 -0.9559
20636SOL    HW267745   4.870   8.443   4.476  1.1084 -0.2722  1.5141
20637SOL     OW67746  10.187   1.599   6.806 -0.1648 -0.3260  0.2803
20637SOL    HW167747  10.117   1.624   6.867  0.2583 -0.3066  0.7633
20637SOL    HW267748  10.212   1.511   6.833  0.6820  0.0463  0.7526
20638SOL     OW67749   7.306   1.331   8.336  0.2057  0.2043 -0.1838
20638SOL    HW167750   7.224   1.370   8.365  0.6334  0.0607  1.2692
20638SOL    HW267751   7.352   1.307   8.416  1.8470  0.6412 -0.9378
20639SOL     OW67752   8.136   5.537   7.529 -0.0562 -0.6712 -0.1744
20639SOL    HW167753   8.224   5.569   7.548 -0.6821  0.5350  0.7622
20639SOL    HW267754   8.100   5.600   7.467 -1.2869  0.5206  1.6571
20640SOL     OW67755   2.840   9.186   3.625 -0.2912 -0.2523 -0.6860
20640SOL    HW167756   2.832   9.103   3.671  0.7043  0.3149  0.5472
20640SOL    HW267757   2.887   9.165   3.544  0.2134 -0.8406 -0.2408
20641SOL     OW67758   7.812   7.565   7.617 -0.2777 -0.0987 -0.5308
20641SOL    HW167759   7.720   7.586   7.600 -0.1011  0.2986 -0.9884
20641SOL    HW267760   7.862   7.623   7.560  0.2491 -0.7079 -0.7010
20642SOL     OW67761   1.508   8.693   9.934 -0.6643  0.1817  0.7581
20642SOL    HW167762   1.453   8.617   9.951  0.0363 -0.0589  2.0332
20642SOL    HW267763   1.527   8.730  10.020  0.8336  0.4934  0.3362
20643SOL     OW67764   3.640   7.979   9.081  0.0701 -0.0639  0.4175
20643SOL    HW167765   3.642   7.927   9.001 -0.1555 -0.1410  0.4605
20643SOL    HW267766   3.555   8.023   9.079  0.3917  0.5671  0.2145
20644SOL     OW67767   3.082   4.832   3.406 -0.0796  0.3072 -0.3917
20644SOL    HW167768   2.991   4.840   3.436 -0.1985 -0.6751 -0.4527
20644SOL    HW267769   3.101   4.915   3.363 -0.8769  0.6096 -0.1706
20645SOL     OW67770   8.915   8.836   7.645  0.1969  0.1298 -0.7583
20645SOL    HW167771   9.008   8.814   7.639 -0.0463 -1.0189 -0.5757
20645SOL    HW267772   8.876   8.760   7.688 -0.6285  1.1640  0.3765
20646SOL     OW67773   5.322   0.866   7.257 -0.4391 -0.2086  0.1964
20646SOL    HW167774   5.280   0.950   7.273 -0.7794 -0.5866  1.4638
20646SOL    HW267775   5.413   0.886   7.240 -0.3912  0.3970  1.0874
20647SOL     OW67776   7.974   7.525   7.862  0.4248  0.0195  0.0373
20647SOL    HW167777   8.034   7.597   7.879  1.3903 -0.4501 -1.1914
20647SOL    HW267778   7.909   7.561   7.801  0.5330  0.0222 -0.0759
20648SOL     OW67779   4.390   9.655   3.959 -0.2112  0.4838  0.0749
20648SOL    HW167780   4.433   9.570   3.946 -1.6692 -0.2851  0.0669
20648SOL    HW267781   4.459   9.712   3.992  0.3490 -1.2950  2.2580
20649SOL     OW67782   3.865   4.939   9.426 -0.3024  0.0273 -0.2004
20649SOL    HW167783   3.854   4.874   9.495  0.0357  0.6855  0.4987
20649SOL    HW267784   3.776   4.965   9.402 -0.4245 -0.2529 -0.0467
20650SOL     OW67785   5.387   9.880   5.105  0.5192 -0.2640 -0.4306
20650SOL    HW167786   5.366   9.787   5.093 -1.2094  0.2386 -1.5713
20650SOL    HW267787   5.465   9.879   5.161  1.1037 -2.4290 -1.1664
20651SOL     OW67788   6.191   9.415   1.905 -0.6613 -0.4663 -0.4687
20651SOL    HW167789   6.238   9.423   1.988 -1.1399 -1.2413 -0.1180
20651SOL    HW267790   6.099   9.408   1.930 -0.8629 -0.1869 -1.0962
20652SOL     OW67791   3.503  10.291   0.360  0.0580 -0.6098 -0.2959
20652SOL    HW167792   3.545  10.209   0.383  0.0044 -0.7007 -0.5199
20652SOL    HW267793   3.548  10.357   0.413  0.7809 -0.6472 -0.8539
20653SOL     OW67794   5.688   7.915   0.926  0.3564  0.4063  0.7551
20653SOL    HW167795   5.652   7.904   0.837 -1.8213  0.4591  1.5733
20653SOL    HW267796   5.686   8.009   0.941 -0.4708  0.3145  1.2946
20654SOL     OW67797   3.962   3.621   6.580 -0.4672 -0.2508 -0.2437
20654SOL    HW167798   3.910   3.567   6.519 -0.0489  1.2632 -2.0525
20654SOL    HW267799   3.931   3.710   6.564 -0.2072  0.2238  1.7025
20655SOL     OW67800   8.876  10.331   2.865 -0.8805  0.1110 -0.2090
20655SOL    HW167801   8.871  10.378   2.782 -0.7692  0.3305 -0.0912
20655SOL    HW267802   8.818  10.255   2.853  0.2695 -0.6701 -1.0130
20656SOL     OW67803   2.422   7.689   2.593 -0.5942 -0.4608 -0.6090
20656SOL    HW167804   2.342   7.742   2.596 -0.4628 -0.3065  0.5381
20656SOL    HW267805   2.457   7.704   2.505 -0.8860  0.8777 -0.5187
20657SOL     OW67806   1.360  10.601   7.801 -0.3617  0.0503  0.3284
20657SOL    HW167807   1.333  10.538   7.868 -1.0888 -3.3807 -2.8563
20657SOL    HW267808   1.456  10.598   7.802 -0.3375  0.6732  1.6831
20658SOL     OW67809   2.916   6.950   3.794 -0.2790 -0.4998  0.4813
20658SOL    HW167810   2.898   6.979   3.884 -1.5245 -0.0085  0.0962
20658SOL    HW267811   3.008   6.972   3.780 -0.7134  1.7685  0.7922
20659SOL     OW67812   9.896   9.496   9.581  0.3516  0.1538  0.0064
20659SOL    HW167813   9.861   9.411   9.552 -0.5217  0.0503  1.2976
20659SOL    HW267814   9.867   9.558   9.513 -2.8742  0.1667  1.2120
20660SOL     OW67815   7.604  10.308  10.362  0.4469  0.1412  0.0865
20660SOL    HW167816   7.698  10.305  10.343  0.3200 -1.7424 -0.4486
20660SOL    HW267817   7.598  10.315  10.457  1.1110  0.7473  0.0911
20661SOL     OW67818   9.112   9.797   5.839 -0.3727 -0.5918 -0.8924
20661SOL    HW167819   9.063   9.810   5.921 -1.0017  3.1016 -1.6452
20661SOL    HW267820   9.047   9.761   5.778 -0.6442 -0.8147 -0.4788
20662SOL     OW67821   7.958   4.825   0.509  0.1560 -0.3125 -0.0836
20662SOL    HW167822   7.980   4.817   0.601  0.2744 -0.2444 -0.1065
20662SOL    HW267823   7.881   4.882   0.508  1.2734  1.2609 -0.1561
20663SOL     OW67824   6.669   3.233   0.754  0.5502 -0.6108  0.5161
20663SOL    HW167825   6.597   3.240   0.692 -0.6408  0.9611  1.9910
20663SOL    HW267826   6.744   3.272   0.708  0.1929 -1.1994 -0.6031
20664SOL     OW67827   5.984   1.597   3.019  0.8528  0.4986  0.4908
20664SOL    HW167828   6.016   1.604   3.109 -1.1585  2.6664  1.1385
20664SOL    HW267829   5.932   1.516   3.019  0.7579  0.5418  1.3246
20665SOL     OW67830   5.568   7.660   0.251 -0.7437  0.4422 -0.2119
20665SOL    HW167831   5.519   7.655   0.333 -3.3154 -0.9356 -1.7018
20665SOL    HW267832   5.614   7.576   0.246  0.0168  0.8302  0.1419
20666SOL     OW67833   0.238   0.831  10.222  0.5630  0.2702  0.2471
20666SOL    HW167834   0.185   0.898  10.179  2.2659  0.7627 -1.1815
20666SOL    HW267835   0.175   0.763  10.246 -1.0092  1.7184  0.4967
20667SOL     OW67836   8.442   2.496   5.399  0.6571  0.5946  0.1225
20667SOL    HW167837   8.526   2.451   5.388  0.8612  0.8453  0.6379
20667SOL    HW267838   8.392   2.473   5.321  0.7421 -0.5674  0.4014
20668SOL     OW67839   1.204   6.818   3.437  0.6602 -0.3610 -0.1422
20668SOL    HW167840   1.198   6.898   3.385 -0.2801 -0.1419  0.2658
20668SOL    HW267841   1.286   6.827   3.485  0.2631  0.6773  0.3789
20669SOL     OW67842   3.083   3.606   4.844 -0.1926 -0.4834  0.2830
20669SOL    HW167843   3.020   3.572   4.908  1.4715 -1.0617  1.6948
20669SOL    HW267844   3.082   3.701   4.857 -0.3228 -0.5477  0.7444
20670SOL     OW67845   4.184   8.742   0.227 -0.0403  0.0581 -0.2193
20670SOL    HW167846   4.203   8.671   0.288  1.0203  0.8404  0.3954
20670SOL    HW267847   4.265   8.754   0.178 -0.7101 -0.1941 -1.4089
20671SOL     OW67848   0.585  10.437   8.751  0.1290  0.4462 -0.8817
20671SOL    HW167849   0.637  10.492   8.810  0.3055 -1.5708  0.9878
20671SOL    HW267850   0.507  10.415   8.802 -0.8461  0.4969 -2.3041
20672SOL     OW67851   9.119   8.438   0.518 -0.6623 -0.5974 -0.0044
20672SOL    HW167852   9.108   8.528   0.487  0.9484 -0.9536 -1.7478
20672SOL    HW267853   9.046   8.390   0.479 -2.4467  0.1411  2.1625
20673SOL     OW67854   6.136   5.958   3.638  0.0044 -0.1539  0.1615
20673SOL    HW167855   6.066   6.020   3.657  0.2151  0.2019 -0.2083
20673SOL    HW267856   6.181   5.994   3.562  0.7985 -0.2049  0.5917
20674SOL     OW67857   5.293   9.077   6.279 -0.0221  0.2904 -0.1936
20674SOL    HW167858   5.279   9.159   6.232  1.0803 -0.2448 -1.5474
20674SOL    HW267859   5.209   9.058   6.320 -0.5926  1.5607 -0.7103
20675SOL     OW67860   4.679   6.461   3.095 -0.1521  0.6149 -0.2907
20675SOL    HW167861   4.662   6.536   3.038  0.2874  1.1213  0.2315
20675SOL    HW267862   4.731   6.401   3.041 -1.5980  0.0865 -1.1327
20676SOL     OW67863   4.927   3.102   2.288 -0.1112  0.1404 -0.3447
20676SOL    HW167864   5.020   3.114   2.303 -0.6330  2.0582  1.8513
20676SOL    HW267865   4.912   3.135   2.199  1.4870 -1.8992 -1.4880
20677SOL     OW67866   5.502   8.740   2.635  0.8059 -0.1243 -0.0824
20677SOL    HW167867   5.588   8.709   2.607  0.3274 -0.0827 -1.7214
20677SOL    HW267868   5.500   8.832   2.610  0.5292  0.0496  0.5590
20678SOL     OW67869   3.049   6.633   0.791 -0.0464  0.2620 -0.4153
20678SOL    HW167870   3.091   6.646   0.705  0.8467 -0.4060 -0.0941
20678SOL    HW267871   3.093   6.696   0.848 -1.0115  1.0833 -0.5451
20679SOL     OW67872   7.902   4.269   7.908  0.2231  0.2264  0.2340
20679SOL    HW167873   7.929   4.224   7.988 -0.3961 -0.3223  0.1432
20679SOL    HW267874   7.844   4.207   7.864 -1.2581  1.3750  0.4713
20680SOL     OW67875   9.001   2.799  10.576  0.4067 -0.3520 -0.7099
20680SOL    HW167876   8.913   2.762  10.575 -0.8836  2.1969  1.5655
20680SOL    HW267877   9.059   2.726  10.555 -2.1444 -2.4583 -0.9265
20681SOL     OW67878   7.856   9.006   9.467 -0.5231  0.1790 -0.7051
20681SOL    HW167879   7.776   8.968   9.502 -1.6216  0.8816 -2.3634
20681SOL    HW267880   7.906   8.930   9.435 -0.1849 -0.3204  0.8973
20682SOL     OW67881   7.971   5.210   0.448  0.6440 -0.2372 -0.6590
20682SOL    HW167882   8.046   5.167   0.489  0.0295  1.3161  2.4628
20682SOL    HW267883   7.951   5.283   0.507 -2.3829  0.3205 -2.1841
20683SOL     OW67884   3.024   3.444   1.667 -0.1981  0.1690  0.2548
20683SOL    HW167885   2.962   3.429   1.738 -2.4475  1.2142 -1.3835
20683SOL    HW267886   3.096   3.493   1.708 -1.4058  0.6956  1.8408
20684SOL     OW67887   1.890  10.051   6.942  0.7316 -0.1750 -0.6146
20684SOL    HW167888   1.945   9.988   6.988 -1.0019 -0.4063  1.2766
20684SOL    HW267889   1.934  10.135   6.955  0.3977 -0.2561  1.4308
20685SOL     OW67890   7.991   1.986   8.226  0.3586 -0.4353  0.0031
20685SOL    HW167891   8.021   2.059   8.172 -0.5875 -1.0650 -1.4416
20685SOL    HW267892   7.961   1.920   8.163 -0.0199 -1.5444  1.2909
20686SOL     OW67893   8.598   6.692   3.110 -0.2168  0.6500 -0.7141
20686SOL    HW167894   8.520   6.718   3.161 -2.0243 -1.8530 -2.0014
20686SOL    HW267895   8.562   6.650   3.032  2.4949  1.6522 -2.6360
20687SOL     OW67896   7.495   9.236   4.145 -0.1487  0.4369 -0.2186
20687SOL    HW167897   7.411   9.191   4.141  0.1620 -0.0729 -1.0420
20687SOL    HW267898   7.558   9.176   4.105  0.5548  0.9553  0.0735
20688SOL     OW67899   3.509   2.141   5.101 -0.5190 -0.0943 -0.1605
20688SOL    HW167900   3.512   2.234   5.076  1.5870  0.2697  1.1403
20688SOL    HW267901   3.487   2.095   5.020  1.5805  1.3432 -1.6603
20689SOL     OW67902   8.441   9.973   4.438  0.1945  0.1692  0.6596
20689SOL    HW167903   8.398   9.887   4.439 -0.2971  0.2747 -2.5075
20689SOL    HW267904   8.511   9.964   4.375 -0.2756  2.2685 -0.2528
20690SOL     OW67905   4.642   9.700   0.503 -0.1425  0.1478 -0.2855
20690SOL    HW167906   4.624   9.667   0.591  1.7129  1.6750  0.7625
20690SOL    HW267907   4.572   9.763   0.486 -0.2064  0.2536  0.3524
20691SOL     OW67908   8.619   5.923   8.451 -0.3251 -0.3345 -0.2454
20691SOL    HW167909   8.621   5.845   8.506 -0.2872 -1.0413 -1.2323
20691SOL    HW267910   8.692   5.977   8.484  0.3432 -1.2071 -0.2715
20692SOL     OW67911   6.470   9.116   6.021  0.7436 -0.0135 -0.3403
20692SOL    HW167912   6.441   9.150   5.936 -0.4163 -1.5451 -0.5917
20692SOL    HW267913   6.525   9.041   6.000  0.9457 -0.0331  0.2483
20693SOL     OW67914   5.095   3.081   8.116  0.2763 -0.1931  0.3624
20693SOL    HW167915   5.016   3.033   8.093 -0.6280  0.1673  2.4192
20693SOL    HW267916   5.075   3.172   8.095  0.7352 -0.2860 -0.5041
20694SOL     OW67917   7.581   7.019   6.931  0.2988  0.2442 -0.0420
20694SOL    HW167918   7.518   7.090   6.940  0.8882  0.7121  0.4824
20694SOL    HW267919   7.666   7.063   6.923  0.5787 -0.3741 -0.6133
20695SOL     OW67920   2.689  10.352   4.466 -0.3229  0.2670 -0.2437
20695SOL    HW167921   2.647  10.279   4.420 -0.1974 -0.5461  0.9049
20695SOL    HW267922   2.691  10.325   4.558 -0.9203  2.0310  0.3145
20696SOL     OW67923   8.542   8.618   9.449  0.0813 -0.2100 -0.4466
20696SOL    HW167924   8.570   8.594   9.361  0.0644  0.6105 -0.6872
20696SOL    HW267925   8.619   8.660   9.488  0.1759 -0.8089  0.0335
20697SOL     OW67926   2.698   9.747   6.251 -0.0441 -0.1319 -0.0762
20697SOL    HW167927   2.611   9.708   6.243 -0.2199  0.1479  0.4149
20697SOL    HW267928   2.754   9.675   6.280 -0.5300  0.1396  1.6398
20698SOL     OW67929   0.940   9.766   1.661 -0.3295 -0.3197  0.1179
20698SOL    HW167930   0.941   9.677   1.697 -0.6631 -1.0798 -1.6446
20698SOL    HW267931   1.030   9.780   1.630 -0.7141 -0.7896 -1.2711
20699SOL     OW67932   0.213   6.785   1.741  0.1121  0.3654  0.2156
20699SOL    HW167933   0.175   6.849   1.801  0.6635  1.9936 -1.1216
20699SOL    HW267934   0.305   6.780   1.766  0.0724  0.0803  0.3126
20700SOL     OW67935  10.595   8.778   8.189  0.4145  0.0403  0.5557
20700SOL    HW167936  10.610   8.722   8.265  1.2882 -0.9564 -0.3242
20700SOL    HW267937  10.671   8.837   8.187  1.4244 -1.2323 -0.6291
20701SOL     OW67938   4.780   2.761   1.268 -0.6308 -0.1974 -0.0435
20701SOL    HW167939   4.711   2.778   1.203 -0.3835  0.2909 -0.1792
20701SOL    HW267940   4.732   2.745   1.349 -0.9042  0.3294 -0.0962
20702SOL     OW67941   2.651   0.108   5.939 -0.1294 -0.6408 -0.6819
20702SOL    HW167942   2.630   0.120   6.032  0.7841  1.8701 -0.7220
20702SOL    HW267943   2.727   0.164   5.924 -0.1053 -1.1735 -2.9077
20703SOL     OW67944   3.168   4.925   7.851  0.5678 -0.3603 -0.4985
20703SOL    HW167945   3.089   4.945   7.900  0.3901  1.2747 -1.3691
20703SOL    HW267946   3.147   4.951   7.761  2.1090  0.1579 -0.7335
20704SOL     OW67947   8.516   2.872   5.768 -0.2574  0.2353 -0.0275
20704SOL    HW167948   8.493   2.830   5.685 -1.5020 -0.0407  0.4250
20704SOL    HW267949   8.447   2.937   5.781  1.2735  2.0074 -0.3824
20705SOL     OW67950   2.745   0.573   1.359 -0.2030 -0.0681 -0.1684
20705SOL    HW167951   2.835   0.562   1.328 -0.2097  0.9165 -0.5821
20705SOL    HW267952   2.691   0.533   1.290 -0.1190  0.1991 -0.3923
20706SOL     OW67953   2.432   0.542   2.542  0.3593 -0.2317 -0.5594
20706SOL    HW167954   2.466   0.599   2.473  1.3737  1.6017  1.3383
20706SOL    HW267955   2.345   0.578   2.562 -0.0899 -0.9912 -1.1150
20707SOL     OW67956   7.857   0.062   6.769  0.0335  0.3908 -0.1113
20707SOL    HW167957   7.853   0.132   6.705 -2.3740 -0.1386 -0.6381
20707SOL    HW267958   7.795   0.088   6.838  0.6744 -0.2462  0.7364
20708SOL     OW67959   2.245   2.635   2.919  0.1225 -0.1881  0.7965
20708SOL    HW167960   2.179   2.587   2.869  0.7064 -1.1909  0.9569
20708SOL    HW267961   2.233   2.605   3.009  0.4533  0.0264  0.9122
20709SOL     OW67962   5.303   2.849   2.814 -0.0307 -0.1115  0.6181
20709SOL    HW167963   5.271   2.865   2.725 -1.7743  0.8750  1.3825
20709SOL    HW267964   5.329   2.757   2.813  2.2600  0.4293 -1.5352
20710SOL     OW67965   0.636   2.688   5.302  0.8374 -0.0568 -0.0832
20710SOL    HW167966   0.547   2.723   5.304 -0.3993 -2.7022 -2.2016
20710SOL    HW267967   0.675   2.716   5.385 -2.0894  0.8610  1.1000
20711SOL     OW67968   3.837   2.348   5.044 -0.1001 -0.2313  0.3525
20711SOL    HW167969   3.783   2.425   5.024 -1.2397 -0.9209  0.6616
20711SOL    HW267970   3.873   2.366   5.131 -0.1043  0.0994  0.2864
20712SOL     OW67971   9.162   0.742   1.599  0.3226  0.0753  0.2928
20712SOL    HW167972   9.225   0.805   1.564 -0.1278  0.4462  0.1368
20712SOL    HW267973   9.196   0.720   1.686  1.8703 -1.4610 -0.6546
20713SOL     OW67974   4.988   2.464   5.481  0.1447 -0.4509 -0.0883
20713SOL    HW167975   4.908   2.412   5.465 -0.7875  0.5307  1.1650
20713SOL    HW267976   5.024   2.479   5.394 -1.9410  0.4442 -0.8794
20714SOL     OW67977   7.689   7.807   5.463  0.4522 -0.2752 -0.0969
20714SOL    HW167978   7.730   7.824   5.378  2.4677 -1.0893  0.6419
20714SOL    HW267979   7.678   7.712   5.466  1.6095 -0.4131  1.0086
20715SOL     OW67980   0.549   4.614   9.471  0.4020 -0.0871  0.2856
20715SOL    HW167981   0.560   4.707   9.453  2.1952 -0.2610  0.3482
20715SOL    HW267982   0.616   4.594   9.536 -1.3543 -0.9870  1.9141
20716SOL     OW67983   2.975   5.017   0.448  0.1434 -0.1901 -0.3509
20716SOL    HW167984   2.940   5.082   0.509  2.3723 -0.5205  1.3899
20716SOL    HW267985   2.964   4.933   0.492  0.5635 -0.5908 -0.9938
20717SOL     OW67986  10.631   0.907   8.871 -0.5025 -0.1965  0.1156
20717SOL    HW167987  10.615   0.873   8.960 -0.1326 -0.8714 -0.0660
20717SOL    HW267988  10.699   0.850   8.836  0.4261  0.9949 -0.0681
20718SOL     OW67989   5.092   5.001   2.969 -0.0481 -0.1461 -0.6391
20718SOL    HW167990   5.103   4.906   2.975  0.6032  0.0295  2.7036
20718SOL    HW267991   5.064   5.016   2.879 -2.6086 -3.7270 -0.6510
20719SOL     OW67992   6.740  10.469   3.237  0.0673 -0.1514 -0.1715
20719SOL    HW167993   6.720  10.458   3.330  1.0060 -0.2735  0.0168
20719SOL    HW267994   6.805  10.539   3.234 -1.2875  1.1666 -0.8933
20720SOL     OW67995   7.584   7.998  10.486 -0.1974 -0.0147  0.3233
20720SOL    HW167996   7.626   7.916  10.514 -1.9504 -1.1495 -0.2483
20720SOL    HW267997   7.655   8.047  10.444  0.7523 -1.5292  0.0686
20721SOL     OW67998  10.328   1.941   9.893 -0.1111 -0.5406 -0.0929
20721SOL    HW167999  10.404   1.883   9.894 -0.2658 -0.7702 -0.8404
20721SOL    HW268000  10.350   2.010   9.956  1.4667  0.3405 -1.5158
20722SOL     OW68001   6.430   5.229   4.818  0.0789  0.3681  0.2070
20722SOL    HW168002   6.521   5.202   4.833 -0.4292 -1.2642  0.6428
20722SOL    HW268003   6.415   5.298   4.882  0.3754 -0.9419  1.7765
20723SOL     OW68004   7.615   9.317   8.732  0.2029 -0.7970 -0.6148
20723SOL    HW168005   7.629   9.314   8.637  1.6295 -0.2027 -0.4513
20723SOL    HW268006   7.696   9.356   8.767 -1.1346  0.9761  0.6681
20724SOL     OW68007   7.986   9.411   4.933  0.2719  0.3918  0.5113
20724SOL    HW168008   8.037   9.397   5.013 -1.3546  1.1073  1.7277
20724SOL    HW268009   7.901   9.371   4.951 -0.8473  2.4013 -0.0180
20725SOL     OW68010   1.826   9.964   3.880 -0.4232 -0.1040 -0.3206
20725SOL    HW168011   1.779   9.990   3.801 -0.9708  1.8009  0.5789
20725SOL    HW268012   1.762   9.974   3.950  0.9519  1.4922  0.7962
20726SOL     OW68013   9.943   7.589   2.277 -0.3676  0.6622  0.1994
20726SOL    HW168014   9.884   7.514   2.266 -1.8066  1.7411  0.2064
20726SOL    HW268015  10.014   7.572   2.216 -0.7309 -0.6379  0.0940
20727SOL     OW68016   2.837   5.542   8.833  0.0495  0.3811  0.2783
20727SOL    HW168017   2.805   5.498   8.755 -0.0025 -0.4481  0.7600
20727SOL    HW268018   2.802   5.631   8.827 -2.1039 -0.3755  0.6224
20728SOL     OW68019   5.566   3.345   0.972  0.2797  0.4499  0.3123
20728SOL    HW168020   5.559   3.382   0.884  0.7594 -0.1001  0.0427
20728SOL    HW268021   5.615   3.411   1.022  0.5974  0.4563 -0.0071
20729SOL     OW68022   0.920   2.411   1.976  0.4714  0.4972  0.0709
20729SOL    HW168023   0.933   2.324   2.015  2.0520 -1.2397 -3.8007
20729SOL    HW268024   1.008   2.440   1.953 -0.1300  2.7573  0.4092
20730SOL     OW68025   3.071   0.604   3.543 -0.0588  0.2453  0.0662
20730SOL    HW168026   3.138   0.538   3.527 -0.1349  0.2296 -0.2025
20730SOL    HW268027   3.120   0.685   3.559  0.0265  0.2069 -0.0016
20731SOL     OW68028   9.944  10.453   7.034  0.0177 -0.3191  0.0339
20731SOL    HW168029  10.026  10.502   7.026  0.3559 -1.0052 -0.8099
20731SOL    HW268030   9.959  10.391   7.105  0.0677 -0.1445  0.1762
20732SOL     OW68031   0.832   6.340   3.620  0.4505 -0.0724 -0.3170
20732SOL    HW168032   0.824   6.426   3.578 -1.8384  0.0644  0.3057
20732SOL    HW268033   0.787   6.349   3.704  2.5514 -1.1458  1.0088
20733SOL     OW68034   7.548   5.038   6.482  0.5851 -0.1697  0.2079
20733SOL    HW168035   7.588   5.066   6.400  2.0843 -3.7367 -0.4505
20733SOL    HW268036   7.482   4.973   6.456 -1.3859  1.0781  1.7039
20734SOL     OW68037   8.719  10.670   1.373  0.0559 -0.4204 -0.7979
20734SOL    HW168038   8.647  10.650   1.433 -1.1404  1.5815 -1.4733
20734SOL    HW268039   8.792  10.615   1.404 -1.0416 -0.7727  1.3571
20735SOL     OW68040   0.004   5.170   1.643  0.1734  0.0563 -0.3174
20735SOL    HW168041  -0.058   5.153   1.714 -1.0283 -0.7124 -1.5111
20735SOL    HW268042   0.025   5.263   1.651 -0.9119  0.2685  0.2914
20736SOL     OW68043   8.330  10.373   8.118  0.2165  0.2857 -0.1817
20736SOL    HW168044   8.273  10.354   8.193  1.7528  0.3205  1.0475
20736SOL    HW268045   8.311  10.464   8.096 -0.5171  0.1637 -0.0768
20737SOL     OW68046   6.793   7.765   6.384 -0.0759 -0.2390  0.9480
20737SOL    HW168047   6.843   7.744   6.305 -1.7501  0.9169 -0.5121
20737SOL    HW268048   6.818   7.856   6.403  0.5808 -0.6264  1.9837
20738SOL     OW68049   8.095   7.024   1.268 -0.3367 -0.3716  0.6727
20738SOL    HW168050   8.115   6.957   1.332  1.7392 -0.6004 -0.1153
20738SOL    HW268051   8.066   6.976   1.190 -0.8238 -0.2230  0.7593
20739SOL     OW68052   9.675   9.456   5.023  0.2232  0.1004 -0.2626
20739SOL    HW168053   9.657   9.372   5.066 -0.2728  0.4908  0.3060
20739SOL    HW268054   9.605   9.465   4.958  0.1872  0.1499 -0.2164
20740SOL     OW68055   8.430   7.997   2.795  0.4723 -0.4667  0.3531
20740SOL    HW168056   8.489   8.065   2.829 -1.2927  0.9644  0.7212
20740SOL    HW268057   8.427   8.013   2.700 -3.5836  3.3531  0.7666
20741SOL     OW68058   7.364   3.496   3.583 -0.4177 -0.6478 -0.1857
20741SOL    HW168059   7.404   3.538   3.660  0.7058  3.6027 -2.7720
20741SOL    HW268060   7.416   3.417   3.570 -0.2255 -1.1921  2.9339
20742SOL     OW68061   6.916   9.201   9.989 -0.2793  0.2410  0.7065
20742SOL    HW168062   6.868   9.207  10.071 -0.0733  0.2835  0.8246
20742SOL    HW268063   6.884   9.275   9.937  0.9117  1.3246  1.4502
20743SOL     OW68064   1.958   0.315   6.924  0.1850 -0.0397  0.4119
20743SOL    HW168065   1.977   0.293   6.833  3.6588 -0.4216  1.1102
20743SOL    HW268066   1.877   0.366   6.919 -0.6628 -1.4286 -2.6684
20744SOL     OW68067   5.200   4.431   4.165  0.5791  0.3845 -0.3823
20744SOL    HW168068   5.170   4.522   4.154 -0.5729 -0.2659 -3.8356
20744SOL    HW268069   5.285   4.429   4.121  0.5539 -0.2194 -0.4028
20745SOL     OW68070   0.395   1.273   9.836  0.6110 -0.3347  0.1684
20745SOL    HW168071   0.313   1.308   9.872  0.5837 -0.5119  0.2789
20745SOL    HW268072   0.464   1.316   9.887  0.5795 -0.3526  0.2274
20746SOL     OW68073   7.457   2.918   2.770  0.1735  0.5543  0.2897
20746SOL    HW168074   7.414   2.962   2.697  0.7620 -1.7791 -1.5829
20746SOL    HW268075   7.408   2.946   2.847 -1.2613  2.1276 -1.1049
20747SOL     OW68076  10.197   4.679   0.700  0.0840  0.2069 -0.4193
20747SOL    HW168077  10.108   4.681   0.735  0.3255  0.1366  0.2084
20747SOL    HW268078  10.201   4.755   0.642 -0.5985 -0.1816 -0.9949
20748SOL     OW68079   5.037   3.470   9.557 -0.3337 -0.1748 -0.1144
20748SOL    HW168080   4.951   3.429   9.555 -1.2584  1.6854 -0.3009
20748SOL    HW268081   5.097   3.400   9.534 -1.8446 -1.4019 -0.4719
20749SOL     OW68082   5.501   4.568   9.828 -0.5537 -0.1917  0.4434
20749SOL    HW168083   5.503   4.633   9.758  0.3875  0.9483  1.4747
20749SOL    HW268084   5.593   4.545   9.841 -0.7326 -0.4914  1.2128
20750SOL     OW68085   5.534   9.270   0.978 -0.2683  0.3290  0.1534
20750SOL    HW168086   5.616   9.293   1.022 -1.4659 -1.1272  3.4142
20750SOL    HW268087   5.479   9.348   0.986  0.4076  0.9958 -1.2591
20751SOL     OW68088   0.324   1.520   9.011 -0.7970  0.7423  0.1842
20751SOL    HW168089   0.397   1.493   9.066 -1.1641  1.1991  0.9137
20751SOL    HW268090   0.363   1.577   8.944 -0.3323  0.0901 -0.1065
20752SOL     OW68091   2.747   2.603   4.116  0.5301  0.0470 -0.7453
20752SOL    HW168092   2.825   2.607   4.171 -0.2261 -0.1243  0.3512
20752SOL    HW268093   2.698   2.528   4.149 -1.0691  1.3132 -0.1126
20753SOL     OW68094   2.889   3.890   6.416  0.7917  0.2028  0.1073
20753SOL    HW168095   2.851   3.820   6.469  0.6022  0.6504  0.5687
20753SOL    HW268096   2.838   3.968   6.438  1.4783  0.6516  0.1669
20754SOL     OW68097   4.284   5.790   2.462 -0.1727 -0.0386 -0.4569
20754SOL    HW168098   4.296   5.832   2.547 -0.4946 -0.8407  0.0039
20754SOL    HW268099   4.223   5.718   2.480 -0.0507 -0.3659 -1.3193
20755SOL     OW68100   6.126   2.575   1.232  0.1499  0.1471  0.8340
20755SOL    HW168101   6.115   2.663   1.195 -3.2172 -0.1114  0.9562
20755SOL    HW268102   6.080   2.579   1.316 -2.0571 -2.2631 -0.1357
20756SOL     OW68103   9.178   6.496  10.069 -0.2670 -0.5572  0.0586
20756SOL    HW168104   9.158   6.546  10.148  0.3950  1.7173 -1.1465
20756SOL    HW268105   9.265   6.525  10.043 -0.6315 -0.9267 -1.7319
20757SOL     OW68106   2.306   8.883   1.477 -0.3407 -0.5560  0.2000
20757SOL    HW168107   2.252   8.922   1.545  0.9206  0.0063  0.9224
20757SOL    HW268108   2.378   8.842   1.524  0.7146  0.0877 -0.7835
20758SOL     OW68109  10.533   2.038   7.075  0.0829 -0.2056 -0.5440
20758SOL    HW168110  10.603   2.009   7.134  0.0971 -0.5075 -0.7052
20758SOL    HW268111  10.560   2.125   7.046 -0.3168  0.2954  0.5206
20759SOL     OW68112   1.102   5.818   3.651 -0.7794 -0.5872  0.0293
20759SOL    HW168113   1.129   5.881   3.584 -1.5765  0.3127  0.5259
20759SOL    HW268114   1.017   5.851   3.681 -1.4420 -2.1591 -0.0221
20760SOL     OW68115   4.922   3.094  10.451 -0.0377 -0.2807  0.2002
20760SOL    HW168116   4.990   3.059  10.394  0.7668  0.9071  0.3988
20760SOL    HW268117   4.959   3.175  10.487 -2.1476  1.3021 -0.9458
20761SOL     OW68118   1.218   9.906   3.642 -0.0316 -0.3587  0.1621
20761SOL    HW168119   1.194   9.998   3.651 -1.5581 -0.8160  1.1221
20761SOL    HW268120   1.257   9.882   3.726  0.6652 -0.5243 -0.1960
20762SOL     OW68121   7.270   1.576   5.397  0.6308 -0.1174  0.2498
20762SOL    HW168122   7.279   1.608   5.308  0.7878 -1.8464 -0.4033
20762SOL    HW268123   7.224   1.492   5.388 -1.0254  0.5136  1.9726
20763SOL     OW68124   4.709  10.008   6.519 -0.5010 -0.2055 -0.3044
20763SOL    HW168125   4.656   9.932   6.543 -1.8413  0.5705 -0.7073
20763SOL    HW268126   4.696  10.018   6.425  1.6194 -0.8976 -0.7351
20764SOL     OW68127   6.163   4.826   3.148  0.1827 -0.4027 -0.4437
20764SOL    HW168128   6.240   4.883   3.143  0.3151 -0.3912  1.0884
20764SOL    HW268129   6.199   4.742   3.177 -0.3875 -0.3422  0.4788
20765SOL     OW68130   5.152   6.918   9.669 -0.3050  0.4794  0.4753
20765SOL    HW168131   5.193   6.945   9.587 -1.8806  0.4585 -0.3594
20765SOL    HW268132   5.126   7.000   9.710  0.9567  0.5182  1.2374
20766SOL     OW68133   5.751   1.251   1.776 -0.2018  0.0073  0.2100
20766SOL    HW168134   5.758   1.324   1.715 -0.2770 -0.7007 -0.6719
20766SOL    HW268135   5.701   1.185   1.728  0.5453 -0.9247  0.6845
20767SOL     OW68136   4.714   9.829   6.884  0.3518  0.4685  0.0918
20767SOL    HW168137   4.664   9.794   6.957 -0.8291  1.3301 -0.2590
20767SOL    HW268138   4.758   9.906   6.919  0.3817  0.4544  0.0851
20768SOL     OW68139   8.044   7.775   3.761 -0.0459  0.1979  0.0382
20768SOL    HW168140   7.982   7.738   3.698 -0.9911 -0.3733  1.2573
20768SOL    HW268141   7.998   7.771   3.845  0.8466  1.7482  0.6315
20769SOL     OW68142   7.040   1.879   8.414  0.2209 -0.0221 -0.6243
20769SOL    HW168143   7.109   1.923   8.364 -0.1638  0.5909 -0.6311
20769SOL    HW268144   6.974   1.854   8.349  1.4228 -2.6306 -0.9482
20770SOL     OW68145   0.945   8.909   8.777 -0.1537 -0.1123 -0.4419
20770SOL    HW168146   0.854   8.939   8.778  0.2797  1.2928 -0.7445
20770SOL    HW268147   0.970   8.907   8.869 -0.2804  0.1531 -0.4006
20771SOL     OW68148   1.098   5.373   3.529  0.6190 -0.1993  0.1195
20771SOL    HW168149   1.065   5.358   3.440  0.8849 -2.1793  0.3117
20771SOL    HW268150   1.179   5.322   3.534  1.1140  0.6347  1.2302
20772SOL     OW68151   1.488   3.886   0.169 -0.4585 -0.3578  0.4978
20772SOL    HW168152   1.563   3.863   0.114  0.1245  1.1269  0.6301
20772SOL    HW268153   1.477   3.811   0.227  1.1843 -0.4487  0.7376
20773SOL     OW68154   9.113   4.018   3.386  0.1481 -0.0057 -0.0546
20773SOL    HW168155   9.136   4.075   3.459 -0.0366  0.9226 -0.6974
20773SOL    HW268156   9.122   3.929   3.420 -0.2888  0.4171  1.1939
20774SOL     OW68157   5.179   2.821   2.049  0.6462  0.5780 -0.6941
20774SOL    HW168158   5.126   2.846   2.124 -0.3356  1.2539 -1.5831
20774SOL    HW268159   5.115   2.795   1.982  1.4101  1.6861 -1.8966
20775SOL     OW68160  10.327   6.237   1.949  0.0957  0.3126 -0.2517
20775SOL    HW168161  10.340   6.155   1.902 -1.8477  0.3228 -0.8588
20775SOL    HW268162  10.415   6.260   1.980  0.8963 -1.3026 -1.1765
20776SOL     OW68163   4.770   8.964   0.529 -0.2699  0.2001  0.4870
20776SOL    HW168164   4.716   9.017   0.470  0.4893  1.2121  0.6696
20776SOL    HW268165   4.849   8.945   0.478 -0.0564  0.2045  0.8164
20777SOL     OW68166   0.380   1.509   0.667 -0.2953  0.3795  0.1580
20777SOL    HW168167   0.398   1.455   0.590 -1.0975  1.1759 -0.6096
20777SOL    HW268168   0.467   1.535   0.698  0.0506 -0.1820 -0.3067
20778SOL     OW68169   0.308   5.636   9.450 -0.2865  0.0196 -0.0960
20778SOL    HW168170   0.319   5.731   9.458 -0.5302  0.0519 -0.1358
20778SOL    HW268171   0.377   5.609   9.389 -0.1345  0.1528  0.0182
20779SOL     OW68172  10.351   1.705  10.425  0.1923 -0.0440  0.0286
20779SOL    HW168173  10.358   1.630  10.485 -1.3009  0.4389  0.8759
20779SOL    HW268174  10.260   1.704  10.396  0.5565  0.5401 -1.2007
20780SOL     OW68175   3.025   7.152   5.838 -0.1300 -0.2165 -0.1045
20780SOL    HW168176   3.090   7.110   5.782  1.0771  0.2564  0.8967
20780SOL    HW268177   3.046   7.245   5.834 -0.9436 -0.0165  0.0042
20781SOL     OW68178   5.177   3.978   4.409  0.4528  0.4615  0.4929
20781SOL    HW168179   5.160   3.887   4.384 -0.3454  0.4658  0.9648
20781SOL    HW268180   5.189   3.975   4.504 -1.2741  1.0502  0.7680
20782SOL     OW68181  10.526   4.675   9.097  0.2739  0.0012 -0.6444
20782SOL    HW168182  10.515   4.628   9.015  2.4935  0.4469 -1.2690
20782SOL    HW268183  10.618   4.660   9.121  0.4359  2.1318  0.2918
20783SOL     OW68184   2.179   1.094   8.632 -0.0969  0.4350  0.1229
20783SOL    HW168185   2.147   1.041   8.705  0.2695  0.7255  0.5056
20783SOL    HW268186   2.196   1.180   8.671 -2.0878  1.2989 -0.7882
20784SOL     OW68187   3.963   3.133   3.758  0.2640  0.4452  0.2478
20784SOL    HW168188   3.923   3.182   3.830  1.1741  0.6392  0.6243
20784SOL    HW268189   4.048   3.105   3.791 -0.4491 -1.9238  0.2634
20785SOL     OW68190   8.278   2.098   1.664 -0.3099  0.8160 -0.4658
20785SOL    HW168191   8.356   2.151   1.675  0.5617 -0.3211 -0.9877
20785SOL    HW268192   8.305   2.026   1.607 -0.6753 -1.6928  2.2396
20786SOL     OW68193   7.388   5.698   4.333  0.2608 -0.1640 -0.1644
20786SOL    HW168194   7.359   5.614   4.369  0.4031  0.4810  1.5431
20786SOL    HW268195   7.389   5.684   4.238  1.3442 -2.4424  0.1098
20787SOL     OW68196   7.419   9.090   1.475  0.0715  1.0039 -0.1595
20787SOL    HW168197   7.353   9.040   1.523  0.3584  0.5396 -0.2410
20787SOL    HW268198   7.474   9.024   1.433  0.2409  1.3927 -0.5687
20788SOL     OW68199   5.550   7.435   8.934  0.2565 -0.3149 -0.2390
20788SOL    HW168200   5.496   7.357   8.952  0.3589 -0.3874 -0.2488
20788SOL    HW268201   5.561   7.476   9.020 -0.4623  0.1238 -0.3414
20789SOL     OW68202   2.051   1.760   6.204 -0.0538  0.2898  0.2746
20789SOL    HW168203   2.138   1.732   6.175 -0.6213 -0.9001 -0.3386
20789SOL    HW268204   2.035   1.710   6.284  0.0257  0.8739  0.6571
20790SOL     OW68205   6.417   5.179   6.899 -0.3812 -0.1617  0.4776
20790SOL    HW168206   6.465   5.115   6.847  2.0465  1.1152  1.0100
20790SOL    HW268207   6.351   5.214   6.839  0.9421 -0.2656 -1.0852
20791SOL     OW68208   1.884   2.194   9.057 -0.1417  0.9864 -0.0936
20791SOL    HW168209   1.819   2.155   9.116  0.3699  0.4666  0.1437
20791SOL    HW268210   1.887   2.135   8.982  1.8161 -0.4074  0.9916
20792SOL     OW68211   3.868   4.804   7.989 -0.6698  0.0308  0.8339
20792SOL    HW168212   3.913   4.728   8.026 -1.6218  0.6293  3.4644
20792SOL    HW268213   3.775   4.785   8.003 -0.9329  1.5491  1.3626
20793SOL     OW68214   8.912   9.725   0.189 -0.1927  0.0737  0.1229
20793SOL    HW168215   8.967   9.768   0.123 -0.0017 -0.9981 -0.4374
20793SOL    HW268216   8.973   9.700   0.258 -0.2221  0.2264  0.2049
20794SOL     OW68217   0.295   5.478  10.147 -0.0585 -0.2863 -0.1394
20794SOL    HW168218   0.327   5.507  10.232  0.0595 -0.9973  0.0674
20794SOL    HW268219   0.209   5.439  10.165  0.2615 -1.0475 -0.2379
20795SOL     OW68220   9.470   2.876   4.547  0.1777  0.1066  0.1857
20795SOL    HW168221   9.488   2.795   4.501  2.4469  1.5057 -1.6128
20795SOL    HW268222   9.388   2.908   4.509 -0.3188 -0.9296  0.3561
20796SOL     OW68223   1.887   6.354  10.431 -0.1158 -0.3141  0.2673
20796SOL    HW168224   1.979   6.378  10.444 -0.4745  0.8599  0.8212
20796SOL    HW268225   1.845   6.379  10.514 -1.0321 -0.2858 -0.2004
20797SOL     OW68226   4.103   1.646   1.641 -0.4929 -0.2499 -0.3411
20797SOL    HW168227   4.122   1.739   1.632 -0.6964 -0.0565  0.9959
20797SOL    HW268228   4.074   1.636   1.732  0.2812 -1.7487 -0.2224
20798SOL     OW68229  10.514   3.584   3.344  0.0152 -0.1379 -0.3642
20798SOL    HW168230  10.465   3.515   3.389  0.5217  0.2216  0.7749
20798SOL    HW268231  10.579   3.613   3.408 -1.1168  2.4134 -0.2144
20799SOL     OW68232   0.979   9.728   0.410  0.6126 -1.3049  0.6711
20799SOL    HW168233   1.033   9.720   0.489 -0.2487  0.3933  1.5016
20799SOL    HW268234   0.903   9.672   0.427  0.9202 -1.7487  0.5901
20800SOL     OW68235   1.261   8.686   4.634  0.5986  0.5042 -0.1606
20800SOL    HW168236   1.254   8.695   4.539  0.4219  1.7662 -0.0454
20800SOL    HW268237   1.332   8.623   4.647  0.5878  0.2751 -1.1255
20801SOL     OW68238   5.104   7.292   3.595  0.0603  0.0102  0.1143
20801SOL    HW168239   5.167   7.316   3.527  0.1023 -0.7676 -0.1246
20801SOL    HW268240   5.129   7.347   3.670  1.2677 -0.5465  0.1541
20802SOL     OW68241   2.737   3.019   4.884 -0.4476 -0.5202 -0.1826
20802SOL    HW168242   2.672   3.064   4.938  2.0205  2.5781  0.5017
20802SOL    HW268243   2.813   3.009   4.941  1.6819  1.3720 -2.4466
20803SOL     OW68244   7.348   9.941   9.116  0.0280  0.7239  0.1793
20803SOL    HW168245   7.422   9.881   9.128 -0.6812  0.2819  2.9791
20803SOL    HW268246   7.279   9.888   9.077  0.9096  0.9794 -1.8327
20804SOL     OW68247   7.375   2.020   2.621  0.0902 -0.5599  0.0958
20804SOL    HW168248   7.404   2.111   2.620 -2.1657  0.2594 -2.2935
20804SOL    HW268249   7.454   1.969   2.601  1.8117  0.5953  3.3461
20805SOL     OW68250   8.809  10.199   3.555 -0.0009 -0.0871 -0.1953
20805SOL    HW168251   8.784  10.221   3.644 -2.0423  1.0149 -0.9670
20805SOL    HW268252   8.765  10.115   3.538 -1.4312  0.7542 -0.8230
20806SOL     OW68253   6.680   9.867   6.922 -0.4968  0.3558  0.9652
20806SOL    HW168254   6.728   9.785   6.932  1.8839  1.2253 -2.0559
20806SOL    HW268255   6.732   9.931   6.971 -1.2207  0.4831  1.5897
20807SOL     OW68256  10.183   2.348   1.071 -0.3004 -0.0515  0.3121
20807SOL    HW168257  10.152   2.282   1.133 -0.5014 -1.5904 -1.3633
20807SOL    HW268258  10.272   2.320   1.048  0.7733  1.9212  1.7700
20808SOL     OW68259   7.865   1.349   7.493 -0.5591 -0.3076 -0.1616
20808SOL    HW168260   7.922   1.380   7.423  0.8517 -2.0418  0.1454
20808SOL    HW268261   7.912   1.370   7.574 -0.4952 -1.4208  0.1086
20809SOL     OW68262   7.253  10.558   7.058 -0.1553  0.2899  0.6875
20809SOL    HW168263   7.278  10.548   7.150  1.5793 -1.0210  0.1325
20809SOL    HW268264   7.282  10.477   7.016 -0.2022  1.1680 -1.1578
20810SOL     OW68265   8.560   7.113   9.316  0.1186 -0.0130 -0.1295
20810SOL    HW168266   8.551   7.033   9.368 -0.1560 -0.8099 -1.3626
20810SOL    HW268267   8.497   7.174   9.355 -2.0172 -1.4797 -1.1152
20811SOL     OW68268   1.794   7.884   9.260  0.0887  0.2998  0.3347
20811SOL    HW168269   1.855   7.868   9.189 -0.3352 -1.6820  0.3525
20811SOL    HW268270   1.768   7.796   9.289 -3.0042  1.0298  0.1009
20812SOL     OW68271   2.802   2.363   9.691 -0.6827  0.6061  0.5085
20812SOL    HW168272   2.749   2.300   9.740 -3.0977  0.2098 -2.3304
20812SOL    HW268273   2.870   2.310   9.650 -1.3782  0.1570 -0.1019
20813SOL     OW68274   8.090   1.697   1.506  0.5919 -0.1116  0.5581
20813SOL    HW168275   8.108   1.707   1.600  0.5580  0.2123  0.5314
20813SOL    HW268276   8.175   1.705   1.464  0.4222  1.3061  0.4413
20814SOL     OW68277   4.102   2.106   3.718  0.2845 -0.1602 -0.0688
20814SOL    HW168278   4.192   2.092   3.691  0.4437  0.3463  0.1822
20814SOL    HW268279   4.105   2.101   3.814  0.1399  0.3654 -0.0339
20815SOL     OW68280   4.266   9.365  10.138 -0.2014  0.4989  0.5457
20815SOL    HW168281   4.173   9.364  10.114 -0.1044  0.8352  0.1446
20815SOL    HW268282   4.269   9.320  10.222 -0.7541  0.6476  0.6513
20816SOL     OW68283   5.475   2.903   1.194  0.0555 -0.0224 -0.6906
20816SOL    HW168284   5.505   2.951   1.118  1.2764  0.4574  0.0685
20816SOL    HW268285   5.547   2.909   1.257 -1.0763 -0.0379  0.6705
20817SOL     OW68286   5.661   3.146   2.007  0.5337  0.5641 -0.0584
20817SOL    HW168287   5.650   3.181   2.096 -0.2605 -2.3993  1.1294
20817SOL    HW268288   5.754   3.158   1.988  0.5948  1.8373  0.8887
20818SOL     OW68289   0.812   5.320   2.837  0.2513 -0.6530  0.0656
20818SOL    HW168290   0.738   5.375   2.812  0.1724 -0.7582  0.0705
20818SOL    HW268291   0.846   5.288   2.753 -0.8665 -2.1382  0.1412
20819SOL     OW68292   0.686   1.073   1.052 -0.2238  0.3162  0.2015
20819SOL    HW168293   0.688   1.060   0.957  0.9927 -1.5947  0.4445
20819SOL    HW268294   0.753   1.139   1.069 -0.6897  0.9247 -0.2847
20820SOL     OW68295   0.890   1.472  10.137  0.0384  0.4775  0.0757
20820SOL    HW168296   0.891   1.501  10.046  0.0301 -1.0758 -0.4588
20820SOL    HW268297   0.802   1.494  10.168  0.6445  2.7586  0.3535
20821SOL     OW68298   0.348   4.320   9.942  0.3564 -0.7566  0.5214
20821SOL    HW168299   0.357   4.235   9.899  1.4944 -0.6600  0.5527
20821SOL    HW268300   0.407   4.316  10.017  0.3577  0.0302  0.5706
20822SOL     OW68301   6.672  10.416   3.516 -0.0644 -0.1202 -0.0809
20822SOL    HW168302   6.597  10.358   3.503 -1.3308  1.8082 -2.0924
20822SOL    HW268303   6.644  10.477   3.584 -0.1422  0.2913 -0.4754
20823SOL     OW68304   3.638   5.733   5.732 -0.0651  0.7512 -0.1926
20823SOL    HW168305   3.647   5.754   5.825  0.7966  0.3165 -0.1691
20823SOL    HW268306   3.544   5.741   5.715  0.0251  3.3129  0.1139
20824SOL     OW68307   9.546   5.383   6.008 -0.5671 -0.4289 -0.2427
20824SOL    HW168308   9.587   5.321   5.947  1.7574  1.0533 -0.2716
20824SOL    HW268309   9.543   5.335   6.091 -0.3601 -1.1643 -0.6435
20825SOL     OW68310   7.584  10.426   5.880 -0.1257 -0.4360  0.2986
20825SOL    HW168311   7.536  10.359   5.831  0.4519 -1.1579  0.6916
20825SOL    HW268312   7.559  10.508   5.838 -0.7129 -0.9084 -0.3155
20826SOL     OW68313   1.445   0.902   0.640 -0.1785 -0.4263  0.1109
20826SOL    HW168314   1.492   0.926   0.560  0.4714 -1.0455  0.2860
20826SOL    HW268315   1.353   0.909   0.617 -0.0018 -0.5238 -0.6725
20827SOL     OW68316   5.145  10.278   3.553  0.1858  0.0625 -0.4563
20827SOL    HW168317   5.179  10.250   3.468  0.1698  1.6827 -1.0095
20827SOL    HW268318   5.216  10.259   3.614  1.3591  1.5388 -1.2940
20828SOL     OW68319   6.510   3.044   5.602 -0.3466  0.4334 -0.1432
20828SOL    HW168320   6.596   3.078   5.580 -0.3380  0.2597 -0.3855
20828SOL    HW268321   6.519   2.949   5.595  0.5306  0.0574  3.5830
20829SOL     OW68322   1.755   7.100  10.274 -0.4862  0.0415 -0.3719
20829SOL    HW168323   1.839   7.129  10.241 -0.0527 -0.2895  0.4101
20829SOL    HW268324   1.756   7.005  10.263 -0.4613 -0.0416  0.2807
20830SOL     OW68325   9.391   3.059   4.772  0.2072  0.3119  0.2813
20830SOL    HW168326   9.427   3.138   4.732  0.3820  0.0316 -0.1282
20830SOL    HW268327   9.403   2.991   4.705 -1.5746  0.3241 -0.1056
20831SOL     OW68328   2.365   5.914   2.838 -0.3436 -0.1725 -0.5968
20831SOL    HW168329   2.314   5.834   2.830 -0.4789 -0.0303 -1.2547
20831SOL    HW268330   2.408   5.924   2.753  0.2279  0.0830 -0.2863
20832SOL     OW68331   6.540  10.617   4.296 -0.2257  0.3408 -0.1400
20832SOL    HW168332   6.561  10.708   4.318 -2.0414  0.9002 -0.5189
20832SOL    HW268333   6.567  10.567   4.372 -0.6125  1.4125  0.7399
20833SOL     OW68334   5.393   3.515   8.163  0.3982 -0.4865  0.0557
20833SOL    HW168335   5.313   3.531   8.112  1.2255  0.8933 -0.8795
20833SOL    HW268336   5.376   3.433   8.209 -1.5608 -0.2198 -0.1019
20834SOL     OW68337   6.585   7.869   1.197 -0.1570  0.2354  0.0222
20834SOL    HW168338   6.542   7.823   1.269 -0.7178  0.9736  0.1634
20834SOL    HW268339   6.583   7.806   1.125  0.1864 -0.4171  0.5723
20835SOL     OW68340   5.748   6.340   1.739  0.1171 -0.3804 -0.3709
20835SOL    HW168341   5.792   6.422   1.759  2.3782 -1.5099 -0.3859
20835SOL    HW268342   5.739   6.296   1.824 -2.2476  0.3345 -0.1656
20836SOL     OW68343   3.210   0.187   0.678 -0.3058 -0.3783 -0.0700
20836SOL    HW168344   3.135   0.130   0.694 -2.6564  2.2377 -1.0217
20836SOL    HW268345   3.224   0.233   0.761  0.4289 -1.0120  0.1695
20837SOL     OW68346   7.870   3.549   6.055  0.2743  0.1933  0.1266
20837SOL    HW168347   7.866   3.461   6.017  0.0517 -0.1489  0.9118
20837SOL    HW268348   7.904   3.604   5.985  0.4208 -0.5212 -0.3767
20838SOL     OW68349   8.048   0.358   3.561  0.3183  0.2420  0.0934
20838SOL    HW168350   7.997   0.301   3.503 -1.8402  1.0000  1.1127
20838SOL    HW268351   8.044   0.315   3.646 -0.6799  1.4570  0.7034
20839SOL     OW68352   2.401   3.583   7.181  0.0394  0.5455  0.2738
20839SOL    HW168353   2.416   3.677   7.181 -0.8379  0.7030 -0.5971
20839SOL    HW268354   2.430   3.554   7.268  1.3868  1.4269  0.1525
20840SOL     OW68355   1.704   3.893   1.275  0.0477 -0.2869 -0.0403
20840SOL    HW168356   1.677   3.809   1.240  1.3095 -0.6319 -0.2319
20840SOL    HW268357   1.800   3.890   1.276  0.2562  2.0283 -2.3287
20841SOL     OW68358   3.257   7.604   2.984  0.2099 -0.2176  0.4744
20841SOL    HW168359   3.307   7.542   2.931  1.0231  1.0392 -0.2989
20841SOL    HW268360   3.234   7.674   2.923 -1.9599 -0.4180  0.9716
20842SOL     OW68361   4.680  10.580   1.502  0.5513 -0.0466 -0.3236
20842SOL    HW168362   4.689  10.634   1.581 -1.2862  0.1102 -0.1766
20842SOL    HW268363   4.700  10.639   1.430  3.3833 -0.4620 -0.0257
20843SOL     OW68364   1.908   4.909   4.208  0.4071 -0.8219 -0.4677
20843SOL    HW168365   1.998   4.901   4.177  1.3387  1.5297  1.3335
20843SOL    HW268366   1.907   4.991   4.259 -2.9437 -0.3409 -1.0680
20844SOL     OW68367   8.596   2.622   1.064 -0.5688 -0.6451  0.4297
20844SOL    HW168368   8.532   2.623   1.135 -0.5172 -0.4004  0.4749
20844SOL    HW268369   8.568   2.551   1.007 -0.4492 -1.0273  0.8431
20845SOL     OW68370   5.727   9.245   4.275 -0.3298  0.2293  0.6133
20845SOL    HW168371   5.770   9.329   4.255  0.1410 -0.4337 -1.3812
20845SOL    HW268372   5.799   9.189   4.304 -0.5091  0.2563  1.1151
20846SOL     OW68373   5.154   7.376   9.940  0.4630 -0.7756  0.3628
20846SOL    HW168374   5.168   7.445   9.874  0.9241 -0.3837  0.8591
20846SOL    HW268375   5.074   7.403   9.986  0.6179 -0.5865  0.5264
20847SOL     OW68376   7.261   3.805   2.148  0.0293 -0.6081  0.7242
20847SOL    HW168377   7.246   3.895   2.119  1.0680 -0.4909  0.5023
20847SOL    HW268378   7.304   3.763   2.073 -2.7656 -2.0608 -0.2080
20848SOL     OW68379   5.278   7.534  10.469 -0.4179  0.4041 -0.0050
20848SOL    HW168380   5.315   7.609  10.515  2.2769  0.7105 -2.4049
20848SOL    HW268381   5.238   7.571  10.390  0.0829 -0.5310 -0.7271
20849SOL     OW68382   3.239   7.103   5.646 -0.0535  0.1056  0.0480
20849SOL    HW168383   3.185   7.034   5.607 -1.8380  2.4254 -1.8330
20849SOL    HW268384   3.283   7.144   5.572 -0.0050  1.7599  0.9500
20850SOL     OW68385   9.097   4.943   9.793 -0.2910  0.1129 -0.2000
20850SOL    HW168386   9.167   4.960   9.731 -1.3838  0.0703 -1.4968
20850SOL    HW268387   9.108   5.009   9.861  3.6218 -2.5144  2.0878
20851SOL     OW68388   0.904   1.435  10.563 -0.3937  0.1133 -0.0154
20851SOL    HW168389   0.980   1.438  10.620  0.0322 -0.8039 -0.5060
20851SOL    HW268390   0.899   1.522  10.523  1.3076 -0.2497 -1.1087
20852SOL     OW68391   0.886   3.140   0.544 -0.2969 -0.7269  0.2617
20852SOL    HW168392   0.887   3.235   0.533  0.2997 -0.6788  0.6638
20852SOL    HW268393   0.823   3.109   0.479  1.3025 -0.2526 -1.6359
20853SOL     OW68394   1.369   4.530   4.103  0.4130 -0.6401 -0.1613
20853SOL    HW168395   1.370   4.484   4.019 -0.0098 -0.7069 -0.1298
20853SOL    HW268396   1.391   4.462   4.167  1.7484 -0.3824 -0.3087
20854SOL     OW68397   0.609   5.062   6.176  0.4745 -0.1137  0.4505
20854SOL    HW168398   0.632   5.142   6.224  0.6771  0.0732  0.0471
20854SOL    HW268399   0.672   5.059   6.104 -0.2887 -0.0065 -0.2275
20855SOL     OW68400   1.171   0.627   1.231  0.2720  0.1858 -0.2396
20855SOL    HW168401   1.159   0.595   1.321 -0.8115  1.7725  0.2272
20855SOL    HW268402   1.088   0.608   1.188 -0.1664  1.7701 -0.1239
20856SOL     OW68403   3.942   9.276   4.765  0.0074 -0.0100  0.2894
20856SOL    HW168404   3.978   9.364   4.763  0.9957 -0.4039 -0.9356
20856SOL    HW268405   3.891   9.270   4.684 -2.0314  0.1956  1.5067
20857SOL     OW68406   1.119   2.116   5.184 -0.3016  0.5709  0.0911
20857SOL    HW168407   1.063   2.065   5.243  1.6838 -1.5401  0.3255
20857SOL    HW268408   1.066   2.130   5.106 -1.9408  0.7597  1.2076
20858SOL     OW68409   8.269   4.644   5.906  0.3064  0.0720 -0.1295
20858SOL    HW168410   8.216   4.566   5.888 -0.3043  0.2909  0.6577
20858SOL    HW268411   8.356   4.621   5.875  0.0726 -0.8238 -0.1593
20859SOL     OW68412   6.092   1.260   5.502  0.4138 -0.2435 -0.5848
20859SOL    HW168413   6.052   1.239   5.587  1.8084  1.7654  0.6753
20859SOL    HW268414   6.030   1.227   5.437 -1.7316 -0.0549  1.2452
20860SOL     OW68415   5.907  10.392   4.799  0.2468  0.3439 -0.0676
20860SOL    HW168416   5.835  10.388   4.736 -1.0512 -0.9766  1.4315
20860SOL    HW268417   5.871  10.439   4.874  1.1900  0.3289  0.4089
20861SOL     OW68418   2.754  10.398   5.730 -0.3405  0.6013 -0.7269
20861SOL    HW168419   2.690  10.369   5.666 -1.0368 -0.5735  0.4481
20861SOL    HW268420   2.754  10.330   5.797  0.4097  1.7363  0.4881
20862SOL     OW68421   4.542   4.603   6.677  0.6204  0.6154  0.0275
20862SOL    HW168422   4.629   4.642   6.663  1.0418 -0.1906  0.3132
20862SOL    HW268423   4.482   4.676   6.672  1.2969  1.1499 -0.4567
20863SOL     OW68424   1.720   0.718   3.712 -0.0610 -0.0272  0.0746
20863SOL    HW168425   1.736   0.786   3.778  1.1894 -0.8221  0.6303
20863SOL    HW268426   1.654   0.662   3.752  0.3620 -0.2481  0.4803
20864SOL     OW68427   7.217   9.516   0.653  0.0742  0.1730 -0.5385
20864SOL    HW168428   7.218   9.589   0.591  0.6462  2.1187  1.5977
20864SOL    HW268429   7.309   9.492   0.664  0.6739  3.1365  2.9457
20865SOL     OW68430   9.856   0.323   9.512  0.1564  0.2748  0.3079
20865SOL    HW168431   9.810   0.400   9.479  0.1103  0.9242  1.8115
20865SOL    HW268432   9.933   0.316   9.455 -0.2627  0.9281 -0.3706
20866SOL     OW68433   1.033  10.596   6.506 -0.2213  0.5776  0.4570
20866SOL    HW168434   0.942  10.569   6.495 -0.1940  0.5345  0.3341
20866SOL    HW268435   1.052  10.578   6.598 -0.7689  1.9256  0.8530
20867SOL     OW68436   0.236   2.093  10.561 -0.0397 -0.6987  0.1129
20867SOL    HW168437   0.327   2.066  10.552 -0.2219 -1.0437 -0.9498
20867SOL    HW268438   0.234   2.183  10.528  0.1138 -0.2722  1.2386
20868SOL     OW68439   4.736   0.574   8.588  0.4331 -0.4751  0.5934
20868SOL    HW168440   4.764   0.544   8.674  0.9285 -1.8959 -0.0390
20868SOL    HW268441   4.674   0.645   8.606 -1.0941 -2.1288  2.1856
20869SOL     OW68442   0.189   5.511   4.012  0.2400  0.2735 -0.1629
20869SOL    HW168443   0.276   5.534   4.043  0.9018  0.6813 -2.2005
20869SOL    HW268444   0.154   5.453   4.080  2.0855  0.0878  0.6832
20870SOL     OW68445   6.853   8.072   6.186  0.2040  0.8640 -0.4574
20870SOL    HW168446   6.828   8.037   6.100  0.1606  0.3209 -0.2307
20870SOL    HW268447   6.857   8.167   6.174 -0.1023  0.8128 -0.9819
20871SOL     OW68448   4.736   9.475   7.167  0.1515  0.0551  0.5245
20871SOL    HW168449   4.827   9.470   7.197 -0.4436  0.8679  2.6716
20871SOL    HW268450   4.687   9.419   7.227 -0.8797  0.2656 -0.0879
20872SOL     OW68451   1.588   3.824   8.163  0.4940  0.3161  0.3804
20872SOL    HW168452   1.622   3.899   8.114  0.7928  0.6531  1.0895
20872SOL    HW268453   1.546   3.862   8.240 -0.5883 -0.1679  0.0471
20873SOL     OW68454   8.686   5.864   4.382  0.3280  0.5561  0.1400
20873SOL    HW168455   8.753   5.858   4.450 -0.2461 -0.9591  0.5984
20873SOL    HW268456   8.677   5.775   4.349 -0.7266  0.9313 -0.6433
20874SOL     OW68457   1.422   3.043   4.619 -0.5509 -0.0819  0.4527
20874SOL    HW168458   1.406   3.119   4.676 -1.2577  0.4753 -0.4565
20874SOL    HW268459   1.423   2.968   4.679 -0.5825  0.5642  1.2795
20875SOL     OW68460   5.330   7.004   9.899  0.7501  0.4833 -0.3699
20875SOL    HW168461   5.245   6.959   9.895  0.0053  1.9165 -1.2433
20875SOL    HW268462   5.357   7.015   9.808 -0.1322  3.6102 -0.3830
20876SOL     OW68463   5.105   0.014   9.549  0.2672  0.2261 -0.1417
20876SOL    HW168464   5.047   0.037   9.621 -0.3726 -0.6977 -0.3306
20876SOL    HW268465   5.090   0.082   9.483 -2.0130 -0.9145 -0.9397
20877SOL     OW68466   7.444   1.704   9.647  1.1952  0.1152  0.2998
20877SOL    HW168467   7.359   1.746   9.637  1.2209  0.1759  0.3370
20877SOL    HW268468   7.442   1.631   9.586  0.5087 -0.8469  1.4357
20878SOL     OW68469   0.659   5.534   0.396 -0.3541 -0.0936  0.4462
20878SOL    HW168470   0.616   5.549   0.312 -0.5894  2.4018  0.9303
20878SOL    HW268471   0.639   5.443   0.418 -2.1206 -0.1439 -1.1621
20879SOL     OW68472   6.017   0.701   8.787  0.0362  0.3654  0.3413
20879SOL    HW168473   6.031   0.793   8.810  0.3635 -0.1423  2.3508
20879SOL    HW268474   5.996   0.658   8.870  0.0754 -1.4235 -0.5202
20880SOL     OW68475   3.262   6.479   4.844 -0.2106  0.4068 -0.2734
20880SOL    HW168476   3.357   6.478   4.857  0.1348 -1.5372 -2.3816
20880SOL    HW268477   3.235   6.387   4.852 -1.7417  0.7688 -0.8006
20881SOL     OW68478   8.327   5.375   9.967 -0.4349 -0.2959  0.7408
20881SOL    HW168479   8.275   5.370   9.887 -0.5842  1.1335  0.7176
20881SOL    HW268480   8.262   5.376  10.037 -0.5196  1.8577  0.6966
20882SOL     OW68481   1.446   3.170   1.868  0.2448 -0.2202  0.3839
20882SOL    HW168482   1.520   3.111   1.852  0.3019 -0.4505  1.4422
20882SOL    HW268483   1.381   3.145   1.802  1.0275 -0.1466 -0.4334
20883SOL     OW68484   1.083   3.402   8.580 -0.4035 -0.3408 -0.3525
20883SOL    HW168485   1.107   3.397   8.673 -2.1942  0.0514  0.1837
20883SOL    HW268486   1.163   3.430   8.536  1.0216 -2.3665  0.7915
20884SOL     OW68487   8.120   8.556   4.298  0.0876  0.0985  0.1818
20884SOL    HW168488   8.212   8.563   4.325  0.0484  1.4474  0.0275
20884SOL    HW268489   8.122   8.564   4.203 -0.3447  2.3626  0.3201
20885SOL     OW68490   8.864   1.543   3.248 -0.2553 -0.5566  0.3212
20885SOL    HW168491   8.953   1.569   3.273 -0.8460 -0.3448  2.4509
20885SOL    HW268492   8.875   1.495   3.166  1.6889  0.3747 -0.0232
20886SOL     OW68493   9.051   5.063   2.071  0.1759 -0.3101 -0.1531
20886SOL    HW168494   9.019   5.153   2.078  1.1175 -0.0874  1.8901
20886SOL    HW268495   8.993   5.022   2.006 -0.8111  1.5151 -0.4938
20887SOL     OW68496   3.077   4.038   1.758 -0.4398 -0.5577  0.3325
20887SOL    HW168497   3.021   4.112   1.734  0.8849  0.1323 -0.8162
20887SOL    HW268498   3.052   3.968   1.697 -0.1821 -0.3000 -0.0776
20888SOL     OW68499   5.175   6.251   2.954  0.0559  0.5898 -0.4131
20888SOL    HW168500   5.161   6.186   2.885  0.2606  0.9262 -0.7767
20888SOL    HW268501   5.213   6.202   3.027 -0.0434  0.2551 -0.5876
20889SOL     OW68502   0.985   0.558   5.196  0.0764 -0.6560  0.6485
20889SOL    HW168503   0.913   0.504   5.227  0.2576 -0.6367  1.1231
20889SOL    HW268504   1.012   0.519   5.113 -1.1979 -0.0067 -0.0969
20890SOL     OW68505   1.941   9.269   8.427  0.8467  0.2017  0.2560
20890SOL    HW168506   1.984   9.314   8.353  1.6320 -0.3360  0.3706
20890SOL    HW268507   1.888   9.201   8.386  2.3572 -1.0125  0.2047
20891SOL     OW68508   1.448   4.118   9.980 -0.1342 -0.6304 -0.0212
20891SOL    HW168509   1.444   4.062  10.057 -0.8550 -0.9237 -0.2624
20891SOL    HW268510   1.540   4.141   9.972  0.0176 -0.9681  0.6607
20892SOL     OW68511  10.677   0.509   0.927  0.0529  0.0747  0.2393
20892SOL    HW168512  10.751   0.457   0.895 -1.8575 -1.6966 -1.5731
20892SOL    HW268513  10.707   0.600   0.919  1.2422 -0.4637 -2.7881
20893SOL     OW68514   9.987   7.264   1.609 -0.5291 -0.0090  0.1642
20893SOL    HW168515  10.079   7.242   1.624 -0.0661  1.4818 -0.3056
20893SOL    HW268516   9.943   7.179   1.603  1.0149 -0.7899 -0.8168
20894SOL     OW68517   1.093   0.879  10.111 -0.7432  0.7394 -0.4230
20894SOL    HW168518   1.148   0.801  10.110  2.9077  3.0318  1.0561
20894SOL    HW268519   1.035   0.868  10.035  1.3829 -2.1656 -1.8333
20895SOL     OW68520   3.969   1.390  10.305  0.0200  0.2803  0.6800
20895SOL    HW168521   4.061   1.385  10.331  0.9025 -0.1684 -2.1585
20895SOL    HW268522   3.931   1.308  10.336  0.7950  0.1057  1.1951
20896SOL     OW68523   5.456   1.224   0.456  0.3700  0.0140  0.1745
20896SOL    HW168524   5.528   1.238   0.518  0.9529  0.7249 -0.6472
20896SOL    HW268525   5.498   1.226   0.370 -0.3083 -1.7411 -0.2400
20897SOL     OW68526   3.550   5.295   7.421 -0.0826  0.3301  0.1334
20897SOL    HW168527   3.550   5.366   7.358 -0.9106  1.0184  0.8830
20897SOL    HW268528   3.569   5.217   7.369  4.1046  1.3904 -0.2845
20898SOL     OW68529   3.200   0.289  10.328 -0.3999 -0.8275  0.3109
20898SOL    HW168530   3.248   0.289  10.410  1.5097  0.5881 -0.7292
20898SOL    HW268531   3.255   0.240  10.267 -1.5493 -1.4415 -0.2917
20899SOL     OW68532   1.112   4.021   6.388  0.1590  0.2548 -0.1302
20899SOL    HW168533   1.073   4.078   6.455 -1.4125 -1.3356  0.3977
20899SOL    HW268534   1.127   4.078   6.313 -3.1420  1.0630 -0.3229
20900SOL     OW68535   0.749   4.817   0.508  0.0302  0.3157  0.3960
20900SOL    HW168536   0.693   4.749   0.471 -0.7132  1.5236 -0.7666
20900SOL    HW268537   0.838   4.792   0.481 -0.2768  0.0340 -0.3838
20901SOL     OW68538   8.965   0.981   5.233 -0.0835 -0.2691  0.3792
20901SOL    HW168539   9.002   1.029   5.308  0.5938  0.5364 -0.4423
20901SOL    HW268540   9.033   0.918   5.209  0.8542  1.2000 -1.1193
20902SOL     OW68541   7.121   1.038   3.924 -0.6033  0.4816  0.3099
20902SOL    HW168542   7.072   1.111   3.887 -1.1448 -0.0328 -0.0269
20902SOL    HW268543   7.171   1.003   3.850 -0.3801  0.4900  0.4581
20903SOL     OW68544   1.516   0.677   5.782  0.2953  0.0883 -0.1428
20903SOL    HW168545   1.610   0.690   5.770  1.3958 -1.4268  4.6424
20903SOL    HW268546   1.499   0.707   5.871 -3.7642  0.0729 -0.7352
20904SOL     OW68547   8.281  10.310   5.399  0.2046 -0.1717 -0.2144
20904SOL    HW168548   8.207  10.271   5.447  0.0537  1.4276  0.9169
20904SOL    HW268549   8.239  10.365   5.333  0.2384  2.6399  1.9483
20905SOL     OW68550   7.614  10.241   7.290 -0.9480 -0.1904  0.5539
20905SOL    HW168551   7.531  10.215   7.251 -1.6323  1.5634  0.7641
20905SOL    HW268552   7.676  10.240   7.217 -1.3036 -0.7484  0.2476
20906SOL     OW68553   1.314   3.332   3.257 -0.2730 -0.4428  0.0677
20906SOL    HW168554   1.324   3.308   3.165  0.2959 -0.9854  0.2646
20906SOL    HW268555   1.369   3.410   3.268 -1.0279  0.1459 -0.2471
20907SOL     OW68556   5.910   9.611   8.679 -0.1614  0.0527 -0.0714
20907SOL    HW168557   5.835   9.584   8.731 -1.1346 -0.5287 -1.6872
20907SOL    HW268558   5.872   9.639   8.595  1.1190  2.9900  0.2039
20908SOL     OW68559   4.015  10.272   0.527 -0.4344  0.6314 -0.8252
20908SOL    HW168560   3.993  10.306   0.440 -0.7910  1.1565 -0.5405
20908SOL    HW268561   3.968  10.189   0.534  0.0888  0.2836 -1.3660
20909SOL     OW68562   0.691   5.495   3.628 -0.5109  0.5028 -0.6841
20909SOL    HW168563   0.765   5.542   3.666 -0.8714  0.1643  0.5185
20909SOL    HW268564   0.709   5.403   3.648 -0.8685  0.3420 -1.0827
20910SOL     OW68565   0.734   1.835   7.561  0.1174 -0.2504 -0.5979
20910SOL    HW168566   0.787   1.892   7.504  0.4069  0.5912  0.4669
20910SOL    HW268567   0.706   1.893   7.632 -1.7433 -0.8265 -0.8091
20911SOL     OW68568   2.414   9.954   7.045 -0.4734 -0.1542  0.4493
20911SOL    HW168569   2.480   9.900   7.002  0.6260  1.5218 -0.0460
20911SOL    HW268570   2.462   9.997   7.117 -1.2010  0.4796  0.5673
20912SOL     OW68571   4.886  10.519   5.376 -0.2728  0.2181  0.1445
20912SOL    HW168572   4.858  10.458   5.308 -0.8038 -0.0483  0.5909
20912SOL    HW268573   4.944  10.581   5.331 -1.2760  0.5463 -0.7328
20913SOL     OW68574  10.518   9.078   6.500 -0.5596  0.0660 -0.3279
20913SOL    HW168575  10.598   9.107   6.455 -0.5169  1.3936  0.5491
20913SOL    HW268576  10.499   8.992   6.462  2.3712 -1.2125  0.7958
20914SOL     OW68577   9.187   0.229   0.392  0.7538 -0.4069 -0.1290
20914SOL    HW168578   9.113   0.203   0.337 -0.3482 -0.6674  1.3997
20914SOL    HW268579   9.221   0.146   0.426  0.6545 -0.1949  0.5030
20915SOL     OW68580   4.110   4.613   0.690  0.2536 -0.0245 -0.3098
20915SOL    HW168581   4.201   4.601   0.716  0.7092 -0.5056 -1.9976
20915SOL    HW268582   4.062   4.547   0.740  0.7756  0.3946  0.7764
20916SOL     OW68583   7.721   3.836   5.486  0.0746 -0.5472 -0.3781
20916SOL    HW168584   7.736   3.911   5.543 -0.2406  1.0962 -2.3339
20916SOL    HW268585   7.801   3.829   5.434 -0.2962 -0.9288 -0.9110
20917SOL     OW68586   4.251   9.749   9.269 -0.2952  0.4544 -0.5530
20917SOL    HW168587   4.197   9.813   9.223  0.1413  0.6812 -0.7533
20917SOL    HW268588   4.340   9.781   9.259 -0.1724  0.4035  0.2789
20918SOL     OW68589   3.988   4.421   1.724 -0.5891 -0.1357  0.3979
20918SOL    HW168590   3.993   4.377   1.809 -1.0425 -1.6158 -0.2940
20918SOL    HW268591   4.070   4.470   1.717 -0.9350  0.7347  2.0422
20919SOL     OW68592   9.537  10.359   4.324 -0.0085 -0.2661 -0.7679
20919SOL    HW168593   9.579  10.292   4.378 -1.9395 -0.2124  0.9367
20919SOL    HW268594   9.552  10.441   4.372 -0.3576  0.0455 -1.1798
20920SOL     OW68595   3.952   5.920   1.173  0.0259 -0.2569 -0.0621
20920SOL    HW168596   3.993   5.939   1.258  2.0608  2.5482 -1.5230
20920SOL    HW268597   3.914   6.003   1.146 -0.8433 -1.1737 -1.8183
20921SOL     OW68598   9.278   0.530   7.129  0.7142  0.6914  0.1220
20921SOL    HW168599   9.209   0.594   7.146  1.8648  1.7595  0.9612
20921SOL    HW268600   9.233   0.445   7.128 -0.4730  1.2651  1.6253
20922SOL     OW68601   9.521   8.465   2.720 -0.5522  0.7876 -0.0336
20922SOL    HW168602   9.572   8.419   2.653 -0.7966  1.2386 -0.5393
20922SOL    HW268603   9.563   8.441   2.802 -1.7667 -1.8011 -0.0823
20923SOL     OW68604   8.426   2.722   8.447  0.4146  0.0479 -0.4282
20923SOL    HW168605   8.423   2.743   8.540 -0.1524 -0.6986 -0.2744
20923SOL    HW268606   8.473   2.639   8.443 -1.9815 -1.3749 -0.5311
20924SOL     OW68607   1.755   8.863   0.434 -0.1887  0.2358  0.1681
20924SOL    HW168608   1.771   8.914   0.513  1.9042 -0.9206  0.5694
20924SOL    HW268609   1.818   8.897   0.370 -0.8562  0.1798 -0.5348
20925SOL     OW68610   0.782   2.623   8.773  0.4038 -0.3472 -0.5021
20925SOL    HW168611   0.810   2.673   8.849 -1.7414 -0.0109  0.1226
20925SOL    HW268612   0.862   2.609   8.722  1.5794  0.8936  0.9444
20926SOL     OW68613   5.616   9.387   2.906  0.2964  0.0177  0.2523
20926SOL    HW168614   5.527   9.404   2.936 -0.3935 -1.2573 -0.9461
20926SOL    HW268615   5.628   9.292   2.919  0.6577 -0.2262 -1.5904
20927SOL     OW68616  10.609   0.114   6.145 -0.4074  0.6902 -0.1054
20927SOL    HW168617  10.578   0.035   6.100 -2.2782  0.4010  1.5090
20927SOL    HW268618  10.703   0.101   6.155 -0.7464 -1.7146  0.7212
20928SOL     OW68619   0.276   1.782   7.768  0.4989  0.5836 -0.2944
20928SOL    HW168620   0.359   1.748   7.734  0.2823 -0.2307 -0.0395
20928SOL    HW268621   0.271   1.749   7.858 -0.8812 -0.8504 -0.8356
20929SOL     OW68622   5.636   6.987   0.567 -0.2016  0.1937 -0.0886
20929SOL    HW168623   5.716   6.997   0.515  0.2275 -3.3345 -0.3286
20929SOL    HW268624   5.570   6.956   0.505 -1.5183  1.9120  0.3529
20930SOL     OW68625   0.574   2.431   5.949 -0.7573 -0.3904  0.4022
20930SOL    HW168626   0.627   2.364   5.905 -0.9450  0.7213 -1.6199
20930SOL    HW268627   0.620   2.447   6.031  1.0150 -0.8082 -0.4468
20931SOL     OW68628   7.367   7.904   8.103 -0.0800  0.3955  0.0096
20931SOL    HW168629   7.415   7.973   8.057  0.0082 -0.1627 -0.7678
20931SOL    HW268630   7.398   7.823   8.062 -0.6283 -0.0628  0.4892
20932SOL     OW68631   8.420   2.011   7.803  0.2861 -0.1627  0.0419
20932SOL    HW168632   8.396   1.994   7.894 -0.6622 -0.5731 -0.2707
20932SOL    HW268633   8.444   2.103   7.801 -0.9261  0.1752  0.4652
20933SOL     OW68634   8.951   4.890   3.357 -0.8628  0.0217  0.4288
20933SOL    HW168635   9.025   4.914   3.302 -0.3510  0.9545  1.4921
20933SOL    HW268636   8.934   4.968   3.410 -2.8081 -0.0551 -0.0108
20934SOL     OW68637   8.715   0.223   2.277 -0.0617  0.2056 -0.5524
20934SOL    HW168638   8.729   0.131   2.256 -1.2917 -0.1440  0.0222
20934SOL    HW268639   8.631   0.224   2.324 -0.2947  1.6723 -0.9488
20935SOL     OW68640   6.406   5.017   1.612 -0.3179 -0.9193  0.4915
20935SOL    HW168641   6.430   4.963   1.537  1.5735 -1.9900  1.7814
20935SOL    HW268642   6.461   4.984   1.683  1.3266  3.0286  1.2707
20936SOL     OW68643   0.679   2.490   4.125 -0.8557 -0.1534  0.0796
20936SOL    HW168644   0.633   2.531   4.199  1.0379 -1.8357  2.3763
20936SOL    HW268645   0.746   2.553   4.101 -0.9920  0.0988  0.3537
20937SOL     OW68646   9.340   3.408   3.642 -0.5937 -0.0615 -0.1029
20937SOL    HW168647   9.369   3.350   3.571 -0.2809 -0.1532  0.0969
20937SOL    HW268648   9.419   3.453   3.670 -0.9296  0.8664 -0.6113
20938SOL     OW68649   4.164   3.779  10.163  0.0958  0.0693  0.0383
20938SOL    HW168650   4.176   3.715  10.093  0.9873 -0.0824  0.3145
20938SOL    HW268651   4.171   3.864  10.120 -0.5854 -0.0234 -0.2500
20939SOL     OW68652   0.903   2.160   0.529 -0.7060  0.4530 -0.1721
20939SOL    HW168653   0.963   2.216   0.479 -1.6238  0.9760 -0.6979
20939SOL    HW268654   0.816   2.182   0.497 -1.5320  1.9896  2.7389
20940SOL     OW68655   6.881   6.431   8.933  0.1239 -0.1923 -0.1824
20940SOL    HW168656   6.862   6.488   9.007 -0.9024 -1.0564  0.2332
20940SOL    HW268657   6.839   6.348   8.954  2.3094 -1.4386 -0.3637
20941SOL     OW68658   6.338   4.826   6.493  0.0894 -0.3347  0.0572
20941SOL    HW168659   6.396   4.796   6.422  0.4419 -2.8039  1.2763
20941SOL    HW268660   6.391   4.816   6.572 -0.6635  1.3521  0.8157
20942SOL     OW68661   1.836   4.350   3.492 -0.0076  0.0611  0.1879
20942SOL    HW168662   1.744   4.331   3.512  0.1299 -2.9520 -1.4276
20942SOL    HW268663   1.884   4.272   3.522  1.8149  0.9026 -0.3757
20943SOL     OW68664   6.595   1.040   2.511 -0.5194  0.1001  0.2377
20943SOL    HW168665   6.645   1.048   2.592  2.3185 -3.7035 -0.8612
20943SOL    HW268666   6.610   1.123   2.466  0.2463  1.1481  2.2815
20944SOL     OW68667   0.291   1.916   6.741  0.2154  0.2975 -0.2093
20944SOL    HW168668   0.234   1.950   6.810 -0.8154 -0.5175 -0.6421
20944SOL    HW268669   0.289   1.821   6.753  0.4279  0.1843 -1.0494
20945SOL     OW68670   6.680   6.143   5.890 -0.4861  0.5416 -0.0484
20945SOL    HW168671   6.758   6.197   5.898 -0.3076  0.2643  0.0904
20945SOL    HW268672   6.672   6.126   5.796 -0.5669  0.8452 -0.0954
20946SOL     OW68673   3.796   7.101   9.624  0.2323  0.5251  0.2310
20946SOL    HW168674   3.778   7.176   9.680  0.8961  0.6733  0.2539
20946SOL    HW268675   3.710   7.068   9.599 -0.0691  0.6110  1.1308
20947SOL     OW68676   4.402   5.996   1.229  0.4592  0.5540  0.6081
20947SOL    HW168677   4.310   5.983   1.252  0.2547 -0.1703 -0.5318
20947SOL    HW268678   4.404   6.078   1.181  0.4331  0.6412  0.7552
20948SOL     OW68679   2.157   7.208   2.013 -0.2099 -0.2416  0.0367
20948SOL    HW168680   2.231   7.171   2.062 -0.0541  1.2311  0.9689
20948SOL    HW268681   2.196   7.277   1.959 -0.8709  0.4286  0.4068
20949SOL     OW68682   7.779   2.148   0.095  0.1480 -0.0220  0.5309
20949SOL    HW168683   7.864   2.157   0.053  0.4373  1.2896  1.3340
20949SOL    HW268684   7.732   2.084   0.042  2.0644 -1.7309  0.8009
20950SOL     OW68685   1.235   0.513   0.507 -0.2059  0.3326 -0.0048
20950SOL    HW168686   1.271   0.452   0.571 -0.6530 -0.3507 -0.4012
20950SOL    HW268687   1.312   0.554   0.468  0.2082 -1.5331 -1.2470
20951SOL     OW68688   2.613   6.633   1.420  0.3617  0.3347  0.1211
20951SOL    HW168689   2.696   6.676   1.400 -0.1650  0.7137 -1.3946
20951SOL    HW268690   2.624   6.544   1.385 -0.2520  0.7359 -1.1727
20952SOL     OW68691   4.477   3.786  10.660  0.6782 -0.0719 -0.2962
20952SOL    HW168692   4.427   3.712  10.697  0.8458 -0.1958 -0.3189
20952SOL    HW268693   4.417   3.860  10.667  0.0480 -0.4572 -1.3898
20953SOL     OW68694   2.757   3.637   3.140  0.0766 -0.7167 -0.5752
20953SOL    HW168695   2.712   3.649   3.223  0.0217 -0.6440 -0.6156
20953SOL    HW268696   2.715   3.561   3.100 -1.8133  0.8937 -1.8165
20954SOL     OW68697   6.089   3.415   7.188  0.1352 -0.6394 -0.2843
20954SOL    HW168698   6.060   3.461   7.110  0.1021 -0.5415 -0.2145
20954SOL    HW268699   6.185   3.418   7.183  0.1349 -0.1885 -0.0602
20955SOL     OW68700   7.686   3.858   2.693 -0.5528 -0.1073 -0.0709
20955SOL    HW168701   7.684   3.763   2.706 -0.0081 -0.2675 -1.0493
20955SOL    HW268702   7.736   3.892   2.768  0.7690 -0.7780 -0.6134
20956SOL     OW68703   1.866   2.610  10.279  0.5085 -0.1233 -0.2440
20956SOL    HW168704   1.798   2.581  10.217  0.9597 -0.8540 -0.4058
20956SOL    HW268705   1.948   2.595  10.233  0.8145  0.0277  0.2522
20957SOL     OW68706   0.126   4.651   5.458 -0.2734 -0.4174 -0.1133
20957SOL    HW168707   0.093   4.737   5.483 -0.2155 -0.1173 -1.0091
20957SOL    HW268708   0.062   4.619   5.394  0.0697 -0.7304 -0.3034
20958SOL     OW68709   2.845   2.527   8.644 -0.3042 -0.5246 -0.1885
20958SOL    HW168710   2.822   2.601   8.589 -2.3345 -0.6948  0.3207
20958SOL    HW268711   2.770   2.517   8.703  1.0109 -1.4195  1.4496
20959SOL     OW68712   7.518   0.371   1.254 -0.2493 -0.3553 -0.0216
20959SOL    HW168713   7.603   0.388   1.213  0.7761 -2.7536  0.8800
20959SOL    HW268714   7.504   0.277   1.242 -3.0843  0.0525 -0.6041
20960SOL     OW68715   4.720   7.077   3.510  0.0962 -0.1854 -1.1747
20960SOL    HW168716   4.702   7.169   3.530  1.3265  0.3271 -2.3118
20960SOL    HW268717   4.811   7.064   3.535 -0.3105 -1.3673 -0.1947
20961SOL     OW68718   3.557   2.534   3.156 -0.1855  0.4962  0.0302
20961SOL    HW168719   3.529   2.517   3.246  0.5452  1.0242  0.3688
20961SOL    HW268720   3.616   2.608   3.164  1.2372 -0.5252 -0.6608
20962SOL     OW68721   7.088  10.668   6.422  0.6519 -0.4191 -0.6741
20962SOL    HW168722   7.028  10.664   6.496  0.3424  1.1548 -0.8081
20962SOL    HW268723   7.142  10.588   6.430  1.4949  0.3098  1.9819
20963SOL     OW68724   3.479   6.073   4.077  0.3541 -0.4853 -0.0673
20963SOL    HW168725   3.571   6.049   4.067  0.3304 -0.3016 -0.8253
20963SOL    HW268726   3.432   6.009   4.024 -0.0496 -1.2234  1.1590
20964SOL     OW68727   2.465   8.684   9.135 -0.1441  0.5071 -0.3688
20964SOL    HW168728   2.516   8.709   9.212 -2.0282  0.5614  0.9545
20964SOL    HW268729   2.375   8.675   9.169 -0.8956 -0.2133 -2.4255
20965SOL     OW68730   4.714   9.493   7.552 -0.2133 -0.1846  0.2286
20965SOL    HW168731   4.809   9.500   7.547 -0.0192 -1.1587  1.8344
20965SOL    HW268732   4.698   9.443   7.631 -2.0110 -1.7043 -1.0090
20966SOL     OW68733   1.444   0.401   5.826 -0.2306  0.0064 -0.0980
20966SOL    HW168734   1.465   0.488   5.792  2.4302 -1.0528 -1.4860
20966SOL    HW268735   1.433   0.415   5.921 -0.0036  1.8484 -0.2979
20967SOL     OW68736   9.109   9.040   3.235 -0.7175 -0.2390  0.0356
20967SOL    HW168737   9.034   8.983   3.248  0.3577 -1.5343  0.8439
20967SOL    HW268738   9.176   8.984   3.196 -0.0236  0.7725 -0.2930
20968SOL     OW68739   3.068   4.575   9.218 -0.3356  0.2854 -0.4619
20968SOL    HW168740   3.152   4.607   9.253 -0.5883 -1.5603  2.1361
20968SOL    HW268741   3.007   4.648   9.232  0.1746  0.5292  0.6557
20969SOL     OW68742   6.234   2.381   1.411  0.3286 -0.3801 -0.5732
20969SOL    HW168743   6.144   2.409   1.394 -0.1366 -2.4611 -1.9549
20969SOL    HW268744   6.285   2.462   1.411 -1.3279  0.7110 -1.3464
20970SOL     OW68745   8.908   3.731   1.052 -0.2652 -0.1353 -0.9776
20970SOL    HW168746   8.975   3.759   1.113  1.0817 -1.5482 -1.7324
20970SOL    HW268747   8.938   3.763   0.967 -0.2272 -1.2423 -1.4039
20971SOL     OW68748   4.100   8.720  10.442  0.4149 -0.3856  0.0263
20971SOL    HW168749   4.138   8.686  10.523 -0.9572  0.5574  1.1068
20971SOL    HW268750   4.175   8.733  10.384  1.3115 -2.2330  0.6789
20972SOL     OW68751   4.621   9.385  10.193  0.9894 -0.3746  0.1722
20972SOL    HW168752   4.704   9.394  10.240  1.3466 -1.7004 -0.1872
20972SOL    HW268753   4.638   9.322  10.124 -0.3795 -0.8651  0.2430
20973SOL     OW68754   2.738   8.849   4.594 -0.0774  0.4381 -0.2790
20973SOL    HW168755   2.714   8.922   4.536  0.8385  0.4636 -0.6455
20973SOL    HW268756   2.817   8.814   4.555  0.8721  0.7941  1.2630
20974SOL     OW68757   0.407   2.246   3.145 -0.0628 -0.2489 -0.2927
20974SOL    HW168758   0.474   2.226   3.080 -0.6779  0.4607 -1.1567
20974SOL    HW268759   0.389   2.339   3.135  0.5559  0.1151  1.5959
20975SOL     OW68760   7.871   9.853   0.703  0.5845  0.4289  0.0095
20975SOL    HW168761   7.874   9.923   0.638  1.0252  0.8043  0.4213
20975SOL    HW268762   7.862   9.899   0.787  2.4665  0.0970  0.4411
20976SOL     OW68763   2.470   8.156   3.009 -0.8354  0.3781 -0.4804
20976SOL    HW168764   2.524   8.220   3.056  0.5810 -0.2315 -1.2202
20976SOL    HW268765   2.466   8.189   2.919 -0.9742 -0.0401 -0.6302
20977SOL     OW68766   8.791   2.351   5.059 -0.3286  0.1470 -0.0094
20977SOL    HW168767   8.747   2.403   5.127 -0.6557  0.8796 -0.7620
20977SOL    HW268768   8.779   2.260   5.087  0.8829  0.4662  1.7183
20978SOL     OW68769   7.455   6.773   4.732 -0.1577  0.7782 -0.0809
20978SOL    HW168770   7.523   6.810   4.789  0.0330 -0.4126  0.4980
20978SOL    HW268771   7.469   6.678   4.737 -2.1593  0.4743  0.4270
20979SOL     OW68772   2.438   3.526   4.210 -0.1326  0.2313 -0.2480
20979SOL    HW168773   2.382   3.601   4.228 -0.7187 -0.2417 -0.1015
20979SOL    HW268774   2.488   3.513   4.291 -1.5276 -0.8180  0.4823
20980SOL     OW68775   9.645   4.963   2.272 -0.6466  0.2021  0.6826
20980SOL    HW168776   9.614   4.883   2.315 -3.7891  0.6170 -0.5617
20980SOL    HW268777   9.733   4.940   2.241 -0.9363 -2.3359  1.4693
20981SOL     OW68778   6.481   5.860   1.954  0.4685 -0.7146 -0.6321
20981SOL    HW168779   6.573   5.840   1.968  0.3924 -0.2461  0.6921
20981SOL    HW268780   6.458   5.815   1.873  2.0558 -0.1690 -1.4103
20982SOL     OW68781   6.276   2.501   2.529 -0.4020 -0.0457 -0.8584
20982SOL    HW168782   6.277   2.460   2.616  1.6629 -0.9732 -1.2561
20982SOL    HW268783   6.192   2.546   2.525 -0.1151  1.0022  2.0788
20983SOL     OW68784   9.082  10.673   6.247  0.1269 -1.0117  0.3823
20983SOL    HW168785   9.138  10.668   6.325  1.4369  0.5133 -0.4127
20983SOL    HW268786   9.029  10.594   6.251  0.8970 -1.4876  2.2694
20984SOL     OW68787   4.703   7.702   5.610  0.7888 -0.2815 -0.0386
20984SOL    HW168788   4.698   7.693   5.515 -0.2539  1.5321 -0.1776
20984SOL    HW268789   4.734   7.791   5.625 -0.3550 -0.0837  1.3347
20985SOL     OW68790   6.676   0.393   9.169 -0.6419  0.9620 -0.3416
20985SOL    HW168791   6.598   0.419   9.218 -0.0216  0.2734  1.0525
20985SOL    HW268792   6.673   0.298   9.167 -0.3479  0.9607 -1.1575
20986SOL     OW68793   8.108   3.941   2.708 -0.6516  0.0721  0.0764
20986SOL    HW168794   8.039   3.960   2.773  2.0218  0.0682  3.1886
20986SOL    HW268795   8.159   4.022   2.704  0.9881 -0.8986  0.3821
20987SOL     OW68796   5.035   1.471   6.938  0.2108 -0.0515  0.0833
20987SOL    HW168797   4.971   1.535   6.970 -1.6115 -1.9541  0.5092
20987SOL    HW268798   5.082   1.443   7.016  0.6196  0.3615 -0.0145
20988SOL     OW68799   5.715   2.848   0.816  0.3566 -0.2070  0.0929
20988SOL    HW168800   5.675   2.822   0.733  0.9478 -1.6573  0.2401
20988SOL    HW268801   5.807   2.865   0.794  0.5363 -0.6911  0.4685
20989SOL     OW68802   0.287   7.508   0.256 -0.5586  0.0639  0.0467
20989SOL    HW168803   0.335   7.547   0.329  2.7987  0.3750 -2.0645
20989SOL    HW268804   0.319   7.418   0.251 -0.7833  0.0260 -0.9401
20990SOL     OW68805   3.187   6.837   7.973  0.4554  0.6789  0.1209
20990SOL    HW168806   3.202   6.744   7.955  0.6990  0.4605  1.4051
20990SOL    HW268807   3.223   6.882   7.896  1.6236 -0.2041  0.1244
20991SOL     OW68808   5.925   0.346   3.906 -0.5355 -0.0792 -0.1399
20991SOL    HW168809   5.830   0.338   3.906 -0.6444  0.9372  0.8320
20991SOL    HW268810   5.952   0.309   3.991 -0.4281  2.8220  1.2028
20992SOL     OW68811  10.681   7.450   9.415 -0.1693 -0.0183  0.6081
20992SOL    HW168812  10.728   7.529   9.440 -3.2616  2.6238 -1.1085
20992SOL    HW268813  10.634   7.424   9.495 -1.8595  2.1279  0.4181
20993SOL     OW68814   4.411   1.239  10.414 -0.6531 -0.0946 -0.3377
20993SOL    HW168815   4.440   1.243  10.323 -2.3500 -2.3867 -1.0769
20993SOL    HW268816   4.361   1.158  10.419  2.1481 -1.8730  3.4717
20994SOL     OW68817   2.379   3.115   8.118 -0.7821 -0.0225 -0.3394
20994SOL    HW168818   2.450   3.163   8.162 -2.6444  1.6467  1.0189
20994SOL    HW268819   2.421   3.036   8.083  1.8291  1.1508 -0.0680
20995SOL     OW68820   3.783   5.386   7.825  0.0407 -0.0885  1.0598
20995SOL    HW168821   3.729   5.421   7.755 -0.8759 -0.5978  1.5042
20995SOL    HW268822   3.724   5.334   7.878  0.5347  0.9606  2.7087
20996SOL     OW68823   4.689   7.660   4.322 -0.2482 -0.2969 -0.0139
20996SOL    HW168824   4.637   7.598   4.272  0.5767 -2.1204  1.2493
20996SOL    HW268825   4.763   7.608   4.354  1.3063  1.7249 -0.1288
20997SOL     OW68826  10.601   4.853   6.508 -0.9138  0.6912 -0.3608
20997SOL    HW168827  10.575   4.942   6.485  0.9260  0.8910 -1.8979
20997SOL    HW268828  10.692   4.862   6.537  0.4176 -0.9880 -3.5133
20998SOL     OW68829   9.720   8.589  10.408 -0.1584 -0.2650 -0.6645
20998SOL    HW168830   9.703   8.508  10.360  1.0820 -0.6752 -0.4553
20998SOL    HW268831   9.814   8.603  10.398 -0.4857  1.5960 -1.3567
20999SOL     OW68832   3.877   6.192   9.904  0.2004 -0.3984 -0.5130
20999SOL    HW168833   3.941   6.122   9.889  2.1941  1.0527  0.6450
20999SOL    HW268834   3.901   6.260   9.842 -0.1858  0.2031 -0.0153
21000SOL     OW68835   6.582   1.122   5.957  0.1418  0.3073 -0.2475
21000SOL    HW168836   6.565   1.028   5.966  1.0494  0.1394 -0.1421
21000SOL    HW268837   6.557   1.159   6.042  0.7368 -0.0023  0.0699
21001SOL     OW68838   5.868   2.532   0.369 -0.1984 -0.3686 -0.0274
21001SOL    HW168839   5.892   2.444   0.339  1.0980 -0.4338  1.0880
21001SOL    HW268840   5.937   2.588   0.334 -0.5214  0.0722  0.0407
21002SOL     OW68841   5.558   9.716   4.306  0.0967 -0.5998 -0.5180
21002SOL    HW168842   5.549   9.647   4.372  2.7898  1.0762  1.8730
21002SOL    HW268843   5.653   9.725   4.293 -0.2195  1.5596 -1.9258
21003SOL     OW68844   6.050   7.461   8.777 -0.0604  0.4206  0.1296
21003SOL    HW168845   6.119   7.408   8.739  0.2184  1.1809 -0.4435
21003SOL    HW268846   6.047   7.540   8.723 -0.9510  0.6748  0.5244
21004SOL     OW68847   3.030   3.272   5.463 -0.2534 -0.0972 -0.1288
21004SOL    HW168848   2.968   3.214   5.508 -1.4796  0.1699 -1.3976
21004SOL    HW268849   3.010   3.359   5.497  1.8623 -0.3928  2.0802
21005SOL     OW68850   8.417   9.447  10.045  0.3196  0.6602  0.3322
21005SOL    HW168851   8.484   9.390  10.083 -0.2418  0.8053  1.5801
21005SOL    HW268852   8.431   9.440   9.950  0.7142 -0.9960  0.4737
21006SOL     OW68853   1.393   2.324   1.882 -1.1581 -0.1073  0.1027
21006SOL    HW168854   1.438   2.307   1.965  1.0127 -0.3350 -1.0274
21006SOL    HW268855   1.402   2.419   1.870 -0.0299 -0.2840 -0.5926
21007SOL     OW68856  10.109   0.927   2.803  0.3160  0.2752  1.3277
21007SOL    HW168857  10.200   0.906   2.781  0.1908  2.0810 -1.4169
21007SOL    HW268858  10.114   1.013   2.845 -0.1101  0.3714  1.1864
21008SOL     OW68859   0.725   6.460   2.491 -0.0013  0.5723  0.2121
21008SOL    HW168860   0.728   6.390   2.556  1.8652  0.8806  0.5110
21008SOL    HW268861   0.655   6.434   2.431  0.4453 -1.4026  0.4816
21009SOL     OW68862   0.743   3.006   9.400  0.2735  0.4122  0.1592
21009SOL    HW168863   0.804   3.078   9.383  0.3703  0.5149  0.8933
21009SOL    HW268864   0.798   2.928   9.402  0.2822  0.4175  0.1271
21010SOL     OW68865   5.707   6.703   8.530 -0.2036 -0.3249  0.0540
21010SOL    HW168866   5.802   6.695   8.521 -0.1950  0.4346 -0.5954
21010SOL    HW268867   5.693   6.795   8.554 -0.7993 -0.3259 -0.2805
21011SOL     OW68868   7.387  10.194   0.678 -0.1553 -0.1095 -0.5214
21011SOL    HW168869   7.388  10.175   0.772  1.1837  1.9531 -0.0549
21011SOL    HW268870   7.327  10.129   0.641  0.5447 -2.0348  1.5037
21012SOL     OW68871   7.126   1.917   2.689 -0.3975  0.1801 -0.5567
21012SOL    HW168872   7.204   1.972   2.698 -1.4720  1.8316 -0.9084
21012SOL    HW268873   7.160   1.830   2.669  1.3608  0.7626 -0.2450
21013SOL     OW68874   5.028   5.292   7.393  0.3176  0.3805  0.7462
21013SOL    HW168875   5.070   5.244   7.465  1.6134 -0.3807 -0.4825
21013SOL    HW268876   4.995   5.224   7.334 -1.2668  0.9880  0.8631
21014SOL     OW68877   7.587   4.309   2.116  0.2483  0.1536 -0.1893
21014SOL    HW168878   7.531   4.384   2.097  0.5298  0.3018 -0.4432
21014SOL    HW268879   7.568   4.288   2.208  0.5409  0.8574  0.0404
21015SOL     OW68880   5.566   4.399   9.596  0.4064 -0.4539 -0.6765
21015SOL    HW168881   5.580   4.309   9.567 -1.1589 -0.9372 -0.0751
21015SOL    HW268882   5.522   4.389   9.681  0.4799  0.8815 -0.4672
21016SOL     OW68883  10.328   1.995   6.475  0.1502  0.1401 -0.1357
21016SOL    HW168884  10.299   1.936   6.544 -0.4625 -0.2276 -0.6911
21016SOL    HW268885  10.250   2.047   6.455  0.1667 -0.1158 -0.9009
21017SOL     OW68886  10.212   7.953   0.696 -0.6430 -0.1658  0.0394
21017SOL    HW168887  10.117   7.946   0.705 -0.7493 -1.9556 -1.8717
21017SOL    HW268888  10.236   7.881   0.638  1.8937  0.2793  0.4407
21018SOL     OW68889   4.957   6.360   8.670 -0.6331  0.3327  0.5028
21018SOL    HW168890   5.022   6.376   8.601  2.7159 -2.3625  2.7059
21018SOL    HW268891   4.925   6.447   8.693  2.3814  1.8763 -0.6177
21019SOL     OW68892   2.508   4.732   7.151 -0.2318  0.3637 -0.0035
21019SOL    HW168893   2.508   4.641   7.121 -1.5948  0.8378 -1.5774
21019SOL    HW268894   2.569   4.776   7.092 -1.6176  0.9553 -1.0735
21020SOL     OW68895   2.587   9.536   1.534  0.1812 -0.2763  0.3983
21020SOL    HW168896   2.574   9.517   1.627 -1.2651 -0.8212  0.1015
21020SOL    HW268897   2.576   9.452   1.490 -0.2794  0.1708 -0.3718
21021SOL     OW68898   0.272   9.024   0.552  0.1906  0.2209 -0.5329
21021SOL    HW168899   0.202   9.088   0.539  0.8668  1.4151  1.2883
21021SOL    HW268900   0.238   8.965   0.620  0.2357 -0.3447 -0.9913
21022SOL     OW68901   8.465   9.241   1.861  0.1768  0.2477  0.0851
21022SOL    HW168902   8.375   9.236   1.894  0.1319  1.8599  0.2913
21022SOL    HW268903   8.495   9.328   1.887  1.1986  0.4095 -1.4966
21023SOL     OW68904   9.053   7.777  10.630  0.0670  0.4711  0.5764
21023SOL    HW168905   9.064   7.735  10.715 -1.2061 -1.0184  0.0393
21023SOL    HW268906   9.032   7.706  10.570 -1.4456  1.7662 -0.5183
21024SOL     OW68907   4.381   0.772   7.776  0.7945  0.1741 -0.7664
21024SOL    HW168908   4.328   0.844   7.739 -0.9596 -1.5457 -1.8187
21024SOL    HW268909   4.406   0.720   7.700 -0.6007 -1.9934  0.1779
21025SOL     OW68910   3.576   8.538   1.477  0.5384  0.1631  0.1971
21025SOL    HW168911   3.621   8.525   1.393  0.8395 -0.2816  0.4250
21025SOL    HW268912   3.541   8.452   1.499  0.0835  0.3730  0.3187
21026SOL     OW68913   4.710   7.115   7.216  0.3472  0.2664 -0.6662
21026SOL    HW168914   4.774   7.185   7.214  1.4862 -0.6096  1.3515
21026SOL    HW268915   4.724   7.072   7.301 -2.5442 -0.3157 -0.3625
21027SOL     OW68916   2.495   6.709   2.026 -0.1086  0.4018  0.0002
21027SOL    HW168917   2.479   6.615   2.023  3.7138 -0.4139 -2.2692
21027SOL    HW268918   2.411   6.749   2.002 -1.5286 -2.4831 -0.2390
21028SOL     OW68919   5.302   5.073   3.142  0.4844 -0.3436  0.3597
21028SOL    HW168920   5.385   5.044   3.105  1.3831  1.2117  1.0819
21028SOL    HW268921   5.238   5.053   3.074  1.3200 -2.0810  0.0100
21029SOL     OW68922   0.425   5.536   3.640 -0.1804 -0.2623 -0.3537
21029SOL    HW168923   0.396   5.477   3.710  1.0047  0.1078  0.4754
21029SOL    HW268924   0.518   5.516   3.629 -0.0548  0.5924 -0.9341
21030SOL     OW68925   3.740   5.838   7.885  0.1747  0.1323 -0.0497
21030SOL    HW168926   3.644   5.835   7.883  0.1236  0.8539  0.7676
21030SOL    HW268927   3.767   5.748   7.863 -0.6810 -0.0716 -0.3069
21031SOL     OW68928   7.257   2.263  10.653  0.2209  0.9661 -0.2814
21031SOL    HW168929   7.211   2.205  10.592 -0.5205 -2.7525  3.3442
21031SOL    HW268930   7.348   2.260  10.624 -0.0918 -0.6550 -1.2313
21032SOL     OW68931   1.303   1.662   1.513 -0.3576 -0.0850  0.5461
21032SOL    HW168932   1.278   1.660   1.421  2.2369 -0.0997 -0.2379
21032SOL    HW268933   1.301   1.755   1.537  1.6282  0.2445 -0.3932
21033SOL     OW68934   0.643   2.442   1.229 -0.0137  0.1351 -0.5332
21033SOL    HW168935   0.639   2.478   1.140 -2.0655  0.0127 -0.5382
21033SOL    HW268936   0.631   2.518   1.286 -1.2869 -0.0994 -0.4607
21034SOL     OW68937   7.089   9.387  10.304  0.2749  0.6077  0.4194
21034SOL    HW168938   7.135   9.444  10.243  0.4543  0.7878  0.7234
21034SOL    HW268939   7.123   9.299  10.285 -1.0857  0.3582 -1.0749
21035SOL     OW68940   1.182   7.120   1.053  0.3515 -0.2837 -0.4507
21035SOL    HW168941   1.148   7.031   1.060  1.5076 -0.9304 -2.2529
21035SOL    HW268942   1.180   7.154   1.142 -1.4942 -1.5629  0.0479
21036SOL     OW68943  10.329   3.787   8.173 -0.7224 -0.2031 -0.6727
21036SOL    HW168944  10.398   3.753   8.116  0.0091 -1.1626  0.7235
21036SOL    HW268945  10.372   3.855   8.225 -1.0105 -0.3248 -0.2728
21037SOL     OW68946   0.482   3.890   5.269 -0.0757  0.2192 -0.1951
21037SOL    HW168947   0.513   3.981   5.274 -2.9252  1.3593 -1.5667
21037SOL    HW268948   0.466   3.875   5.176 -0.5678 -1.3793  0.1172
21038SOL     OW68949   0.845   5.493   1.934  0.1145 -0.0082  0.2541
21038SOL    HW168950   0.778   5.427   1.913 -0.6921  0.9918 -0.4216
21038SOL    HW268951   0.910   5.483   1.864  0.3347 -0.5208  0.5257
21039SOL     OW68952   4.109  10.345   4.858 -0.1776 -0.4142 -0.1204
21039SOL    HW168953   4.155  10.332   4.942 -1.0174 -1.0704  0.2488
21039SOL    HW268954   4.146  10.278   4.800 -1.2410 -1.5229  0.4317
21040SOL     OW68955   1.675  10.411   6.740  0.1518 -0.3390  0.0330
21040SOL    HW168956   1.756  10.459   6.757  0.8192 -0.7197 -1.7769
21040SOL    HW268957   1.628  10.465   6.676 -1.2368  0.0552  1.3186
21041SOL     OW68958   2.078   3.700   6.465  0.5372 -0.4697 -0.0328
21041SOL    HW168959   2.090   3.633   6.533  1.2901 -1.1747 -0.8237
21041SOL    HW268960   1.985   3.722   6.468  0.4305 -1.0029  0.7581
21042SOL     OW68961   2.257   3.761   1.391  0.2768  0.8167 -0.4533
21042SOL    HW168962   2.266   3.688   1.452 -3.3294 -0.6527 -1.4472
21042SOL    HW268963   2.241   3.837   1.447  0.2959  0.1246  0.5158
21043SOL     OW68964   1.256   5.449   9.533 -0.0065  0.2744 -0.0172
21043SOL    HW168965   1.293   5.492   9.611 -2.1371  0.7904  0.7810
21043SOL    HW268966   1.170   5.489   9.523 -0.0939 -0.3710 -2.1977
21044SOL     OW68967   6.718   1.195  10.450  0.0304  0.3049  0.0988
21044SOL    HW168968   6.742   1.273  10.500 -0.2722  0.6275 -0.2506
21044SOL    HW268969   6.766   1.204  10.368  1.9430 -1.1094  0.9836
21045SOL     OW68970   0.325   4.050   7.983 -0.0486  0.0830  0.5877
21045SOL    HW168971   0.344   3.962   8.016 -0.6472  0.1835  1.2356
21045SOL    HW268972   0.256   4.037   7.918  1.7166 -0.2109 -1.2974
21046SOL     OW68973   3.170   5.058   4.176 -0.5105  0.5378 -0.1556
21046SOL    HW168974   3.254   5.067   4.220  0.8511  1.0789 -2.6896
21046SOL    HW268975   3.136   5.147   4.170 -0.2788  0.5806 -0.9086
21047SOL     OW68976   8.256   3.478   4.031 -0.1741  0.0786  0.5417
21047SOL    HW168977   8.348   3.450   4.031 -0.1758  0.0719  0.3104
21047SOL    HW268978   8.252   3.547   4.097  0.0192  0.1446  0.4859
21048SOL     OW68979   0.858   3.597   4.266 -0.3027 -0.1655  0.4287
21048SOL    HW168980   0.830   3.657   4.334  2.1653  0.4772  0.9712
21048SOL    HW268981   0.786   3.596   4.203 -1.5548  1.1943  1.7846
21049SOL     OW68982   6.620   8.442   4.479 -0.0959 -0.3289 -0.5674
21049SOL    HW168983   6.712   8.427   4.458  0.0357  0.0787 -0.2972
21049SOL    HW268984   6.600   8.381   4.550  0.7242  1.4271  1.2596
21050SOL     OW68985   9.577   8.189   0.551  0.3144  0.3231 -0.0378
21050SOL    HW168986   9.536   8.213   0.634 -0.7459 -1.6719  0.0814
21050SOL    HW268987   9.557   8.096   0.541 -2.5526  1.1183 -4.1089
21051SOL     OW68988   6.772   8.509   8.171  0.2668 -0.1207  0.0683
21051SOL    HW168989   6.819   8.546   8.097 -2.4302  0.0103 -1.7434
21051SOL    HW268990   6.701   8.458   8.132 -2.1340  1.0410  2.4753
21052SOL     OW68991   6.450   8.399   6.282  0.5218  0.3072 -0.5752
21052SOL    HW168992   6.422   8.491   6.281 -0.9335 -0.0712  0.6938
21052SOL    HW268993   6.492   8.388   6.367  1.6638  0.0479 -1.1621
21053SOL     OW68994   2.453   5.124  10.408 -0.1849  0.2607  0.7248
21053SOL    HW168995   2.394   5.200  10.412 -0.4877 -0.0240  1.7615
21053SOL    HW268996   2.397   5.052  10.379 -0.4535 -0.0888  2.0451
21054SOL     OW68997   1.961   4.963   5.525 -0.6207 -0.0562  0.0193
21054SOL    HW168998   2.041   4.948   5.575 -0.9916 -1.1033  0.3342
21054SOL    HW268999   1.989   5.013   5.448  0.1144  0.7134  0.7703
21055SOL     OW69000   7.838   5.233   7.149  0.4206 -0.5947  0.0556
21055SOL    HW169001   7.828   5.180   7.228 -0.7032  1.0828  1.1073
21055SOL    HW269002   7.916   5.286   7.166 -1.0456  1.3637  1.0996
21056SOL     OW69003   1.503   4.139   7.988  0.3212 -0.1922 -0.0974
21056SOL    HW169004   1.593   4.170   7.978  0.7282 -1.0530  0.7183
21056SOL    HW269005   1.476   4.172   8.074 -0.0387 -0.1970 -0.2069
21057SOL     OW69006   5.044   8.944   0.336 -0.5500  0.2076 -0.0993
21057SOL    HW169007   5.126   8.898   0.320 -0.0038  1.5390 -1.2426
21057SOL    HW269008   5.026   8.992   0.255 -2.2482  0.2732  0.2680
21058SOL     OW69009   4.968   7.970   1.267 -0.6606 -0.4994  0.2248
21058SOL    HW169010   4.967   8.008   1.355  3.0033 -0.9714  0.6355
21058SOL    HW269011   4.898   7.904   1.269 -1.4919  0.3421  2.3347
21059SOL     OW69012   2.312   2.920   5.799  0.0459 -0.2989 -0.1683
21059SOL    HW169013   2.312   3.014   5.815  1.8435 -0.7110  3.2376
21059SOL    HW269014   2.230   2.889   5.837  0.1742 -0.2804  0.1241
21060SOL     OW69015   8.522   5.163   9.491  0.6553 -0.3117  0.2489
21060SOL    HW169016   8.504   5.153   9.584 -0.3151  0.7847  0.1892
21060SOL    HW269017   8.556   5.077   9.465  0.1822 -0.8859  1.4329
21061SOL     OW69018   3.672   4.047   3.877 -0.0594 -0.1440  0.7029
21061SOL    HW169019   3.661   3.954   3.896  0.6420 -0.5054 -0.5659
21061SOL    HW269020   3.728   4.050   3.799 -1.1628  1.3002 -0.0963
21062SOL     OW69021   1.569   1.585   4.743  0.1734  0.2899 -0.4359
21062SOL    HW169022   1.660   1.588   4.770  0.5723 -0.2719 -1.6605
21062SOL    HW269023   1.543   1.677   4.735  0.0241  0.4856  1.7934
21063SOL     OW69024   1.338   9.349   2.875 -0.3204  0.2522  0.3100
21063SOL    HW169025   1.357   9.308   2.790  1.6872  0.5604  0.5715
21063SOL    HW269026   1.267   9.296   2.911  0.6149 -1.5739 -0.3855
21064SOL     OW69027   3.282   5.836   9.689 -0.1355  0.5198 -0.1477
21064SOL    HW169028   3.276   5.899   9.618  2.3089  0.3025 -0.6640
21064SOL    HW269029   3.196   5.795   9.693 -1.1602  2.4302 -1.1442
21065SOL     OW69030   5.939   8.795   1.639  0.2618  0.3393  0.3764
21065SOL    HW169031   5.920   8.853   1.565 -1.3218 -0.5538  0.0236
21065SOL    HW269032   5.990   8.724   1.602  0.8576  0.6955  0.4938
21066SOL     OW69033   7.370   3.327   8.626  0.2888  0.1989  0.0785
21066SOL    HW169034   7.456   3.309   8.588  0.6281  1.4335  0.2378
21066SOL    HW269035   7.323   3.244   8.616  1.1794 -0.2303 -0.8263
21067SOL     OW69036   2.679   0.532   9.826  0.6729 -0.8883  0.5142
21067SOL    HW169037   2.771   0.526   9.799  0.1581  0.0142 -1.6221
21067SOL    HW269038   2.673   0.615   9.872  0.7925 -0.6434  0.0873
21068SOL     OW69039   2.890   2.305   7.625 -0.6526 -0.0169  0.2809
21068SOL    HW169040   2.911   2.359   7.701  0.4715  0.9081 -0.6392
21068SOL    HW269041   2.933   2.222   7.642  1.2032  0.8023 -0.1239
21069SOL     OW69042   0.290   8.232   2.987  0.0105 -0.2315 -0.2910
21069SOL    HW169043   0.197   8.214   2.971  0.2722 -0.3699 -1.8380
21069SOL    HW269044   0.326   8.148   3.012 -0.2705 -0.1674  0.3704
21070SOL     OW69045   2.478   4.583   5.790  0.6690  0.0229 -0.3997
21070SOL    HW169046   2.488   4.506   5.735  2.7144 -1.5552  1.9394
21070SOL    HW269047   2.397   4.567   5.839  1.3080 -0.9162  0.3887
21071SOL     OW69048  10.072   1.987  10.166 -0.3599  0.5808 -0.1332
21071SOL    HW169049  10.020   1.911  10.193 -0.6560  0.6829 -0.4210
21071SOL    HW269050  10.152   1.981  10.219 -0.6373  0.3904  0.2670
21072SOL     OW69051   2.152   9.568   8.942  0.1371 -0.4579 -0.0621
21072SOL    HW169052   2.114   9.643   8.896  1.9816  1.1476  0.8689
21072SOL    HW269053   2.147   9.592   9.034  1.5571 -1.0638  0.1920
21073SOL     OW69054   8.006   1.914   6.079 -0.2083 -0.3187 -0.2407
21073SOL    HW169055   8.095   1.923   6.045 -0.6252 -0.4050 -1.4089
21073SOL    HW269056   7.971   1.835   6.036 -1.1074  0.1584 -0.4208
21074SOL     OW69057   5.782   2.642   1.571  0.7608  0.2279  0.4202
21074SOL    HW169058   5.741   2.658   1.486  0.8123 -0.0941  0.3340
21074SOL    HW269059   5.843   2.715   1.582  0.2465  0.6506  0.5016
21075SOL     OW69060   0.023  10.226   3.040  0.1739  0.1474 -0.1553
21075SOL    HW169061   0.017  10.192   3.129 -1.6418 -0.4832 -0.4747
21075SOL    HW269062   0.076  10.305   3.048 -0.4237  0.4257  1.5812
21076SOL     OW69063   5.209   8.521   5.129 -0.1534  0.3096  0.1716
21076SOL    HW169064   5.143   8.457   5.155  0.4962 -0.7775 -0.7845
21076SOL    HW269065   5.193   8.538   5.037 -0.3931  1.6485  0.4376
21077SOL     OW69066   2.948  10.516  10.283 -0.3575 -0.9633  0.1783
21077SOL    HW169067   2.937  10.463  10.204  1.2815 -1.3412  0.1588
21077SOL    HW269068   3.036  10.495  10.314  0.0247  1.0958  0.6612
21078SOL     OW69069   2.432   4.627   9.555  0.7911  0.4068 -0.2361
21078SOL    HW169070   2.350   4.617   9.506  1.1186  0.0452 -0.7175
21078SOL    HW269071   2.444   4.721   9.564  0.5531  0.4665 -0.5475
21079SOL     OW69072  10.428   0.533   4.842  0.6984  0.2154  0.7682
21079SOL    HW169073  10.483   0.481   4.901 -1.6952 -1.4197  1.7155
21079SOL    HW269074  10.359   0.568   4.899  0.6632  2.1029 -0.3800
21080SOL     OW69075   9.005   6.672   2.590  0.4406  0.3178  0.2157
21080SOL    HW169076   8.959   6.723   2.656 -0.5441  2.1833 -1.8170
21080SOL    HW269077   8.949   6.596   2.575  0.9806 -0.4681  1.8940
21081SOL     OW69078   0.526  10.276   9.708 -0.0532  0.1112 -0.4115
21081SOL    HW169079   0.544  10.264   9.615  2.0821 -3.4853  0.2785
21081SOL    HW269080   0.611  10.299   9.746  0.2702 -3.1652  1.1606
21082SOL     OW69081   4.876   1.277   9.752  0.3879  0.1327 -0.4536
21082SOL    HW169082   4.881   1.184   9.727  1.4468  0.1495 -0.3403
21082SOL    HW269083   4.908   1.324   9.675  2.3241  0.2590  0.3753
21083SOL     OW69084   5.680   0.783   6.606  0.3790 -0.5516  0.2276
21083SOL    HW169085   5.608   0.846   6.600  0.3085 -0.8003 -3.4172
21083SOL    HW269086   5.677   0.754   6.697 -2.1574  1.6827  1.0266
21084SOL     OW69087   0.401   9.822   8.295 -1.0558  0.3058  0.6134
21084SOL    HW169088   0.412   9.911   8.327  2.2391  0.1406  0.2643
21084SOL    HW269089   0.405   9.767   8.373  1.1110  0.2838  0.5578
21085SOL     OW69090   4.948   7.182   9.354 -0.3671  0.3271  0.3816
21085SOL    HW169091   4.857   7.193   9.381 -0.7142 -1.6511  0.1687
21085SOL    HW269092   4.969   7.090   9.375  1.5787  0.7223  0.4144
21086SOL     OW69093   0.472  10.386   2.486  0.4208 -0.2581 -0.4769
21086SOL    HW169094   0.450  10.408   2.577  0.9421 -1.3611 -0.0537
21086SOL    HW269095   0.387  10.383   2.441  0.1325  0.0854  0.0302
21087SOL     OW69096   0.513   6.798  10.493 -0.0831 -0.0876 -0.6357
21087SOL    HW169097   0.497   6.768  10.582 -1.6338 -0.7373 -1.0956
21087SOL    HW269098   0.493   6.892  10.495 -0.7758 -0.2325 -0.4336
21088SOL     OW69099   5.223   2.553   3.823  1.0508  0.0101  0.1484
21088SOL    HW169100   5.309   2.573   3.785  0.7992  1.0609  0.1057
21088SOL    HW269101   5.192   2.637   3.857  1.0659 -0.7875  2.2775
21089SOL     OW69102   1.632   3.272   9.711  0.4070  0.0441 -0.4828
21089SOL    HW169103   1.726   3.252   9.711  0.4981 -0.0208  2.4120
21089SOL    HW269104   1.591   3.191   9.741 -0.3591  0.6724  0.2023
21090SOL     OW69105   1.720   2.450   3.478  0.3051 -0.3632  0.9763
21090SOL    HW169106   1.656   2.379   3.491 -0.2911 -0.0736 -0.2094
21090SOL    HW269107   1.734   2.485   3.566 -0.4296 -1.0710  1.3975
21091SOL     OW69108   7.713   0.471   9.889  0.0109 -0.2514  0.7515
21091SOL    HW169109   7.680   0.475   9.799 -0.4594  1.2996  0.9473
21091SOL    HW269110   7.637   0.445   9.942 -0.3777  1.1353  0.9379
21092SOL     OW69111   8.900   3.756   0.303 -0.1788  0.0117 -0.4156
21092SOL    HW169112   8.806   3.740   0.300 -0.1062 -0.2641 -1.3278
21092SOL    HW269113   8.935   3.717   0.223  0.7146  0.1212 -0.0986
21093SOL     OW69114   4.823  10.115   3.957 -0.0235  0.2302 -0.0434
21093SOL    HW169115   4.796  10.074   3.875  0.4587  1.7150 -0.9739
21093SOL    HW269116   4.740  10.131   4.003 -0.2453 -1.4106  0.1940
21094SOL     OW69117   3.711   5.445   9.320  0.5730 -0.2210  0.1126
21094SOL    HW169118   3.636   5.402   9.279  0.3621 -0.9934  1.2734
21094SOL    HW269119   3.754   5.491   9.248 -0.9205  0.1181 -0.6081
21095SOL     OW69120   9.399   2.030   6.438 -0.1534  0.1612  0.3743
21095SOL    HW169121   9.334   1.960   6.446  1.1717 -0.9489  2.4946
21095SOL    HW269122   9.439   2.017   6.352 -1.5525 -0.1713 -0.2513
21096SOL     OW69123   5.306   8.187   8.079  0.2068 -0.9003  0.0341
21096SOL    HW169124   5.281   8.229   8.162  0.0758 -2.1322  0.6469
21096SOL    HW269125   5.345   8.258   8.027  1.4983 -0.3389  1.6491
21097SOL     OW69126   5.082   7.023   1.257  0.0834 -0.1191  0.0458
21097SOL    HW169127   5.029   7.080   1.313 -1.9897 -3.2282  1.5309
21097SOL    HW269128   5.080   7.065   1.171 -1.0875  2.1294  1.0763
21098SOL     OW69129   2.849   5.272   4.430  0.0507  0.2023 -0.3071
21098SOL    HW169130   2.917   5.334   4.404 -0.7986  0.7221 -1.3583
21098SOL    HW269131   2.839   5.214   4.355 -0.7500  0.2191 -0.2270
21099SOL     OW69132  10.690   1.583   2.900  0.1076 -0.9291 -0.6192
21099SOL    HW169133  10.779   1.617   2.907  0.2140 -0.9720 -1.6544
21099SOL    HW269134  10.646   1.616   2.978  0.6119  0.3672 -0.8542
21100SOL     OW69135   1.389   6.373   2.136  0.0715 -0.2056 -0.2176
21100SOL    HW169136   1.471   6.415   2.111  0.0983 -1.0598 -1.7057
21100SOL    HW269137   1.376   6.398   2.228  0.9857  1.5290 -0.5076
21101SOL     OW69138   4.246   0.846   1.199 -0.6198  0.2193 -0.0150
21101SOL    HW169139   4.278   0.906   1.266  0.9976 -0.8643  0.2707
21101SOL    HW269140   4.325   0.800   1.169 -1.2702  0.6704 -2.6947
21102SOL     OW69141   6.418   0.894   0.854  0.0642 -0.5177  0.7293
21102SOL    HW169142   6.335   0.892   0.902 -0.3702  1.2982  0.1389
21102SOL    HW269143   6.392   0.889   0.762  0.4511  1.4456  0.4623
21103SOL     OW69144   4.430   8.741   0.914  0.2149  0.4850 -0.3956
21103SOL    HW169145   4.472   8.656   0.923  0.1308  0.4065 -0.7401
21103SOL    HW269146   4.498   8.798   0.877 -0.3472  0.0295 -2.2397
21104SOL     OW69147   8.965   4.128   9.141 -0.1960 -0.2522 -0.0725
21104SOL    HW169148   9.011   4.063   9.195  0.5848  0.6764  0.4036
21104SOL    HW269149   9.030   4.197   9.126 -1.2727  0.8306  0.1495
21105SOL     OW69150   0.455   3.401   9.589  0.2117  0.2165  0.1799
21105SOL    HW169151   0.380   3.455   9.563  0.6744  2.2295  2.6845
21105SOL    HW269152   0.424   3.353   9.665  1.1171  0.1983  0.5492
21106SOL     OW69153   7.706   5.999  10.389  0.2099 -1.0803  0.0761
21106SOL    HW169154   7.722   6.044  10.306 -0.5269  0.8972  0.9389
21106SOL    HW269155   7.751   5.915  10.380 -0.2986 -1.1622 -2.5057
21107SOL     OW69156   7.387   5.404   8.428 -0.3745  0.0668  0.2105
21107SOL    HW169157   7.378   5.425   8.335 -1.2218  0.4828  0.3823
21107SOL    HW269158   7.404   5.489   8.469 -0.6860 -0.0254  0.5245
21108SOL     OW69159   6.614   7.400   3.293 -0.1706 -0.5722  0.1170
21108SOL    HW169160   6.675   7.359   3.354 -1.1008 -0.2714  1.2977
21108SOL    HW269161   6.528   7.386   3.332 -0.5946  1.6941  0.1240
21109SOL     OW69162   6.574   7.054   5.976 -0.0897  0.2259  0.0073
21109SOL    HW169163   6.599   7.030   5.887 -0.6885  0.9806 -0.3755
21109SOL    HW269164   6.653   7.040   6.028  0.8267  1.5284 -0.9736
21110SOL     OW69165   2.968   1.684   5.358  0.0580  0.3405 -0.9998
21110SOL    HW169166   2.955   1.685   5.263 -1.4043 -1.4026 -0.8791
21110SOL    HW269167   3.061   1.666   5.369  0.2882  0.7797 -2.0904
21111SOL     OW69168   3.148   8.460   3.070  0.1133  0.3689  0.3565
21111SOL    HW169169   3.203   8.478   3.146  1.6257 -0.6470 -0.4390
21111SOL    HW269170   3.197   8.393   3.020 -2.3754 -1.4918  0.2033
21112SOL     OW69171   9.388   0.806   5.871  0.6081  0.3003 -0.0091
21112SOL    HW169172   9.354   0.823   5.783 -0.4381 -2.2324 -0.1755
21112SOL    HW269173   9.318   0.833   5.930  0.0509 -0.8293 -0.1338
21113SOL     OW69174   2.936  10.266   1.590  0.0064  0.2144 -0.0298
21113SOL    HW169175   2.987  10.296   1.515  2.7481 -1.5973  0.9479
21113SOL    HW269176   2.861  10.220   1.552  1.0339 -0.1826 -1.6422
21114SOL     OW69177   3.689   3.066   9.920  0.0863 -0.5184 -0.9240
21114SOL    HW169178   3.654   3.076  10.008 -0.0317 -0.9414 -0.9201
21114SOL    HW269179   3.707   2.972   9.912  1.0429 -0.3453 -0.9863
21115SOL     OW69180   6.638   0.308   1.039 -0.5968  0.2531  0.2518
21115SOL    HW169181   6.606   0.392   1.071 -0.0777 -0.6311  3.4687
21115SOL    HW269182   6.568   0.246   1.059 -0.8220 -0.1925 -1.7431
21116SOL     OW69183   2.126   7.805   0.341  0.0870 -0.1076 -0.0658
21116SOL    HW169184   2.157   7.734   0.397  1.5293 -1.0484 -1.9316
21116SOL    HW269185   2.203   7.860   0.325 -0.5593  0.8047 -0.2028
21117SOL     OW69186   7.385   0.424   1.499 -0.0810  0.1405  0.4391
21117SOL    HW169187   7.435   0.457   1.575 -0.6548  0.4737  0.6788
21117SOL    HW269188   7.452   0.400   1.435  0.4021  0.1688  0.9266
21118SOL     OW69189   5.088   6.316   2.311  0.6108  0.2604 -0.1872
21118SOL    HW169190   5.121   6.343   2.225 -0.0117 -2.2913 -1.3134
21118SOL    HW269191   5.001   6.282   2.293  0.4042 -0.1900  1.5105
21119SOL     OW69192   8.808   4.578   8.547 -0.3020  0.6036  0.3141
21119SOL    HW169193   8.749   4.642   8.585 -0.3012  0.6421  0.2514
21119SOL    HW269194   8.753   4.524   8.490 -0.2456  0.7577  0.1113
21120SOL     OW69195  10.648   7.394   4.098 -0.2335  0.4749 -0.2992
21120SOL    HW169196  10.564   7.384   4.052  0.5728  1.2856 -2.0499
21120SOL    HW269197  10.709   7.342   4.046  0.3046 -0.4787  1.2200
21121SOL     OW69198   9.589   3.138   8.148 -0.4996  0.2769  0.3091
21121SOL    HW169199   9.597   3.126   8.053  0.6148  0.0203  0.4156
21121SOL    HW269200   9.495   3.143   8.164 -0.6917  1.7758 -0.9821
21122SOL     OW69201   1.361   0.295   8.235 -0.0706 -0.1235 -0.2782
21122SOL    HW169202   1.403   0.231   8.293 -2.6491 -0.9202  0.8389
21122SOL    HW269203   1.429   0.318   8.172  1.5588 -2.4775  0.4856
21123SOL     OW69204   3.420   7.139   0.482  0.3177 -0.1354  0.9604
21123SOL    HW169205   3.453   7.112   0.568 -0.1765 -0.2233  1.1206
21123SOL    HW269206   3.349   7.078   0.463 -0.4659  0.7158  1.0955
21124SOL     OW69207   3.165   2.440   8.130  0.3522 -0.3873  0.5998
21124SOL    HW169208   3.156   2.535   8.138 -0.2674 -0.2557 -1.1217
21124SOL    HW269209   3.188   2.410   8.218  0.4572  1.3370  1.1966
21125SOL     OW69210   0.820   9.193   4.513 -0.1055 -0.0940 -0.8852
21125SOL    HW169211   0.839   9.264   4.574  0.8657 -0.9458 -0.1709
21125SOL    HW269212   0.735   9.216   4.476 -0.9153  0.2379  1.0793
21126SOL     OW69213   8.224   5.579   4.966 -0.1762 -0.5328  0.0735
21126SOL    HW169214   8.316   5.575   4.993  0.4390  1.0579 -1.5429
21126SOL    HW269215   8.187   5.650   5.019  0.0591  0.1109 -0.6059
21127SOL     OW69216   9.294   4.255   8.944 -0.3691  0.4285  0.7283
21127SOL    HW169217   9.362   4.199   8.983  0.0582 -0.3938 -1.1070
21127SOL    HW269218   9.337   4.340   8.934 -0.0273  0.2637  0.7590
21128SOL     OW69219   7.560   8.964   5.530  0.4603 -0.2351  1.1499
21128SOL    HW169220   7.500   8.890   5.525  0.7218 -0.5113  1.9436
21128SOL    HW269221   7.527   9.017   5.602  0.2887  0.4187  0.6021
21129SOL     OW69222   2.491   6.510  10.193  0.4411  0.2809 -0.3852
21129SOL    HW169223   2.457   6.502  10.282  1.0360  1.0615 -0.0731
21129SOL    HW269224   2.432   6.573  10.151  0.3270  0.1256 -0.4586
21130SOL     OW69225   9.526   4.096   1.475 -0.1382 -0.1963  0.4253
21130SOL    HW169226   9.476   4.077   1.555  1.1856 -1.5935  0.9785
21130SOL    HW269227   9.546   4.010   1.439  1.6896  0.3107  0.1392
21131SOL     OW69228   7.538   4.898   4.008 -0.4629 -0.4382  0.1315
21131SOL    HW169229   7.468   4.833   4.013 -1.8259  0.8797 -0.7675
21131SOL    HW269230   7.592   4.870   3.934  1.1463 -2.4978  1.9674
21132SOL     OW69231   6.527   8.338   8.575  0.2879 -0.1995  0.5461
21132SOL    HW169232   6.438   8.361   8.548  0.1144 -1.5895 -0.1782
21132SOL    HW269233   6.568   8.303   8.496  1.1899 -0.3698  1.0748
21133SOL     OW69234   1.354   4.893   4.127 -0.0480 -0.2439 -0.0781
21133SOL    HW169235   1.328   4.981   4.153 -0.5424 -0.1873 -0.7458
21133SOL    HW269236   1.446   4.902   4.103 -0.2738  0.2320 -0.7759
21134SOL     OW69237   5.767   7.230   4.160  0.2208  0.4765 -0.0732
21134SOL    HW169238   5.722   7.146   4.147  2.3773 -0.7766  0.0784
21134SOL    HW269239   5.763   7.245   4.255 -1.3924  1.3171 -0.2410
21135SOL     OW69240   2.876   4.715   6.392  0.6267  0.1949 -0.1333
21135SOL    HW169241   2.884   4.698   6.298  0.4177 -2.5897  0.2688
21135SOL    HW269242   2.785   4.694   6.413  1.0309 -0.6990  0.8961
21136SOL     OW69243   2.179   5.485   1.728  0.1852 -0.3714 -0.0324
21136SOL    HW169244   2.169   5.468   1.634  0.6896  0.0900 -0.1795
21136SOL    HW269245   2.163   5.579   1.737 -2.9235 -0.8858  0.8200
21137SOL     OW69246   0.529   7.658   2.459  0.7660 -0.4721 -0.7988
21137SOL    HW169247   0.456   7.598   2.443 -1.4924  1.7654  0.3874
21137SOL    HW269248   0.537   7.661   2.554 -0.2663  2.1467 -0.7057
21138SOL     OW69249   0.578   2.978   7.622  0.4457 -0.0125 -0.1637
21138SOL    HW169250   0.513   3.031   7.576  2.4881  0.6958 -2.4276
21138SOL    HW269251   0.627   3.040   7.676  2.0182  0.2738 -1.8433
21139SOL     OW69252   4.112   0.031   5.142 -0.0753  0.2566  0.0798
21139SOL    HW169253   4.122  -0.011   5.228  1.4286  2.1346  0.8855
21139SOL    HW269254   4.017   0.042   5.132 -0.3417 -0.9266  0.9936
21140SOL     OW69255   4.808   7.993   0.986  0.1894  0.9486  0.2667
21140SOL    HW169256   4.803   7.907   1.027 -0.4943  0.2655 -1.1831
21140SOL    HW269257   4.898   8.022   1.001  0.8251 -0.6143 -0.3849
21141SOL     OW69258   0.991   9.561   6.999  0.2324  0.1137 -0.6774
21141SOL    HW169259   0.917   9.512   6.964 -0.2850  0.6960 -0.4077
21141SOL    HW269260   1.012   9.518   7.082 -0.2655  0.3861 -0.4071
21142SOL     OW69261   8.121   5.671   6.112 -0.6168  0.7047 -0.0040
21142SOL    HW169262   8.148   5.762   6.123 -0.0340  0.4310  0.9691
21142SOL    HW269263   8.027   5.671   6.130 -0.3033  0.8363  1.8256
21143SOL     OW69264   5.664   8.197   5.304  0.0719  0.6196  0.9854
21143SOL    HW169265   5.650   8.103   5.313 -1.3155  0.9916  3.6977
21143SOL    HW269266   5.587   8.228   5.257  1.3354  0.2593 -1.4547
21144SOL     OW69267   6.902   3.347   5.415 -0.4954 -0.5559 -0.0416
21144SOL    HW169268   6.821   3.347   5.364  0.2891  0.0303 -1.3354
21144SOL    HW269269   6.956   3.415   5.375  0.8940 -1.3678  0.3821
21145SOL     OW69270   9.693   2.184   1.336 -0.5469  0.1445 -0.2185
21145SOL    HW169271   9.674   2.274   1.308 -3.7363  0.2116  1.7079
21145SOL    HW269272   9.723   2.192   1.426 -1.0538 -0.6868  0.0396
21146SOL     OW69273   4.047   9.685   5.078  0.0660  0.1842 -0.6415
21146SOL    HW169274   4.104   9.642   5.014  1.3101  1.9880 -0.8275
21146SOL    HW269275   4.104   9.701   5.154 -0.3347  1.4478 -0.5812
21147SOL     OW69276  10.414   1.482   9.765 -0.4248  0.3295 -0.4127
21147SOL    HW169277  10.494   1.486   9.713 -0.2176 -1.5832 -0.3154
21147SOL    HW269278  10.442   1.503   9.854 -0.1539  0.3878 -0.5106
21148SOL     OW69279   8.083   3.679   9.293  0.0923 -0.3950 -0.6631
21148SOL    HW169280   8.010   3.646   9.241  0.7252 -1.9449 -0.6294
21148SOL    HW269281   8.128   3.600   9.325  0.6191  0.5092  0.9681
21149SOL     OW69282   7.424  10.293   2.214  0.1937 -0.4219  0.3496
21149SOL    HW169283   7.427  10.263   2.123  0.8073  1.0848 -0.1619
21149SOL    HW269284   7.465  10.223   2.264 -1.0284 -1.7175 -0.3744
21150SOL     OW69285   5.717   2.178   0.762 -0.3488  0.2294 -0.4263
21150SOL    HW169286   5.681   2.101   0.718 -0.4242 -0.5082  0.8796
21150SOL    HW269287   5.655   2.248   0.744 -0.5587 -0.1428 -1.1743
21151SOL     OW69288   7.978   2.277   4.087  0.1220  0.0719 -0.0259
21151SOL    HW169289   7.963   2.326   4.167 -1.5115 -1.6660  0.8128
21151SOL    HW269290   8.061   2.231   4.102  0.8718  1.2931 -0.2131
21152SOL     OW69291   5.668   4.166  10.465  0.6699 -0.3284  0.1324
21152SOL    HW169292   5.621   4.206  10.392 -0.6430  1.4095  1.8100
21152SOL    HW269293   5.728   4.234  10.496  0.5684 -0.7040  1.2180
21153SOL     OW69294   5.675   3.990  10.006 -0.2423 -0.2934  0.1935
21153SOL    HW169295   5.690   3.896  10.002 -0.4014 -0.3795  1.2316
21153SOL    HW269296   5.757   4.030   9.977 -0.3692 -0.7404 -0.8130
21154SOL     OW69297   3.698   2.182   2.104 -0.4847 -0.7725  0.8431
21154SOL    HW169298   3.715   2.234   2.182 -0.3480  0.2395  0.1507
21154SOL    HW269299   3.620   2.131   2.126 -1.7868  1.1335  0.8739
21155SOL     OW69300   8.069   5.488   8.110 -0.4508  0.5515 -0.0018
21155SOL    HW169301   8.092   5.395   8.116 -2.4353 -0.0584 -0.8938
21155SOL    HW269302   8.014   5.503   8.187  0.0537  1.0594  0.2638
21156SOL     OW69303   8.292   9.015   3.804  0.3929 -0.4797 -0.5522
21156SOL    HW169304   8.265   9.068   3.729 -1.8619  1.1631  1.2962
21156SOL    HW269305   8.375   9.055   3.833 -0.3675  0.9608 -0.2730
21157SOL     OW69306   8.724   3.489   3.105 -0.0884 -0.3200 -0.0334
21157SOL    HW169307   8.690   3.432   3.174  0.1447 -1.0328 -0.4961
21157SOL    HW269308   8.660   3.483   3.035 -0.3044  0.3703  0.0997
21158SOL     OW69309   5.931   7.836   2.400 -0.5953 -0.2277  0.2986
21158SOL    HW169310   5.941   7.879   2.485  1.1468  0.0085 -0.0026
21158SOL    HW269311   5.862   7.886   2.356 -1.1961 -0.0707  1.3848
21159SOL     OW69312   7.660   3.849   5.172  0.4350  0.6705  0.0359
21159SOL    HW169313   7.584   3.790   5.174 -0.5657  1.9516  1.7128
21159SOL    HW269314   7.626   3.931   5.136  1.6282  0.5582 -1.4890
21160SOL     OW69315   6.512   3.427   9.688  0.2277  0.1313 -0.8752
21160SOL    HW169316   6.431   3.476   9.702  1.0686  1.9143 -1.8212
21160SOL    HW269317   6.581   3.494   9.690  1.2503 -0.5847 -4.4488
21161SOL     OW69318   8.357   2.899   1.110 -0.2684 -0.7157 -0.6799
21161SOL    HW169319   8.285   2.860   1.059  0.5319 -1.2106 -1.4661
21161SOL    HW269320   8.429   2.907   1.047 -0.1617  1.4185 -0.3574
21162SOL     OW69321   3.252   1.850   0.348 -0.0602  0.3869 -0.1507
21162SOL    HW169322   3.191   1.865   0.276  0.6246 -1.0501 -1.0646
21162SOL    HW269323   3.241   1.757   0.370  0.0096  0.7134  1.3672
21163SOL     OW69324   9.494   1.637   1.057 -0.1939 -0.2246 -0.3159
21163SOL    HW169325   9.496   1.709   0.995  0.4144 -1.2562 -1.5529
21163SOL    HW269326   9.566   1.655   1.117  0.0532  0.1217 -0.7087
21164SOL     OW69327   4.955   7.197   7.705  0.0782  0.0155  0.3914
21164SOL    HW169328   5.045   7.194   7.672  0.3557  1.6516  0.9420
21164SOL    HW269329   4.959   7.153   7.790  0.7612  1.6397  1.2353
21165SOL     OW69330   8.295   0.316   1.866 -0.2150  0.2454 -0.4820
21165SOL    HW169331   8.371   0.362   1.902 -0.5292  0.1745  0.2848
21165SOL    HW269332   8.247   0.383   1.818 -0.1459  0.4940 -0.2082
21166SOL     OW69333   1.154   8.778   3.619 -0.5098  0.0787 -0.2413
21166SOL    HW169334   1.188   8.845   3.678  0.8971 -0.5738 -0.2795
21166SOL    HW269335   1.098   8.723   3.676 -0.1807  0.1953  0.2028
21167SOL     OW69336   8.328   7.399   9.234 -0.0053  0.2241 -0.0767
21167SOL    HW169337   8.348   7.358   9.319  0.7605 -0.2470 -0.4673
21167SOL    HW269338   8.404   7.454   9.216 -0.5895  1.0682 -0.0274
21168SOL     OW69339   2.306   5.677   6.673  0.0119 -0.1765  0.6456
21168SOL    HW169340   2.339   5.739   6.609 -0.5660 -0.6335 -0.1125
21168SOL    HW269341   2.316   5.591   6.631 -2.7070 -0.3121  0.0705
21169SOL     OW69342   7.951   6.631   0.389  0.1324 -0.2084  0.7739
21169SOL    HW169343   7.906   6.569   0.447  1.0560 -1.3684  0.3006
21169SOL    HW269344   8.026   6.581   0.356  1.6350  1.5727  1.3597
21170SOL     OW69345   1.871   8.032   7.952  0.6394  0.0500  0.0156
21170SOL    HW169346   1.836   8.045   8.040  1.3158 -0.3473  0.3483
21170SOL    HW269347   1.899   8.119   7.924 -0.0540  0.2700 -0.0219
21171SOL     OW69348   1.545   3.000   2.923  0.4093  0.0785  0.0193
21171SOL    HW169349   1.542   2.924   2.981 -0.4500  0.7797  0.9255
21171SOL    HW269350   1.636   3.003   2.893  0.3748 -1.5031 -0.3243
21172SOL     OW69351   0.981   7.110   0.293  0.1406  0.1904 -0.0402
21172SOL    HW169352   0.911   7.087   0.231 -1.4530 -1.0585  2.1079
21172SOL    HW269353   1.059   7.068   0.257 -0.8862 -1.1255 -0.8535
21173SOL     OW69354   3.047   0.514  10.263 -0.3426 -0.6250 -0.4379
21173SOL    HW169355   3.105   0.440  10.282 -0.0439  0.1297  1.8491
21173SOL    HW269356   3.010   0.538  10.347 -1.2671  1.1782 -1.3044
21174SOL     OW69357   5.733   4.772   8.473  0.4172  0.4931 -0.3902
21174SOL    HW169358   5.772   4.687   8.453 -1.4876 -0.7381  0.8175
21174SOL    HW269359   5.806   4.824   8.508  1.2816 -1.2725  0.5924
21175SOL     OW69360   3.736   3.534   9.489 -0.1033 -0.0236 -0.0676
21175SOL    HW169361   3.754   3.556   9.581  1.4043 -0.4606 -0.2394
21175SOL    HW269362   3.805   3.472   9.465 -1.0821 -0.7103 -1.2046
21176SOL     OW69363   4.698   6.355   4.185 -0.2942 -0.0257  0.5735
21176SOL    HW169364   4.720   6.374   4.094 -1.2528  0.4347  0.4169
21176SOL    HW269365   4.738   6.269   4.203 -0.7561 -0.4871 -0.5289
21177SOL     OW69366   4.290   0.329   0.204  0.2288  0.3694  0.0543
21177SOL    HW169367   4.244   0.252   0.235 -2.1270  1.2754 -0.9145
21177SOL    HW269368   4.239   0.403   0.238  0.0654  1.4055 -2.2083
21178SOL     OW69369   5.744   0.890   8.625 -0.5151 -0.0547  0.4274
21178SOL    HW169370   5.771   0.798   8.622 -3.9480 -1.2130  0.3543
21178SOL    HW269371   5.752   0.915   8.717  1.0083 -0.1915  0.3539
21179SOL     OW69372   3.491   2.845  10.721 -0.2889  0.9312  0.1174
21179SOL    HW169373   3.496   2.931  10.763  0.3710  0.5437  0.8451
21179SOL    HW269374   3.581   2.812  10.720 -0.6988 -0.3258  1.0865
21180SOL     OW69375   7.407   1.384   1.479  0.0689 -0.2455 -0.5024
21180SOL    HW169376   7.313   1.380   1.460 -0.0432 -0.3987  0.0877
21180SOL    HW269377   7.419   1.468   1.524  0.1814 -0.3330 -0.3703
21181SOL     OW69378   2.811   9.256   7.335 -0.2064  1.0181  0.1115
21181SOL    HW169379   2.835   9.165   7.353 -0.4518  1.1324  1.0931
21181SOL    HW269380   2.892   9.296   7.301  0.2495  0.7357  0.8455
21182SOL     OW69381   2.962   5.699  10.526 -0.1034 -0.4490  0.1289
21182SOL    HW169382   2.870   5.683  10.505  0.1331 -1.0958 -0.4674
21182SOL    HW269383   2.990   5.621  10.573 -0.1260  0.1978  1.2623
21183SOL     OW69384   0.538  10.433   5.219 -0.0216  0.5862  0.7741
21183SOL    HW169385   0.528  10.503   5.154 -0.4287  0.9408  1.2108
21183SOL    HW269386   0.632  10.435   5.241 -0.0418  1.0490  0.8377
21184SOL     OW69387   8.452   3.228   4.078  0.2117  0.3732 -0.1953
21184SOL    HW169388   8.545   3.203   4.072  0.2390  0.6056 -0.8533
21184SOL    HW269389   8.435   3.275   3.997 -1.0641 -1.6190 -1.1755
21185SOL     OW69390   3.861   5.413   4.539  0.3915  0.0208  0.0271
21185SOL    HW169391   3.783   5.421   4.595  1.4873  0.8182  1.4968
21185SOL    HW269392   3.877   5.319   4.534 -0.6572 -0.1540 -0.3093
21186SOL     OW69393   6.026   6.515   8.767 -0.6109 -0.4519  0.5400
21186SOL    HW169394   5.969   6.590   8.785 -0.6184 -0.4865  0.6632
21186SOL    HW269395   6.094   6.520   8.833  0.3157  0.3776 -0.4579
21187SOL     OW69396   4.474   5.527   5.579 -0.2692  0.1887  0.2474
21187SOL    HW169397   4.487   5.602   5.637  2.7914  0.4314 -0.5764
21187SOL    HW269398   4.381   5.505   5.588 -0.5296  1.9818  3.0117
21188SOL     OW69399   8.638   4.867   5.251 -0.0927  0.5736 -0.5096
21188SOL    HW169400   8.656   4.782   5.291  0.7793  1.1607  0.3662
21188SOL    HW269401   8.664   4.931   5.316  0.3960  1.5450 -1.6235
21189SOL     OW69402   4.326   6.975   3.724 -0.2424  0.5949  0.4961
21189SOL    HW169403   4.404   6.924   3.702  0.4527  0.7402  2.4200
21189SOL    HW269404   4.319   7.041   3.654  0.4722 -0.3475 -0.4898
21190SOL     OW69405   7.153   8.431  10.662 -0.2407 -0.6238 -0.0886
21190SOL    HW169406   7.217   8.376  10.616  0.1695 -0.2240 -0.0108
21190SOL    HW269407   7.173   8.418  10.755 -1.6219 -2.0880  0.0278
21191SOL     OW69408   7.526   6.529   2.494 -0.4554  0.1690  0.5194
21191SOL    HW169409   7.609   6.519   2.540  0.3115 -0.6334 -0.9673
21191SOL    HW269410   7.546   6.506   2.403 -2.2975  0.0100  0.1184
21192SOL     OW69411   8.396   1.031   6.307 -0.1954 -0.1574 -0.1844
21192SOL    HW169412   8.350   0.989   6.380 -0.6326 -0.3562 -0.5707
21192SOL    HW269413   8.358   0.991   6.229  1.8038 -1.5646 -0.4890
21193SOL     OW69414   3.668   2.465   2.232  0.5964 -0.4549 -0.0174
21193SOL    HW169415   3.701   2.555   2.229  0.1143 -0.2757 -0.0544
21193SOL    HW269416   3.590   2.467   2.177  0.0772 -0.6890  0.7070
21194SOL     OW69417   2.899   4.583   2.610 -0.5310  0.6713  0.3045
21194SOL    HW169418   2.961   4.649   2.579  1.0246  0.0522  1.9325
21194SOL    HW269419   2.879   4.609   2.700 -0.6942 -0.5139  0.6288
21195SOL     OW69420   1.290   7.000   0.784 -0.1192 -0.1961  0.3488
21195SOL    HW169421   1.229   7.000   0.858 -0.3832 -0.0128  0.1320
21195SOL    HW269422   1.363   7.054   0.814  0.7665 -1.8371  1.2798
21196SOL     OW69423   8.524   7.320   4.908  0.5425 -0.3762 -0.3858
21196SOL    HW169424   8.461   7.347   4.975  1.9691  1.8915  0.1416
21196SOL    HW269425   8.470   7.288   4.835 -1.1101 -0.5962  0.8933
21197SOL     OW69426  10.486   3.898   2.273 -0.3063  0.1177 -0.2538
21197SOL    HW169427  10.572   3.912   2.233  0.0715 -0.2997  0.3903
21197SOL    HW269428  10.443   3.834   2.216 -0.0271  0.0149 -0.3492
21198SOL     OW69429  10.638   4.925   3.919 -0.4342  0.2648  0.6190
21198SOL    HW169430  10.543   4.932   3.922 -0.5269 -0.4688 -0.2397
21198SOL    HW269431  10.669   5.013   3.937 -1.2803  0.5760  0.6023
21199SOL     OW69432   9.356   3.045   4.099 -0.2503 -0.5780  0.5454
21199SOL    HW169433   9.277   2.992   4.090  0.0290 -0.7932 -1.0701
21199SOL    HW269434   9.340   3.122   4.044  1.1272 -1.2628 -0.9161
21200SOL     OW69435   9.496   9.944   9.618 -0.2529  0.0412  0.0537
21200SOL    HW169436   9.591   9.936   9.621 -0.1783  0.5153 -0.7663
21200SOL    HW269437   9.480  10.020   9.562 -1.1404 -0.5749 -0.5627
21201SOL     OW69438   3.402   7.223   5.857 -0.3624  0.4522  0.3794
21201SOL    HW169439   3.339   7.171   5.808 -0.3581  0.6170  0.1981
21201SOL    HW269440   3.425   7.295   5.798  1.1062 -0.3959 -0.1531
21202SOL     OW69441   5.772   9.018   7.647  0.2299 -0.0867  0.1987
21202SOL    HW169442   5.821   8.947   7.606 -0.2694  0.2087 -0.9644
21202SOL    HW269443   5.838   9.083   7.670  0.6856 -0.8751  1.2191
21203SOL     OW69444   3.841   6.640  10.377  0.1457 -0.2352 -0.2691
21203SOL    HW169445   3.913   6.629  10.316  1.1357  1.1484  0.5972
21203SOL    HW269446   3.862   6.582  10.450 -0.8667 -1.6334 -1.0420
21204SOL     OW69447   7.267   0.485   4.022 -0.1602  0.9020 -0.2529
21204SOL    HW169448   7.355   0.490   4.061  0.3754  0.8968 -1.4105
21204SOL    HW269449   7.213   0.541   4.078  0.4001  0.3035  0.9273
21205SOL     OW69450   7.013   9.354   8.072  0.0330 -0.1726  0.2546
21205SOL    HW169451   7.074   9.416   8.030 -0.2471 -0.8680 -1.2500
21205SOL    HW269452   6.942   9.409   8.105  0.6976  0.4863  0.6244
21206SOL     OW69453   8.028   2.321   5.162  0.6515 -0.8346 -0.5458
21206SOL    HW169454   7.959   2.318   5.096  0.3768 -1.7707 -0.2232
21206SOL    HW269455   8.021   2.408   5.200  0.8803 -0.2294 -1.8129
21207SOL     OW69456   1.126   5.142   3.274  0.5175  0.1222  0.1089
21207SOL    HW169457   1.032   5.161   3.280  0.4646 -0.3968  1.1221
21207SOL    HW269458   1.162   5.173   3.357  1.3808  0.9855 -0.5616
21208SOL     OW69459   5.849   4.730   6.905  0.1209 -0.4010  0.1865
21208SOL    HW169460   5.896   4.799   6.860  0.4558 -0.4300  0.4869
21208SOL    HW269461   5.759   4.738   6.875  0.5679 -1.2376 -1.4792
21209SOL     OW69462   7.447   0.166   2.917  0.3322 -0.1468 -0.7045
21209SOL    HW169463   7.483   0.224   2.984  0.5432  0.8891 -1.6730
21209SOL    HW269464   7.504   0.180   2.841  1.3558 -2.7828 -0.5390
21210SOL     OW69465   7.083   7.384   4.809  0.3319 -0.2017 -0.4879
21210SOL    HW169466   7.112   7.293   4.813  0.5348 -0.0965  1.0291
21210SOL    HW269467   7.003   7.381   4.756  0.9427 -1.0806 -1.3894
21211SOL     OW69468   5.046   9.509   5.249 -0.3542  0.2100  0.0534
21211SOL    HW169469   5.096   9.433   5.278 -1.0619 -0.2418  0.1266
21211SOL    HW269470   5.081   9.582   5.300  0.3420 -0.0621 -0.0315
21212SOL     OW69471   9.265  10.476   4.455  0.0701  0.1626  0.1212
21212SOL    HW169472   9.254  10.393   4.410  0.6719  1.2627 -2.1764
21212SOL    HW269473   9.360  10.493   4.452  0.0603  0.5333  1.3420
21213SOL     OW69474  10.579   1.914   2.280  0.4628  0.5659 -0.2749
21213SOL    HW169475  10.648   1.848   2.281 -0.8353 -0.8356  0.1400
21213SOL    HW269476  10.501   1.868   2.310 -0.6546  2.1218 -0.6572
21214SOL     OW69477   1.032   4.667   8.203 -0.3377  0.3786  0.1709
21214SOL    HW169478   1.088   4.704   8.134 -0.2473 -0.5780 -0.2841
21214SOL    HW269479   1.088   4.605   8.249 -0.6631  0.3493  0.5336
21215SOL     OW69480   4.447   8.083   5.544 -0.4956  0.2953  0.4954
21215SOL    HW169481   4.393   8.046   5.614  0.3367  0.0187  1.0057
21215SOL    HW269482   4.514   8.133   5.591  0.9948 -1.1387 -0.0375
21216SOL     OW69483   8.972   3.661   2.142 -0.3556 -0.2457 -0.1004
21216SOL    HW169484   8.905   3.609   2.187  0.7431 -0.5151  1.3074
21216SOL    HW269485   8.928   3.696   2.065 -2.2596  0.0008  1.0432
21217SOL     OW69486   1.013  10.593  10.515  0.0194 -0.0284  0.3258
21217SOL    HW169487   0.976  10.656  10.452 -0.1671  1.0675  1.4959
21217SOL    HW269488   1.063  10.532  10.461 -0.0069  0.9713 -0.8727
21218SOL     OW69489   6.476   2.691   9.247 -0.0016  0.1702 -0.1495
21218SOL    HW169490   6.407   2.625   9.254  0.6681 -0.6438 -0.9819
21218SOL    HW269491   6.472   2.739   9.329 -0.7480 -0.6732  0.3216
21219SOL     OW69492   6.626   9.204   7.242  0.2088  0.9227  0.2788
21219SOL    HW169493   6.552   9.147   7.218  0.2375  1.2362 -0.5985
21219SOL    HW269494   6.615   9.220   7.335  0.3358 -0.7287  0.6087
21220SOL     OW69495   7.711   1.745   5.906 -0.2055  0.4260  0.2007
21220SOL    HW169496   7.796   1.714   5.937 -0.2063 -0.2415 -0.4256
21220SOL    HW269497   7.699   1.701   5.822 -0.5053  1.6626 -0.4252
21221SOL     OW69498   5.836   6.392   9.834 -0.5961 -0.2106 -0.5439
21221SOL    HW169499   5.815   6.485   9.830  0.1587 -0.0606 -1.6801
21221SOL    HW269500   5.895   6.378   9.759 -0.2894 -1.4910 -0.0895
21222SOL     OW69501   3.135   6.705   6.004  0.0979  0.3075 -1.1713
21222SOL    HW169502   3.072   6.686   5.935 -1.2342 -0.8456  0.3099
21222SOL    HW269503   3.194   6.629   6.004 -0.7167 -0.3464 -0.1870
21223SOL     OW69504   1.323   9.892   0.466 -0.0539 -0.5490  0.1194
21223SOL    HW169505   1.254   9.859   0.524  0.6597  0.2843  1.4962
21223SOL    HW269506   1.402   9.888   0.520  0.3354  1.8844 -0.1937
21224SOL     OW69507   3.321   4.757   9.735 -0.0356 -0.2373 -0.2705
21224SOL    HW169508   3.410   4.791   9.737 -0.2601  0.3206  0.7653
21224SOL    HW269509   3.291   4.772   9.645  1.3292 -1.5905 -1.0018
21225SOL     OW69510   4.971   4.779   5.663  0.1834 -0.4441  0.2909
21225SOL    HW169511   4.918   4.859   5.663 -2.6909 -2.2099  0.6205
21225SOL    HW269512   5.059   4.809   5.640 -0.4613  2.9630  1.6485
21226SOL     OW69513   8.172   2.209   8.159 -0.4194  0.2271 -0.3610
21226SOL    HW169514   8.244   2.270   8.171 -0.0397 -0.1106 -0.8930
21226SOL    HW269515   8.103   2.262   8.118 -0.8305  0.7792  0.9931
21227SOL     OW69516   3.254   0.377   7.386 -0.1466 -0.0544  0.2342
21227SOL    HW169517   3.192   0.310   7.414  0.0383 -0.5877 -0.6035
21227SOL    HW269518   3.333   0.359   7.437 -0.9189  1.1817  1.9849
21228SOL     OW69519   7.109   9.104   5.317  0.6478  0.6939  0.1504
21228SOL    HW169520   7.200   9.076   5.313  0.4600  0.1121 -0.3024
21228SOL    HW269521   7.088   9.108   5.410  0.7551 -0.4537  0.2316
21229SOL     OW69522   9.916   7.578   3.275 -0.4042 -0.2537 -0.1312
21229SOL    HW169523   9.992   7.551   3.224  0.1870  1.5932 -0.2940
21229SOL    HW269524   9.855   7.504   3.268  1.2028 -1.6328 -0.2798
21230SOL     OW69525   1.347   1.598   4.905  0.6219 -0.4054  0.0249
21230SOL    HW169526   1.420   1.585   4.844  1.8964 -1.3692  1.6672
21230SOL    HW269527   1.348   1.692   4.924  2.5529 -0.6226  1.2732
21231SOL     OW69528   1.741   3.979   3.721  0.3198 -0.0053  0.5017
21231SOL    HW169529   1.706   3.932   3.796 -0.1904 -1.0295 -0.3545
21231SOL    HW269530   1.682   3.957   3.649  0.8715  0.8435 -0.2365
21232SOL     OW69531   8.640   8.851   6.484 -0.0823 -0.2327 -0.4255
21232SOL    HW169532   8.657   8.899   6.403  0.1847  0.5094  0.0579
21232SOL    HW269533   8.547   8.863   6.500  0.3117  1.9279  0.7662
21233SOL     OW69534   9.591   2.061   4.985  0.2190  0.0682 -0.6287
21233SOL    HW169535   9.580   2.006   5.062  1.4047  0.9684  0.2168
21233SOL    HW269536   9.505   2.061   4.943 -0.0724 -1.5807 -0.0994
21234SOL     OW69537   0.576   5.750   1.383  0.2330  0.0866 -0.3636
21234SOL    HW169538   0.614   5.668   1.413  0.2757  0.3454  0.3049
21234SOL    HW269539   0.539   5.729   1.297  2.6699  0.0339 -1.4878
21235SOL     OW69540   8.531   8.799   4.839 -0.2030 -0.1535  0.2741
21235SOL    HW169541   8.465   8.769   4.901  1.5370 -1.3162  1.6613
21235SOL    HW269542   8.593   8.850   4.891  1.5867 -1.5878 -0.3108
21236SOL     OW69543   1.782   4.663   4.226 -0.2061 -0.4737 -0.0793
21236SOL    HW169544   1.822   4.746   4.199  0.8672 -1.0306 -0.2835
21236SOL    HW269545   1.688   4.680   4.228  0.0105  0.7962  0.0582
21237SOL     OW69546  10.700   7.594  10.348  0.1305 -0.3317  0.1347
21237SOL    HW169547  10.705   7.688  10.366  0.2260 -0.2225 -0.4217
21237SOL    HW269548  10.688   7.589  10.253  0.1405 -0.8824  0.1602
21238SOL     OW69549   3.977   9.544   3.864  0.2379 -0.2459 -0.1216
21238SOL    HW169550   4.060   9.546   3.815  0.8750  0.0744  0.9424
21238SOL    HW269551   4.003   9.527   3.954 -0.5645  2.8084  0.8025
21239SOL     OW69552   9.775   1.230  10.079 -0.9502 -0.0927 -0.1013
21239SOL    HW169553   9.871   1.232  10.075 -0.9928  2.1939 -1.6278
21239SOL    HW269554   9.756   1.237  10.173  0.3232 -1.5145  0.3154
21240SOL     OW69555   4.008   1.080   8.939 -0.5436 -0.2916  0.1113
21240SOL    HW169556   4.080   1.114   8.885 -1.3691  1.8438  0.2759
21240SOL    HW269557   4.037   1.095   9.029 -0.1157 -1.8658  0.2808
21241SOL     OW69558   8.348   3.941   7.046  0.0363 -0.2469  0.7568
21241SOL    HW169559   8.426   3.909   7.092 -1.3273 -2.2309  1.8830
21241SOL    HW269560   8.364   3.922   6.954  1.5973  1.0557  0.7220
21242SOL     OW69561   3.066   4.206  10.510  0.5253 -1.2391 -0.6555
21242SOL    HW169562   3.037   4.138  10.449 -1.8901 -0.6970 -0.1934
21242SOL    HW269563   3.073   4.161  10.595 -0.0988 -1.1205 -0.5422
21243SOL     OW69564   0.553   9.021   2.235 -0.1228 -0.3616 -0.0738
21243SOL    HW169565   0.458   9.016   2.251 -0.3720  1.4311 -0.7397
21243SOL    HW269566   0.574   9.113   2.248  2.1758 -1.1575  3.1543
21244SOL     OW69567   9.670   6.368   0.093  0.6820  0.6267  0.0793
21244SOL    HW169568   9.585   6.340   0.127  0.0811 -0.2852 -2.0141
21244SOL    HW269569   9.709   6.420   0.164 -1.6117  1.0799  1.0781
21245SOL     OW69570   4.749   1.301   2.128 -0.2429  0.2408 -0.4599
21245SOL    HW169571   4.788   1.388   2.140  0.0096  0.2124 -1.0853
21245SOL    HW269572   4.809   1.242   2.174 -1.0382  0.5155  1.0226
21246SOL     OW69573   7.359   5.390   0.502 -0.4139 -0.0636  0.0225
21246SOL    HW169574   7.321   5.417   0.419 -2.1953 -0.2778  0.7348
21246SOL    HW269575   7.378   5.297   0.491 -1.0307 -0.1869 -0.0115
21247SOL     OW69576   9.476   9.402  10.690 -0.1650 -0.4310  0.6111
21247SOL    HW169577   9.391   9.359  10.682 -0.2634 -0.0031 -1.2199
21247SOL    HW269578   9.536   9.345  10.641  0.0294  0.6115 -0.4228
21248SOL     OW69579   5.648  10.332   7.237  0.2088 -0.2422  0.4062
21248SOL    HW169580   5.693  10.312   7.155 -0.4722  1.2035 -0.3581
21248SOL    HW269581   5.713  10.312   7.305  0.9766 -0.9409 -0.5065
21249SOL     OW69582   5.229   2.838   3.963  0.2804  0.6204 -0.0108
21249SOL    HW169583   5.233   2.924   3.921 -0.3073  0.0476 -1.3141
21249SOL    HW269584   5.143   2.835   4.004 -0.8543 -0.2892 -2.2538
21250SOL     OW69585   0.635   9.580   2.956  0.0110  0.3991 -0.6368
21250SOL    HW169586   0.579   9.504   2.969  0.7653 -0.0296  0.2009
21250SOL    HW269587   0.722   9.550   2.981  0.2343  1.6647  0.1896
21251SOL     OW69588  10.384   9.873   8.445 -0.6404 -0.1190  0.6438
21251SOL    HW169589  10.298   9.909   8.422 -0.6573 -0.0214  0.8525
21251SOL    HW269590  10.440   9.949   8.455 -0.1935 -0.2405 -0.7553
21252SOL     OW69591   8.172   4.221   6.982 -0.1109  0.5695 -0.2889
21252SOL    HW169592   8.252   4.264   7.013 -0.0979 -0.6246  1.4780
21252SOL    HW269593   8.132   4.185   7.061 -1.0113 -1.1283 -1.4541
21253SOL     OW69594   9.653   6.612   1.281 -0.3451 -0.2581  0.1858
21253SOL    HW169595   9.683   6.545   1.343 -1.1350 -1.6409 -0.8649
21253SOL    HW269596   9.729   6.626   1.224 -0.2815 -0.4928  0.2095
21254SOL     OW69597   8.813   2.297   4.338  0.0498 -0.0987 -0.5659
21254SOL    HW169598   8.829   2.344   4.420 -0.1565  1.2140 -1.2444
21254SOL    HW269599   8.872   2.338   4.274  0.9554 -1.7808 -0.8843
21255SOL     OW69600   3.657   8.251   2.421 -0.0515  0.1471  0.1336
21255SOL    HW169601   3.635   8.225   2.510 -1.2658 -0.8144 -0.4218
21255SOL    HW269602   3.650   8.347   2.422  0.4395  0.1838  1.1807
21256SOL     OW69603   0.258   3.419   0.733 -0.7829  0.0979  0.7010
21256SOL    HW169604   0.318   3.483   0.696 -0.6542 -1.2431 -1.5618
21256SOL    HW269605   0.246   3.354   0.664 -3.4351 -0.6398  1.7394
21257SOL     OW69606   5.902   1.593   1.433 -0.1663 -0.0697 -0.6792
21257SOL    HW169607   5.901   1.689   1.421  0.7911 -0.0416 -0.6106
21257SOL    HW269608   5.898   1.559   1.344  0.1433  0.0481 -0.7408
21258SOL     OW69609   6.475  10.532   5.283 -0.4588 -0.1156 -0.0162
21258SOL    HW169610   6.383  10.523   5.260 -0.4593  0.3538 -0.2137
21258SOL    HW269611   6.512  10.444   5.273 -0.3608  0.1398 -2.2551
21259SOL     OW69612   7.000   1.752   3.751  0.7500  0.5799 -0.3192
21259SOL    HW169613   6.935   1.691   3.716  0.0180  0.4668  1.1525
21259SOL    HW269614   7.078   1.738   3.697 -0.1300 -0.0094 -1.4687
21260SOL     OW69615   3.347  10.607   2.748 -0.8771 -0.3314 -0.1093
21260SOL    HW169616   3.369  10.605   2.654 -0.1752 -1.4789  0.0640
21260SOL    HW269617   3.346  10.701   2.769 -1.2465 -0.0439 -1.3071
21261SOL     OW69618   7.148   5.173   8.368 -0.3025  0.4836 -0.1979
21261SOL    HW169619   7.204   5.238   8.409 -0.8574  1.3666 -0.8149
21261SOL    HW269620   7.207   5.119   8.315  0.6634 -1.5238  2.6532
21262SOL     OW69621   7.813   0.606   2.447 -0.1819 -0.1499  0.4809
21262SOL    HW169622   7.772   0.542   2.390 -0.3476 -1.2866  1.8252
21262SOL    HW269623   7.777   0.588   2.534  1.3135  0.4319  1.2588
21263SOL     OW69624   8.848   2.103   8.945 -0.7375 -0.0530  0.1903
21263SOL    HW169625   8.856   2.189   8.905 -2.1640 -0.2992 -0.7126
21263SOL    HW269626   8.904   2.107   9.022  0.9292  0.9274 -1.0196
21264SOL     OW69627   1.866  10.213   6.080  0.4725  0.0617  0.3122
21264SOL    HW169628   1.815  10.132   6.078 -1.5647  1.2862  0.7461
21264SOL    HW269629   1.877  10.237   5.988 -1.1647  0.6328  0.2463
21265SOL     OW69630   8.614   3.524   3.447 -0.0707 -0.4609 -0.4080
21265SOL    HW169631   8.602   3.464   3.373 -0.1627 -1.6261  0.5166
21265SOL    HW269632   8.702   3.502   3.480 -0.7330 -1.2220  0.9109
21266SOL     OW69633   0.495  10.388   4.359  0.1410  0.2318  0.3563
21266SOL    HW169634   0.437  10.437   4.301  1.2153 -2.0148 -2.9936
21266SOL    HW269635   0.446  10.309   4.381  0.5155  0.0970  0.7250
21267SOL     OW69636   2.751   2.066   1.755 -0.0570  0.4444  0.3275
21267SOL    HW169637   2.724   2.104   1.839 -1.0995 -1.9789  1.1974
21267SOL    HW269638   2.762   2.141   1.697 -2.8143  2.0468  1.6436
21268SOL     OW69639   8.714   8.777   2.434  0.0013  0.2971  0.4950
21268SOL    HW169640   8.624   8.802   2.413 -0.2434 -0.0999  1.0582
21268SOL    HW269641   8.766   8.855   2.413 -0.5183  0.6499  0.5040
21269SOL     OW69642   6.404  10.633   0.980 -0.2896  0.0189 -0.3002
21269SOL    HW169643   6.333  10.569   0.991  0.7671 -0.9839  1.2440
21269SOL    HW269644   6.400  10.658   0.888 -2.2743 -0.4347 -0.3805
21270SOL     OW69645   1.112   4.068  10.632 -0.1068  0.7767  0.1917
21270SOL    HW169646   1.032   4.117  10.613 -1.6749 -1.7059 -0.0660
21270SOL    HW269647   1.148   4.110  10.709 -2.4151  1.1766  1.1278
21271SOL     OW69648   9.557   0.749   7.771 -0.3457  0.1178  0.1316
21271SOL    HW169649   9.642   0.736   7.813 -0.0708  0.5382 -0.2725
21271SOL    HW269650   9.531   0.838   7.796 -0.5978  0.0443  0.1342
21272SOL     OW69651   7.102   0.164   6.074  0.0831 -0.5164  0.1216
21272SOL    HW169652   7.082   0.121   6.157  3.5854 -2.2273  0.2879
21272SOL    HW269653   7.156   0.239   6.099  3.0634 -2.2723 -0.4789
21273SOL     OW69654   1.322   5.243   5.496  0.0309 -0.0681 -0.2694
21273SOL    HW169655   1.302   5.328   5.457 -1.2540 -0.4571 -0.5283
21273SOL    HW269656   1.252   5.230   5.560 -0.1819 -1.2276 -0.7173
21274SOL     OW69657   8.487   6.449   8.115 -0.1219 -0.5720 -0.1708
21274SOL    HW169658   8.473   6.438   8.021 -0.5423 -2.4216  0.0523
21274SOL    HW269659   8.409   6.497   8.145 -0.9392 -1.6350 -0.5077
21275SOL     OW69660   9.736   9.662   9.428  0.8683  0.1054 -0.0882
21275SOL    HW169661   9.665   9.599   9.440 -0.8377  1.6788 -1.3136
21275SOL    HW269662   9.711   9.737   9.483  0.6234  1.3813 -1.8494
21276SOL     OW69663   1.350   3.051   5.366 -0.5340 -0.4935  0.0820
21276SOL    HW169664   1.334   3.023   5.276  2.3937  2.3738 -1.5738
21276SOL    HW269665   1.272   3.101   5.390 -0.6517  0.1882 -1.5914
21277SOL     OW69666   9.569   4.332   8.795  0.3513 -0.0005 -0.5309
21277SOL    HW169667   9.581   4.369   8.882  0.0134  0.2269 -0.5814
21277SOL    HW269668   9.500   4.385   8.755  0.7330  0.1082 -1.0589
21278SOL     OW69669   2.860   0.725   1.119 -0.3801  0.2012  0.7684
21278SOL    HW169670   2.883   0.633   1.132 -2.2348 -0.1653  1.8018
21278SOL    HW269671   2.941   0.772   1.135  0.3994 -1.1979  1.1132
21279SOL     OW69672   7.829   3.024   8.404 -0.5873 -0.2224 -0.0716
21279SOL    HW169673   7.824   2.956   8.337  1.3180 -1.0107  0.5367
21279SOL    HW269674   7.815   2.978   8.486  1.2370 -0.0095  0.3904
21280SOL     OW69675   9.092   9.387   2.980  0.2223  0.0809  0.5566
21280SOL    HW169676   9.063   9.359   3.067 -0.5575  1.9021  0.9379
21280SOL    HW269677   9.013   9.421   2.939  0.5630 -0.8672 -0.9373
21281SOL     OW69678   9.960   0.582   2.548 -0.1989  0.0594 -0.0917
21281SOL    HW169679  10.010   0.617   2.622  0.1337  0.8006 -0.6480
21281SOL    HW269680   9.903   0.654   2.521 -0.8856 -0.4663 -0.0708
21282SOL     OW69681   8.417   6.591   8.683  0.1139  0.0362 -0.2242
21282SOL    HW169682   8.407   6.501   8.714 -0.9832 -0.0155 -0.6702
21282SOL    HW269683   8.367   6.643   8.746  0.4610  0.2964 -0.1623
21283SOL     OW69684   4.393  10.409   4.296 -0.2419  0.0233 -0.1801
21283SOL    HW169685   4.341  10.424   4.375 -2.2215 -0.0118 -1.3968
21283SOL    HW269686   4.469  10.466   4.306 -1.4268  1.5272  0.8878
21284SOL     OW69687   9.534   1.251   2.663  0.6134 -0.4190  0.3165
21284SOL    HW169688   9.556   1.207   2.581  1.0518  1.1859 -0.4780
21284SOL    HW269689   9.461   1.200   2.699  0.0332 -0.8467 -1.3632
21285SOL     OW69690   4.510   5.580   4.558  0.0704  0.0427  0.5366
21285SOL    HW169691   4.504   5.498   4.508 -0.6743 -0.0300  0.7381
21285SOL    HW269692   4.425   5.622   4.545  0.0798  0.2996  1.2691
21286SOL     OW69693   6.503   6.514   9.630 -0.1125  0.3146 -0.1135
21286SOL    HW169694   6.425   6.461   9.646  0.5087 -0.1602  1.4605
21286SOL    HW269695   6.475   6.604   9.649 -1.0081  0.5660 -2.2489
21287SOL     OW69696   2.339   6.674   1.579 -0.0673 -0.2239  0.1860
21287SOL    HW169697   2.408   6.628   1.627  0.4638 -0.7808 -1.0738
21287SOL    HW269698   2.360   6.660   1.487 -2.5654 -1.5369 -0.2812
21288SOL     OW69699   1.939  10.228   2.503 -0.3891 -0.0856  0.8081
21288SOL    HW169700   1.866  10.169   2.517 -0.2023 -0.0041  2.2736
21288SOL    HW269701   1.940  10.243   2.408 -1.0026 -1.6819  0.5206
21289SOL     OW69702   8.245   0.925   7.755  0.3432  0.8271 -0.0672
21289SOL    HW169703   8.249   0.853   7.692  0.0576  0.0790  0.7586
21289SOL    HW269704   8.288   0.891   7.833 -0.8025  1.1325  0.7241
21290SOL     OW69705   9.261   7.771   3.946 -0.2475 -0.2824  0.1251
21290SOL    HW169706   9.346   7.732   3.924 -0.0795 -0.5727  1.2224
21290SOL    HW269707   9.271   7.864   3.926 -0.1750 -0.5452 -1.1536
21291SOL     OW69708   5.166   0.345   9.778  0.1997  0.4001 -0.2155
21291SOL    HW169709   5.228   0.313   9.712  0.7240 -0.0649  0.4832
21291SOL    HW269710   5.144   0.434   9.749  1.2454  0.5951 -0.4451
21292SOL     OW69711   2.154   8.619   5.426  0.1144 -0.1906  0.0645
21292SOL    HW169712   2.105   8.601   5.506 -1.0640  1.0991 -0.3124
21292SOL    HW269713   2.086   8.629   5.359  1.1103 -1.9281 -1.2757
21293SOL     OW69714   0.263   3.006   4.017  0.2202  0.2004 -0.5212
21293SOL    HW169715   0.232   3.069   4.082  2.6966 -0.2848  1.2753
21293SOL    HW269716   0.185   2.954   3.996 -1.0927  1.6005  0.5783
21294SOL     OW69717   0.072   8.472   0.541 -0.0248 -0.4923  0.2646
21294SOL    HW169718  -0.012   8.490   0.583  0.3702 -1.3248  1.4741
21294SOL    HW269719   0.074   8.377   0.530  0.1477 -0.3525 -1.1352
21295SOL     OW69720   9.030   8.025   1.622  0.2717  0.1143  0.3445
21295SOL    HW169721   8.956   7.970   1.648  0.8316 -0.4224  0.8292
21295SOL    HW269722   8.991   8.110   1.601 -0.5316 -0.2960  0.1603
21296SOL     OW69723   6.398   6.686   2.217  0.0887  0.3422  0.0278
21296SOL    HW169724   6.363   6.765   2.258 -1.1762 -1.6227  3.0427
21296SOL    HW269725   6.343   6.672   2.140  0.7617  2.6489 -0.9610
21297SOL     OW69726   6.832   1.805   1.813  0.4825  0.1903 -0.0583
21297SOL    HW169727   6.893   1.752   1.865  0.0584 -2.1898 -1.7879
21297SOL    HW269728   6.889   1.862   1.761  1.7084 -3.3529 -3.1361
21298SOL     OW69729   8.148  10.644   2.925 -0.0159 -0.5274  0.6010
21298SOL    HW169730   8.177  10.730   2.955 -0.8656  0.2946 -0.8049
21298SOL    HW269731   8.068  10.627   2.974 -0.0646 -0.3297  0.5907
21299SOL     OW69732   1.250   0.372   1.081  0.7025  0.0336 -0.2397
21299SOL    HW169733   1.178   0.313   1.062  0.2237  1.0717 -1.7999
21299SOL    HW269734   1.216   0.431   1.148 -0.1089  0.8399 -1.3336
21300SOL     OW69735   5.405   9.319   1.637 -0.4115  0.2691  0.2791
21300SOL    HW169736   5.442   9.297   1.723  2.8163  0.7956 -0.8475
21300SOL    HW269737   5.401   9.235   1.591  4.7783  0.6182 -1.4038
21301SOL     OW69738   5.125   4.197   1.635  0.2341 -0.1395  0.8154
21301SOL    HW169739   5.070   4.135   1.588 -0.5437  0.1815  1.2774
21301SOL    HW269740   5.095   4.283   1.605  2.6477  0.0423 -1.3518
21302SOL     OW69741   9.638   0.024   5.836  0.2782  0.2138 -0.1721
21302SOL    HW169742   9.553  -0.020   5.828  0.5092 -0.2718 -0.0094
21302SOL    HW269743   9.683  -0.023   5.906  1.0050 -0.0681 -0.8146
21303SOL     OW69744   5.558   4.115   9.790 -0.5044  0.0119 -0.2895
21303SOL    HW169745   5.589   4.084   9.875  0.6230  1.4312 -0.1510
21303SOL    HW269746   5.545   4.034   9.739  1.5260 -0.7687  0.3220
21304SOL     OW69747  10.417   2.998   4.366  0.1599  0.3263  0.2332
21304SOL    HW169748  10.484   2.988   4.434  0.8097  0.3216 -0.3909
21304SOL    HW269749  10.445   3.075   4.316 -0.7395  0.7977  0.4458
21305SOL     OW69750   2.905   7.948   8.863 -0.2412 -0.3933  0.0973
21305SOL    HW169751   2.853   7.868   8.860  2.1658 -2.1266  1.2091
21305SOL    HW269752   2.945   7.954   8.776 -1.2445  0.2398 -0.3384
21306SOL     OW69753   2.520   0.401   6.235  0.1756  0.2263 -0.1084
21306SOL    HW169754   2.606   0.359   6.239 -0.4956 -1.2733 -0.8473
21306SOL    HW269755   2.530   0.481   6.288  1.8277 -0.2426  0.3404
21307SOL     OW69756   7.315   3.842   4.760  0.2591  0.4603  0.1099
21307SOL    HW169757   7.322   3.887   4.676 -0.7471  1.6810  0.6381
21307SOL    HW269758   7.388   3.780   4.760  0.1561  0.2799 -1.7299
21308SOL     OW69759   4.882   7.562   5.785  0.4187  0.0066 -0.4417
21308SOL    HW169760   4.813   7.575   5.721  1.2682 -0.9533 -1.6029
21308SOL    HW269761   4.865   7.628   5.852 -1.2420  0.1985 -0.9983
21309SOL     OW69762   5.066   2.454   0.005  0.1277 -0.2158  0.0831
21309SOL    HW169763   5.029   2.542   0.011 -2.0232 -1.1138  1.0358
21309SOL    HW269764   5.053   2.429  -0.087 -1.0438 -0.2465  0.2432
21310SOL     OW69765   6.046   0.411   0.734  0.3191 -0.0569  0.0999
21310SOL    HW169766   5.977   0.387   0.797 -0.0306 -0.2227 -0.3334
21310SOL    HW269767   6.113   0.454   0.786 -0.0662  0.0049  0.5517
21311SOL     OW69768   3.832   3.091   8.362  0.5755 -0.4439  0.3576
21311SOL    HW169769   3.788   3.082   8.446  2.0574  0.3679  1.2744
21311SOL    HW269770   3.827   3.004   8.322 -2.0756 -0.3029  0.2436
21312SOL     OW69771  10.293   9.048   1.593 -0.1489 -0.1592 -0.0219
21312SOL    HW169772  10.272   9.118   1.531 -3.6495  0.0341  1.1382
21312SOL    HW269773  10.276   8.968   1.545 -0.9090 -0.0523  0.0512
21313SOL     OW69774   7.413   9.477   2.109 -0.2615  0.2785  0.1701
21313SOL    HW169775   7.341   9.477   2.046  0.6161  1.9588 -0.8827
21313SOL    HW269776   7.381   9.422   2.181 -1.0177 -2.3012 -1.9790
21314SOL     OW69777   3.814   2.716   8.324  0.0507  0.2654 -0.1117
21314SOL    HW169778   3.861   2.668   8.255  1.5518  1.2001  0.2197
21314SOL    HW269779   3.760   2.779   8.277  0.3632  0.2716 -0.4659
21315SOL     OW69780   2.189   9.721   1.734  0.3485 -0.0051 -0.1042
21315SOL    HW169781   2.171   9.710   1.640 -0.5991  0.3307  0.0251
21315SOL    HW269782   2.201   9.815   1.745  0.9673 -0.0966  0.0343
21316SOL     OW69783   2.725   3.341   8.532 -0.1030 -0.2210 -0.2813
21316SOL    HW169784   2.718   3.434   8.511  1.9112 -0.1973 -1.0736
21316SOL    HW269785   2.768   3.302   8.456  0.2031 -1.5702  0.5486
21317SOL     OW69786   1.669   0.004   6.163 -0.1913 -0.1430  0.3727
21317SOL    HW169787   1.750  -0.030   6.126  0.9638  0.9785  1.7191
21317SOL    HW269788   1.602  -0.057   6.134  1.2796 -1.7196  0.0761
21318SOL     OW69789   0.148   3.089   9.782 -0.4217 -0.2929 -0.0759
21318SOL    HW169790   0.066   3.040   9.782 -0.7720  0.1516 -2.9025
21318SOL    HW269791   0.209   3.034   9.733  0.1272  0.6711 -0.5024
21319SOL     OW69792   4.343   3.378   6.143 -0.8330 -0.6288  0.5447
21319SOL    HW169793   4.269   3.389   6.203 -0.4769  0.6076  0.7726
21319SOL    HW269794   4.313   3.415   6.060 -0.3241  0.2679  0.7564
21320SOL     OW69795   3.322   4.011   6.058 -0.5698  0.4980 -0.2774
21320SOL    HW169796   3.288   3.999   5.970  0.7759  1.6514 -0.9840
21320SOL    HW269797   3.255   4.063   6.102 -0.7243  0.8881 -0.9652
21321SOL     OW69798   2.339   0.955   8.962  0.3490 -0.0358  0.4500
21321SOL    HW169799   2.384   1.010   8.897  2.0195  0.5847  2.0427
21321SOL    HW269800   2.402   0.884   8.980  0.5089  0.5354  2.3218
21322SOL     OW69801   7.389   6.329   1.591 -0.1055 -0.2559  0.1653
21322SOL    HW169802   7.321   6.306   1.653  1.4289  0.4148  2.2035
21322SOL    HW269803   7.468   6.339   1.644  1.3337  0.1838 -1.9238
21323SOL     OW69804   2.326   4.210   6.717  0.3938  0.2861  0.2277
21323SOL    HW169805   2.328   4.258   6.634 -0.5492  1.3403  0.8043
21323SOL    HW269806   2.264   4.139   6.702 -0.9217  1.3589  0.4832
21324SOL     OW69807   7.352   5.332   8.737 -0.1874 -0.0106  0.1484
21324SOL    HW169808   7.419   5.289   8.684 -0.9317 -0.4920 -0.4252
21324SOL    HW269809   7.339   5.417   8.694  2.6021  1.6962  2.3298
21325SOL     OW69810   8.986   9.435   7.608  0.3628 -0.2073 -0.1902
21325SOL    HW169811   9.035   9.509   7.645  0.4374 -0.5170  0.3402
21325SOL    HW269812   8.896   9.466   7.603  0.5046  0.1571 -0.6098
21326SOL     OW69813   6.415   2.712   2.408  0.4163 -0.5049  0.4427
21326SOL    HW169814   6.365   2.646   2.456 -0.7885 -0.1088 -0.2026
21326SOL    HW269815   6.396   2.794   2.454 -1.6131  0.0602 -1.2134
21327SOL     OW69816   6.637  10.443   6.047 -0.2125  0.0590  0.5863
21327SOL    HW169817   6.552  10.446   6.090  0.4122  1.1870  1.8022
21327SOL    HW269818   6.696  10.407   6.113  0.6283  1.1573  0.4573
21328SOL     OW69819   9.693   1.750   9.611  0.0604 -0.0557 -0.3676
21328SOL    HW169820   9.747   1.826   9.633  0.8859  0.1045 -2.6617
21328SOL    HW269821   9.636   1.738   9.687 -0.4985  3.1978 -0.1545
21329SOL     OW69822   4.705   9.975  10.717  0.4993  0.0475 -0.2914
21329SOL    HW169823   4.721   9.881  10.710  0.7331  0.1446 -1.1876
21329SOL    HW269824   4.614   9.982  10.747  0.2861 -0.4617 -0.8002
21330SOL     OW69825   0.012   0.447   2.486 -0.3333 -0.0841 -0.2372
21330SOL    HW169826   0.008   0.521   2.426 -0.2055 -0.9520 -1.3607
21330SOL    HW269827   0.005   0.486   2.573  0.6444  1.3213 -0.7463
21331SOL     OW69828   0.682   0.941   2.529 -0.2655 -0.1072 -0.2214
21331SOL    HW169829   0.738   0.877   2.572  0.9622 -0.0320 -1.6281
21331SOL    HW269830   0.641   0.893   2.457  0.4372  0.5660 -1.1068
21332SOL     OW69831   0.852   8.314   9.839  0.5443 -0.0399 -0.0619
21332SOL    HW169832   0.871   8.400   9.802 -0.0157  0.5925  1.0773
21332SOL    HW269833   0.938   8.278   9.863  0.7343  0.4812  0.0519
21333SOL     OW69834   5.500   0.933   6.271  0.0676 -0.8495 -0.5798
21333SOL    HW169835   5.505   0.876   6.194  0.5895 -1.1030 -0.3603
21333SOL    HW269836   5.408   0.932   6.295  0.1635 -2.1362 -0.1840
21334SOL     OW69837   0.819   6.473   1.129 -0.3453  0.1745  0.1928
21334SOL    HW169838   0.880   6.447   1.198 -0.8981  1.5759  1.2560
21334SOL    HW269839   0.824   6.568   1.128 -0.7529  0.1982 -1.3625
21335SOL     OW69840   2.463   1.075   6.659 -0.1909  0.2616  0.5883
21335SOL    HW169841   2.419   1.109   6.737 -1.0954 -0.0508  0.2277
21335SOL    HW269842   2.419   1.118   6.586 -0.6396 -0.8463  0.1758
21336SOL     OW69843   8.221  10.108   9.353  0.3242 -0.4076  0.1824
21336SOL    HW169844   8.214  10.157   9.435 -0.2359 -0.6384  0.2787
21336SOL    HW269845   8.153  10.144   9.297  1.2890  0.3756 -0.5317
21337SOL     OW69846   4.318   0.115   3.643 -0.4230 -0.5406 -0.4931
21337SOL    HW169847   4.370   0.173   3.587 -1.0643  2.4804  1.7826
21337SOL    HW269848   4.383   0.062   3.689  0.2357 -0.9944 -1.8786
21338SOL     OW69849   2.657   0.332   3.437 -0.1397 -0.2089 -0.0009
21338SOL    HW169850   2.749   0.355   3.430  0.1196 -0.7158  1.4724
21338SOL    HW269851   2.616   0.374   3.362  1.2341  0.2979 -0.4880
21339SOL     OW69852   8.263   4.830   3.276  0.1556  0.4332 -0.1132
21339SOL    HW169853   8.332   4.881   3.317 -0.7048  2.3782 -0.9789
21339SOL    HW269854   8.236   4.881   3.200 -2.1427 -0.3114  0.1215
21340SOL     OW69855   4.753   8.608   4.205  0.0530 -0.7397  0.1011
21340SOL    HW169856   4.822   8.669   4.233  0.9007 -1.7752  0.3323
21340SOL    HW269857   4.697   8.598   4.282 -0.1229 -0.2201  0.0442
21341SOL     OW69858   7.034   1.826   6.812  0.4605 -0.0766  0.0098
21341SOL    HW169859   7.082   1.893   6.764  1.3705 -1.7877 -1.6250
21341SOL    HW269860   7.097   1.793   6.877  0.2561  0.1491  0.3260
21342SOL     OW69861   4.729   9.299   8.137  0.1083  0.3616 -0.2958
21342SOL    HW169862   4.796   9.366   8.145 -0.2683  0.9809 -1.9415
21342SOL    HW269863   4.653   9.344   8.101 -0.9629 -0.4843  0.8010
21343SOL     OW69864   7.290  10.144   5.986  0.3654  0.3930 -0.4999
21343SOL    HW169865   7.345  10.140   6.064  0.3207 -0.5756 -0.5031
21343SOL    HW269866   7.265  10.235   5.979 -1.1387  0.2113  1.6824
21344SOL     OW69867   7.014   2.692   0.372  0.0126 -0.4560 -0.3350
21344SOL    HW169868   7.043   2.783   0.366  2.0502 -0.9842  0.5590
21344SOL    HW269869   7.086   2.647   0.416 -2.2483 -1.8987  2.2124
21345SOL     OW69870   7.646   0.211   6.184  0.0471 -0.0616  0.6313
21345SOL    HW169871   7.656   0.148   6.256 -4.2977  1.1824  2.6459
21345SOL    HW269872   7.609   0.159   6.112  2.0043 -0.8038  0.0869
21346SOL     OW69873   0.074   4.197  10.398  0.4945  0.9449 -0.2964
21346SOL    HW169874   0.030   4.229  10.320  1.3611  0.2536 -1.0952
21346SOL    HW269875   0.149   4.148  10.365  0.1829 -0.4402  0.9288
21347SOL     OW69876   1.523   3.994  10.207  0.0701  0.0869 -0.6296
21347SOL    HW169877   1.473   3.916  10.231  0.0230  0.5310  0.8239
21347SOL    HW269878   1.600   3.961  10.161  0.2375 -0.8551  0.2931
21348SOL     OW69879   5.340   3.468   3.171 -0.6534 -0.5947 -0.1433
21348SOL    HW169880   5.363   3.449   3.080  0.2576  1.2507 -0.3411
21348SOL    HW269881   5.396   3.410   3.222  1.6210  0.9719 -0.7157
21349SOL     OW69882   4.084   2.769   2.700  0.0727  0.5966 -0.5671
21349SOL    HW169883   4.005   2.788   2.650  0.7686  0.4757 -1.7260
21349SOL    HW269884   4.063   2.689   2.749 -0.8602  1.1206 -0.0976
21350SOL     OW69885   9.123   9.523   2.608  0.3133  0.1758 -0.0616
21350SOL    HW169886   9.117   9.609   2.648  0.7494 -0.4193  1.3467
21350SOL    HW269887   9.183   9.474   2.665 -1.5929 -1.7306  0.4398
21351SOL     OW69888   5.154   8.448   3.050  0.0546  0.5712 -0.3541
21351SOL    HW169889   5.094   8.474   3.119 -0.7356 -1.4320 -0.1974
21351SOL    HW269890   5.126   8.498   2.973  0.5521  2.3555  0.5808
21352SOL     OW69891   0.626   3.201   7.775 -0.0438 -0.2301 -0.0673
21352SOL    HW169892   0.655   3.190   7.866 -1.8611 -1.9981  0.3553
21352SOL    HW269893   0.532   3.215   7.781 -0.1674 -0.1954 -1.6871
21353SOL     OW69894   1.779   9.086   1.718  0.7069  0.2903 -0.2349
21353SOL    HW169895   1.705   9.138   1.689  0.2312  0.2085  0.7699
21353SOL    HW269896   1.751   9.049   1.802  1.7822  0.0560  0.0459
21354SOL     OW69897   4.922   7.665   8.366 -0.0363  0.0474  0.2012
21354SOL    HW169898   4.931   7.579   8.324  1.1210 -0.0158  0.5571
21354SOL    HW269899   4.855   7.652   8.433 -3.0610  0.5008 -2.4588
21355SOL     OW69900   7.115   4.749   0.855  0.4813  0.3976 -0.0063
21355SOL    HW169901   7.141   4.666   0.896  1.8016  0.8320  0.0668
21355SOL    HW269902   7.128   4.814   0.924  1.4594  0.9517 -0.6950
21356SOL     OW69903   4.497   6.022   9.044 -0.0756  0.4667  0.4878
21356SOL    HW169904   4.450   6.042   8.963 -0.5518  1.7938  1.0700
21356SOL    HW269905   4.582   5.989   9.015 -0.8383 -0.6421 -0.5579
21357SOL     OW69906  10.251   2.268   9.822  0.6089 -0.0145 -0.1889
21357SOL    HW169907  10.269   2.317   9.902  0.5092  2.3510 -1.5236
21357SOL    HW269908  10.336   2.233   9.796  0.7433 -0.3240  0.6414
21358SOL     OW69909   7.179   1.365   9.183  0.3154  0.3814  0.6956
21358SOL    HW169910   7.114   1.299   9.160  0.3454 -0.2295  2.2280
21358SOL    HW269911   7.162   1.438   9.124  0.7698 -1.2478 -1.6181
21359SOL     OW69912   2.909   3.797   8.390 -0.1692  0.2453 -0.0640
21359SOL    HW169913   2.925   3.880   8.434 -1.5489  0.8116 -0.5611
21359SOL    HW269914   2.973   3.794   8.319 -0.6037  1.2796 -0.5225
21360SOL     OW69915   0.121   3.884   9.897 -0.3270  0.1520 -0.3387
21360SOL    HW169916   0.086   3.846   9.816  0.0337  0.1945 -0.5166
21360SOL    HW269917   0.058   3.859   9.964  1.3921 -3.4150  0.1621
21361SOL     OW69918   2.302  10.128   0.981  0.4668 -0.2539  0.0536
21361SOL    HW169919   2.363  10.196   1.010  1.3176 -2.2834  3.6996
21361SOL    HW269920   2.221  10.147   1.028  0.0577 -0.6281 -0.4904
21362SOL     OW69921   2.165   8.505   9.223 -0.2375  0.5124 -0.3024
21362SOL    HW169922   2.156   8.599   9.211  1.1301  0.5209 -1.5336
21362SOL    HW269923   2.157   8.469   9.134 -0.3183 -0.4878  0.0996
21363SOL     OW69924   6.229   0.803   9.680  0.1819 -0.2870 -0.2175
21363SOL    HW169925   6.316   0.843   9.688  0.3298 -0.9022  1.9469
21363SOL    HW269926   6.239   0.716   9.718 -0.9221 -1.1613 -1.8257
21364SOL     OW69927  10.418   9.845   0.521  0.4793 -0.1262  0.0117
21364SOL    HW169928  10.511   9.866   0.528  0.2603  0.5541  1.2310
21364SOL    HW269929  10.410   9.756   0.556  0.4542  0.4685  1.6049
21365SOL     OW69930   4.175   9.174   2.605 -0.0338  0.3270  0.2299
21365SOL    HW169931   4.245   9.175   2.670  0.8614 -1.0840 -0.6513
21365SOL    HW269932   4.126   9.094   2.623 -1.4396  1.2863  0.8170
21366SOL     OW69933   9.474   1.096   3.376 -0.1985 -0.1208  0.3579
21366SOL    HW169934   9.417   1.021   3.359 -0.3324 -0.0729  0.5945
21366SOL    HW269935   9.455   1.157   3.305  0.8599 -0.8495 -0.6003
21367SOL     OW69936   1.895   6.741   8.679 -0.8131  0.0321  0.1969
21367SOL    HW169937   1.910   6.802   8.607 -0.1920 -0.7491 -0.3528
21367SOL    HW269938   1.831   6.679   8.644 -2.3323  0.9947  1.1434
21368SOL     OW69939   7.368   7.389   5.639 -0.3326  0.3179  0.6075
21368SOL    HW169940   7.314   7.331   5.586  1.3840 -0.3996 -0.4538
21368SOL    HW269941   7.409   7.332   5.704 -0.0188  0.6447  0.7067
21369SOL     OW69942   8.738   2.238   2.931 -0.1965 -0.1646  0.1305
21369SOL    HW169943   8.669   2.299   2.958  1.0470  1.2985  0.2052
21369SOL    HW269944   8.730   2.164   2.991 -1.8441 -0.1591 -0.0409
21370SOL     OW69945   7.250   6.874   3.438 -0.1574 -0.3565 -0.0409
21370SOL    HW169946   7.319   6.937   3.418 -1.4191  0.6358 -1.5522
21370SOL    HW269947   7.209   6.907   3.518  0.5184 -0.4399  0.3425
21371SOL     OW69948   5.485   4.153   7.971 -0.1845  0.4581  0.3350
21371SOL    HW169949   5.399   4.118   7.945  0.9825 -0.3828 -2.9515
21371SOL    HW269950   5.542   4.077   7.972  1.2326  1.4223 -1.2694
21372SOL     OW69951   8.925   8.230   6.433  0.7157 -0.1392 -0.2991
21372SOL    HW169952   8.902   8.322   6.422  1.1982 -0.1126 -1.1051
21372SOL    HW269953   8.904   8.189   6.349  2.5242 -0.3301 -0.6949
21373SOL     OW69954   4.054   8.237   0.509 -0.2479 -0.9942 -0.3811
21373SOL    HW169955   3.991   8.233   0.438 -0.0266 -0.1838 -0.6298
21373SOL    HW269956   4.020   8.176   0.575 -2.1107  0.5135  0.1421
21374SOL     OW69957   5.495   1.501   3.384 -0.5393 -0.6611 -0.0919
21374SOL    HW169958   5.435   1.446   3.434  0.5904 -1.6005  0.3008
21374SOL    HW269959   5.504   1.458   3.300 -0.7163 -0.3026 -0.2983
21375SOL     OW69960   5.117   9.438   9.870 -0.4691  0.2840  0.1236
21375SOL    HW169961   5.053   9.448   9.941  0.7381  2.1674  1.0359
21375SOL    HW269962   5.185   9.502   9.890  1.2744 -1.0183 -1.2964
21376SOL     OW69963   3.990   7.466   1.456 -0.1201 -0.1855 -0.0571
21376SOL    HW169964   4.016   7.558   1.448  0.3800 -0.2525  0.7453
21376SOL    HW269965   4.046   7.431   1.525 -1.1681 -0.7716  0.5193
21377SOL     OW69966   0.966   9.113   8.134 -0.0848 -0.1579 -0.8347
21377SOL    HW169967   1.029   9.084   8.069 -0.3944 -1.6927 -0.4805
21377SOL    HW269968   1.000   9.080   8.217 -0.0804  1.1401 -0.2992
21378SOL     OW69969  10.715   0.028   3.795 -0.7205  0.1370  0.6318
21378SOL    HW169970  10.694  -0.006   3.708  0.2268  1.3106 -0.0799
21378SOL    HW269971  10.653   0.100   3.808  0.1091  0.9291  0.2774
21379SOL     OW69972   7.416   1.818   3.451  0.5931 -0.1119 -0.5082
21379SOL    HW169973   7.451   1.734   3.482 -0.1945 -0.3274 -0.1755
21379SOL    HW269974   7.445   1.882   3.516 -0.9675 -0.5449  0.6832
21380SOL     OW69975   8.635   6.284   2.656  0.0181  0.4253  0.0950
21380SOL    HW169976   8.716   6.258   2.701 -0.4480 -0.7723  0.2730
21380SOL    HW269977   8.663   6.351   2.594  1.2042 -0.1581 -0.0279
21381SOL     OW69978   4.820   6.132   8.589  0.1650 -0.1034  0.2776
21381SOL    HW169979   4.856   6.213   8.625 -2.3174  1.7925 -1.1960
21381SOL    HW269980   4.847   6.133   8.497  0.9098 -1.4973  0.4502
21382SOL     OW69981   5.365   5.213   5.843 -0.0821 -0.3038 -0.1162
21382SOL    HW169982   5.404   5.250   5.922 -0.8806  1.0510 -0.3224
21382SOL    HW269983   5.292   5.160   5.875 -0.0876 -0.1777  0.0809
21383SOL     OW69984   7.337   7.100   1.348 -0.2379 -0.4836 -0.7900
21383SOL    HW169985   7.378   7.034   1.403 -1.0175 -0.8511 -0.6411
21383SOL    HW269986   7.292   7.158   1.410  1.1401  0.7256 -0.8390
21384SOL     OW69987   0.516   3.926   6.090  0.2529  0.0308 -0.3006
21384SOL    HW169988   0.459   3.910   6.015  0.5474  0.6198 -0.6545
21384SOL    HW269989   0.582   3.857   6.085 -0.7601 -1.0379  0.4639
21385SOL     OW69990   4.866   8.565   7.560  0.0491  0.3057  0.2361
21385SOL    HW169991   4.871   8.627   7.488  0.9956  0.5047  0.4518
21385SOL    HW269992   4.773   8.549   7.572 -0.2147  1.6386  0.1383
21386SOL     OW69993   8.160   6.205   7.545  0.1029  0.2363  0.0270
21386SOL    HW169994   8.072   6.168   7.539  0.3742 -0.3602 -0.3923
21386SOL    HW269995   8.207   6.145   7.603  0.1978  0.6417  0.3803
21387SOL     OW69996   5.123   6.728   0.990  0.2360 -0.6179  0.3693
21387SOL    HW169997   5.089   6.808   0.949  1.3227  1.7366  3.6212
21387SOL    HW269998   5.198   6.704   0.935  2.0114  2.7223  1.0196
21388SOL     OW69999   5.149   6.326   1.195  0.0892 -0.6686 -0.0302
21388SOL    HW170000   5.241   6.348   1.205  0.1498 -1.7178  2.3424
21388SOL    HW270001   5.148   6.231   1.182 -0.6718 -0.7324  0.4528
21389SOL     OW70002   0.880   1.764   3.629  0.4014  0.1049  0.6431
21389SOL    HW170003   0.913   1.843   3.671  0.6003 -0.3544  1.3633
21389SOL    HW270004   0.803   1.739   3.680  0.1027  0.0490  0.1769
21390SOL     OW70005   5.471   0.474   7.776 -0.3817  0.1665 -0.0037
21390SOL    HW170006   5.461   0.542   7.709  2.3240  1.1335  0.4762
21390SOL    HW270007   5.479   0.393   7.726  0.5982  0.7489 -0.8269
21391SOL     OW70008   6.318   4.413   0.243  0.2377  0.2268  0.3602
21391SOL    HW170009   6.247   4.477   0.241 -0.5145 -0.5978  0.6032
21391SOL    HW270010   6.368   4.436   0.321 -0.4214  0.1063  0.8268
21392SOL     OW70011   7.318   8.339   4.581  0.0749  0.5484  0.2844
21392SOL    HW170012   7.337   8.404   4.513  0.7595 -0.3264 -0.3965
21392SOL    HW270013   7.265   8.273   4.537 -0.0705  0.3173  0.7944
21393SOL     OW70014   1.027   4.162   7.239  0.4651  0.1312 -0.0217
21393SOL    HW170015   1.090   4.228   7.270 -1.5770  1.4422  1.6680
21393SOL    HW270016   1.071   4.078   7.254  2.2395  1.0158  0.0023
21394SOL     OW70017   0.960   4.557   9.368  0.0907  0.5906 -0.0511
21394SOL    HW170018   0.984   4.535   9.458  0.3705 -2.1068 -0.7103
21394SOL    HW270019   1.018   4.504   9.313 -1.6580  0.3402 -1.7804
21395SOL     OW70020   8.022   6.943   7.877  0.1834  0.0657  0.0184
21395SOL    HW170021   7.958   7.006   7.844  0.7545  1.0458  0.7353
21395SOL    HW270022   7.971   6.863   7.890 -0.8431  0.7305  0.2801
21396SOL     OW70023   5.300  10.241   3.225 -0.3078  0.3770 -0.2827
21396SOL    HW170024   5.263  10.254   3.138 -2.7479  0.1916  0.6743
21396SOL    HW270025   5.281  10.322   3.272  0.7128  0.3528  0.1975
21397SOL     OW70026   9.441   9.931   5.513 -0.3448  0.8980  0.4128
21397SOL    HW170027   9.513   9.986   5.545 -1.1565  3.0766 -1.2655
21397SOL    HW270028   9.365   9.959   5.564 -0.2404 -0.8186  1.6029
21398SOL     OW70029   1.000   5.491   4.176  0.1915 -0.6078 -0.0399
21398SOL    HW170030   1.064   5.548   4.135 -1.7710  1.9203  0.1949
21398SOL    HW270031   0.945   5.460   4.104 -0.0956 -0.3822  0.0800
21399SOL     OW70032   9.398   1.321   8.599 -0.2319  0.1131 -0.5257
21399SOL    HW170033   9.349   1.349   8.522  0.8908 -1.3353 -1.8121
21399SOL    HW270034   9.463   1.260   8.566 -0.5119 -1.5382  1.7480
21400SOL     OW70035   7.810   8.276   8.801  0.0850 -0.0351  0.3850
21400SOL    HW170036   7.770   8.309   8.882  0.0069 -2.7895  1.5716
21400SOL    HW270037   7.903   8.297   8.810  0.2080 -1.0044  1.5872
21401SOL     OW70038   2.417   8.669   9.539  0.3117  0.0403  0.0367
21401SOL    HW170039   2.389   8.667   9.631  0.5870 -1.4801  0.1114
21401SOL    HW270040   2.433   8.577   9.517  3.4904  0.6222 -0.5591
21402SOL     OW70041   3.795   5.212   4.988  0.4697  0.4213  0.4899
21402SOL    HW170042   3.741   5.138   5.015 -0.5913  0.4425 -1.4082
21402SOL    HW270043   3.819   5.192   4.898  1.6199  1.5802  0.5209
21403SOL     OW70044   5.750   3.388  10.001  0.4316  0.1064 -0.0838
21403SOL    HW170045   5.843   3.409  10.014  0.5714  0.3193 -1.2400
21403SOL    HW270046   5.739   3.392   9.906 -0.2065 -2.2869 -0.1703
21404SOL     OW70047   8.758   2.476   4.803 -0.2572  0.0136 -0.1680
21404SOL    HW170048   8.831   2.539   4.807  0.0460 -0.2254 -1.4269
21404SOL    HW270049   8.766   2.425   4.883  2.2539 -1.3539 -1.1438
21405SOL     OW70050   7.179   0.455   9.293 -0.5438 -0.3584  0.5323
21405SOL    HW170051   7.097   0.445   9.244 -0.3670 -0.1120  0.1794
21405SOL    HW270052   7.218   0.367   9.291  1.1532  0.3102 -2.8201
21406SOL     OW70053   4.661   5.339   3.582 -0.7993  0.0437 -0.2952
21406SOL    HW170054   4.578   5.383   3.566 -0.3509  1.4347  0.9939
21406SOL    HW270055   4.717   5.368   3.509 -1.1376 -0.1049 -0.6179
21407SOL     OW70056   0.048   5.727   0.514 -0.5501  0.0367 -0.2499
21407SOL    HW170057   0.027   5.635   0.530  0.0903 -0.1654 -0.5158
21407SOL    HW270058   0.133   5.725   0.471 -0.9147  0.7200 -1.0274
21408SOL     OW70059   8.427   3.618   3.288 -0.1984  0.1714 -0.0317
21408SOL    HW170060   8.515   3.607   3.325  0.4236  0.9845 -1.2051
21408SOL    HW270061   8.393   3.697   3.331  0.3584  0.8717 -0.8364
21409SOL     OW70062   4.876  10.366   7.124  0.0406  0.1222  0.4619
21409SOL    HW170063   4.832  10.394   7.205  0.9980  0.9627  0.7160
21409SOL    HW270064   4.913  10.281   7.146 -1.7237 -0.7780  0.1268
21410SOL     OW70065   5.792   1.736   7.535  0.4827 -0.2922  0.4729
21410SOL    HW170066   5.747   1.724   7.451 -0.3725  0.7763  0.7522
21410SOL    HW270067   5.856   1.665   7.539 -0.7289 -1.4651 -0.2441
21411SOL     OW70068   5.393   3.972   0.814  0.3747 -0.4261  0.4125
21411SOL    HW170069   5.400   4.031   0.740  0.5646  0.3170  1.0105
21411SOL    HW270070   5.427   3.888   0.782 -0.5381 -0.4093 -0.6433
21412SOL     OW70071   7.432   0.888   7.714  0.8508 -0.4648 -0.0029
21412SOL    HW170072   7.514   0.858   7.754  0.7195  0.8830  1.3433
21412SOL    HW270073   7.365   0.830   7.750  0.8287  0.3096  1.2552
21413SOL     OW70074  10.536   8.377   2.089  0.2258 -0.6383  0.3175
21413SOL    HW170075  10.632   8.370   2.088  0.1958 -1.0752 -0.3638
21413SOL    HW270076  10.509   8.337   2.007 -0.4087  1.9469 -0.8146
21414SOL     OW70077   0.550   6.091   5.748 -0.4019  0.6135  0.2726
21414SOL    HW170078   0.538   6.001   5.778 -1.8233  0.5181 -0.4994
21414SOL    HW270079   0.635   6.090   5.704  0.4415  0.1120  1.8387
21415SOL     OW70080   3.903   8.824   7.896 -0.2338 -0.1635 -0.3015
21415SOL    HW170081   3.829   8.871   7.858  0.1837 -0.1914 -1.1884
21415SOL    HW270082   3.889   8.828   7.990 -1.8453 -0.9624 -0.4747
21416SOL     OW70083   8.084   5.970   1.590  0.2766  0.0570 -0.0643
21416SOL    HW170084   8.168   5.959   1.635 -1.2480  0.4997  3.1902
21416SOL    HW270085   8.075   5.891   1.537  1.8571 -0.9658  1.0769
21417SOL     OW70086   1.108   1.092   5.611 -0.2731  0.3119 -0.5224
21417SOL    HW170087   1.172   1.147   5.564  0.1228  0.6265  0.3618
21417SOL    HW270088   1.055   1.154   5.661 -1.0176  0.0166 -0.9240
21418SOL     OW70089   6.607   7.871   7.550  0.0930  0.1671  0.2182
21418SOL    HW170090   6.646   7.790   7.584  0.3504 -0.1670 -0.8295
21418SOL    HW270091   6.532   7.887   7.607 -0.7511 -1.5439 -0.3477
21419SOL     OW70092   1.482   5.457   3.227 -0.0614  0.1835  0.5646
21419SOL    HW170093   1.487   5.410   3.144  0.3479  0.0189  0.6810
21419SOL    HW270094   1.474   5.388   3.293  0.7885  0.2590  0.7581
21420SOL     OW70095   6.610   3.138   6.638 -0.0555 -0.0780 -0.6409
21420SOL    HW170096   6.564   3.213   6.675 -0.4837 -0.7575  0.2630
21420SOL    HW270097   6.587   3.065   6.696 -0.2025 -1.0586 -1.8810
21421SOL     OW70098   4.523   5.558   0.232  0.2356 -0.1403 -0.5175
21421SOL    HW170099   4.440   5.606   0.234  0.0833 -0.3345  2.2471
21421SOL    HW270100   4.552   5.563   0.141 -1.2441  2.5988 -0.9390
21422SOL     OW70101   5.599   3.574   2.801  0.1965  0.1596 -0.1915
21422SOL    HW170102   5.514   3.546   2.834  1.5012 -2.6459  1.1213
21422SOL    HW270103   5.637   3.626   2.872 -0.1075  0.8377 -0.5112
21423SOL     OW70104   1.627   2.310  10.212  0.4668 -0.2192 -0.4146
21423SOL    HW170105   1.695   2.325  10.278 -0.2803 -0.9380  0.5392
21423SOL    HW270106   1.645   2.223  10.178 -1.5520 -1.6607  1.8640
21424SOL     OW70107   2.514   1.009   0.798  0.3081 -0.1980  0.2622
21424SOL    HW170108   2.464   0.932   0.772  1.5597 -1.1630  0.5805
21424SOL    HW270109   2.483   1.029   0.886 -0.3468 -0.0446  0.0038
21425SOL     OW70110   9.884   8.399   2.414  0.3209 -0.1937  0.0852
21425SOL    HW170111   9.843   8.484   2.395 -0.4227 -0.6081 -0.2044
21425SOL    HW270112   9.941   8.383   2.339  0.9242  0.3170  0.4211
21426SOL     OW70113   4.623   4.069   0.682  0.2264 -0.0441  0.2736
21426SOL    HW170114   4.560   3.998   0.681 -0.4121  0.5142 -0.2258
21426SOL    HW270115   4.585   4.136   0.624  0.9696  0.5592  0.4637
21427SOL     OW70116   3.917   8.544   5.065  0.1408  0.0304 -0.2987
21427SOL    HW170117   3.931   8.574   5.155  2.2915 -0.0343 -0.5428
21427SOL    HW270118   3.961   8.459   5.062  1.8030  0.8641 -1.8437
21428SOL     OW70119   0.803  10.524   3.766 -0.2759  0.3071  0.0184
21428SOL    HW170120   0.791  10.437   3.804  0.3967  0.0014 -0.4440
21428SOL    HW270121   0.750  10.523   3.686  0.3053  0.0581 -0.3712
21429SOL     OW70122   7.843   3.282   0.402  0.5141  0.3242 -0.4691
21429SOL    HW170123   7.797   3.205   0.369 -1.2778  0.9676  0.4097
21429SOL    HW270124   7.775   3.348   0.413  1.0742  0.5193  3.3973
21430SOL     OW70125   4.896   5.587   8.350  0.0272  0.1277 -0.1421
21430SOL    HW170126   4.813   5.634   8.351 -1.2569 -2.0026  0.2597
21430SOL    HW270127   4.877   5.506   8.303  1.5552 -0.9650  1.0346
21431SOL     OW70128   0.723   5.919   2.197 -0.5389  0.5273 -0.2063
21431SOL    HW170129   0.772   5.997   2.172  0.4534  0.0968  0.3401
21431SOL    HW270130   0.790   5.857   2.227 -1.0447 -1.3452 -2.6045
21432SOL     OW70131   8.927   6.431   4.241 -0.0286  0.3758 -0.4966
21432SOL    HW170132   8.960   6.496   4.303  0.1690 -0.0065 -0.1944
21432SOL    HW270133   8.885   6.364   4.296  0.9156 -0.4123 -0.7038
21433SOL     OW70134   2.277   0.467   1.154 -1.2012 -0.0986 -0.4262
21433SOL    HW170135   2.322   0.390   1.120  0.3179  1.1146 -1.3021
21433SOL    HW270136   2.331   0.495   1.228 -2.0498 -0.1915  0.2323
21434SOL     OW70137   6.629   0.470   8.584  0.0044 -0.0372 -0.9634
21434SOL    HW170138   6.711   0.480   8.535 -0.9954  0.2401 -2.6402
21434SOL    HW270139   6.569   0.430   8.522 -1.2902  0.2300  0.0838
21435SOL     OW70140   9.327   4.254   4.568 -0.2837  0.5488  0.6252
21435SOL    HW170141   9.286   4.269   4.653 -0.9496 -0.2340  0.4593
21435SOL    HW270142   9.388   4.181   4.583  0.6808  1.3602  0.7500
21436SOL     OW70143   2.944   3.831   0.825  0.3952 -0.3020  0.3014
21436SOL    HW170144   3.037   3.827   0.846  0.4890 -1.0259 -0.2047
21436SOL    HW270145   2.903   3.769   0.886 -0.0894  1.6265  2.0697
21437SOL     OW70146   0.501   4.778   3.821  0.3555 -0.7886 -0.1230
21437SOL    HW170147   0.481   4.732   3.903  0.6509 -0.3211  0.2193
21437SOL    HW270148   0.540   4.861   3.849 -0.8820  0.0222 -0.7185
21438SOL     OW70149   8.718   9.269   5.647 -0.6880  0.0840 -0.0786
21438SOL    HW170150   8.691   9.294   5.735  1.5045  0.9003  0.4349
21438SOL    HW270151   8.644   9.293   5.591 -3.3823 -3.1022  1.7487
21439SOL     OW70152   5.281   0.124   7.031  0.6247 -0.6925 -0.1963
21439SOL    HW170153   5.324   0.044   7.001  1.4229 -0.6157  0.7041
21439SOL    HW270154   5.312   0.192   6.970 -2.5758 -1.5242 -3.0619
21440SOL     OW70155   2.593   5.953   4.425  0.0663 -0.5407 -0.4271
21440SOL    HW170156   2.686   5.978   4.428 -0.4528  2.1660 -2.5848
21440SOL    HW270157   2.593   5.869   4.380  1.4556 -0.0956 -1.3532
21441SOL     OW70158   6.248   5.112   7.709  0.0509  0.5852  0.0757
21441SOL    HW170159   6.274   5.110   7.617 -0.1992 -0.1548  0.0203
21441SOL    HW270160   6.152   5.112   7.708  0.0427  1.0839  0.3298
21442SOL     OW70161   8.542   6.970   3.343 -0.7281 -0.1167  0.5581
21442SOL    HW170162   8.497   7.005   3.419 -2.4686 -0.9309 -0.0547
21442SOL    HW270163   8.554   7.046   3.285 -1.2251  0.1349  0.7821
21443SOL     OW70164   7.801   4.278   4.285 -0.0601  0.4639  0.2633
21443SOL    HW170165   7.776   4.359   4.329  0.6090  0.3004  0.9607
21443SOL    HW270166   7.827   4.305   4.197 -0.3591  0.9303  0.3173
21444SOL     OW70167   9.419   2.592   2.773 -0.4801 -0.1086  0.5631
21444SOL    HW170168   9.445   2.602   2.681 -3.4609 -1.6882 -0.5800
21444SOL    HW270169   9.501   2.587   2.821  1.2522 -1.7438 -2.3204
21445SOL     OW70170   0.229   2.920   0.491  0.2234  0.0212 -0.0828
21445SOL    HW170171   0.220   2.903   0.585 -1.4605  1.2552  0.0248
21445SOL    HW270172   0.302   2.982   0.484 -0.8165  1.3676  0.6301
21446SOL     OW70173   6.952   1.349   7.441 -0.4136 -0.1717  0.0602
21446SOL    HW170174   7.006   1.374   7.516 -0.8099 -1.2633  0.7319
21446SOL    HW270175   7.000   1.276   7.400 -0.7502 -0.3141 -0.0828
21447SOL     OW70176   7.697  10.237   5.142  0.1577  0.4796  0.4156
21447SOL    HW170177   7.640  10.180   5.192  1.1853  0.6112  1.7951
21447SOL    HW270178   7.786  10.213   5.170  0.6770  1.7424 -0.0583
21448SOL     OW70179   9.191   1.151   1.884 -0.1919 -0.2322 -0.1421
21448SOL    HW170180   9.209   1.189   1.798 -1.1894 -0.4060 -0.4460
21448SOL    HW270181   9.158   1.225   1.936 -1.7408 -0.5610 -0.6090
21449SOL     OW70182   0.382   8.101   1.950  0.4706  0.2162  0.5811
21449SOL    HW170183   0.442   8.096   1.876  0.7461 -0.1587  0.8233
21449SOL    HW270184   0.299   8.130   1.912 -0.1071 -2.3537 -0.3161
21450SOL     OW70185   7.286   7.386   5.035 -0.4704 -0.4114 -0.6657
21450SOL    HW170186   7.228   7.316   5.007 -0.9582  0.5574 -2.1726
21450SOL    HW270187   7.302   7.438   4.956  1.1956  0.2442  0.0522
21451SOL     OW70188  10.637   3.902   3.972  0.2661 -0.5955  0.0080
21451SOL    HW170189  10.711   3.905   3.912  0.7641 -0.5713  0.6064
21451SOL    HW270190  10.592   3.986   3.959  1.6861  0.4210  1.2681
21452SOL     OW70191   6.596  10.701   5.646 -0.2213 -0.1199  0.2996
21452SOL    HW170192   6.677  10.723   5.598 -0.6669  2.5483  0.5823
21452SOL    HW270193   6.623  10.696   5.737 -0.2755  0.4285  0.3542
21453SOL     OW70194   2.095   9.294   9.023  0.2332  0.1240 -0.0920
21453SOL    HW170195   2.140   9.375   9.003  1.5901 -0.8308 -1.0970
21453SOL    HW270196   2.031   9.318   9.091  0.6795  1.9697 -0.2740
21454SOL     OW70197   6.206   4.018   6.260 -0.0535 -0.1521 -0.2899
21454SOL    HW170198   6.176   3.928   6.271 -1.9645  0.5094  0.1690
21454SOL    HW270199   6.231   4.046   6.349  1.4564 -0.4937 -0.5705
21455SOL     OW70200   4.099   0.931   3.051  0.5673 -0.4006 -1.1359
21455SOL    HW170201   4.178   0.984   3.042 -0.6305  1.2252 -2.7706
21455SOL    HW270202   4.033   0.991   3.086 -0.6801 -0.9343 -2.4523
21456SOL     OW70203   1.965   7.500   2.763 -0.1909 -0.0245  0.3505
21456SOL    HW170204   2.030   7.491   2.693 -0.1598  2.5895 -0.0835
21456SOL    HW270205   1.948   7.411   2.792  3.8380 -0.8728  0.7389
21457SOL     OW70206   3.457   7.185   1.769 -0.3425  0.2694  0.3187
21457SOL    HW170207   3.522   7.131   1.723 -1.4009 -1.5714  0.8664
21457SOL    HW270208   3.508   7.254   1.811  1.0632 -0.1860 -0.5837
21458SOL     OW70209   3.046   4.156   7.503  0.0587  0.3905 -0.2314
21458SOL    HW170210   2.977   4.102   7.464 -0.7811  0.0205  1.6581
21458SOL    HW270211   3.014   4.246   7.493  0.8763  0.4947 -2.2656
21459SOL     OW70212   7.749   2.225   6.664  0.6818  0.2527 -0.0833
21459SOL    HW170213   7.818   2.217   6.730  0.9911  0.9381 -0.3140
21459SOL    HW270214   7.671   2.187   6.706  1.3976 -1.3577 -0.1503
21460SOL     OW70215   2.261   9.014   1.753  0.7446 -0.4671 -0.3694
21460SOL    HW170216   2.203   9.060   1.813  2.3605  0.3476  0.6263
21460SOL    HW270217   2.297   8.941   1.804 -0.0603 -1.5286 -1.2544
21461SOL     OW70218   1.169   1.458  10.644  0.1318 -0.3887  0.3318
21461SOL    HW170219   1.232   1.523  10.675 -0.9122  0.0089  1.7313
21461SOL    HW270220   1.177   1.460  10.549  1.5027  0.3743  0.4432
21462SOL     OW70221  10.217   5.171   3.780 -0.2254  0.9476  0.4169
21462SOL    HW170222  10.241   5.198   3.691  2.1296 -0.4121  0.5592
21462SOL    HW270223  10.172   5.087   3.768 -0.5061  1.0882  0.4778
21463SOL     OW70224   5.484   9.177   7.904  0.5078  0.1197 -0.0408
21463SOL    HW170225   5.425   9.101   7.901 -2.0035  1.9761 -0.5596
21463SOL    HW270226   5.463   9.220   7.987  0.7367  1.1241 -0.4889
21464SOL     OW70227  10.137   9.710   8.325 -0.6912  0.2546 -0.0469
21464SOL    HW170228  10.176   9.780   8.273  0.9276 -0.2363  0.4544
21464SOL    HW270229  10.112   9.753   8.407  3.5415 -0.2550  1.7564
21465SOL     OW70230   4.836   6.844   5.443  0.1101  0.2562  0.4231
21465SOL    HW170231   4.899   6.787   5.487 -0.5341 -0.1237  0.8777
21465SOL    HW270232   4.796   6.895   5.514  2.2532  2.9913 -0.1263
21466SOL     OW70233   4.349   8.247   7.106 -0.3771  0.6200  0.0984
21466SOL    HW170234   4.262   8.281   7.128 -0.6227  0.2675 -0.3287
21466SOL    HW270235   4.410   8.312   7.143 -0.7791  0.2225  1.5396
21467SOL     OW70236   0.259   0.073   4.176  0.2932 -0.1247  0.3186
21467SOL    HW170237   0.277   0.114   4.091  0.4259 -0.2658  0.2777
21467SOL    HW270238   0.196   0.132   4.218 -0.3636 -0.4484 -0.1885
21468SOL     OW70239   0.208   4.603   8.075 -0.0207 -0.1395  0.0238
21468SOL    HW170240   0.151   4.553   8.016 -0.2290  0.8829 -0.6552
21468SOL    HW270241   0.150   4.668   8.115  0.7257  1.1942 -0.9880
21469SOL     OW70242   0.822   6.293   7.060  0.8346 -0.4851 -0.3738
21469SOL    HW170243   0.899   6.243   7.086  0.6374 -1.1475 -1.0291
21469SOL    HW270244   0.749   6.250   7.104  0.7487 -0.3221 -0.3544
21470SOL     OW70245   4.111   1.514   9.402  0.3528 -0.1045 -0.1496
21470SOL    HW170246   4.139   1.568   9.477 -1.4235  1.5585 -0.6154
21470SOL    HW270247   4.117   1.573   9.327  1.8109 -1.6648 -1.3238
21471SOL     OW70248   5.229   2.101   5.292  0.0628  0.9411  0.0835
21471SOL    HW170249   5.152   2.108   5.235 -0.4403  0.9173  0.7513
21471SOL    HW270250   5.250   2.008   5.293 -0.5837  0.7915  0.7766
21472SOL     OW70251   3.458   3.175   7.104  0.0262  0.5612  0.2704
21472SOL    HW170252   3.455   3.225   7.022  2.7907 -1.6033 -1.3229
21472SOL    HW270253   3.508   3.231   7.164  1.4615  0.5808 -0.8748
21473SOL     OW70254  10.666   1.354   5.291 -0.4216 -0.0457 -0.3015
21473SOL    HW170255  10.720   1.276   5.300 -0.3084  0.1472  0.8096
21473SOL    HW270256  10.711   1.406   5.224  0.5295 -0.0927  0.2751
21474SOL     OW70257   3.421   1.324   9.050  0.5906  0.2127 -0.3205
21474SOL    HW170258   3.417   1.231   9.068  1.4005  0.2356  0.0237
21474SOL    HW270259   3.508   1.351   9.081 -0.5959  1.5974  2.0654
21475SOL     OW70260   0.852   9.999   8.157  0.3736  0.1746 -0.7820
21475SOL    HW170261   0.844  10.070   8.094 -0.9106  0.3499 -0.4623
21475SOL    HW270262   0.791   9.932   8.125 -1.1412  0.7103  0.8088
21476SOL     OW70263   3.718   2.841   4.418  0.5724  0.0417 -0.1057
21476SOL    HW170264   3.643   2.865   4.363  0.2051 -1.9230 -0.5207
21476SOL    HW270265   3.774   2.788   4.362  0.7338 -1.0913  1.0866
21477SOL     OW70266   2.583   4.807   4.599  0.3258  0.4593  0.1965
21477SOL    HW170267   2.629   4.725   4.579 -0.0364  0.4714 -0.6894
21477SOL    HW270268   2.582   4.810   4.695 -1.3891 -1.5729  0.3182
21478SOL     OW70269   3.936   3.697  10.291  0.0621  0.4713  0.8904
21478SOL    HW170270   3.925   3.627  10.227  0.9791  1.1163  0.0028
21478SOL    HW270271   4.018   3.739  10.267 -1.4168  3.1519  0.1404
21479SOL     OW70272   2.854   0.171   0.690 -0.3558 -0.1182 -0.3529
21479SOL    HW170273   2.874   0.151   0.599 -1.7907 -0.6581 -0.5842
21479SOL    HW270274   2.872   0.089   0.737 -0.1267 -0.0051 -0.2449
21480SOL     OW70275   2.966   5.636   8.560 -0.1910 -0.2231  0.5431
21480SOL    HW170276   2.898   5.571   8.574  0.8854 -1.2851  1.0150
21480SOL    HW270277   3.016   5.604   8.485 -0.3707  0.6915  0.0159
21481SOL     OW70278   1.820   0.997   9.842 -0.0624 -0.2719  0.2861
21481SOL    HW170279   1.844   0.906   9.820 -0.7978 -0.5604  0.6539
21481SOL    HW270280   1.725   0.999   9.834 -0.0444  0.4922  0.2174
21482SOL     OW70281   1.539   1.080   5.188 -0.6792 -0.5975  0.3155
21482SOL    HW170282   1.522   1.000   5.238 -1.2806 -0.6819 -0.0292
21482SOL    HW270283   1.456   1.102   5.148 -0.3124 -0.2564 -0.2685
21483SOL     OW70284   4.649   5.021   9.665 -0.1732 -0.1419  0.9929
21483SOL    HW170285   4.731   5.057   9.697  0.2259  1.3017 -1.4267
21483SOL    HW270286   4.583   5.086   9.690 -0.1587  0.0267  0.5955
21484SOL     OW70287   8.276   8.847  10.160 -0.0403  0.5502 -0.2968
21484SOL    HW170288   8.263   8.905  10.086 -0.0870  1.9282  0.7515
21484SOL    HW270289   8.260   8.901  10.237  0.2963 -0.7511  0.7415
21485SOL     OW70290   7.454   0.185   7.654 -0.1502  0.2928 -0.4083
21485SOL    HW170291   7.512   0.147   7.720  0.1027  0.0472 -0.7673
21485SOL    HW270292   7.496   0.267   7.629 -1.3970  1.5170  1.3655
21486SOL     OW70293   8.099   1.614   0.821 -0.0714  0.0539  0.2843
21486SOL    HW170294   8.075   1.678   0.889 -1.9438 -1.2993  0.9556
21486SOL    HW270295   8.027   1.552   0.820  1.2864 -1.5802 -0.9710
21487SOL     OW70296   8.396   7.906   9.180 -0.2392 -0.0544  0.7294
21487SOL    HW170297   8.478   7.856   9.182 -0.3399 -0.1890  2.1935
21487SOL    HW270298   8.336   7.850   9.130  0.5842  0.1376 -0.5362
21488SOL     OW70299   5.655   4.080   4.860  0.1886 -0.5481 -0.1342
21488SOL    HW170300   5.751   4.080   4.862  0.2498  1.6660 -0.0888
21488SOL    HW270301   5.630   4.056   4.950  0.5866 -3.2887 -0.6719
21489SOL     OW70302   5.522   3.492   6.150 -0.0224  0.2418  0.5342
21489SOL    HW170303   5.449   3.540   6.112 -1.2630 -1.1559  1.0337
21489SOL    HW270304   5.600   3.531   6.111 -1.1052  0.6558 -1.3311
21490SOL     OW70305   3.551   2.183   3.155 -0.2089  0.6650 -0.1406
21490SOL    HW170306   3.490   2.113   3.179  0.1501  0.6426  0.7759
21490SOL    HW270307   3.519   2.216   3.072 -0.8298 -0.0818 -0.2103
21491SOL     OW70308  10.708   8.904   9.371  0.3434 -0.7430  0.0902
21491SOL    HW170309  10.741   8.830   9.320  0.4178 -0.1304 -0.7820
21491SOL    HW270310  10.756   8.979   9.336 -0.7806 -0.0711 -0.0700
21492SOL     OW70311   5.131   8.522   9.218  0.3103 -0.4241  0.0528
21492SOL    HW170312   5.133   8.479   9.304  1.8632  1.8819  1.2836
21492SOL    HW270313   5.050   8.573   9.219  0.5311 -0.0772  0.3218
21493SOL     OW70314  10.291   0.803   2.337  0.2785  0.3537 -0.4397
21493SOL    HW170315  10.233   0.845   2.401  1.6789  0.0598  1.0878
21493SOL    HW270316  10.308   0.716   2.374  2.6593  0.8599 -0.1517
21494SOL     OW70317   2.187   3.308   3.255 -0.1440 -0.0476  0.2793
21494SOL    HW170318   2.265   3.349   3.292 -1.0169  1.4948  0.5127
21494SOL    HW270319   2.214   3.281   3.168  0.6216  0.6240  0.2887
21495SOL     OW70320   6.446   3.328   7.999 -0.1972 -0.2506 -0.1705
21495SOL    HW170321   6.538   3.302   8.003 -0.7975 -2.4169  0.6559
21495SOL    HW270322   6.418   3.334   8.090 -0.7087  1.1725 -0.3938
21496SOL     OW70323   2.909   4.462   1.008  0.1238  0.2250  0.1414
21496SOL    HW170324   2.967   4.511   1.067 -1.4990  1.1199  1.0810
21496SOL    HW270325   2.930   4.495   0.921  0.8513  0.7266  0.4931
21497SOL     OW70326   3.008   8.512   5.971 -0.1423 -0.2374 -0.3260
21497SOL    HW170327   3.082   8.571   5.959 -0.5724  0.3593 -0.0952
21497SOL    HW270328   2.975   8.496   5.882  0.1099 -0.3105 -0.4074
21498SOL     OW70329   8.054   7.781   8.327 -0.1691  0.0289 -0.3646
21498SOL    HW170330   8.050   7.686   8.332 -0.3964  0.0835  0.7157
21498SOL    HW270331   7.982   7.812   8.383  1.1918  0.8338  1.0366
21499SOL     OW70332   4.870   5.144   3.067  0.0405 -0.1218  0.0231
21499SOL    HW170333   4.935   5.212   3.054 -1.6968  1.5837 -0.0705
21499SOL    HW270334   4.922   5.063   3.072  2.0077  0.8846 -2.0000
21500SOL     OW70335   0.184   5.882   2.138 -0.8748 -0.3292  1.0823
21500SOL    HW170336   0.180   5.869   2.043  1.8032  0.7656  0.7426
21500SOL    HW270337   0.246   5.815   2.168  0.0166  0.7545  1.7063
21501SOL     OW70338   8.522   9.445   7.040  0.0534 -0.1148 -0.4252
21501SOL    HW170339   8.611   9.464   7.013 -0.0681  3.1096  0.9852
21501SOL    HW270340   8.526   9.442   7.136 -1.7380  3.4470 -0.0803
21502SOL     OW70341   4.124   3.423  10.501  0.6905 -0.1464 -0.2724
21502SOL    HW170342   4.090   3.375  10.426 -1.8360  0.0751  0.6255
21502SOL    HW270343   4.209   3.458  10.472 -0.7625  1.0565 -3.4564
21503SOL     OW70344   0.141   7.242   6.721 -0.8586  0.7923  0.1724
21503SOL    HW170345   0.191   7.163   6.699 -0.2231  1.4723 -0.9014
21503SOL    HW270346   0.117   7.230   6.813  0.1430 -0.1592  0.3364
21504SOL     OW70347   5.368   2.113   5.006  0.1320  0.0217  0.2789
21504SOL    HW170348   5.336   2.031   5.043  0.5286 -0.5085 -0.5361
21504SOL    HW270349   5.457   2.121   5.040 -0.1470  0.4951  0.9373
21505SOL     OW70350   6.657   9.987   6.373  0.6680  0.3271 -0.8788
21505SOL    HW170351   6.669   9.969   6.467 -1.3618 -0.7003 -0.7600
21505SOL    HW270352   6.609  10.071   6.371 -4.8364 -2.3641 -0.5072
21506SOL     OW70353   2.618   6.268  10.401  0.2175  0.2574  0.1832
21506SOL    HW170354   2.693   6.296  10.454  0.3782  1.2642 -0.5345
21506SOL    HW270355   2.578   6.350  10.372  0.0493 -0.2553 -1.1189
21507SOL     OW70356   0.916   5.924   8.624  0.4563 -0.3823  0.6785
21507SOL    HW170357   0.926   6.018   8.640 -0.0443 -0.0484 -0.8379
21507SOL    HW270358   0.991   5.884   8.669  0.1835  0.6309  2.1171
21508SOL     OW70359   6.006   3.438   7.812 -0.0708 -0.7093  0.0702
21508SOL    HW170360   6.032   3.498   7.882  0.6487 -0.1497 -0.6634
21508SOL    HW270361   6.034   3.352   7.843  3.8218 -0.0534 -1.1155
21509SOL     OW70362   1.305   8.973   3.773 -0.0746 -0.0313 -0.3829
21509SOL    HW170363   1.269   9.062   3.776  0.1789  0.1270 -1.3827
21509SOL    HW270364   1.307   8.944   3.864 -0.4359  0.8766 -0.0734
21510SOL     OW70365   9.592   5.756   4.658 -0.3615 -0.2276  0.3344
21510SOL    HW170366   9.627   5.689   4.717 -0.4330 -0.0322  0.6010
21510SOL    HW270367   9.665   5.780   4.602  0.6622  1.8614  2.3938
21511SOL     OW70368   1.593   7.449   9.703  0.1865  0.1107  0.2770
21511SOL    HW170369   1.539   7.426   9.779  1.5884  1.2635  1.6708
21511SOL    HW270370   1.576   7.378   9.640 -0.0225 -1.5900  2.1421
21512SOL     OW70371   8.924   1.555   7.513  0.3047 -0.1497  0.4238
21512SOL    HW170372   9.001   1.592   7.469  0.8063 -1.4049  0.2167
21512SOL    HW270373   8.959   1.497   7.580 -0.4717 -0.2913  0.7270
21513SOL     OW70374   2.543   0.858   4.535  0.4722 -0.3300 -0.2831
21513SOL    HW170375   2.451   0.850   4.509 -0.2389  1.3877  1.4790
21513SOL    HW270376   2.550   0.945   4.575  2.2738 -1.3625  1.8888
21514SOL     OW70377   3.579   4.059   5.035  0.2936 -0.7084 -0.6760
21514SOL    HW170378   3.569   4.145   4.994 -0.9596 -1.4559 -2.0517
21514SOL    HW270379   3.657   4.021   4.994  1.0244 -0.1286  0.1549
21515SOL     OW70380   7.361   8.111   6.759  0.1937 -0.2833 -0.6560
21515SOL    HW170381   7.272   8.141   6.745  0.0098 -0.7705 -0.5363
21515SOL    HW270382   7.386   8.150   6.843  0.5372  0.8634 -1.2705
21516SOL     OW70383   9.215   1.120   0.269 -0.0812 -0.4744  0.1560
21516SOL    HW170384   9.241   1.042   0.319  0.3464 -0.1273  0.4871
21516SOL    HW270385   9.286   1.182   0.284  0.1638 -0.4401 -1.0693
21517SOL     OW70386   9.792   3.103   3.812 -0.3633  0.0329 -0.0291
21517SOL    HW170387   9.829   3.024   3.852 -0.3896 -0.2845 -0.6145
21517SOL    HW270388   9.793   3.168   3.882 -0.4712 -0.5245  0.5059
21518SOL     OW70389   2.148   8.196   0.737 -0.0013  0.2734 -0.1229
21518SOL    HW170390   2.074   8.158   0.689  0.6350 -1.5052  0.2107
21518SOL    HW270391   2.116   8.204   0.827 -0.5149  1.6772 -0.4061
21519SOL     OW70392   9.045   6.117   8.471  0.4281  0.1088 -0.1259
21519SOL    HW170393   9.095   6.071   8.404 -0.2631  0.7673 -1.1264
21519SOL    HW270394   9.109   6.137   8.539  0.6483 -2.7781  0.6306
21520SOL     OW70395   2.115   3.190   2.331  0.0776  0.4120 -0.5205
21520SOL    HW170396   2.133   3.238   2.412  0.3219  0.2242 -0.4625
21520SOL    HW270397   2.169   3.111   2.337 -1.9318 -0.9553  0.3886
21521SOL     OW70398   3.615   4.537   1.591 -0.2826  0.3802  0.3013
21521SOL    HW170399   3.542   4.475   1.599 -1.5406  1.7674 -0.1147
21521SOL    HW270400   3.676   4.493   1.531 -0.5125 -1.0241  1.0621
21522SOL     OW70401   3.436   2.592  10.659  0.1877 -0.7422 -0.5918
21522SOL    HW170402   3.505   2.533  10.691 -1.0384 -0.9498  1.9328
21522SOL    HW270403   3.474   2.679  10.670  0.8111 -0.9270 -1.2218
21523SOL     OW70404   6.597   7.155   7.379 -0.7162 -0.3783  0.5538
21523SOL    HW170405   6.504   7.138   7.365 -1.1032  0.3207  2.0889
21523SOL    HW270406   6.605   7.250   7.375 -0.1202 -0.4163  0.7455
21524SOL     OW70407   9.534   7.197   3.672  0.0656 -0.2117 -0.3950
21524SOL    HW170408   9.550   7.251   3.750  0.2736  1.1299 -1.3306
21524SOL    HW270409   9.484   7.122   3.705  3.1525 -1.6243  1.6732
21525SOL     OW70410   9.044   5.458   5.826 -1.4354  0.0386  0.0187
21525SOL    HW170411   8.954   5.484   5.846 -1.5105 -0.2259  0.0266
21525SOL    HW270412   9.089   5.541   5.809 -1.6204  0.1916  0.2512
21526SOL     OW70413   3.596  10.689   5.817 -0.3829 -0.7984 -0.2432
21526SOL    HW170414   3.556  10.657   5.737  0.9638 -0.7537 -0.9529
21526SOL    HW270415   3.547  10.769   5.838  0.2621  0.0788 -1.9098
21527SOL     OW70416   8.966   0.192  10.347 -0.0621  0.2539  0.3266
21527SOL    HW170417   8.910   0.119  10.324  0.4074  0.1023 -0.3775
21527SOL    HW270418   8.945   0.260  10.283 -0.3444  0.6629  0.8447
21528SOL     OW70419   5.986   5.954   4.378  0.2876  0.6928 -0.4521
21528SOL    HW170420   6.003   5.875   4.429 -0.2141 -0.9737 -2.6927
21528SOL    HW270421   5.926   6.005   4.432  0.0091 -0.8258  0.7631
21529SOL     OW70422   0.325   2.306   8.982  0.1589  0.3411  0.1880
21529SOL    HW170423   0.361   2.381   9.030  0.1438  0.3827  0.1342
21529SOL    HW270424   0.401   2.257   8.953  0.1655  0.1957  0.4439
21530SOL     OW70425   7.556   0.142   3.509 -0.0244  0.5737 -0.1278
21530SOL    HW170426   7.601   0.187   3.438 -0.1336  2.9524  1.2317
21530SOL    HW270427   7.474   0.113   3.470  0.9681 -0.4352 -1.6006
21531SOL     OW70428   0.797   0.046   0.647 -0.2758  1.1462 -0.4037
21531SOL    HW170429   0.859   0.115   0.623 -0.2289  1.6973  1.1691
21531SOL    HW270430   0.765   0.072   0.734 -0.4597 -0.6795  0.1142
21532SOL     OW70431   1.930   5.816   4.034  0.2190 -0.0531  0.0320
21532SOL    HW170432   1.995   5.804   4.103 -0.2313 -1.2451  0.2670
21532SOL    HW270433   1.954   5.900   3.994 -0.7665  1.7777  2.9742
21533SOL     OW70434   5.903   1.205   0.631  0.2186 -0.0921  0.7343
21533SOL    HW170435   5.988   1.170   0.660  0.7683  0.1156 -0.5430
21533SOL    HW270436   5.918   1.231   0.540 -1.6336 -1.4377 -0.0186
21534SOL     OW70437   4.005   5.740   0.619  0.2215  0.3599 -0.4433
21534SOL    HW170438   4.002   5.645   0.632 -1.5646  0.4903  0.4415
21534SOL    HW270439   4.002   5.776   0.708 -0.7078  1.2480 -0.8259
21535SOL     OW70440  10.660   8.959   6.885 -0.8685 -0.1279  0.6500
21535SOL    HW170441  10.691   8.880   6.842  0.9260  0.7953  0.1598
21535SOL    HW270442  10.602   9.001   6.821 -0.1712 -0.0071  0.0898
21536SOL     OW70443   9.986   1.311  10.384  0.0245  0.1583 -0.4032
21536SOL    HW170444  10.024   1.270  10.307  0.5375  1.8258 -1.0846
21536SOL    HW270445   9.892   1.296  10.375  0.1262 -0.1095 -1.0663
21537SOL     OW70446   3.315   6.233   8.666  0.0087  0.0866  0.2567
21537SOL    HW170447   3.304   6.143   8.635  0.6158  0.1763 -0.2321
21537SOL    HW270448   3.304   6.227   8.761  0.2560 -0.5335  0.2493
21538SOL     OW70449   4.975  10.535   0.387 -0.1340  0.7412  0.1141
21538SOL    HW170450   4.913  10.607   0.388 -0.0796  0.7858  0.2813
21538SOL    HW270451   4.925  10.460   0.355 -0.5791  0.4983  1.3208
21539SOL     OW70452   3.729   0.146   7.090  0.4310 -0.6834  0.0608
21539SOL    HW170453   3.672   0.073   7.113  1.3432 -1.1613  0.8690
21539SOL    HW270454   3.817   0.117   7.114  1.0808 -0.1020 -1.4941
21540SOL     OW70455   8.186   0.867   2.552  0.1098  0.3284 -0.2833
21540SOL    HW170456   8.269   0.821   2.535  1.9442  2.3727  2.2939
21540SOL    HW270457   8.190   0.944   2.496 -1.0833 -0.5331 -1.6273
21541SOL     OW70458   2.932   8.776   0.249  0.0126 -0.0882 -0.4027
21541SOL    HW170459   2.895   8.688   0.252  0.5973 -0.3473  2.0908
21541SOL    HW270460   2.870   8.830   0.299  1.2137  0.1758  0.8773
21542SOL     OW70461   6.231   8.522   1.644  0.1675  0.6729 -0.4893
21542SOL    HW170462   6.192   8.440   1.675  0.6027  0.1477 -1.2957
21542SOL    HW270463   6.189   8.537   1.559  0.2278  1.1936 -0.4272
21543SOL     OW70464   2.787  10.404   6.214  0.4368  0.1392  0.1663
21543SOL    HW170465   2.850  10.473   6.234  0.1128  0.2002  0.9906
21543SOL    HW270466   2.752  10.377   6.299 -0.4268 -0.1043 -0.2580
21544SOL     OW70467   2.303   9.779  10.613  0.2327  0.5014  0.1981
21544SOL    HW170468   2.253   9.750  10.689 -0.5312 -2.8386 -1.3950
21544SOL    HW270469   2.392   9.749  10.630  0.5945  1.7621  0.6870
21545SOL     OW70470   5.783   6.401   8.122 -0.2096 -0.1807 -0.1623
21545SOL    HW170471   5.871   6.429   8.097  0.0987 -0.8480  0.1444
21545SOL    HW270472   5.734   6.399   8.040  1.0427 -3.2893 -0.9720
21546SOL     OW70473   8.071  10.639   0.067 -0.0019  0.4323  1.2723
21546SOL    HW170474   8.105  10.551   0.052 -0.1671  0.7414 -1.4084
21546SOL    HW270475   7.979  10.634   0.042  0.2101  1.5438  0.1772
21547SOL     OW70476   2.459   5.815   0.391 -0.0799 -0.2422 -0.1402
21547SOL    HW170477   2.545   5.802   0.430  0.0816  2.7981  0.7718
21547SOL    HW270478   2.407   5.856   0.460 -1.0324  1.5586 -1.8206
21548SOL     OW70479   1.956   4.033   7.165 -0.1172  0.2798 -0.7072
21548SOL    HW170480   1.950   3.962   7.228 -0.0106  1.2869  0.4808
21548SOL    HW270481   1.908   4.001   7.088 -1.3731 -0.5034  0.3507
21549SOL     OW70482   5.908   2.547   9.839 -0.2408  0.4803  0.2599
21549SOL    HW170483   5.959   2.517   9.764 -0.5992  0.6328 -0.0474
21549SOL    HW270484   5.864   2.626   9.808  0.6021  1.2766  1.0229
21550SOL     OW70485   7.748   4.457  10.496  0.1839 -0.0984 -0.6195
21550SOL    HW170486   7.794   4.381  10.461 -1.1932 -1.0261 -0.5248
21550SOL    HW270487   7.665   4.421  10.528 -0.1424  1.3246  0.1980
21551SOL     OW70488  10.252   5.049   7.081  0.3797  0.4689 -0.4744
21551SOL    HW170489  10.304   5.129   7.068 -2.0993  2.2425 -0.1586
21551SOL    HW270490  10.200   5.042   7.001 -0.3831 -0.0537  0.0601
21552SOL     OW70491   9.279   2.252   9.539 -0.0180  0.3749  0.0743
21552SOL    HW170492   9.347   2.230   9.475 -0.6245 -0.8060 -0.1811
21552SOL    HW270493   9.319   2.321   9.593  1.0108  0.4104 -0.6968
21553SOL     OW70494   6.401   3.316   0.919 -0.5253  0.2527 -0.3785
21553SOL    HW170495   6.482   3.277   0.886 -0.2080  1.0101 -0.5162
21553SOL    HW270496   6.337   3.300   0.849 -0.7202 -1.0614  0.0764
21554SOL     OW70497   4.469   7.290  10.356  0.1669  0.1589 -0.3251
21554SOL    HW170498   4.383   7.288  10.398  0.6990 -0.4192  0.7812
21554SOL    HW270499   4.497   7.381  10.365  0.4041 -0.0072  0.9193
21555SOL     OW70500   3.858   7.130   1.788 -0.2653 -0.0744  0.1713
21555SOL    HW170501   3.912   7.053   1.809  0.4052 -0.1283 -1.5563
21555SOL    HW270502   3.919   7.204   1.794 -0.2681  0.0020 -0.7054
21556SOL     OW70503   2.598   7.410   7.606 -0.0418 -0.0800 -0.1014
21556SOL    HW170504   2.507   7.383   7.594 -0.2133  0.0860  0.7177
21556SOL    HW270505   2.630   7.428   7.518 -0.8407 -0.0152 -0.3868
21557SOL     OW70506   0.146  10.459   1.962  0.6058 -0.1671 -0.3700
21557SOL    HW170507   0.087  10.486   1.891  0.0522  0.9732  0.4973
21557SOL    HW270508   0.090  10.407   2.021  0.5161  0.6601  0.2960
21558SOL     OW70509   9.407  10.581   2.521 -0.1858  0.5209 -0.2954
21558SOL    HW170510   9.373  10.552   2.606 -1.2992  0.7917 -0.6243
21558SOL    HW270511   9.450  10.664   2.540 -0.3473  0.5328  0.0322
21559SOL     OW70512   5.892   5.967   7.573 -0.2581 -0.1562 -0.2790
21559SOL    HW170513   5.809   6.001   7.607  0.5472 -0.1367  1.8281
21559SOL    HW270514   5.932   5.922   7.648  1.3896 -0.6253 -1.3858
21560SOL     OW70515   6.872   4.262   4.346 -0.2053  0.2672 -0.4939
21560SOL    HW170516   6.825   4.219   4.417  0.2447  1.4940  0.5768
21560SOL    HW270517   6.962   4.231   4.354 -0.4501 -0.7512 -1.4794
21561SOL     OW70518   0.803   7.818   0.957  0.1595 -0.0347  0.2107
21561SOL    HW170519   0.891   7.829   0.992 -0.2856 -0.3381  1.4797
21561SOL    HW270520   0.811   7.746   0.894  1.0480  0.7782 -0.6538
21562SOL     OW70521   0.795   4.302   3.314 -0.2358  0.0198 -0.4610
21562SOL    HW170522   0.816   4.340   3.229 -0.0003 -0.4859 -0.6313
21562SOL    HW270523   0.721   4.244   3.298 -0.0470 -0.2490 -0.3612
21563SOL     OW70524   2.168   2.479   3.988 -0.3392 -0.9011  0.0732
21563SOL    HW170525   2.211   2.410   4.039  0.1980 -1.0598 -0.5850
21563SOL    HW270526   2.204   2.561   4.023 -0.3215 -0.9898  0.2640
21564SOL     OW70527   0.077   5.286  10.130 -0.2985  0.2713  0.0382
21564SOL    HW170528   0.079   5.266  10.037  0.8122  0.8032 -0.0714
21564SOL    HW270529   0.157   5.247  10.165 -1.9378 -2.2502  1.2982
21565SOL     OW70530   7.161   2.436   6.736  0.1098 -0.2524 -0.3588
21565SOL    HW170531   7.124   2.489   6.806 -0.0766 -1.8712  0.8392
21565SOL    HW270532   7.106   2.454   6.660  0.0661  1.2464  0.0060
21566SOL     OW70533   9.092   7.857   0.350  0.2981 -0.8389 -0.5026
21566SOL    HW170534   9.010   7.849   0.302 -0.7559 -1.3218  1.3249
21566SOL    HW270535   9.115   7.950   0.342 -1.2647 -0.3583  0.2579
21567SOL     OW70536   1.059   1.698   4.392 -0.0549  0.7756  0.2807
21567SOL    HW170537   1.068   1.691   4.487  0.6486  1.7954  0.3059
21567SOL    HW270538   1.109   1.624   4.358 -2.2545 -1.0367  0.7145
21568SOL     OW70539   6.501   9.819   6.227 -0.2215  0.5125 -0.3344
21568SOL    HW170540   6.559   9.783   6.161  1.0462  1.6584  0.0971
21568SOL    HW270541   6.558   9.874   6.282 -1.7640  1.9575 -0.0896
21569SOL     OW70542   9.460   6.987   9.252 -0.2582 -0.1451 -0.2317
21569SOL    HW170543   9.371   6.962   9.228  0.2119 -1.8094 -0.3696
21569SOL    HW270544   9.477   6.943   9.335  0.1994  0.7465  0.1704
21570SOL     OW70545   6.355   3.260   3.029  0.2234  0.1861  0.1644
21570SOL    HW170546   6.395   3.314   2.961 -1.1912  0.9051 -0.1409
21570SOL    HW270547   6.265   3.247   2.999 -0.0454 -0.6091  1.2628
21571SOL     OW70548   5.757   7.267   3.630 -0.1870  0.2667  0.0055
21571SOL    HW170549   5.706   7.220   3.696 -1.3743 -1.8175 -2.2380
21571SOL    HW270550   5.839   7.217   3.625  0.2566  0.9331  0.4543
21572SOL     OW70551   5.882   6.672   4.777 -0.4695 -0.0871  0.3620
21572SOL    HW170552   5.944   6.653   4.707  0.2406  0.1714  0.9135
21572SOL    HW270553   5.894   6.600   4.840  1.3842  1.4604  1.8863
21573SOL     OW70554   3.487   7.365   0.321 -0.6026 -0.1839 -0.1759
21573SOL    HW170555   3.477   7.282   0.368 -1.3031  0.6434  1.2154
21573SOL    HW270556   3.582   7.377   0.314 -0.4610 -1.7152 -1.6050
21574SOL     OW70557   8.534   4.293   3.995  0.4303 -0.2649  0.0248
21574SOL    HW170558   8.550   4.224   4.060 -0.7923  0.2227  0.8782
21574SOL    HW270559   8.442   4.282   3.970  1.1535 -1.1938 -2.5715
21575SOL     OW70560   9.996   4.728   9.480  0.6363 -0.0535 -0.1157
21575SOL    HW170561   9.933   4.683   9.424  2.5665  0.9688 -3.3680
21575SOL    HW270562  10.065   4.664   9.497  1.6387  0.5501 -1.7400
21576SOL     OW70563   1.889   4.307   2.942 -0.5120  0.1390  0.0323
21576SOL    HW170564   1.888   4.282   3.034 -0.6010 -2.3144 -0.5431
21576SOL    HW270565   1.866   4.399   2.941 -1.8503 -0.1009  2.3821
21577SOL     OW70566   6.612  10.247   1.199  0.3040 -0.4931 -0.0940
21577SOL    HW170567   6.664  10.167   1.204 -0.7097 -1.1591 -0.0513
21577SOL    HW270568   6.564  10.239   1.117  0.7701  0.4368 -0.4711
21578SOL     OW70569   3.032   1.369   0.852 -0.3854 -0.1831  0.5131
21578SOL    HW170570   2.998   1.412   0.931 -1.4871 -0.1095  0.0267
21578SOL    HW270571   3.001   1.279   0.859 -2.1507  0.2783 -0.7231
21579SOL     OW70572   0.572   2.997   3.193 -0.6470 -0.1921  0.3534
21579SOL    HW170573   0.650   3.031   3.149  0.0287 -1.0079  0.8908
21579SOL    HW270574   0.520   2.957   3.124  0.3043 -1.2768  0.2547
21580SOL     OW70575   3.278  10.460   6.688  0.5056  0.1146 -0.1119
21580SOL    HW170576   3.255  10.427   6.601  0.4422 -0.4014  0.0964
21580SOL    HW270577   3.194  10.480   6.729  0.4920 -0.4026  0.1212
21581SOL     OW70578   8.315   6.609   4.213 -0.1524  0.3199  1.0395
21581SOL    HW170579   8.257   6.575   4.282 -0.5397 -4.0548 -1.0916
21581SOL    HW270580   8.403   6.594   4.247 -0.2040  2.2005  2.1764
21582SOL     OW70581   7.803   0.045   0.998  0.0373  0.1697  0.5011
21582SOL    HW170582   7.752   0.098   1.059  0.4990  1.4819 -0.2108
21582SOL    HW270583   7.747  -0.030   0.979  0.0256 -0.4804  2.8004
21583SOL     OW70584   2.015   8.721   8.953  0.4300  0.0454 -0.0985
21583SOL    HW170585   1.962   8.801   8.955  0.9350  0.3843 -0.2130
21583SOL    HW270586   2.092   8.744   8.902 -1.1710 -1.6089 -3.5782
21584SOL     OW70587   2.400   1.292   2.464 -0.1375  0.2473 -0.0150
21584SOL    HW170588   2.411   1.250   2.549  1.6128 -0.8467 -0.7124
21584SOL    HW270589   2.307   1.283   2.444 -0.2328 -1.2009  0.9310
21585SOL     OW70590   5.538   2.769   9.724 -0.1282  0.1837  0.3623
21585SOL    HW170591   5.550   2.685   9.679 -0.2081  0.6237 -0.5013
21585SOL    HW270592   5.627   2.805   9.733  0.0685 -0.6004  1.9855
21586SOL     OW70593  10.593  10.413   8.943 -0.3143  0.6970  0.1343
21586SOL    HW170594  10.683  10.404   8.911 -0.3640 -0.1547  0.2040
21586SOL    HW270595  10.560  10.323   8.947 -2.0236  1.0976 -2.3750
21587SOL     OW70596   8.443   4.733   1.587 -0.0302  0.0195  0.6137
21587SOL    HW170597   8.453   4.805   1.648 -2.0336  2.6154 -1.8340
21587SOL    HW270598   8.508   4.750   1.518 -2.1530  1.0561 -1.2507
21588SOL     OW70599   8.734   7.491   4.837 -0.4485 -0.3945  0.3656
21588SOL    HW170600   8.786   7.474   4.916  0.7677  2.3791  0.2729
21588SOL    HW270601   8.667   7.423   4.837  0.4585 -1.4004  2.9415
21589SOL     OW70602  10.691   5.465   1.749 -1.4287  0.2966 -0.4829
21589SOL    HW170603  10.708   5.435   1.838 -1.2297 -1.8961 -1.1887
21589SOL    HW270604  10.600   5.438   1.732 -1.0613 -0.4474 -1.3416
21590SOL     OW70605   0.127  10.399   9.930 -0.5908 -0.2169 -0.5835
21590SOL    HW170606   0.146  10.441  10.014 -0.8913  1.1854 -1.1973
21590SOL    HW270607   0.201  10.423   9.874 -1.3220  0.4821 -1.2770
21591SOL     OW70608   4.463   7.682   3.032  0.1061  0.7747 -0.0770
21591SOL    HW170609   4.532   7.712   3.092  0.6944 -0.1545 -0.2709
21591SOL    HW270610   4.453   7.589   3.051 -1.8102  1.0753  0.6350
21592SOL     OW70611   1.654  10.368   1.437 -0.8178 -0.5703  0.1199
21592SOL    HW170612   1.561  10.357   1.419 -1.2374  1.1924  0.9800
21592SOL    HW270613   1.684  10.432   1.371 -0.0765 -1.5021 -0.4760
21593SOL     OW70614   2.724  10.306   3.837 -0.0520 -0.2501 -1.1262
21593SOL    HW170615   2.682  10.259   3.765 -0.7389 -0.5237 -0.5580
21593SOL    HW270616   2.815  10.277   3.834 -0.4796 -1.7362 -0.7196
21594SOL     OW70617   2.378   1.083  10.254 -0.0581 -0.0544  0.1998
21594SOL    HW170618   2.354   1.004  10.303  0.1597  0.7281  1.6519
21594SOL    HW270619   2.472   1.074  10.239  0.4626  0.9082  2.3986
21595SOL     OW70620   7.217   7.037  10.389 -0.3449  0.2183  0.2647
21595SOL    HW170621   7.303   7.021  10.351 -0.9877 -3.3286 -0.0600
21595SOL    HW270622   7.234   7.049  10.482  0.5900  0.7917  0.0326
21596SOL     OW70623   1.189   7.961   1.366  0.1125 -0.3510  0.3728
21596SOL    HW170624   1.148   7.955   1.279 -1.4698  0.6425  1.0049
21596SOL    HW270625   1.276   7.923   1.354 -0.6939 -1.8232 -1.2330
21597SOL     OW70626   7.231   7.336   2.549  0.0239  0.4524  0.0680
21597SOL    HW170627   7.157   7.366   2.495 -0.8119  1.5672  1.7440
21597SOL    HW270628   7.260   7.415   2.595  0.4560 -0.5321  1.5278
21598SOL     OW70629  10.111   5.627   2.013 -0.6630 -0.9836  0.2251
21598SOL    HW170630  10.152   5.608   2.098  0.2587 -1.7948 -0.3641
21598SOL    HW270631  10.035   5.569   2.010 -0.4071 -1.3286  0.2937
21599SOL     OW70632   3.566   3.326   3.869 -0.2665  0.1969  0.7485
21599SOL    HW170633   3.568   3.238   3.906 -2.1673 -0.0035  0.4814
21599SOL    HW270634   3.600   3.382   3.939  2.4651 -0.8606  0.3723
21600SOL     OW70635   8.233   7.528   0.555 -0.6077  0.1717  0.0053
21600SOL    HW170636   8.173   7.601   0.569 -0.7697 -0.0259  0.3663
21600SOL    HW270637   8.320   7.567   0.556 -0.7522  0.6146 -1.4948
21601SOL     OW70638   8.779   7.290   0.598 -0.0306  0.0252  0.4940
21601SOL    HW170639   8.782   7.218   0.661 -0.9601  0.4161  1.0124
21601SOL    HW270640   8.699   7.338   0.621 -0.1555  0.4254 -0.7115
21602SOL     OW70641   1.390   3.299   7.662 -0.4602  0.2273  0.0773
21602SOL    HW170642   1.400   3.326   7.571 -0.3734 -0.5057 -0.1381
21602SOL    HW270643   1.302   3.327   7.686  0.4289  2.8102  0.6128
21603SOL     OW70644   6.572   1.181   0.681  0.2497 -0.2114 -0.2050
21603SOL    HW170645   6.599   1.095   0.712  1.5716  0.4864  0.6709
21603SOL    HW270646   6.578   1.175   0.586  3.0518 -0.3012 -0.0946
21604SOL     OW70647   0.592  10.047   7.638  0.2521  0.1750 -0.2074
21604SOL    HW170648   0.526  10.111   7.666  2.2830  2.1152  0.4056
21604SOL    HW270649   0.601   9.988   7.712 -0.1641  0.4100  0.0344
21605SOL     OW70650   6.965   4.219   7.280  0.6226  0.5360  0.4938
21605SOL    HW170651   7.002   4.153   7.339  0.6264 -0.1277 -0.2347
21605SOL    HW270652   6.870   4.208   7.287  0.6169  0.6354  0.5723
21606SOL     OW70653   1.893   1.975   1.339  0.5906 -0.1833  0.2899
21606SOL    HW170654   1.826   2.041   1.322  0.8329 -0.2786 -1.1860
21606SOL    HW270655   1.927   1.997   1.425 -0.0877  0.9558  0.2933
21607SOL     OW70656   0.126   6.664   3.183 -0.0770  0.0697 -0.0591
21607SOL    HW170657   0.109   6.573   3.160  2.6925 -0.9995  1.5964
21607SOL    HW270658   0.174   6.699   3.107 -2.1415  0.6034 -1.1997
21608SOL     OW70659   0.813   2.656   0.086  0.1507 -0.0649  0.3171
21608SOL    HW170660   0.819   2.586   0.151 -1.7168  0.0590  0.6897
21608SOL    HW270661   0.730   2.699   0.106  0.2712  0.9362 -1.2218
21609SOL     OW70662   1.719   8.774   9.095 -0.5009  0.0352 -0.5592
21609SOL    HW170663   1.761   8.753   9.178  0.3002  0.5304 -0.8294
21609SOL    HW270664   1.630   8.741   9.104  0.2266 -2.0240 -0.3759
21610SOL     OW70665   7.975   6.066   9.489 -0.4168 -0.1493  0.1811
21610SOL    HW170666   7.996   5.976   9.464  1.0676  0.3249 -0.3915
21610SOL    HW270667   8.059   6.104   9.514 -1.2027  0.7239  1.6633
21611SOL     OW70668   6.288   2.175   4.283  0.3530  0.6900  0.2145
21611SOL    HW170669   6.268   2.268   4.272  0.9026  0.7129 -0.6105
21611SOL    HW270670   6.380   2.167   4.258  0.1339 -0.1842 -0.3373
21612SOL     OW70671   9.907   9.927   2.542 -0.2839 -0.4771 -0.2180
21612SOL    HW170672   9.851   9.883   2.606 -0.1698 -0.2446  0.0403
21612SOL    HW270673   9.984   9.954   2.592  0.6681 -1.9393 -0.8306
21613SOL     OW70674   7.395   5.968   4.965  0.2057 -0.4660  0.1969
21613SOL    HW170675   7.480   5.939   4.999 -0.5510  0.2277  2.9393
21613SOL    HW270676   7.337   5.892   4.978 -0.5607  0.4325  2.5438
21614SOL     OW70677   9.554   1.706   1.329 -0.3154  0.5184 -0.2104
21614SOL    HW170678   9.608   1.705   1.408  0.9617 -2.0628 -1.0078
21614SOL    HW270679   9.469   1.673   1.357 -0.7300  2.1092  0.5313
21615SOL     OW70680   9.085   2.228   3.558 -0.1975 -0.0382 -0.4595
21615SOL    HW170681   9.034   2.302   3.592 -2.0795 -0.2078 -2.6544
21615SOL    HW270682   9.082   2.163   3.629  0.9163  1.6606  1.2448
21616SOL     OW70683   1.144   2.016   4.567 -0.2906 -0.3415  0.0511
21616SOL    HW170684   1.194   2.081   4.616  0.3862 -1.8548  1.4704
21616SOL    HW270685   1.054   2.049   4.568  0.5579  2.4455 -2.5749
21617SOL     OW70686   2.304   4.182   4.255 -0.2035  0.1702 -0.3744
21617SOL    HW170687   2.319   4.222   4.169  1.5755  0.3783 -0.0099
21617SOL    HW270688   2.262   4.251   4.306  0.3310  0.6429 -0.5657
21618SOL     OW70689   9.489   6.540   3.930 -0.1868 -0.0650  0.0109
21618SOL    HW170690   9.545   6.464   3.946 -0.9231 -0.8532 -1.0054
21618SOL    HW270691   9.408   6.504   3.895  0.0524  1.2440 -2.1316
21619SOL     OW70692   4.236   2.766   1.456 -0.3142 -0.1398 -0.1073
21619SOL    HW170693   4.206   2.676   1.474  0.7903 -0.3895  0.6279
21619SOL    HW270694   4.318   2.754   1.409 -0.4606  0.4963 -0.5180
21620SOL     OW70695   2.645   6.281   8.526 -0.6189  0.1817  0.0347
21620SOL    HW170696   2.609   6.334   8.597 -1.1624  0.3662 -0.3687
21620SOL    HW270697   2.739   6.301   8.526 -0.8802  1.5210 -0.4141
21621SOL     OW70698   6.889   8.879   9.321 -0.1617 -0.1124 -0.1483
21621SOL    HW170699   6.967   8.825   9.334  0.1280  0.0477 -1.1458
21621SOL    HW270700   6.857   8.856   9.233 -1.2283 -0.1626  0.2344
21622SOL     OW70701   2.458   9.807   2.372 -0.1749 -0.1236 -0.4697
21622SOL    HW170702   2.527   9.756   2.413 -1.2644 -0.9641  0.3543
21622SOL    HW270703   2.495   9.895   2.363  0.5791 -0.2611  1.0563
21623SOL     OW70704   9.986   0.572   0.238 -0.2464 -0.1734  0.2358
21623SOL    HW170705   9.939   0.489   0.245 -0.5811 -0.1478 -1.4095
21623SOL    HW270706   9.954   0.611   0.157  1.4170  0.6133 -0.0861
21624SOL     OW70707   5.655   8.413   2.488  0.5586  0.0420 -0.2394
21624SOL    HW170708   5.604   8.493   2.500 -0.4194 -0.4227 -1.1511
21624SOL    HW270709   5.745   8.438   2.511 -0.0623  0.8417  1.5181
21625SOL     OW70710  10.599   9.111  10.133  0.2528  0.1783 -0.7584
21625SOL    HW170711  10.551   9.123  10.215  0.7633  0.5771 -0.5087
21625SOL    HW270712  10.567   9.028  10.098  0.3452 -0.2267  0.0762
21626SOL     OW70713   9.300   6.468   1.063  0.2422  0.2493 -0.6987
21626SOL    HW170714   9.220   6.419   1.044  0.2111 -0.6356  1.5056
21626SOL    HW270715   9.354   6.456   0.985 -1.3063 -0.0662 -1.7743
21627SOL     OW70716   7.406   0.938   7.164  0.5116  0.4842  0.4885
21627SOL    HW170717   7.446   0.866   7.115  0.5520  0.3260  0.7526
21627SOL    HW270718   7.328   0.899   7.204  1.7385 -0.0372  2.5103
21628SOL     OW70719   6.462   8.512   2.453 -0.4306  0.3130  0.1070
21628SOL    HW170720   6.398   8.573   2.489 -0.3640 -0.3227  1.3731
21628SOL    HW270721   6.536   8.567   2.427 -0.9998  0.9260 -0.2488
21629SOL     OW70722   8.583  10.103   2.792  0.1858  0.0268  0.6469
21629SOL    HW170723   8.518  10.060   2.736  0.0137 -0.3976  1.1596
21629SOL    HW270724   8.554  10.194   2.796  0.2327  0.0756  0.0042
21630SOL     OW70725   8.174   8.472   5.002 -0.3250 -0.0308 -0.5477
21630SOL    HW170726   8.094   8.523   5.015  0.2818  0.5541  1.2971
21630SOL    HW270727   8.144   8.382   4.988 -1.3200  0.1874  0.1028
21631SOL     OW70728   2.160   8.293   0.146 -0.2247 -0.2849  0.1979
21631SOL    HW170729   2.229   8.255   0.090  0.5449 -1.8037  2.0575
21631SOL    HW270730   2.116   8.356   0.089  1.3016 -0.8280 -1.7334
21632SOL     OW70731   5.588   7.414   8.189  0.8192 -0.1147 -0.6151
21632SOL    HW170732   5.676   7.440   8.159 -0.1997  2.5718 -1.6023
21632SOL    HW270733   5.560   7.487   8.244 -0.5825 -1.2337  0.1989
21633SOL     OW70734   9.269   0.938   4.119 -0.3108  0.6152  0.4063
21633SOL    HW170735   9.238   0.930   4.028  0.9414  1.2509 -0.1055
21633SOL    HW270736   9.355   0.895   4.119  0.6268  2.3937  0.7613
21634SOL     OW70737   9.960   8.223   8.379  0.7406 -0.0903  0.0228
21634SOL    HW170738   9.967   8.153   8.444  1.1473  0.2437  0.3478
21634SOL    HW270739   9.867   8.245   8.377  0.4939 -1.1137 -0.5980
21635SOL     OW70740   0.707   3.631   0.185  0.0587 -0.0878 -1.0009
21635SOL    HW170741   0.620   3.598   0.164 -1.1222  2.1735  0.0497
21635SOL    HW270742   0.705   3.724   0.160  1.6477  0.3912  0.4216
21636SOL     OW70743   4.292   7.310   8.111  0.2176 -0.3795 -0.3974
21636SOL    HW170744   4.316   7.225   8.149  2.3738  0.3036 -0.0739
21636SOL    HW270745   4.319   7.374   8.178 -0.2214  0.6215 -1.1541
21637SOL     OW70746   3.958   7.248   3.076 -0.1975  0.0366  0.2216
21637SOL    HW170747   3.997   7.271   3.160  1.3444 -0.1215 -0.4162
21637SOL    HW270748   4.003   7.168   3.049 -0.8586 -0.0632 -0.6314
21638SOL     OW70749   7.900   3.327   7.482  0.0102 -0.2383  0.0630
21638SOL    HW170750   7.856   3.270   7.418  1.4239 -0.6047 -0.6236
21638SOL    HW270751   7.949   3.266   7.537  0.4025  0.2238  0.2218
21639SOL     OW70752   6.074   3.290   6.887 -0.4439  0.2232  1.0853
21639SOL    HW170753   5.996   3.248   6.850 -0.4282 -0.5989  1.9317
21639SOL    HW270754   6.045   3.378   6.911 -0.7524  0.3729  0.1819
21640SOL     OW70755   6.408   7.516   7.865 -0.2730  0.1345 -0.3540
21640SOL    HW170756   6.370   7.440   7.907  0.4045  0.3455  0.6886
21640SOL    HW270757   6.394   7.588   7.927  0.9799  0.4020 -0.3502
21641SOL     OW70758   1.261  10.240   7.674  0.2146 -0.4189 -0.2607
21641SOL    HW170759   1.347  10.260   7.712 -0.3305  1.1640  0.2492
21641SOL    HW270760   1.233  10.161   7.720 -0.2501  1.1971  2.5087
21642SOL     OW70761   1.015   1.619   0.692  0.1650  0.4597  0.1449
21642SOL    HW170762   1.078   1.550   0.672  0.0646 -0.0972  1.6046
21642SOL    HW270763   1.005   1.615   0.787 -1.3850  1.1307  0.0436
21643SOL     OW70764   5.908   7.467   1.569  0.1723 -0.7299  0.4807
21643SOL    HW170765   5.969   7.532   1.535  0.1270 -1.0387 -0.2133
21643SOL    HW270766   5.821   7.500   1.542  0.2478 -1.9397 -1.4541
21644SOL     OW70767  10.600   3.420   0.129  0.0424 -0.3881 -0.0183
21644SOL    HW170768  10.551   3.378   0.057 -0.7125 -1.6245  1.1622
21644SOL    HW270769  10.687   3.381   0.124  0.1773 -0.0389 -0.5899
21645SOL     OW70770   2.996   6.818   2.983 -0.0993 -0.1032  0.1290
21645SOL    HW170771   2.937   6.875   2.934 -1.5368 -2.6497 -1.2984
21645SOL    HW270772   3.029   6.757   2.918  1.1830 -1.0773  1.6358
21646SOL     OW70773  10.351   1.784   0.916  0.1120  0.1546 -0.0970
21646SOL    HW170774  10.331   1.693   0.937  2.8134 -0.4629  0.0439
21646SOL    HW270775  10.319   1.834   0.992 -0.9730 -0.6900  0.0249
21647SOL     OW70776   5.562   3.828   3.221 -0.1818 -0.5257 -0.2941
21647SOL    HW170777   5.469   3.851   3.216 -0.3861 -1.0466  0.8173
21647SOL    HW270778   5.565   3.751   3.279  0.8552 -1.0377 -0.9944
21648SOL     OW70779   7.235  10.416   9.130 -0.1385 -0.8236  0.5389
21648SOL    HW170780   7.187  10.420   9.047  0.7594  2.1948  0.0396
21648SOL    HW270781   7.292  10.339   9.121 -0.9088 -1.2467 -1.1314
21649SOL     OW70782   3.302   5.252   4.996  0.4990  0.2120  0.0001
21649SOL    HW170783   3.234   5.271   5.060 -1.2769 -0.5361 -1.5723
21649SOL    HW270784   3.383   5.284   5.036 -0.7233  0.9020  2.0372
21650SOL     OW70785   4.010   9.023   0.823 -0.2858 -0.3420 -0.2444
21650SOL    HW170786   4.010   8.999   0.730 -0.9807 -2.7219  0.3004
21650SOL    HW270787   4.093   8.989   0.856 -1.1874 -1.9290  0.5086
21651SOL     OW70788   9.167   6.980   9.259  0.2804 -0.0633  0.1272
21651SOL    HW170789   9.097   7.022   9.310 -0.5174  0.8375 -1.6231
21651SOL    HW270790   9.190   6.902   9.309 -0.7628  0.5415  1.6228
21652SOL     OW70791   9.568   9.632   5.228 -0.1105  0.2684  0.5479
21652SOL    HW170792   9.635   9.601   5.290 -0.2384 -0.1011  0.5068
21652SOL    HW270793   9.573   9.570   5.155 -0.6928  0.0610  0.6751
21653SOL     OW70794  10.660   0.292   8.513  0.1737  0.0826 -0.1704
21653SOL    HW170795  10.751   0.306   8.487 -0.0436 -0.2497 -1.1579
21653SOL    HW270796  10.650   0.196   8.517 -0.5992  0.0620 -1.8686
21654SOL     OW70797   8.601  10.190   2.403  0.8220 -0.0138 -0.0626
21654SOL    HW170798   8.592  10.154   2.491 -1.8970 -0.3142 -0.3761
21654SOL    HW270799   8.520  10.239   2.389  0.9215 -0.4311 -2.5873
21655SOL     OW70800   3.351   8.157   2.238  0.1505  0.2202 -0.7411
21655SOL    HW170801   3.295   8.222   2.280  0.6033 -0.4857  1.0335
21655SOL    HW270802   3.429   8.207   2.211  0.0143  0.6175 -0.4071
21656SOL     OW70803   2.648   2.363   3.123 -0.0112 -0.4337  0.6640
21656SOL    HW170804   2.588   2.411   3.066 -0.1066 -2.0312 -0.6574
21656SOL    HW270805   2.733   2.405   3.109 -0.5033  0.8300  1.3449
21657SOL     OW70806   7.963   9.202   8.420  0.2817  0.0868 -0.2478
21657SOL    HW170807   7.947   9.114   8.453  0.2527  0.2111  0.0732
21657SOL    HW270808   8.056   9.218   8.435  0.1707  0.3204  0.2087
21658SOL     OW70809   6.833   5.652   1.015  0.2016  0.4046  0.3488
21658SOL    HW170810   6.884   5.700   1.080 -0.4575  0.0126  1.1800
21658SOL    HW270811   6.741   5.667   1.040 -0.2443  2.5175 -2.1018
21659SOL     OW70812   5.799   5.051   6.630  0.3840  0.0333  0.2055
21659SOL    HW170813   5.765   4.981   6.574  0.0695  0.8024 -0.5726
21659SOL    HW270814   5.724   5.076   6.684 -0.1168  1.1786 -0.9588
21660SOL     OW70815   5.352   3.354   9.778 -0.1462  0.3251  0.3497
21660SOL    HW170816   5.312   3.332   9.693  2.8877  0.9672 -1.4136
21660SOL    HW270817   5.378   3.269   9.814 -1.6960  0.0261  0.7919
21661SOL     OW70818  10.172   3.536   7.108  0.3987  0.3839 -0.1032
21661SOL    HW170819  10.212   3.565   7.026 -1.4376  0.7481 -0.9056
21661SOL    HW270820  10.208   3.449   7.122  0.0852 -0.0629 -1.7942
21662SOL     OW70821   9.356   2.028   0.784  0.0185 -0.2940  0.2242
21662SOL    HW170822   9.355   2.122   0.797  1.2106 -0.2038 -0.1907
21662SOL    HW270823   9.354   2.017   0.689  0.1653 -0.6708  0.2619
21663SOL     OW70824   2.520   6.865   6.767 -0.3893 -0.2521 -0.8707
21663SOL    HW170825   2.458   6.938   6.763 -1.2830 -0.9690 -0.5234
21663SOL    HW270826   2.555   6.867   6.856 -0.2134 -0.0917 -0.9427
21664SOL     OW70827   3.367   4.120   2.623  0.5494  0.0001  0.3213
21664SOL    HW170828   3.413   4.040   2.596 -1.8225 -0.8062 -1.7701
21664SOL    HW270829   3.330   4.099   2.708  1.3766 -0.4806  0.5725
21665SOL     OW70830   1.842   4.878   0.827  0.3842  0.0606 -0.2374
21665SOL    HW170831   1.801   4.964   0.836  0.1967  0.0300 -0.7477
21665SOL    HW270832   1.917   4.881   0.886 -0.4530  0.0481  0.8401
21666SOL     OW70833   4.624   6.302   3.867  1.0231  0.4482 -0.1152
21666SOL    HW170834   4.661   6.380   3.908  1.3262  0.7769 -1.0066
21666SOL    HW270835   4.692   6.270   3.808  0.7154 -0.2131 -0.1288
21667SOL     OW70836   7.595   5.731   4.715 -0.2498 -0.0602 -0.1224
21667SOL    HW170837   7.664   5.677   4.678 -0.0570 -0.3883  0.6913
21667SOL    HW270838   7.617   5.738   4.808 -0.6074  0.9046 -0.0903
21668SOL     OW70839  10.403   7.288   3.977  0.1465 -0.0110 -0.3231
21668SOL    HW170840  10.457   7.210   3.984  1.7097  0.8569 -1.7578
21668SOL    HW270841  10.363   7.282   3.890 -1.3015 -0.1552  0.3342
21669SOL     OW70842   5.199   1.486   1.817 -0.3998  0.5032  0.1665
21669SOL    HW170843   5.153   1.562   1.781  0.1135  0.7664  0.0635
21669SOL    HW270844   5.232   1.440   1.740 -0.0065  0.6212  0.2650
21670SOL     OW70845   8.948  10.351   1.026 -0.0463 -0.6092 -0.2307
21670SOL    HW170846   8.945  10.410   0.951 -0.5091  0.9589  0.9568
21670SOL    HW270847   8.937  10.409   1.102 -0.6355 -2.2576  0.9894
21671SOL     OW70848   3.234   9.956   7.145 -0.0389 -0.4966  0.3982
21671SOL    HW170849   3.232   9.879   7.088 -0.5682 -0.3339  0.1914
21671SOL    HW270850   3.320   9.995   7.131 -0.0427 -0.6464 -0.0368
21672SOL     OW70851   3.301   6.240   6.958  0.5184 -0.3371 -0.2560
21672SOL    HW170852   3.227   6.179   6.959 -0.9283  1.2751 -1.1788
21672SOL    HW270853   3.292   6.291   7.038  2.0500 -1.6557  0.7911
21673SOL     OW70854   8.258   0.255   8.496 -0.0347  0.4027  0.3311
21673SOL    HW170855   8.345   0.275   8.462 -0.5532  0.8908 -0.7963
21673SOL    HW270856   8.272   0.186   8.561  1.0157 -0.6656 -0.9650
21674SOL     OW70857   8.883  10.395   6.756 -0.0575  0.3559 -0.2718
21674SOL    HW170858   8.897  10.311   6.799 -0.3406 -0.9090 -2.5313
21674SOL    HW270859   8.950  10.452   6.794 -0.9634 -0.3201  2.5795
21675SOL     OW70860   4.519   1.741   1.239 -0.4683 -1.2233 -0.3562
21675SOL    HW170861   4.431   1.704   1.235 -0.1006 -2.4916  1.9007
21675SOL    HW270862   4.560   1.699   1.314  2.0061 -0.4743 -1.1898
21676SOL     OW70863   6.521   7.202  10.550 -0.6525  0.3227  0.4212
21676SOL    HW170864   6.574   7.147  10.608  0.8727 -0.1597 -1.3318
21676SOL    HW270865   6.580   7.271  10.523 -1.5863  0.9858  0.0390
21677SOL     OW70866   5.818   0.754   0.137 -0.3692  0.0870  0.2495
21677SOL    HW170867   5.816   0.795   0.224 -1.8288 -0.3081  0.4458
21677SOL    HW270868   5.884   0.685   0.145  1.7302  1.9914  0.0722
21678SOL     OW70869   4.133   7.621   3.778 -0.4058 -0.1452 -0.0951
21678SOL    HW170870   4.041   7.635   3.759 -0.4201  0.8639  0.6228
21678SOL    HW270871   4.179   7.641   3.697 -0.6987  1.0115  0.0090
21679SOL     OW70872   0.874   3.336   5.859 -0.1385 -0.5291 -0.1138
21679SOL    HW170873   0.893   3.272   5.791  2.0589 -0.9881  0.8363
21679SOL    HW270874   0.824   3.288   5.925  0.7597 -1.0645  0.1960
21680SOL     OW70875   9.318  10.724   6.043  0.5763  0.4095  0.4391
21680SOL    HW170876   9.247  10.661   6.043  1.2439 -0.3623  0.0655
21680SOL    HW270877   9.352  10.722   5.953 -0.7944  2.9349 -0.2481
21681SOL     OW70878   5.480   6.636   3.125  0.0140  0.0365  0.0451
21681SOL    HW170879   5.447   6.570   3.065  0.4671  1.8811 -2.3732
21681SOL    HW270880   5.533   6.587   3.188 -1.7958 -2.1507 -0.0130
21682SOL     OW70881  10.316   0.683   1.335  0.4866  0.0564 -0.2561
21682SOL    HW170882  10.307   0.681   1.240 -1.6987  0.2652 -0.0849
21682SOL    HW270883  10.277   0.602   1.365  0.0000  0.5769  0.5439
21683SOL     OW70884   3.031   8.768   3.039 -0.3860 -0.5674 -0.0503
21683SOL    HW170885   3.041   8.734   2.950 -0.0791  3.9749 -2.0243
21683SOL    HW270886   3.106   8.733   3.087 -0.1491 -2.5638 -1.7560
21684SOL     OW70887   2.007   6.356   0.821 -0.4823 -0.1559  0.0107
21684SOL    HW170888   1.913   6.362   0.842 -0.7897 -0.1698 -1.2655
21684SOL    HW270889   2.021   6.426   0.757  0.6391  0.5758  1.0284
21685SOL     OW70890  10.025   7.159   3.124 -0.2137  0.5643  0.6317
21685SOL    HW170891  10.113   7.123   3.114 -0.3209 -0.0545  1.8031
21685SOL    HW270892   9.998   7.132   3.211 -1.7488  0.3461  0.1104
21686SOL     OW70893   5.727   9.848   9.800  0.2476 -0.1866 -0.1492
21686SOL    HW170894   5.666   9.846   9.874  0.7208  0.7177  0.2817
21686SOL    HW270895   5.682   9.900   9.734  0.1142 -0.4049 -0.2309
21687SOL     OW70896   5.871   2.683   8.188  0.2213  0.6003 -0.1439
21687SOL    HW170897   5.825   2.748   8.135 -3.1913 -1.1053  0.4318
21687SOL    HW270898   5.878   2.607   8.131  0.2209  0.0747  0.5451
21688SOL     OW70899   2.849   7.853   8.320 -0.0053 -0.4142  0.7133
21688SOL    HW170900   2.933   7.830   8.281  0.0967 -0.2064  0.8093
21688SOL    HW270901   2.827   7.778   8.377  0.6979  0.0522  1.6226
21689SOL     OW70902   0.965   2.495   5.111 -0.7211 -0.3194  0.6121
21689SOL    HW170903   0.872   2.513   5.104 -0.6924 -0.9401 -2.4660
21689SOL    HW270904   0.972   2.400   5.116 -0.2547 -0.2398  1.9807
21690SOL     OW70905   7.339   9.396   3.192 -0.7016  0.9074 -0.1388
21690SOL    HW170906   7.307   9.413   3.103  0.2384  0.9636 -0.4694
21690SOL    HW270907   7.434   9.402   3.186 -0.6457  1.4506  0.9852
21691SOL     OW70908   4.595   5.404   8.081 -0.1176 -0.2122 -0.5035
21691SOL    HW170909   4.627   5.466   8.015  0.1475 -1.0461 -1.1742
21691SOL    HW270910   4.503   5.428   8.094 -0.0757  0.1860 -0.9105
21692SOL     OW70911   6.575   8.410   0.970  0.4201 -0.1573  0.6144
21692SOL    HW170912   6.653   8.367   1.004 -0.7628 -3.4650 -0.5061
21692SOL    HW270913   6.578   8.393   0.876 -2.9748 -2.9370  0.8362
21693SOL     OW70914   8.771   3.334   4.855  0.1217 -0.1135  0.0031
21693SOL    HW170915   8.702   3.365   4.796  2.4982  0.1116 -2.9482
21693SOL    HW270916   8.754   3.241   4.866 -1.5885  0.2660  0.8148
21694SOL     OW70917   6.075   1.028   7.382 -0.9249 -0.0800  0.0792
21694SOL    HW170918   6.093   0.943   7.342 -0.7648  0.0906 -0.2160
21694SOL    HW270919   6.109   1.091   7.320  2.3496  0.1569  1.9095
21695SOL     OW70920   2.367   0.976   0.307  0.1007  0.0214 -0.2437
21695SOL    HW170921   2.435   0.912   0.329  0.8848  0.6859 -0.6729
21695SOL    HW270922   2.305   0.928   0.252  0.5398 -0.4403 -0.3386
21696SOL     OW70923   4.639   9.206   0.583  0.1112  0.2888 -0.2010
21696SOL    HW170924   4.702   9.140   0.613 -0.5640  0.0338  0.6802
21696SOL    HW270925   4.634   9.192   0.489 -0.9906 -1.8158  0.1089
21697SOL     OW70926   2.807   6.846   6.850  0.1425  0.0479  0.1968
21697SOL    HW170927   2.749   6.857   6.774 -0.5433 -1.3303  0.4952
21697SOL    HW270928   2.775   6.911   6.913 -0.1677  0.2555 -0.1694
21698SOL     OW70929   3.388   9.848   8.715  0.3525  0.4096  0.6041
21698SOL    HW170930   3.311   9.802   8.682 -1.6676  0.5182  4.4739
21698SOL    HW270931   3.368   9.940   8.701  1.4031  0.3696 -1.3736
21699SOL     OW70932   0.288   4.615   1.986 -0.1249 -0.1832  0.3055
21699SOL    HW170933   0.255   4.538   1.940  1.4599  0.5937 -2.3643
21699SOL    HW270934   0.333   4.666   1.918  0.8679  1.9589  2.4277
21700SOL     OW70935  10.632   4.471  10.374  0.2358 -0.1873  0.0928
21700SOL    HW170936  10.723   4.468  10.345  1.2729  0.1234  2.9733
21700SOL    HW270937  10.626   4.550  10.427 -1.7750 -0.1547 -0.0854
21701SOL     OW70938   4.842   7.210   8.720 -1.0568  0.3205  0.3206
21701SOL    HW170939   4.772   7.243   8.776 -0.1145 -0.3928  1.9828
21701SOL    HW270940   4.919   7.261   8.745 -0.3253 -0.8793  0.6038
21702SOL     OW70941   1.718   7.958   5.770 -0.1475 -0.1502 -0.4381
21702SOL    HW170942   1.684   7.889   5.713 -2.9126 -0.1667  1.0888
21702SOL    HW270943   1.754   7.912   5.846  0.2911  0.0242 -0.5332
21703SOL     OW70944   4.093   2.812   7.121  0.9012  0.8443 -0.4641
21703SOL    HW170945   4.163   2.750   7.143  0.3284 -0.1507 -1.3553
21703SOL    HW270946   4.098   2.821   7.026  1.2097  2.4856 -0.3169
21704SOL     OW70947   7.539   6.244   4.102  0.1750  0.7012 -0.5260
21704SOL    HW170948   7.598   6.170   4.118  0.6766  1.2949  0.4501
21704SOL    HW270949   7.513   6.273   4.189  0.3264  1.9479 -0.8760
21705SOL     OW70950   0.213   5.365   9.532  0.1364  0.0383  0.4756
21705SOL    HW170951   0.272   5.320   9.472 -0.3616 -0.2382  0.1793
21705SOL    HW270952   0.246   5.454   9.537 -0.6610  0.4883 -1.4046
21706SOL     OW70953   6.991   2.288   4.754 -0.3257  0.4822 -0.6341
21706SOL    HW170954   6.901   2.275   4.784 -0.0609 -1.2847 -0.5171
21706SOL    HW270955   7.039   2.312   4.833 -0.5702  0.8058 -0.5818
21707SOL     OW70956   5.197   3.105   7.622  0.0814  0.2516  0.2302
21707SOL    HW170957   5.232   3.072   7.540  2.0282  0.1280  1.0533
21707SOL    HW270958   5.102   3.104   7.610  0.2435 -1.4258 -1.3617
21708SOL     OW70959  10.123   1.143   5.057  0.3622  0.1355  0.7612
21708SOL    HW170960  10.056   1.211   5.063  1.2675  1.0936  0.4275
21708SOL    HW270961  10.090   1.081   4.993  0.2492  1.1536 -0.1930
21709SOL     OW70962   0.250   0.068   7.850  0.0925  0.5055 -0.4438
21709SOL    HW170963   0.297   0.050   7.931  0.5112 -0.4910 -0.8869
21709SOL    HW270964   0.176   0.122   7.876  0.5662  0.7136  0.5064
21710SOL     OW70965   4.919   9.446   2.396 -0.5892  0.1439  0.0539
21710SOL    HW170966   4.975   9.387   2.446 -1.8774  0.8682  2.5084
21710SOL    HW270967   4.949   9.534   2.419 -2.2627  0.5277  0.9386
21711SOL     OW70968   2.438   8.069   1.334 -0.4173 -0.5622  0.3952
21711SOL    HW170969   2.358   8.054   1.384 -1.2926 -0.0743 -0.8145
21711SOL    HW270970   2.463   8.159   1.357 -1.1759 -0.1075 -0.4952
21712SOL     OW70971   8.772   9.518   5.849 -0.1739  0.4247  0.2168
21712SOL    HW170972   8.841   9.467   5.892 -0.5589 -0.0658  0.2682
21712SOL    HW270973   8.692   9.494   5.896 -0.3502  1.1733  0.3200
21713SOL     OW70974   2.148   1.816   4.828 -0.1398  0.1169 -0.2315
21713SOL    HW170975   2.144   1.776   4.915  1.3699  0.4746  0.0236
21713SOL    HW270976   2.168   1.743   4.769  1.5748  0.2942  0.0988
21714SOL     OW70977   0.513   4.451   6.898 -0.2491  0.2721  0.5397
21714SOL    HW170978   0.597   4.496   6.909 -0.6482  0.4349  3.8404
21714SOL    HW270979   0.533   4.359   6.914 -0.5412  0.1674  0.3049
21715SOL     OW70980   4.911  10.189   8.830  0.4636  0.1765 -0.1117
21715SOL    HW170981   4.995  10.155   8.799 -0.5698 -1.8574 -0.9069
21715SOL    HW270982   4.910  10.171   8.924  0.4399 -0.9441 -0.3148
21716SOL     OW70983   1.458   3.359   4.019 -1.2365  0.0223 -0.3073
21716SOL    HW170984   1.447   3.439   4.070  0.9868  0.0423  0.2688
21716SOL    HW270985   1.430   3.382   3.930 -2.4930  0.8198  0.2717
21717SOL     OW70986   0.225   0.749   2.170 -0.2164  0.1335  0.4863
21717SOL    HW170987   0.135   0.724   2.149 -0.4249  0.9806  0.3545
21717SOL    HW270988   0.270   0.665   2.184 -1.2493 -0.2810  1.4908
21718SOL     OW70989   4.861   3.063   1.533 -0.3763 -0.1274 -0.5728
21718SOL    HW170990   4.772   3.076   1.566 -0.4046 -1.1958 -0.1867
21718SOL    HW270991   4.885   2.976   1.564  0.0702 -0.6695 -2.3373
21719SOL     OW70992   1.069   8.298   2.494 -0.1093  0.0409  0.2930
21719SOL    HW170993   1.164   8.287   2.499 -0.4440 -3.3231  1.6958
21719SOL    HW270994   1.056   8.359   2.421  3.0843  0.5094 -0.0257
21720SOL     OW70995   9.318   8.073   1.188  0.0508 -0.2204 -0.1876
21720SOL    HW170996   9.226   8.058   1.212 -0.2066  1.0496 -0.3304
21720SOL    HW270997   9.367   8.025   1.254 -0.7141 -0.0618  0.5203
21721SOL     OW70998   3.856   5.831   4.972 -0.8357 -0.2402  0.0325
21721SOL    HW170999   3.930   5.818   5.031 -0.5951  0.3259 -0.1375
21721SOL    HW271000   3.796   5.888   5.019 -0.0128  1.3627 -0.7610
21722SOL     OW71001   1.860   6.385   1.620  0.4311  0.0318  0.3279
21722SOL    HW171002   1.857   6.290   1.631 -1.8294  0.0462  0.2733
21722SOL    HW271003   1.824   6.420   1.701 -0.5925  0.7428 -0.4062
21723SOL     OW71004  10.377   7.070   9.711 -0.0814  0.2672  0.8624
21723SOL    HW171005  10.291   7.038   9.683 -0.2804  1.7664 -0.4084
21723SOL    HW271006  10.385   7.042   9.802 -1.6179 -0.4816  0.8006
21724SOL     OW71007   7.490   5.480   6.790 -0.8994 -0.1925 -0.7176
21724SOL    HW171008   7.584   5.467   6.777 -0.2377  2.4217  0.6612
21724SOL    HW271009   7.472   5.437   6.874 -0.0377  2.2343  0.8361
21725SOL     OW71010   7.523   9.857   1.756  0.1213 -0.6125  0.0821
21725SOL    HW171011   7.433   9.824   1.758 -0.2589  0.4225  0.3412
21725SOL    HW271012   7.537   9.884   1.666 -0.6582  1.4235  0.5271
21726SOL     OW71013  10.414   6.242   3.274  0.6615  0.3690  0.1817
21726SOL    HW171014  10.510   6.233   3.276  0.7439  0.2752 -1.7737
21726SOL    HW271015  10.389   6.251   3.366  2.7040  2.0501  0.6755
21727SOL     OW71016   9.424   0.183   2.790 -0.6650 -0.1651 -0.6644
21727SOL    HW171017   9.477   0.250   2.747 -1.0072 -0.5025 -1.6414
21727SOL    HW271018   9.416   0.213   2.880 -0.2475  0.7636 -0.9260
21728SOL     OW71019   3.321   9.457   7.018  0.1449 -0.2326  0.3838
21728SOL    HW171020   3.411   9.456   6.987  0.1679  0.1559  0.4242
21728SOL    HW271021   3.314   9.538   7.068 -0.6483  0.5919 -0.9692
21729SOL     OW71022   1.291   4.373   1.085  0.4279 -0.3350 -0.4699
21729SOL    HW171023   1.374   4.353   1.041  0.8714 -1.1469  0.6910
21729SOL    HW271024   1.299   4.464   1.113 -0.6361  0.8921 -3.6782
21730SOL     OW71025   0.122   4.247   5.285  0.0938 -0.3580  0.0410
21730SOL    HW171026   0.032   4.218   5.301 -0.4111  2.0252  2.1350
21730SOL    HW271027   0.114   4.311   5.214  0.1080 -0.1046  0.2650
21731SOL     OW71028   1.579   2.109   4.551  0.0380  0.9181  0.2406
21731SOL    HW171029   1.528   2.189   4.564 -1.5594 -0.0895  0.4316
21731SOL    HW271030   1.641   2.131   4.483 -0.3486  2.3389  0.3199
21732SOL     OW71031   9.071   8.373   4.937  0.1030  0.3553  0.1396
21732SOL    HW171032   9.076   8.461   4.973 -0.3245 -0.0219  1.1738
21732SOL    HW271033   9.124   8.319   4.996 -1.7862 -0.5368  1.1334
21733SOL     OW71034   2.282  10.683  10.432 -0.1365 -0.0257  0.1170
21733SOL    HW171035   2.229  10.612  10.398  0.5674 -0.6150  0.2250
21733SOL    HW271036   2.249  10.699  10.520  0.7941 -1.3853  0.7445
21734SOL     OW71037   3.467   4.684  10.113  0.0650  0.4071 -0.6094
21734SOL    HW171038   3.393   4.649  10.162 -0.8436  1.6362 -1.0414
21734SOL    HW271039   3.492   4.614  10.053  0.4572 -0.6901  0.7801
21735SOL     OW71040   4.429   4.898   1.158 -0.0053  0.2206 -0.1699
21735SOL    HW171041   4.435   4.925   1.067 -0.6927 -2.7867 -1.2342
21735SOL    HW271042   4.460   4.807   1.158 -0.0988  0.0982  2.5944
21736SOL     OW71043   0.461   0.830   4.297 -0.7027 -0.1614 -0.4063
21736SOL    HW171044   0.499   0.784   4.222 -0.4038  0.9440 -0.9667
21736SOL    HW271045   0.534   0.882   4.333 -0.8666 -0.6041  0.6014
21737SOL     OW71046   9.738   2.321   7.321  0.1441 -0.5040  0.0391
21737SOL    HW171047   9.821   2.340   7.278 -0.0988 -1.4301 -0.8720
21737SOL    HW271048   9.712   2.235   7.287 -0.4982 -0.8641  1.3698
21738SOL     OW71049   5.539   7.629   6.755 -0.1092 -0.1502  0.6156
21738SOL    HW171050   5.484   7.590   6.823  1.0757 -1.5389  0.8209
21738SOL    HW271051   5.621   7.580   6.760  0.4682  0.6130 -0.9462
21739SOL     OW71052   3.188   4.634   6.500  0.2243 -0.2081  0.0880
21739SOL    HW171053   3.181   4.716   6.450  1.3407  0.7096  1.3546
21739SOL    HW271054   3.111   4.633   6.556  0.2787  0.0731  0.1716
21740SOL     OW71055   7.020   7.210   4.052 -0.1539 -0.6704 -0.1983
21740SOL    HW171056   7.003   7.268   4.126  0.3642 -0.0218 -0.5773
21740SOL    HW271057   7.062   7.133   4.090  0.9327  0.0417  0.0760
21741SOL     OW71058   8.633   8.561   5.046 -0.0499 -0.4837  0.2601
21741SOL    HW171059   8.556   8.519   5.085 -1.3584  0.6713 -0.9639
21741SOL    HW271060   8.636   8.527   4.957  0.5087 -0.0694  0.1183
21742SOL     OW71061   6.711   3.084   0.987 -0.3672 -0.0527  0.7343
21742SOL    HW171062   6.677   3.000   0.958 -1.5844  0.6883 -0.0545
21742SOL    HW271063   6.716   3.137   0.908  0.4286  0.6130  1.2112
21743SOL     OW71064   1.744   0.702   0.229  0.2219 -0.4028 -0.0792
21743SOL    HW171065   1.702   0.765   0.287  1.8313 -0.0866  0.7921
21743SOL    HW271066   1.689   0.624   0.235 -1.4856  0.6988 -0.7458
21744SOL     OW71067   4.396   4.552   6.182  0.2405 -0.4511 -0.2479
21744SOL    HW171068   4.332   4.525   6.115  0.3218  0.5957 -0.7702
21744SOL    HW271069   4.362   4.634   6.216  1.4355  0.2551 -0.7146
21745SOL     OW71070   3.045   9.318   7.199  0.0842  0.3357  0.1781
21745SOL    HW171071   3.108   9.347   7.132  1.0947  0.0594  0.9867
21745SOL    HW271072   3.099   9.278   7.267 -0.9858  0.0231  0.8647
21746SOL     OW71073   5.043   3.612   0.503 -0.7423  0.4096  0.4140
21746SOL    HW171074   5.054   3.690   0.556 -0.8486  0.9258 -0.3027
21746SOL    HW271075   5.051   3.643   0.412 -0.0544 -0.5208  0.1332
21747SOL     OW71076   4.166   7.898   2.584  0.0276  0.1950 -0.5548
21747SOL    HW171077   4.151   7.993   2.583  0.3257  0.3468  1.8345
21747SOL    HW271078   4.261   7.889   2.588  0.0651 -0.2794 -2.2038
21748SOL     OW71079   7.722   7.530   8.701 -0.0471  0.3347  0.1925
21748SOL    HW171080   7.648   7.583   8.671 -1.2772 -1.2497  0.2679
21748SOL    HW271081   7.744   7.475   8.625 -1.8322 -2.2429  1.4140
21749SOL     OW71082  10.561   4.162   3.969  0.1851  0.0889  0.4095
21749SOL    HW171083  10.644   4.210   3.962  0.2386 -0.1732 -0.9738
21749SOL    HW271084  10.496   4.230   3.983  0.5016  0.3925  0.4317
21750SOL     OW71085   3.106   9.548   4.633 -0.2090 -0.1089 -0.2091
21750SOL    HW171086   3.082   9.504   4.552  0.0098 -0.9650  0.1804
21750SOL    HW271087   3.059   9.632   4.630 -1.7003 -0.9130 -0.3667
21751SOL     OW71088   1.992   1.307   4.068  0.7575  0.3014 -0.4055
21751SOL    HW171089   1.967   1.216   4.055  0.9948  0.4260 -2.0048
21751SOL    HW271090   1.909   1.354   4.073  0.6213 -0.0339  0.9664
21752SOL     OW71091  10.696   1.285   6.017 -0.5827  0.2209 -0.3259
21752SOL    HW171092  10.753   1.316   5.947 -0.2418  0.4846  0.0670
21752SOL    HW271093  10.755   1.264   6.089 -0.8871 -0.4729 -0.2649
21753SOL     OW71094   3.321   6.106   7.716  0.7276  0.1445 -0.2079
21753SOL    HW171095   3.386   6.077   7.780 -0.5048 -3.3439 -0.2960
21753SOL    HW271096   3.365   6.099   7.632  0.1350 -3.3870 -0.3932
21754SOL     OW71097   4.494  10.081   0.704  0.1421 -0.0789 -0.5795
21754SOL    HW171098   4.516  10.055   0.794 -2.5480 -0.0361  0.1774
21754SOL    HW271099   4.411  10.127   0.713  0.3635  0.8905 -3.0021
21755SOL     OW71100   6.579   6.478   8.229 -0.3025  0.1407 -0.2917
21755SOL    HW171101   6.660   6.434   8.202 -1.1931 -1.6274 -0.2376
21755SOL    HW271102   6.605   6.570   8.242  1.6292 -0.3281 -0.4659
21756SOL     OW71103   3.757  10.289  10.532  0.6995 -0.3723 -0.7155
21756SOL    HW171104   3.709  10.370  10.551  1.2224 -0.3621  0.7037
21756SOL    HW271105   3.783  10.298  10.440 -0.6501  0.3138 -1.0613
21757SOL     OW71106   1.421   4.703   1.463 -0.4290 -0.0916 -0.0539
21757SOL    HW171107   1.368   4.782   1.473 -0.5280  0.1421 -2.0782
21757SOL    HW271108   1.375   4.636   1.514 -0.3069  1.1277  1.7447
21758SOL     OW71109   5.593   8.605   1.707  0.3937 -0.4320 -0.3280
21758SOL    HW171110   5.648   8.586   1.631  1.2704  0.6820  0.0096
21758SOL    HW271111   5.648   8.659   1.764 -0.6014 -0.3977  0.6297
21759SOL     OW71112   0.445   6.095   9.827  0.4519  0.0929  0.7290
21759SOL    HW171113   0.509   6.071   9.893  1.0872 -1.0116 -0.2537
21759SOL    HW271114   0.365   6.050   9.854  1.1338 -1.7075 -0.0738
21760SOL     OW71115   0.647   9.267   1.597 -0.6489 -0.4600  0.2148
21760SOL    HW171116   0.671   9.190   1.649  0.8688 -0.0062  0.2501
21760SOL    HW271117   0.706   9.264   1.522 -2.3566 -0.7324 -1.1953
21761SOL     OW71118   7.392   4.992   7.177  0.4345 -0.2554  0.5502
21761SOL    HW171119   7.373   4.936   7.102 -0.3309  1.6185 -0.7476
21761SOL    HW271120   7.365   4.941   7.253  0.0189 -1.7157 -0.5303
21762SOL     OW71121   0.390   1.123   0.410  0.3243 -0.1568 -0.3407
21762SOL    HW171122   0.307   1.113   0.364  0.3319 -1.0644 -0.1690
21762SOL    HW271123   0.368   1.114   0.502  0.6648 -0.7624 -0.3156
21763SOL     OW71124   7.264   3.391   3.113 -0.0828  0.1313 -0.0816
21763SOL    HW171125   7.215   3.404   3.194 -0.3529 -1.7796  0.1143
21763SOL    HW271126   7.197   3.377   3.046  0.1535 -0.2958 -0.2340
21764SOL     OW71127   3.229   8.259   1.079 -0.2727  0.6303 -0.1540
21764SOL    HW171128   3.244   8.177   1.125  1.5964  2.1464  2.1896
21764SOL    HW271129   3.264   8.244   0.991  0.3637 -0.9816  0.3361
21765SOL     OW71130   8.540   2.392   8.474  0.5571 -0.3172  0.2753
21765SOL    HW171131   8.540   2.296   8.469  1.1460 -0.3095 -0.0268
21765SOL    HW271132   8.483   2.412   8.547 -1.4701 -0.8228 -1.0771
21766SOL     OW71133   6.709  10.219   8.591 -0.1920 -0.1141 -0.2224
21766SOL    HW171134   6.742  10.177   8.511 -0.4432 -0.4368 -0.1575
21766SOL    HW271135   6.695  10.310   8.566 -1.0372 -0.3844 -0.7719
21767SOL     OW71136   9.975   4.896   5.800  0.0809  0.5094  0.0285
21767SOL    HW171137   9.900   4.839   5.785  0.3950 -0.0789  0.6257
21767SOL    HW271138  10.051   4.839   5.787  0.4179  0.0338  3.1346
21768SOL     OW71139   1.570   1.424   6.283 -0.9221  0.1423  0.6396
21768SOL    HW171140   1.627   1.501   6.284  1.9841 -1.8507  2.3806
21768SOL    HW271141   1.510   1.441   6.210  0.5856  3.3092 -0.0751
21769SOL     OW71142   5.900   8.677   2.247 -0.1603 -0.0790 -0.4712
21769SOL    HW171143   5.940   8.761   2.222  2.2056 -0.8121  0.4770
21769SOL    HW271144   5.887   8.631   2.164  0.0890  0.5938 -0.8980
21770SOL     OW71145  10.589   1.837   8.768 -0.3799  0.3693  0.4243
21770SOL    HW171146  10.565   1.867   8.680  0.4954  2.4795  0.8461
21770SOL    HW271147  10.535   1.891   8.827 -0.0351 -0.1266  1.2100
21771SOL     OW71148   1.846   0.750   9.670  0.2951 -0.1275  0.0078
21771SOL    HW171149   1.856   0.773   9.578  0.1958  0.4397  0.1330
21771SOL    HW271150   1.912   0.682   9.685  0.0441 -0.5044 -0.5730
21772SOL     OW71151  10.486   9.810   7.226 -0.7336  0.6293 -0.5836
21772SOL    HW171152  10.511   9.732   7.276 -0.5069  1.0234 -0.0735
21772SOL    HW271153  10.465   9.777   7.139  0.4626  0.1412 -0.6978
21773SOL     OW71154   3.829   9.374   3.707  0.1811  0.2195  0.0908
21773SOL    HW171155   3.820   9.282   3.730  2.3150 -0.5110 -1.6616
21773SOL    HW271156   3.896   9.408   3.765  1.0784  0.0139 -0.7971
21774SOL     OW71157   3.546   6.274  10.422  0.1228 -0.1997  0.5236
21774SOL    HW171158   3.642   6.269  10.416  0.1088 -0.2423  0.3132
21774SOL    HW271159   3.526   6.365  10.399  0.1345 -0.1048  0.8866
21775SOL     OW71160   8.986   8.307   7.504 -0.6647 -0.4179 -0.1022
21775SOL    HW171161   8.976   8.289   7.410  0.4785 -1.6130 -0.0157
21775SOL    HW271162   9.040   8.235   7.537 -1.1083 -0.0566  1.4976
21776SOL     OW71163   9.876   6.479   2.572 -0.0146 -0.1271 -0.3265
21776SOL    HW171164   9.853   6.392   2.541 -1.4543  0.4307 -0.9366
21776SOL    HW271165   9.827   6.491   2.653  2.0521 -0.7516  1.0918
21777SOL     OW71166   3.990   0.049   7.199 -0.0351 -0.5302 -0.4856
21777SOL    HW171167   4.053   0.009   7.260 -1.1513 -1.1145  0.3116
21777SOL    HW271168   4.017   0.141   7.194  1.6167 -1.0101 -1.1277
21778SOL     OW71169   7.132   1.579  10.405  0.0387  0.5641  1.1166
21778SOL    HW171170   7.069   1.520  10.364  1.5809  0.4595 -1.3602
21778SOL    HW271171   7.182   1.525  10.465 -0.2610 -0.0546  0.8123
21779SOL     OW71172   3.382   4.126   7.863  0.6599  0.3433 -0.6070
21779SOL    HW171173   3.299   4.084   7.841  0.7170  0.8092 -1.7656
21779SOL    HW271174   3.432   4.125   7.781  0.9966  1.8874 -0.4386
21780SOL     OW71175   9.782   1.911   5.426 -0.7407  0.0241 -0.2687
21780SOL    HW171176   9.851   1.970   5.456  1.1904 -1.6090 -1.3379
21780SOL    HW271177   9.776   1.845   5.495  0.8463 -1.4463 -1.4826
21781SOL     OW71178   5.538   0.015   3.427  0.6867  0.0407 -0.3984
21781SOL    HW171179   5.502  -0.015   3.510  1.7720  1.0637  0.4759
21781SOL    HW271180   5.630  -0.011   3.429  0.8987  0.7006 -0.9464
21782SOL     OW71181   7.830  10.205   1.594  0.2522 -0.3008  0.0857
21782SOL    HW171182   7.875  10.132   1.636  0.9639  1.1538  2.0668
21782SOL    HW271183   7.793  10.169   1.514 -0.6428 -3.1708  1.6541
21783SOL     OW71184   1.714   0.408   8.823  0.3343  0.4218 -0.0480
21783SOL    HW171185   1.801   0.438   8.794  1.6609 -2.4891  0.5137
21783SOL    HW271186   1.654   0.446   8.759  2.4320 -0.3148 -2.6918
21784SOL     OW71187   8.292   4.766   7.535  0.2152  0.3996 -0.1814
21784SOL    HW171188   8.311   4.856   7.507 -0.2675  0.5849  0.0758
21784SOL    HW271189   8.347   4.752   7.612  0.7158  0.2705 -0.5518
21785SOL     OW71190   8.429   8.032   8.864 -0.2128 -0.0247 -0.0747
21785SOL    HW171191   8.359   7.974   8.894 -0.0145 -0.0618  0.3297
21785SOL    HW271192   8.416   8.112   8.915  0.2053 -0.1331  0.2043
21786SOL     OW71193   0.004   1.872   4.636  0.2935  0.8923 -0.2541
21786SOL    HW171194   0.059   1.950   4.636  1.4808  0.0927  0.5729
21786SOL    HW271195   0.055   1.808   4.586  0.6100 -0.1674  1.3461
21787SOL     OW71196   3.234   0.593   4.106 -0.0604 -0.8052 -0.2690
21787SOL    HW171197   3.140   0.607   4.093  0.2469  1.0453 -0.7338
21787SOL    HW271198   3.270   0.580   4.019  0.4179  0.7758 -0.3397
21788SOL     OW71199   4.517   9.804   6.534  0.1468  0.2067  0.3056
21788SOL    HW171200   4.471   9.883   6.505 -1.4767 -0.9754 -0.4908
21788SOL    HW271201   4.447   9.743   6.559  1.3673 -0.1818  3.2637
21789SOL     OW71202   8.152   2.424   3.055 -0.2876 -0.3498 -0.8247
21789SOL    HW171203   8.129   2.345   3.103 -0.8349  0.2987 -0.0022
21789SOL    HW271204   8.148   2.398   2.963 -0.8637 -1.1662 -0.5780
21790SOL     OW71205   4.745   1.707   2.704 -0.7616 -0.5766 -0.5886
21790SOL    HW171206   4.656   1.740   2.716 -0.7590 -0.6221 -0.4538
21790SOL    HW271207   4.796   1.786   2.682 -0.4691 -0.2479  1.1333
21791SOL     OW71208   4.490   6.719  10.530 -0.2174 -0.0692 -0.1449
21791SOL    HW171209   4.463   6.752  10.444  0.5035  1.3268  0.1304
21791SOL    HW271210   4.565   6.773  10.554  1.5505 -2.4520  0.0384
21792SOL     OW71211   5.316   5.455   9.924  0.4714  0.8490 -0.4307
21792SOL    HW171212   5.318   5.431  10.016  1.2163  1.4123 -0.2880
21792SOL    HW271213   5.310   5.551   9.924  1.0625  0.8964 -0.9541
21793SOL     OW71214   8.722   7.495   2.977  0.0100  0.5081 -0.0957
21793SOL    HW171215   8.727   7.586   2.947 -0.8451  0.7716  0.5365
21793SOL    HW271216   8.813   7.473   3.000  0.1379  1.4165  0.3438
21794SOL     OW71217   1.011   1.713   6.328  1.1154  0.2283  0.0502
21794SOL    HW171218   0.993   1.769   6.252  0.3742  1.5142  1.1418
21794SOL    HW271219   1.106   1.711   6.334  1.1656  0.8676 -0.3662
21795SOL     OW71220   8.167   2.388   3.767 -0.1220 -0.6563 -0.1195
21795SOL    HW171221   8.245   2.346   3.805  0.5102 -0.0159 -0.7035
21795SOL    HW271222   8.149   2.461   3.826 -0.2191 -0.7332 -0.0524
21796SOL     OW71223   8.978   5.282   3.153 -0.0118  0.3898 -0.8069
21796SOL    HW171224   9.065   5.247   3.137  0.4694  0.8835  0.5762
21796SOL    HW271225   8.993   5.364   3.201 -1.2170  0.7255 -0.9630
21797SOL     OW71226   9.903   8.802   8.764 -0.1566 -0.2792  0.5663
21797SOL    HW171227   9.836   8.853   8.719 -0.8448 -1.6259  0.0195
21797SOL    HW271228   9.973   8.792   8.700  0.0232  0.0568  0.7084
21798SOL     OW71229   2.309   2.050   4.853  0.3840  0.0994 -0.0356
21798SOL    HW171230   2.240   2.114   4.839 -0.3011 -0.3127  1.3261
21798SOL    HW271231   2.264   1.966   4.856  1.2853 -0.5217 -1.9368
21799SOL     OW71232   4.623   7.063   6.345 -0.3821  0.1320 -0.1357
21799SOL    HW171233   4.598   6.993   6.286 -1.4758 -0.0993  0.5745
21799SOL    HW271234   4.550   7.124   6.343 -0.0205  0.5881  0.2585
21800SOL     OW71235   2.751   1.257   6.036 -0.0245 -0.9363 -0.0650
21800SOL    HW171236   2.723   1.209   5.958  1.2862  0.5935 -1.5556
21800SOL    HW271237   2.846   1.262   6.029  0.0552 -0.0700  1.2293
21801SOL     OW71238   9.283   8.739   4.245 -0.4923 -0.2189 -0.3235
21801SOL    HW171239   9.266   8.671   4.179  0.9645  0.1818 -1.1484
21801SOL    HW271240   9.360   8.786   4.213  0.0277  0.2553  1.4790
21802SOL     OW71241   2.355   4.014   3.772 -0.0713  0.1866 -0.3285
21802SOL    HW171242   2.394   3.972   3.695  1.0937 -0.2421  0.4647
21802SOL    HW271243   2.324   3.941   3.826 -0.1954  0.4439 -0.0477
21803SOL     OW71244   7.608   3.856   4.690 -0.5393  0.2500  0.1708
21803SOL    HW171245   7.606   3.780   4.632  0.1789  0.5466 -0.2607
21803SOL    HW271246   7.701   3.874   4.703 -0.6784  1.7213 -0.6406
21804SOL     OW71247   5.281   7.907   5.303 -0.1270  0.0892  0.3909
21804SOL    HW171248   5.372   7.907   5.333 -0.7172 -0.3483  2.2868
21804SOL    HW271249   5.249   7.819   5.323 -0.3716 -0.5449 -2.3533
21805SOL     OW71250   2.329   9.844   6.101 -0.1471 -0.3631 -0.3012
21805SOL    HW171251   2.336   9.792   6.021  1.2332  0.2483 -0.6161
21805SOL    HW271252   2.261   9.908   6.083 -0.7237 -1.0253 -0.5071
21806SOL     OW71253   4.570   2.734   9.101  0.3099  0.7138  0.4292
21806SOL    HW171254   4.602   2.682   9.175  1.6905  0.3254 -0.3979
21806SOL    HW271255   4.476   2.718   9.099  0.6798 -1.8157  0.1794
21807SOL     OW71256   6.316   1.690   5.339  0.4382 -0.2834 -0.1175
21807SOL    HW171257   6.378   1.663   5.272  0.5875  0.2359 -0.1945
21807SOL    HW271258   6.263   1.612   5.356  0.1682 -0.3216 -1.0897
21808SOL     OW71259   9.342   1.335   3.285 -0.7176 -0.5302 -0.1115
21808SOL    HW171260   9.401   1.380   3.345  0.7457 -1.1423 -1.0231
21808SOL    HW271261   9.267   1.309   3.338 -0.4770  0.8446  0.9422
21809SOL     OW71262   5.262   5.302   6.734 -0.0775 -0.3107  0.1255
21809SOL    HW171263   5.326   5.362   6.695 -1.3523  1.2789  0.3872
21809SOL    HW271264   5.279   5.219   6.691  2.6923 -0.1896  0.7475
21810SOL     OW71265   2.749   8.168   7.935  0.0747  0.5705  0.2496
21810SOL    HW171266   2.791   8.164   8.020 -1.7439 -0.7006  1.1465
21810SOL    HW271267   2.698   8.249   7.937  1.3618  1.4111 -0.3117
21811SOL     OW71268   7.354   3.185  10.571 -0.6272 -0.2072 -0.4349
21811SOL    HW171269   7.287   3.126  10.539 -1.1213 -1.1645  2.0844
21811SOL    HW271270   7.427   3.128  10.596 -0.2276  0.4680 -0.0177
21812SOL     OW71271   1.345   6.561   3.844 -0.0527  0.3507  0.9958
21812SOL    HW171272   1.404   6.487   3.832 -1.0234 -0.4179  0.8950
21812SOL    HW271273   1.403   6.637   3.849  0.9291 -0.3598  0.6670
21813SOL     OW71274   0.897   6.551   7.051  0.3952 -0.5995  0.2698
21813SOL    HW171275   0.877   6.458   7.044  2.8512 -1.1269 -0.8334
21813SOL    HW271276   0.856   6.578   7.133 -2.7488 -1.9261 -0.6874
21814SOL     OW71277   3.446   8.856   6.817  0.3493  0.8041  0.3989
21814SOL    HW171278   3.453   8.900   6.732  1.4608  2.4824  1.3075
21814SOL    HW271279   3.375   8.902   6.862  1.0402  1.2105  1.0913
21815SOL     OW71280   3.835   5.589  10.708  0.2256 -0.9090  0.7328
21815SOL    HW171281   3.922   5.554  10.689  0.7501  0.0889  1.2208
21815SOL    HW271282   3.824   5.576  10.802  0.6924  0.7471  1.0502
21816SOL     OW71283   2.837   1.052   1.285  0.5470 -0.5280  0.4036
21816SOL    HW171284   2.826   0.966   1.327  0.0034 -1.6670 -1.9075
21816SOL    HW271285   2.748   1.079   1.263  0.9099 -1.1288 -2.0788
21817SOL     OW71286   7.472   3.181   8.974  0.2586 -0.1453 -0.1775
21817SOL    HW171287   7.517   3.103   9.005  0.7329 -0.2987 -1.2008
21817SOL    HW271288   7.394   3.188   9.029  1.0478 -0.4102  0.9993
21818SOL     OW71289   6.181   1.845   6.706 -0.3657 -0.0340 -0.3384
21818SOL    HW171290   6.171   1.930   6.663 -1.1401  0.8126  1.4253
21818SOL    HW271291   6.251   1.802   6.657  0.4252  1.8240 -0.9460
21819SOL     OW71292   5.173   8.905   4.618  0.0845  0.0701 -0.1699
21819SOL    HW171293   5.081   8.878   4.618 -0.1954  0.9614 -0.7524
21819SOL    HW271294   5.223   8.823   4.617 -0.6967 -0.4251  0.4561
21820SOL     OW71295   7.197   2.848   4.475  0.4700 -0.7866 -0.6265
21820SOL    HW171296   7.227   2.939   4.481 -1.5524 -0.0562 -0.9170
21820SOL    HW271297   7.107   2.850   4.506  0.1892 -2.5943 -1.2050
21821SOL     OW71298  10.110  10.559  10.700  0.0878 -0.5069 -0.3141
21821SOL    HW171299  10.067  10.523  10.777  0.4427 -1.4315 -0.5335
21821SOL    HW271300  10.039  10.595  10.647 -0.1657  0.0161  0.3801
21822SOL     OW71301   9.716   9.320   9.493  0.0938 -0.0733  0.0295
21822SOL    HW171302   9.696   9.227   9.483  0.6157 -0.1097 -0.7823
21822SOL    HW271303   9.716   9.354   9.404  1.0289  0.4619  0.2182
21823SOL     OW71304   2.306   8.672   6.387  0.1465  0.2004  0.0102
21823SOL    HW171305   2.345   8.749   6.430  0.1850  0.7478 -0.9751
21823SOL    HW271306   2.220   8.702   6.357  0.6459  0.2502 -1.4539
21824SOL     OW71307   8.827   5.395   3.447  0.5040 -0.2459 -0.4291
21824SOL    HW171308   8.828   5.443   3.530  1.1980  0.1548 -0.6515
21824SOL    HW271309   8.920   5.383   3.426  0.3364 -0.9463 -0.8098
21825SOL     OW71310   5.878   9.973   1.668  0.0113  0.4889  0.1801
21825SOL    HW171311   5.919   9.888   1.653  2.2965  1.4514  0.4492
21825SOL    HW271312   5.925  10.033   1.610 -1.4820  1.6121  0.0645
21826SOL     OW71313   9.856   3.082   6.923 -0.4222 -0.5070  0.2516
21826SOL    HW171314   9.916   3.033   6.866  0.3880  0.7758 -0.0330
21826SOL    HW271315   9.914   3.135   6.977 -1.2664 -0.3304  0.9851
21827SOL     OW71316   4.014   9.531   5.922 -0.2432  0.1071  0.0165
21827SOL    HW171317   3.930   9.559   5.885 -0.4308  1.4111  1.3112
21827SOL    HW271318   4.049   9.469   5.858 -0.8940  1.6267 -1.9179
21828SOL     OW71319   4.799   3.535   7.268  0.2265 -0.3631 -0.5365
21828SOL    HW171320   4.781   3.595   7.341 -0.5767 -1.3983  0.1479
21828SOL    HW271321   4.802   3.592   7.191  0.2417  0.6536  0.1885
21829SOL     OW71322   0.991   0.529   9.864 -0.2093 -0.2404  0.2825
21829SOL    HW171323   0.989   0.499   9.955 -1.2510  0.1300  0.3947
21829SOL    HW271324   0.899   0.535   9.838  0.0201 -2.9763 -1.6832
21830SOL     OW71325   1.203   3.491   7.441  0.1088  0.0431  0.5290
21830SOL    HW171326   1.212   3.570   7.494  1.7894  0.3688 -0.1762
21830SOL    HW271327   1.289   3.449   7.446 -0.4093 -1.1222 -0.0500
21831SOL     OW71328   5.721  10.451   3.261  0.0955 -0.6528  0.1544
21831SOL    HW171329   5.742  10.373   3.313  0.5881  0.0069  0.9603
21831SOL    HW271330   5.657  10.419   3.196 -0.8475 -1.4180  1.4018
21832SOL     OW71331  10.529   2.354   6.387 -0.4579  0.0133  0.3117
21832SOL    HW171332  10.522   2.388   6.477 -0.4005  0.2762  0.2169
21832SOL    HW271333  10.540   2.260   6.399 -0.1546  0.0809  0.5912
21833SOL     OW71334   7.376   3.939   4.506 -0.4955  0.0060 -0.8083
21833SOL    HW171335   7.468   3.948   4.484 -0.4965 -1.1343 -1.3436
21833SOL    HW271336   7.330   3.954   4.423 -0.8817  1.6966 -0.3249
21834SOL     OW71337   1.461   2.986   6.546  0.1125  0.4054  0.2063
21834SOL    HW171338   1.500   2.961   6.462  1.0554  1.7977  0.2097
21834SOL    HW271339   1.520   2.947   6.612 -0.8526 -1.0420  0.2699
21835SOL     OW71340   8.607   8.407   5.825  0.1287 -0.1237  0.1859
21835SOL    HW171341   8.564   8.351   5.890  0.4183  0.4629  0.8992
21835SOL    HW271342   8.582   8.369   5.741 -1.2453 -0.1892  0.5921
21836SOL     OW71343   0.751   4.649   6.836  0.3326  0.0521 -0.1333
21836SOL    HW171344   0.816   4.655   6.765  0.9457  0.2872  0.4406
21836SOL    HW271345   0.780   4.713   6.900  0.4546 -0.9851  0.8784
21837SOL     OW71346   4.116   5.268   6.750 -0.5452 -0.3872 -0.0236
21837SOL    HW171347   4.086   5.180   6.774  2.6034 -1.6554 -0.2730
21837SOL    HW271348   4.082   5.282   6.661 -1.0398 -1.3719  0.0025
21838SOL     OW71349   6.583   4.332   0.719  0.9046  0.0671  0.0093
21838SOL    HW171350   6.645   4.286   0.776 -0.2718 -1.5250  0.0836
21838SOL    HW271351   6.566   4.270   0.648  0.4684  1.0468 -0.7711
21839SOL     OW71352   1.510   0.941   3.251  0.3669  0.2223  0.6488
21839SOL    HW171353   1.452   0.944   3.175 -1.4411 -0.8939  1.9317
21839SOL    HW271354   1.470   1.000   3.315  1.2779  0.3046  1.1596
21840SOL     OW71355   8.278   6.632   2.651 -0.2280  0.6672 -0.0066
21840SOL    HW171356   8.250   6.719   2.678  0.3867  0.8398  0.1039
21840SOL    HW271357   8.349   6.610   2.712 -0.5285 -0.0032  0.1045
21841SOL     OW71358   5.189   1.903   5.697 -0.5991  0.6470 -0.1074
21841SOL    HW171359   5.125   1.917   5.767  0.0839  0.0921  0.6478
21841SOL    HW271360   5.156   1.826   5.650  0.2081 -0.4971  1.1359
21842SOL     OW71361   3.349   3.977   1.611 -0.4129 -0.2864  0.0333
21842SOL    HW171362   3.332   4.066   1.642 -0.1513 -0.0520 -0.4885
21842SOL    HW271363   3.266   3.931   1.625 -0.7212  0.1874 -0.2044
21843SOL     OW71364   9.798   3.692   1.610 -0.7167  0.3648 -0.3814
21843SOL    HW171365   9.707   3.717   1.630 -0.7208  1.7936 -1.9569
21843SOL    HW271366   9.846   3.775   1.611 -0.1060  0.1006 -2.8572
21844SOL     OW71367   5.014   7.361   0.959 -0.3394 -0.9559 -0.2647
21844SOL    HW171368   5.035   7.415   0.883  0.0571 -1.7564 -0.7441
21844SOL    HW271369   4.923   7.380   0.978  0.8840  3.4291  2.5280
21845SOL     OW71370   3.171  10.568   5.195 -0.0864 -0.0752 -0.3577
21845SOL    HW171371   3.107  10.512   5.239 -0.0627 -0.2129 -0.4992
21845SOL    HW271372   3.157  10.551   5.102 -0.7827  0.9197 -0.4530
21846SOL     OW71373   2.140  10.661   8.744  0.0123  0.2669 -0.0645
21846SOL    HW171374   2.120  10.577   8.703  0.1544  0.7637 -1.1913
21846SOL    HW271375   2.081  10.666   8.819 -0.2117 -0.6926 -0.1575
21847SOL     OW71376   9.889   1.162   8.444  0.4208 -0.2059 -0.0993
21847SOL    HW171377   9.815   1.208   8.404  0.5335 -0.4996 -0.6699
21847SOL    HW271378   9.931   1.117   8.370  0.0420 -1.5916  0.5010
21848SOL     OW71379   3.590   6.650   1.935 -0.3198  0.4218  0.1180
21848SOL    HW171380   3.604   6.659   1.841  0.9678 -2.2705 -0.0551
21848SOL    HW271381   3.499   6.620   1.943 -1.2817  3.0485  0.0168
21849SOL     OW71382   5.301   4.638   0.676 -0.2122  0.1699 -0.0884
21849SOL    HW171383   5.239   4.711   0.667  0.3112  0.6248 -0.0003
21849SOL    HW271384   5.315   4.629   0.770  0.5906  0.6885 -0.1535
21850SOL     OW71385   2.940   4.064   2.673  0.0999 -0.1718 -0.0186
21850SOL    HW171386   2.970   4.150   2.642 -0.1979 -1.1337 -3.2154
21850SOL    HW271387   3.012   4.004   2.652  0.1278 -0.8568  1.8050
21851SOL     OW71388   9.938   3.011   2.211 -0.1057 -0.1920 -0.5062
21851SOL    HW171389   9.898   3.093   2.242  0.3441  0.0353 -0.5117
21851SOL    HW271390  10.020   3.039   2.170  0.5664 -0.7449  0.4230
21852SOL     OW71391   7.011   0.855   9.940  0.5332 -0.1408 -0.7250
21852SOL    HW171392   7.093   0.881   9.983  0.5415  0.8439 -1.3014
21852SOL    HW271393   6.995   0.924   9.875 -1.1127  0.0241 -0.1785
21853SOL     OW71394  10.086   4.106  10.015 -0.1888 -0.2239 -0.6381
21853SOL    HW171395  10.171   4.142  10.040 -0.0773 -1.9698  1.9615
21853SOL    HW271396  10.024   4.178  10.027  0.4427  0.0535  1.2439
21854SOL     OW71397   7.719   7.959   3.933  0.1942  0.0239  0.5005
21854SOL    HW171398   7.657   7.932   3.866  0.0773  1.4061  0.0197
21854SOL    HW271399   7.770   7.880   3.951 -0.1383 -0.5246 -0.8117
21855SOL     OW71400   8.110   7.548   1.580  0.3586  0.0362  0.2410
21855SOL    HW171401   8.170   7.488   1.537 -0.9900 -0.1919 -1.4275
21855SOL    HW271402   8.071   7.496   1.651  1.0580 -0.2348  0.4397
21856SOL     OW71403   1.734   0.405   0.281  0.1071 -0.0852 -0.0478
21856SOL    HW171404   1.801   0.350   0.240  0.1296 -1.2683  1.4960
21856SOL    HW271405   1.652   0.360   0.263  0.0597 -0.3003  0.6718
21857SOL     OW71406   4.009   5.246   7.273 -0.3551 -0.6421 -0.0127
21857SOL    HW171407   4.073   5.295   7.325 -0.6298  2.7385 -2.5447
21857SOL    HW271408   3.927   5.252   7.323  0.1909 -0.7717  0.9198
21858SOL     OW71409   3.799   1.697   5.249  0.9519 -0.3540  0.6011
21858SOL    HW171410   3.840   1.685   5.163  1.5429 -0.2732  0.8697
21858SOL    HW271411   3.769   1.788   5.249  0.7045 -0.4328  0.3800
21859SOL     OW71412   6.583   4.029   6.754  0.0325 -0.1942  0.6343
21859SOL    HW171413   6.552   3.940   6.736 -0.3143  0.0478 -0.0126
21859SOL    HW271414   6.641   4.020   6.829 -0.5174 -0.8721  0.9852
21860SOL     OW71415   2.474   4.207   8.841 -0.5562 -0.0945  0.3192
21860SOL    HW171416   2.398   4.262   8.824 -0.0550  0.3006 -0.7455
21860SOL    HW271417   2.457   4.167   8.926 -2.0891 -0.2507 -0.0338
21861SOL     OW71418   8.422   4.354   2.703 -0.0804 -0.5628 -0.0942
21861SOL    HW171419   8.425   4.448   2.721 -0.5484 -0.4406 -0.5971
21861SOL    HW271420   8.479   4.343   2.627  0.4138 -0.7754  0.3048
21862SOL     OW71421  10.358   0.496   5.166 -0.3802  0.0827  0.2116
21862SOL    HW171422  10.370   0.411   5.209  0.0904  0.6238  1.1811
21862SOL    HW271423  10.439   0.544   5.185 -0.7005  0.8015 -0.2151
21863SOL     OW71424   0.944   2.301   1.395  0.1811 -0.7803 -0.1667
21863SOL    HW171425   0.944   2.384   1.443  0.6007 -0.3943 -0.8336
21863SOL    HW271426   0.989   2.320   1.313  0.6781 -1.7821 -0.1356
21864SOL     OW71427  10.036   6.899   1.061 -0.0490 -0.1500  0.5823
21864SOL    HW171428  10.080   6.984   1.053 -0.0690 -0.1148  0.8220
21864SOL    HW271429   9.943   6.919   1.047  0.1213 -0.4105 -1.1259
21865SOL     OW71430  10.437   8.218   3.522 -0.6623  0.3290  0.5051
21865SOL    HW171431  10.345   8.216   3.497 -1.0114 -0.7912  1.7440
21865SOL    HW271432  10.440   8.277   3.598 -0.5665 -0.5192  1.1718
21866SOL     OW71433   2.465   6.433   1.934 -0.5528  0.3980 -0.1353
21866SOL    HW171434   2.425   6.346   1.928 -0.9591  0.4098  1.7317
21866SOL    HW271435   2.477   6.460   1.844 -1.5601 -1.0798 -0.7547
21867SOL     OW71436   6.327   8.483   2.741  0.1371  0.1036  0.4475
21867SOL    HW171437   6.291   8.559   2.695  2.0571 -0.7458 -2.7512
21867SOL    HW271438   6.421   8.485   2.721  0.1752 -3.4076 -0.2635
21868SOL     OW71439   9.563   4.862   3.012  0.1633  0.6796  0.6565
21868SOL    HW171440   9.517   4.943   2.989  0.0874 -0.0204 -1.9830
21868SOL    HW271441   9.495   4.795   3.013  0.6538  0.1549 -0.2132
21869SOL     OW71442   3.566   5.021   0.704  0.3416  0.4643 -0.0930
21869SOL    HW171443   3.626   5.023   0.778  1.0669 -0.0544 -0.6523
21869SOL    HW271444   3.557   4.929   0.681 -1.5077  0.4261  0.6201
21870SOL     OW71445   9.692   1.688   8.009  0.6947  0.2157  0.0109
21870SOL    HW171446   9.689   1.777   7.972  2.6908  1.0970  1.7241
21870SOL    HW271447   9.718   1.632   7.936  0.5039  1.2152 -0.8522
21871SOL     OW71448   7.177   2.648   7.170  0.4187  0.5732 -0.3595
21871SOL    HW171449   7.127   2.715   7.123 -0.7122  0.0653  0.0863
21871SOL    HW271450   7.121   2.570   7.168  0.7810  0.2524  0.9547
21872SOL     OW71451  10.394   6.583   9.441  0.1120  0.4959 -0.6102
21872SOL    HW171452  10.460   6.539   9.389 -0.3967 -0.9585 -0.0863
21872SOL    HW271453  10.319   6.593   9.382  0.0016  0.0684 -0.5403
21873SOL     OW71454   4.467   7.283   2.790 -0.4087 -0.4363  0.3168
21873SOL    HW171455   4.479   7.313   2.880  0.2481 -1.8617  0.7372
21873SOL    HW271456   4.426   7.197   2.799  0.6932 -1.0971 -0.6893
21874SOL     OW71457   8.937   2.460  10.592 -0.2522  0.1900  0.0200
21874SOL    HW171458   8.950   2.419  10.506  2.0189 -0.3489  0.5536
21874SOL    HW271459   8.869   2.526  10.577  1.0736  1.1171 -2.5563
21875SOL     OW71460   9.016   3.098   8.288 -0.1862 -0.2329 -0.8593
21875SOL    HW171461   9.019   3.101   8.384  0.0311 -0.7533 -0.8487
21875SOL    HW271462   8.945   3.158   8.264 -0.6991 -0.6378 -0.3454
21876SOL     OW71463   8.631   1.777   1.600 -0.0611 -0.4580  0.0331
21876SOL    HW171464   8.583   1.722   1.661 -0.0470  0.6519  1.0732
21876SOL    HW271465   8.672   1.715   1.540  1.1850 -1.6892  2.0451
21877SOL     OW71466   3.209   1.448   0.014 -0.3315  0.1689  0.1763
21877SOL    HW171467   3.294   1.408   0.031 -0.2546 -0.1264 -0.8283
21877SOL    HW271468   3.220   1.493  -0.070 -1.8009 -1.8953 -1.2336
21878SOL     OW71469   5.525   6.855   4.536 -0.1603  0.8092 -0.1064
21878SOL    HW171470   5.523   6.901   4.620 -0.4181  0.8073 -0.1101
21878SOL    HW271471   5.475   6.775   4.552  3.2405 -1.2880  0.9571
21879SOL     OW71472   7.990   3.839   6.958 -0.0969  0.5743  0.2330
21879SOL    HW171473   7.899   3.865   6.941 -0.6181 -1.0359  0.4491
21879SOL    HW271474   8.023   3.811   6.873 -0.8591 -1.8979  0.6747
21880SOL     OW71475   7.462   1.504   0.624  0.3885 -0.2632 -0.1468
21880SOL    HW171476   7.374   1.538   0.643  0.3816  0.4871 -1.3892
21880SOL    HW271477   7.467   1.422   0.672 -1.2760 -0.6854 -0.6328
21881SOL     OW71478   9.104   7.827   2.167  0.6104 -0.1258  0.3181
21881SOL    HW171479   9.151   7.878   2.232 -0.3524  0.4715  0.5672
21881SOL    HW271480   9.172   7.795   2.107  1.2802  1.0501  0.4352
21882SOL     OW71481   7.227   1.951   2.985 -0.1368 -0.5573 -0.3171
21882SOL    HW171482   7.186   1.866   2.970  2.1544 -1.6105 -0.9975
21882SOL    HW271483   7.312   1.931   3.023  1.2530  1.2799 -2.2046
21883SOL     OW71484   5.434   9.575   9.629 -0.0260  0.9272 -0.5584
21883SOL    HW171485   5.395   9.590   9.543 -0.9344  0.5154 -0.2283
21883SOL    HW271486   5.503   9.641   9.635  1.5651 -0.4588 -2.4937
21884SOL     OW71487  10.127   7.276   9.360 -0.2502  0.5629 -0.3083
21884SOL    HW171488  10.077   7.302   9.283 -0.5918  0.1045 -0.2385
21884SOL    HW271489  10.206   7.235   9.324 -0.0130  1.0979 -0.4142
21885SOL     OW71490   1.775   5.247   9.296  0.5154 -0.5436 -0.1569
21885SOL    HW171491   1.704   5.186   9.278 -2.2679  1.8364  1.6525
21885SOL    HW271492   1.751   5.287   9.380  2.9461  1.8606 -0.4544
21886SOL     OW71493   4.816   4.963   3.354  0.6601 -0.1891  0.3601
21886SOL    HW171494   4.731   4.992   3.320  1.4315 -0.3945 -1.9505
21886SOL    HW271495   4.797   4.933   3.443 -2.5943 -3.9617 -1.2557
21887SOL     OW71496   3.432  10.054  10.330  0.3603  0.1900  0.2751
21887SOL    HW171497   3.349  10.087  10.296 -1.1171  0.7647  3.9736
21887SOL    HW271498   3.426   9.959  10.321 -0.6870  0.2341  0.3766
21888SOL     OW71499   7.561   5.298   7.603  0.2945  0.3480  0.5740
21888SOL    HW171500   7.591   5.221   7.652 -0.6763 -0.5485 -0.1767
21888SOL    HW271501   7.528   5.262   7.520 -0.6442  1.5129  0.4104
21889SOL     OW71502   2.740   0.629   0.479  0.1505 -0.3511  0.2617
21889SOL    HW171503   2.740   0.554   0.538 -1.0325 -0.9210 -0.4309
21889SOL    HW271504   2.833   0.652   0.469  0.4672 -1.2308  1.0902
21890SOL     OW71505   2.602   7.653   0.954 -0.5632 -0.1302 -0.2436
21890SOL    HW171506   2.589   7.566   0.991  1.7733 -0.4047  0.1093
21890SOL    HW271507   2.677   7.689   1.003 -0.9426  1.7446 -0.9464
21891SOL     OW71508   4.003   7.793   7.703  0.8127 -0.2445  0.0201
21891SOL    HW171509   3.949   7.716   7.721  0.9251  0.1176  2.0446
21891SOL    HW271510   4.089   7.757   7.680  0.1931 -0.7650 -1.6914
21892SOL     OW71511  10.276   3.067   3.275 -0.0373  0.4159 -0.1095
21892SOL    HW171512  10.297   3.059   3.181  0.1102  2.2148 -0.2521
21892SOL    HW271513  10.215   2.995   3.291  0.2401 -0.1717 -1.5008
21893SOL     OW71514   1.973   5.564   8.185  0.5140  0.4576  0.4752
21893SOL    HW171515   1.967   5.621   8.109 -0.6063 -1.4723 -0.9976
21893SOL    HW271516   2.050   5.510   8.169 -0.3839 -0.7548  0.0628
21894SOL     OW71517   4.320   0.642   4.894 -0.4718  0.0524 -0.3023
21894SOL    HW171518   4.308   0.726   4.850 -0.7419 -0.8203 -1.9681
21894SOL    HW271519   4.328   0.579   4.823  2.0060 -1.0621  0.8839
21895SOL     OW71520   2.113   8.856   0.504  1.3387  0.7905 -0.2009
21895SOL    HW171521   2.134   8.780   0.450  0.5101 -1.5030  2.4422
21895SOL    HW271522   2.195   8.877   0.548  0.9033 -0.8556  1.5666
21896SOL     OW71523   1.144   8.126   5.836 -0.0949  0.1169  0.3694
21896SOL    HW171524   1.132   8.031   5.833  2.0517 -0.1897 -0.6826
21896SOL    HW271525   1.087   8.160   5.766 -0.8433 -0.3888  0.7248
21897SOL     OW71526   4.481   9.064   9.882  0.4345 -0.4380 -0.3932
21897SOL    HW171527   4.461   9.008   9.957  0.3274  1.6573  1.2378
21897SOL    HW271528   4.487   9.004   9.808 -1.8244 -2.3520  0.8318
21898SOL     OW71529   4.215   7.972   8.177  0.0887 -0.1160 -0.0487
21898SOL    HW171530   4.143   7.967   8.114 -0.9740 -0.3876  1.1584
21898SOL    HW271531   4.291   7.938   8.129 -0.2355  1.4300 -1.7825
21899SOL     OW71532   8.928   5.536   8.936  0.0862  0.3455 -0.0673
21899SOL    HW171533   8.932   5.625   8.972  0.0432  0.7340 -0.9953
21899SOL    HW271534   8.945   5.479   9.011 -2.4774  0.9977  1.1060
21900SOL     OW71535   8.532   1.466   9.863 -0.3917 -0.3107 -0.3071
21900SOL    HW171536   8.547   1.375   9.889 -1.9049  0.0389  2.1590
21900SOL    HW271537   8.438   1.471   9.845 -0.5038  0.9288  0.4714
21901SOL     OW71538   6.525   9.881   7.991  0.2136 -0.1686 -0.3287
21901SOL    HW171539   6.554   9.792   7.975 -2.0905 -0.8836 -0.8959
21901SOL    HW271540   6.495   9.881   8.082 -2.0357 -0.7047 -1.0136
21902SOL     OW71541   0.742   7.904   5.561  0.3250 -0.4959 -0.3910
21902SOL    HW171542   0.811   7.855   5.516 -0.4818 -2.9485  0.8465
21902SOL    HW271543   0.768   7.903   5.653 -0.9510 -0.8070 -0.0090
21903SOL     OW71544   3.248   5.671   4.333 -0.3243 -0.0116  0.2277
21903SOL    HW171545   3.305   5.664   4.257  1.1922  0.8512  1.2204
21903SOL    HW271546   3.218   5.762   4.332  0.4992  0.2902  1.1637
21904SOL     OW71547   8.273   4.745   8.879  0.1374 -0.3203  0.0014
21904SOL    HW171548   8.340   4.767   8.815  0.0850 -0.6957 -0.1836
21904SOL    HW271549   8.257   4.827   8.927  1.0631 -0.3483  0.3684
21905SOL     OW71550   8.970   1.545   4.642  0.3405 -0.6693 -0.4202
21905SOL    HW171551   8.960   1.547   4.547 -0.5774 -1.9965 -0.3829
21905SOL    HW271552   8.965   1.452   4.665 -1.3444 -0.2741  1.0937
21906SOL     OW71553   5.265   8.724   0.370 -0.0773 -0.2198  0.0464
21906SOL    HW171554   5.350   8.746   0.331  0.1287 -2.5199 -0.9246
21906SOL    HW271555   5.287   8.677   0.450 -0.4893  0.6806  0.7101
21907SOL     OW71556   7.618   5.228   8.362 -0.4981 -0.1474  0.0172
21907SOL    HW171557   7.567   5.309   8.363  0.7674  0.7922 -2.3248
21907SOL    HW271558   7.564   5.165   8.314 -0.3495  0.2099 -0.6361
21908SOL     OW71559   1.704   6.845   2.839  0.1345  0.1115  0.1101
21908SOL    HW171560   1.690   6.936   2.811  3.2384  0.1771 -1.6892
21908SOL    HW271561   1.685   6.846   2.932 -0.8602  2.3521 -0.0357
21909SOL     OW71562   7.084   7.729   4.794 -0.1238 -0.0032  0.6847
21909SOL    HW171563   7.157   7.670   4.812 -1.0253 -1.1111  0.8349
21909SOL    HW271564   7.065   7.715   4.701  0.2435  0.7563  0.4855
21910SOL     OW71565   3.271   7.943   4.749  0.0773  0.6249 -0.5235
21910SOL    HW171566   3.247   7.995   4.672  0.2414  2.1159  0.3973
21910SOL    HW271567   3.187   7.925   4.791  0.0589  0.4770 -0.6199
21911SOL     OW71568   0.454   2.856   0.251  0.1177  0.1709  0.2217
21911SOL    HW171569   0.482   2.812   0.331 -0.2063  2.2999  1.5968
21911SOL    HW271570   0.413   2.937   0.282 -1.3834  0.3557 -2.0465
21912SOL     OW71571   7.340   9.890   9.900 -0.0886 -0.4990 -0.1949
21912SOL    HW171572   7.368   9.962   9.843 -0.1168 -1.8338 -1.9810
21912SOL    HW271573   7.268   9.848   9.853  1.2673 -2.9585 -0.2466
21913SOL     OW71574   3.743   7.244   8.054 -0.5369 -0.3585 -0.5986
21913SOL    HW171575   3.697   7.264   7.972  1.2821  1.6788 -1.2160
21913SOL    HW271576   3.830   7.283   8.042 -0.3907  0.5030  2.5316
21914SOL     OW71577   9.943  10.305   4.255  0.4122 -0.5651 -0.4643
21914SOL    HW171578   9.937  10.246   4.331 -1.0143 -1.1205 -0.9691
21914SOL    HW271579   9.917  10.251   4.181 -1.6010  0.8362 -0.8558
21915SOL     OW71580   0.923  10.122   3.512 -0.3517  0.4044  0.3008
21915SOL    HW171581   0.900  10.031   3.493 -2.1751  0.2582  2.7504
21915SOL    HW271582   1.009  10.117   3.552  0.5510  0.0516 -1.5746
21916SOL     OW71583   7.940   0.143   1.311 -0.1192  0.1698  0.5356
21916SOL    HW171584   7.849   0.164   1.333 -0.1270  2.2543 -1.1533
21916SOL    HW271585   7.992   0.206   1.360  0.4942 -1.3475  1.8921
21917SOL     OW71586   5.382  10.498   3.440 -0.3582 -0.1953  0.1983
21917SOL    HW171587   5.321  10.500   3.366  0.5723  0.8921 -0.5729
21917SOL    HW271588   5.462  10.537   3.405  0.2807 -0.1984  1.6317
21918SOL     OW71589   1.490   6.110   9.168  0.2012  0.0398 -0.5590
21918SOL    HW171590   1.481   6.015   9.160 -0.3250  0.1944 -2.1415
21918SOL    HW271591   1.563   6.122   9.228 -1.6407 -1.3276  2.2075
21919SOL     OW71592   0.637   1.405   0.638  0.6679  0.0463  0.2021
21919SOL    HW171593   0.722   1.440   0.613  0.3180  0.6359 -0.1681
21919SOL    HW271594   0.601   1.368   0.558  0.0793  0.8311  0.1012
21920SOL     OW71595   1.251   6.142   6.300 -0.3966  0.1538  0.3841
21920SOL    HW171596   1.309   6.094   6.359 -0.9036 -1.9328 -0.6837
21920SOL    HW271597   1.193   6.192   6.357 -1.0020 -1.9345  1.7054
21921SOL     OW71598   5.472   3.623   7.425  0.0760 -0.2970 -0.1132
21921SOL    HW171599   5.387   3.598   7.461  0.0334 -1.9372 -1.2369
21921SOL    HW271600   5.528   3.547   7.440  1.1073  0.4324 -0.1647
21922SOL     OW71601   5.533   8.004   9.003  0.5874 -0.0809  0.5454
21922SOL    HW171602   5.546   8.062   8.929 -0.4446 -1.0035 -0.3927
21922SOL    HW271603   5.556   7.917   8.971 -0.9099 -0.6604  0.9437
21923SOL     OW71604   1.287   7.912  10.071  0.6004  0.2059 -0.4592
21923SOL    HW171605   1.329   7.863  10.000 -0.7823 -0.5227 -0.8113
21923SOL    HW271606   1.359   7.956  10.116  2.0131 -2.5097  0.1719
21924SOL     OW71607   7.067   2.857   7.808  0.4786  0.3849  0.1490
21924SOL    HW171608   7.069   2.804   7.887  1.2077  0.2991  0.0743
21924SOL    HW271609   7.062   2.794   7.736  0.5957  0.4370  0.0937
21925SOL     OW71610   3.073   4.317   2.061  0.2852  0.2237 -0.3820
21925SOL    HW171611   3.080   4.222   2.053 -0.7029  0.1335 -0.2870
21925SOL    HW271612   3.014   4.330   2.136 -0.7093  0.8810 -1.2554
21926SOL     OW71613   4.278   9.923   2.602 -0.1586  0.4173  0.3001
21926SOL    HW171614   4.202   9.872   2.630 -1.0559  0.6329 -1.6407
21926SOL    HW271615   4.313   9.959   2.684 -1.2718 -0.8505  1.3878
21927SOL     OW71616   3.174   0.196   3.296 -0.3735  0.4731  0.3557
21927SOL    HW171617   3.191   0.106   3.271  1.1133  0.6094  0.8298
21927SOL    HW271618   3.236   0.248   3.245 -1.6256  1.3146 -0.3884
21928SOL     OW71619   7.093   3.923   3.724  0.4481  0.2188  0.0981
21928SOL    HW171620   7.023   3.954   3.782  1.0981  1.9895  0.0069
21928SOL    HW271621   7.163   3.896   3.784  0.4523  0.3739  0.1639
21929SOL     OW71622   2.316   7.071   8.008 -0.4273 -0.0574  0.0347
21929SOL    HW171623   2.267   7.054   7.928 -1.0705  3.1512 -0.3805
21929SOL    HW271624   2.256   7.044   8.078 -1.4377  0.6966 -0.5185
21930SOL     OW71625   7.235  10.671   0.188  0.0731  0.7325  0.2308
21930SOL    HW171626   7.215  10.719   0.108 -0.3777  0.3748  0.1281
21930SOL    HW271627   7.167  10.604   0.194 -0.0664  0.9344  1.0581
21931SOL     OW71628   0.284   1.952   9.776  0.0948  0.6834  0.2826
21931SOL    HW171629   0.234   1.968   9.696 -0.4624  1.3138  0.7477
21931SOL    HW271630   0.225   1.976   9.847  0.5890  0.1471  0.8931
21932SOL     OW71631  10.423   4.809   2.320  0.7209  0.4588 -0.1775
21932SOL    HW171632  10.463   4.722   2.328 -0.6503 -0.3156 -1.3235
21932SOL    HW271633  10.393   4.830   2.408 -0.6013 -1.1062 -0.2046
21933SOL     OW71634   8.707   2.725   8.547  0.1470  0.3642 -0.3063
21933SOL    HW171635   8.798   2.725   8.576  0.2106  1.2768 -0.4749
21933SOL    HW271636   8.712   2.732   8.452 -0.1056  1.6650 -0.2330
21934SOL     OW71637  10.148   5.410   5.703  0.2062 -0.5025 -0.2034
21934SOL    HW171638  10.097   5.329   5.696 -1.3838  0.4007  0.6010
21934SOL    HW271639  10.123   5.461   5.626 -1.8787  0.8834  1.3144
21935SOL     OW71640   3.798   6.622   9.633  0.2090  0.0933  0.1437
21935SOL    HW171641   3.786   6.663   9.547 -0.0522 -1.7969 -0.7801
21935SOL    HW271642   3.709   6.608   9.665  0.2988  2.0761  1.4400
21936SOL     OW71643   0.896   4.866   2.343 -0.0749 -0.0011  0.3674
21936SOL    HW171644   0.955   4.938   2.366 -2.0816  0.8720  3.2358
21936SOL    HW271645   0.857   4.839   2.426 -0.6476 -3.3677 -0.8235
21937SOL     OW71646   9.716  10.550   0.015 -0.1076  0.3819  0.1622
21937SOL    HW171647   9.640  10.550  -0.043 -2.0456  0.5839  2.5349
21937SOL    HW271648   9.782  10.601  -0.031 -2.2172  2.1765 -1.0332
21938SOL     OW71649   3.584   3.151   1.861  0.3470 -0.0680  0.0141
21938SOL    HW171650   3.554   3.081   1.802  0.4387  0.9234 -1.2504
21938SOL    HW271651   3.678   3.155   1.848  0.4308 -0.1422  0.5773
21939SOL     OW71652   7.290   0.664   8.383 -0.5411 -0.4225  0.6214
21939SOL    HW171653   7.295   0.700   8.472  1.4818 -0.7619  0.6872
21939SOL    HW271654   7.207   0.698   8.349 -0.7197  0.8243  2.1582
21940SOL     OW71655   4.888   0.437   4.568  0.4714 -0.1602  0.2619
21940SOL    HW171656   4.922   0.518   4.606  1.0834 -0.1880 -0.1957
21940SOL    HW271657   4.946   0.369   4.602  0.8360 -0.2217 -0.4542
21941SOL     OW71658   9.426   8.003   3.966  0.3412  0.3305  0.0934
21941SOL    HW171659   9.502   8.031   4.015  0.3299  0.4443  0.0468
21941SOL    HW271660   9.351   8.023   4.023  0.3227  0.5248  0.0031
21942SOL     OW71661   4.565   6.832   8.072  0.1072  0.0938 -0.3558
21942SOL    HW171662   4.643   6.855   8.121  0.3340  0.8205 -1.0422
21942SOL    HW271663   4.598   6.806   7.986 -0.4453  1.1721 -0.9134
21943SOL     OW71664   5.790   5.193   4.423 -0.0806  0.2741 -0.1640
21943SOL    HW171665   5.722   5.207   4.357 -1.0067  1.6658  1.0273
21943SOL    HW271666   5.748   5.139   4.490  0.5330 -0.2996 -0.2383
21944SOL     OW71667   7.036   8.220   9.506  0.6151  0.1864 -0.1153
21944SOL    HW171668   7.003   8.180   9.425  1.5701 -0.5119 -0.1848
21944SOL    HW271669   7.044   8.146   9.567 -1.2804  0.8753  1.0640
21945SOL     OW71670  10.701   2.281   5.582  1.0014 -0.2896 -0.3075
21945SOL    HW171671  10.753   2.330   5.518  1.9269 -0.0709  0.5916
21945SOL    HW271672  10.761   2.267   5.656  0.4637 -1.9310 -0.1359
21946SOL     OW71673   6.068   4.502   8.708 -0.4395  0.6009  0.2312
21946SOL    HW171674   6.159   4.478   8.722 -0.7482 -0.5866  0.3241
21946SOL    HW271675   6.021   4.460   8.780 -1.1423  0.5877 -0.2274
21947SOL     OW71676   6.428   9.841   3.623  0.3257 -0.2893 -0.3170
21947SOL    HW171677   6.408   9.921   3.671 -0.8614 -0.9070  0.2858
21947SOL    HW271678   6.384   9.772   3.673  2.6015 -1.5462  0.0565
21948SOL     OW71679   7.153   6.048   8.140  0.7098  0.7730  0.0781
21948SOL    HW171680   7.067   6.090   8.130  0.2991 -0.2007 -0.7338
21948SOL    HW271681   7.136   5.956   8.120  1.8110  0.4338  0.6567
21949SOL     OW71682   9.917   4.391   5.341 -0.2041 -0.2007 -0.0403
21949SOL    HW171683   9.960   4.428   5.418 -0.5558  1.8165 -0.7475
21949SOL    HW271684   9.982   4.333   5.302  1.0970  1.0805  0.1313
21950SOL     OW71685   2.132   9.429   0.566 -0.1636 -0.4996 -0.2179
21950SOL    HW171686   2.141   9.335   0.549  3.2928 -0.4959  0.8052
21950SOL    HW271687   2.165   9.471   0.487  0.9338 -0.2341  0.3636
21951SOL     OW71688   2.386   9.111   6.899  0.4447  0.8046  0.8762
21951SOL    HW171689   2.363   9.109   6.991  0.8791  1.0437  0.9931
21951SOL    HW271690   2.393   9.019   6.874  1.4620  0.7322  1.3754
21952SOL     OW71691   8.928   5.112   0.525  0.0418  0.0682 -0.2069
21952SOL    HW171692   8.957   5.082   0.611  1.9188 -1.1406 -1.1957
21952SOL    HW271693   8.896   5.033   0.482 -2.9127  1.0032  0.0617
21953SOL     OW71694   7.862   1.586   9.715  0.0133 -0.1057 -0.0124
21953SOL    HW171695   7.799   1.629   9.772 -0.7972 -1.2011 -0.0457
21953SOL    HW271696   7.860   1.494   9.742  1.7723 -0.1371  0.1415
21954SOL     OW71697   7.130   5.487   6.337  0.0097  0.0880  0.1586
21954SOL    HW171698   7.148   5.576   6.370 -1.7819  0.9419 -1.0285
21954SOL    HW271699   7.036   5.476   6.348  0.2660 -1.8791  0.6915
21955SOL     OW71700   9.483   5.198   0.096 -0.2654  0.4755  0.5384
21955SOL    HW171701   9.437   5.258   0.037 -1.2900 -1.0796 -0.3420
21955SOL    HW271702   9.425   5.122   0.101  1.1590 -0.5985  1.2875
21956SOL     OW71703   7.866   3.950   2.442 -0.2467 -0.1961 -0.4544
21956SOL    HW171704   7.852   3.919   2.532 -1.3430 -2.6444 -1.3675
21956SOL    HW271705   7.945   3.903   2.413 -0.0265  0.4129 -0.8540
21957SOL     OW71706   9.043   8.065   3.755  0.0567  0.5065 -0.1911
21957SOL    HW171707   8.999   7.988   3.718 -0.0887  0.3643  0.2677
21957SOL    HW271708   9.047   8.047   3.849  0.3314  0.9070 -0.1243
21958SOL     OW71709   2.490   3.533   7.443 -0.3922  0.0284  0.2339
21958SOL    HW171710   2.525   3.444   7.448  3.1789  1.2920  0.1395
21958SOL    HW271711   2.434   3.541   7.521 -2.5614 -2.8402 -0.8264
21959SOL     OW71712   1.300   3.839   3.332 -0.1970  0.4962 -0.0489
21959SOL    HW171713   1.390   3.809   3.322 -0.5508 -0.5506 -0.2134
21959SOL    HW271714   1.281   3.827   3.425 -0.6241 -0.6633 -0.2708
21960SOL     OW71715   4.350   7.284   2.326  0.0859  0.0690 -0.0945
21960SOL    HW171716   4.342   7.201   2.278 -0.5074  0.1357 -0.1131
21960SOL    HW271717   4.266   7.295   2.370 -0.3970  1.3833 -1.2565
21961SOL     OW71718   8.112   7.203   3.048 -0.3315  0.1141  0.3310
21961SOL    HW171719   8.041   7.230   3.106 -0.8261  1.4376 -0.8344
21961SOL    HW271720   8.115   7.108   3.056 -1.0890  0.1778  1.6836
21962SOL     OW71721  10.443   1.327   9.032  0.7596 -0.2294 -0.0124
21962SOL    HW171722  10.407   1.277   8.958 -1.8831  0.5070  0.6598
21962SOL    HW271723  10.482   1.405   8.993  1.3420 -0.8900 -0.7687
21963SOL     OW71724   0.107   7.217   3.533 -0.1558 -0.3334  0.6367
21963SOL    HW171725   0.014   7.193   3.533 -0.0419 -0.8070  0.0852
21963SOL    HW271726   0.144   7.168   3.459  0.2236  1.0597 -0.1299
21964SOL     OW71727   9.789   7.420  10.155  0.5528  0.1758 -0.4942
21964SOL    HW171728   9.804   7.328  10.175 -3.0263 -1.2087 -3.0471
21964SOL    HW271729   9.815   7.429  10.063 -2.5316  0.5642 -1.4542
21965SOL     OW71730   3.925   3.897   5.342 -0.8019  0.0200 -0.3360
21965SOL    HW171731   3.940   3.808   5.375 -1.0317 -1.0986 -2.9945
21965SOL    HW271732   3.829   3.904   5.337 -0.7821  0.4125 -0.1191
21966SOL     OW71733   4.834  10.708   7.960  0.5749  0.3553 -0.0216
21966SOL    HW171734   4.847  10.615   7.940  1.1621  0.1657  1.1332
21966SOL    HW271735   4.857  10.754   7.879 -4.2236 -0.6621 -2.3001
21967SOL     OW71736   7.830   5.014   2.069  0.4791  0.2585  0.1254
21967SOL    HW171737   7.845   4.950   2.139 -0.3633 -0.6201 -0.4736
21967SOL    HW271738   7.737   5.035   2.075  0.5502  0.7104 -0.2816
21968SOL     OW71739   3.354   2.944   3.665 -0.1280  0.1234  0.8762
21968SOL    HW171740   3.445   2.949   3.635 -0.1140  0.0811  0.9108
21968SOL    HW271741   3.332   3.033   3.692  0.0799  0.0216  1.3844
21969SOL     OW71742   9.264   5.401  10.193 -0.2530  0.4121 -1.0512
21969SOL    HW171743   9.192   5.441  10.144 -0.9810 -0.2056 -0.5224
21969SOL    HW271744   9.301   5.473  10.244 -1.0893  0.5606 -0.6373
21970SOL     OW71745   1.496   3.662   6.497  0.7675  0.0161  0.0422
21970SOL    HW171746   1.413   3.697   6.464  1.3482  1.3954  0.0065
21970SOL    HW271747   1.490   3.568   6.480  0.0256  0.3541 -1.7700
21971SOL     OW71748   5.729  10.384   9.263  0.3623 -0.0655  0.2172
21971SOL    HW171749   5.690  10.375   9.350  0.5528 -0.2710  0.2855
21971SOL    HW271750   5.780  10.304   9.252 -0.1740 -0.3385 -0.3507
21972SOL     OW71751   0.504   3.568   7.969 -0.5183 -0.0093  0.4685
21972SOL    HW171752   0.482   3.615   8.049 -0.7557 -0.7678  0.8496
21972SOL    HW271753   0.420   3.548   7.928 -0.3917  0.7399 -0.2007
21973SOL     OW71754   8.078   8.854   9.358  0.2576  0.5974 -0.1968
21973SOL    HW171755   8.161   8.897   9.340  1.5652 -1.7626 -0.1549
21973SOL    HW271756   8.048   8.823   9.272 -0.9505  1.9673 -0.3109
21974SOL     OW71757   7.964   8.765   7.370 -0.5674  0.3684 -0.3794
21974SOL    HW171758   8.012   8.771   7.288  2.8447 -2.3356  1.1869
21974SOL    HW271759   7.943   8.856   7.392  1.2783  1.4543 -2.6473
21975SOL     OW71760   0.937   1.526   2.101  0.1584 -0.9430  0.5727
21975SOL    HW171761   0.921   1.506   2.009  1.4255 -0.9832  0.3360
21975SOL    HW271762   1.029   1.503   2.115  1.1185  2.5069  0.8681
21976SOL     OW71763   8.423  10.064   3.228 -0.2630 -0.0788 -0.2818
21976SOL    HW171764   8.388   9.984   3.189  2.3023 -0.2521 -2.5679
21976SOL    HW271765   8.404  10.132   3.163 -2.2025  1.2356  1.5248
21977SOL     OW71766   9.434   9.549   0.189 -0.1655 -0.0867  0.4353
21977SOL    HW171767   9.519   9.571   0.228  0.2903  4.2904 -2.3905
21977SOL    HW271768   9.456   9.493   0.115 -0.0371 -0.9233  1.0958
21978SOL     OW71769   4.220   2.810   4.361 -0.2366  0.1972 -0.0789
21978SOL    HW171770   4.153   2.837   4.423 -2.6679  0.2084 -2.5026
21978SOL    HW271771   4.224   2.715   4.368 -1.7683  0.0317 -1.0174
21979SOL     OW71772   2.612   0.658   3.221  0.2746  0.0818  0.4497
21979SOL    HW171773   2.695   0.683   3.261  0.4519 -2.1049  1.5897
21979SOL    HW271774   2.628   0.571   3.184 -0.6188  0.9606 -2.2801
21980SOL     OW71775   8.947   6.901   9.661  0.1148  0.7150  0.5899
21980SOL    HW171776   8.862   6.880   9.699  0.4185  0.6325  1.2309
21980SOL    HW271777   8.926   6.943   9.577 -0.5403  0.1801  0.4774
21981SOL     OW71778   8.529   5.056   2.518  0.1857  0.4756 -0.5260
21981SOL    HW171779   8.594   5.004   2.472  0.0617 -0.6655  0.5418
21981SOL    HW271780   8.467   5.083   2.450  1.7117  1.5654 -1.5580
21982SOL     OW71781   5.090   5.886   6.725  0.5416  0.0064 -0.5889
21982SOL    HW171782   5.124   5.797   6.736 -0.6851 -0.4472 -0.3724
21982SOL    HW271783   5.003   5.884   6.765  1.0660  1.7126  0.7648
21983SOL     OW71784   3.816   9.833   2.678  0.1375 -0.3819  0.2702
21983SOL    HW171785   3.821   9.901   2.744  1.5799  0.1964 -0.3874
21983SOL    HW271786   3.753   9.769   2.713  0.0899  0.4107  1.6873
21984SOL     OW71787   7.736   4.958   0.522  0.2928 -0.2545 -0.0412
21984SOL    HW171788   7.697   4.971   0.609 -0.3017 -1.5792 -0.0768
21984SOL    HW271789   7.665   4.921   0.470  1.1871 -1.3988 -0.5063
21985SOL     OW71790   7.195  10.313   7.533  0.2013  0.2505 -0.1192
21985SOL    HW171791   7.285  10.339   7.516 -0.3191  2.3915  0.0430
21985SOL    HW271792   7.159  10.289   7.448  0.4826  0.9844 -0.4523
21986SOL     OW71793   2.577   8.726   8.460 -0.2763  0.2114 -0.2124
21986SOL    HW171794   2.491   8.759   8.437 -1.6025 -1.4340  1.9430
21986SOL    HW271795   2.612   8.791   8.521 -0.1087  0.7356 -0.8631
21987SOL     OW71796   7.720   5.044   7.512 -0.4356 -0.3368  0.1569
21987SOL    HW171797   7.766   4.961   7.496 -0.0720 -0.0294 -0.4103
21987SOL    HW271798   7.683   5.068   7.428 -0.0140  0.3964  0.1747
21988SOL     OW71799   5.184   1.768   7.322  1.1310 -0.3300 -0.1693
21988SOL    HW171800   5.277   1.770   7.345  1.3881  1.4021 -1.2251
21988SOL    HW271801   5.156   1.859   7.325 -1.0281 -0.9760  1.8667
21989SOL     OW71802   7.377   7.994  10.659 -0.6222  0.3005  0.3651
21989SOL    HW171803   7.442   7.983  10.590 -1.7874  0.2364 -0.7550
21989SOL    HW271804   7.298   7.950  10.626 -1.1162 -0.0615  1.8925
21990SOL     OW71805   9.138   7.314   7.818  0.3260 -0.2259  0.0461
21990SOL    HW171806   9.102   7.279   7.900  1.8493  0.3597  1.0003
21990SOL    HW271807   9.197   7.246   7.787  0.1198 -0.2413 -0.3123
21991SOL     OW71808   1.726   3.435   6.870  0.1304  0.0289  0.5303
21991SOL    HW171809   1.670   3.382   6.927 -0.4249 -2.8331 -2.3769
21991SOL    HW271810   1.760   3.372   6.806  2.7268  2.5744 -0.7984
21992SOL     OW71811   5.299   8.836   8.485  0.4325 -0.1246 -0.5169
21992SOL    HW171812   5.247   8.819   8.406  0.1768  0.5023 -0.4889
21992SOL    HW271813   5.235   8.862   8.551  0.5355 -1.6058  0.2002
21993SOL     OW71814   2.217   1.050   5.684  0.5701 -0.4115 -0.4247
21993SOL    HW171815   2.149   1.009   5.630  0.5600 -1.8800  0.6201
21993SOL    HW271816   2.289   1.067   5.623 -0.1581 -0.2540 -1.2585
21994SOL     OW71817   7.150  10.415   2.181  0.9449 -0.4570  0.3218
21994SOL    HW171818   7.214  10.486   2.174  0.3904 -0.0137 -0.4136
21994SOL    HW271819   7.121  10.418   2.273  0.0362  1.0926  0.0199
21995SOL     OW71820   4.469   9.536   3.655  0.0531 -0.3597 -0.2500
21995SOL    HW171821   4.402   9.515   3.719  0.9208 -1.1042  0.4473
21995SOL    HW271822   4.460   9.630   3.641 -1.6671 -0.5822 -0.8191
21996SOL     OW71823   4.791   1.951   9.182  0.3231 -0.2748  0.3673
21996SOL    HW171824   4.872   1.906   9.205  0.4537 -1.0413 -1.4403
21996SOL    HW271825   4.723   1.886   9.194  0.0651  0.0995  1.0119
21997SOL     OW71826   9.003   5.851   2.120  0.1510 -0.0236  0.4195
21997SOL    HW171827   8.988   5.928   2.065 -0.8208 -0.3415  0.2078
21997SOL    HW271828   9.061   5.796   2.068 -0.4261 -0.1331 -0.1205
21998SOL     OW71829   7.919   7.813   4.739 -0.2395  0.2593 -0.8640
21998SOL    HW171830   7.996   7.801   4.794  0.2731  1.1029 -1.3685
21998SOL    HW271831   7.942   7.886   4.682 -1.0747 -0.0579 -1.6310
21999SOL     OW71832   7.068   3.867   4.500  0.6776 -0.5489 -0.4581
21999SOL    HW171833   7.144   3.925   4.511 -0.6480  1.4187 -1.1104
21999SOL    HW271834   7.059   3.857   4.406 -2.8358  3.6382 -0.8504
22000SOL     OW71835   3.227  10.280  10.310  0.3006 -0.4413  0.5396
22000SOL    HW171836   3.179  10.262  10.229  0.0681  0.0147  0.5714
22000SOL    HW271837   3.183  10.226  10.376  1.9069 -2.6043 -0.0370
22001SOL     OW71838   3.750   8.112   2.928  0.5888  0.4559  0.0766
22001SOL    HW171839   3.737   8.192   2.979 -0.1862  0.3905  0.0028
22001SOL    HW271840   3.760   8.043   2.994 -0.1430  0.4122  0.1509
22002SOL     OW71841  10.192   9.663   5.144 -0.4708 -0.3153 -0.4410
22002SOL    HW171842  10.228   9.673   5.056 -1.7428 -1.0281 -1.0690
22002SOL    HW271843  10.254   9.710   5.200  1.4607 -1.5329 -1.4217
22003SOL     OW71844   7.033   0.755   0.107 -0.1772 -0.0903  0.4023
22003SOL    HW171845   6.950   0.733   0.066 -0.0841  0.3172 -0.0191
22003SOL    HW271846   7.054   0.680   0.163 -1.0510  0.0107  0.8744
22004SOL     OW71847   0.207   6.279  10.338 -0.3249 -0.2336 -0.1788
22004SOL    HW171848   0.159   6.267  10.255  0.4809  4.1310 -1.5491
22004SOL    HW271849   0.143   6.321  10.395 -0.2466 -1.3085  0.7208
22005SOL     OW71850   9.151   1.954   7.085 -0.2498  0.7175  0.5745
22005SOL    HW171851   9.120   2.044   7.071  2.1119  1.6580  0.9415
22005SOL    HW271852   9.150   1.944   7.181 -0.7485  0.2347  0.5226
22006SOL     OW71853   8.226   3.480  10.346 -0.0457  0.0937 -0.4330
22006SOL    HW171854   8.152   3.427  10.316  1.0571 -0.8539 -1.6349
22006SOL    HW271855   8.302   3.424  10.329  0.8614  0.4648  2.0553
22007SOL     OW71856   1.107   6.357   0.230 -0.3408  0.0580  0.3497
22007SOL    HW171857   1.038   6.291   0.216  2.4345 -2.5501 -2.8682
22007SOL    HW271858   1.167   6.316   0.291 -0.3192  1.1966  1.1135
22008SOL     OW71859   0.289   8.589   0.088  0.1538 -0.1506 -0.1076
22008SOL    HW171860   0.216   8.609   0.147 -2.5730 -0.9635 -2.9740
22008SOL    HW271861   0.298   8.668   0.034  0.2437 -0.6823 -0.8840
22009SOL     OW71862   6.583   8.157   2.690  0.0948  0.0920 -0.4046
22009SOL    HW171863   6.654   8.216   2.663 -0.1052  1.1152  1.1960
22009SOL    HW271864   6.615   8.115   2.769 -1.6787  1.8944  1.3922
22010SOL     OW71865   6.846   2.212   6.092 -0.7685  0.5048  0.3069
22010SOL    HW171866   6.775   2.164   6.133 -0.7464  0.0645 -0.1713
22010SOL    HW271867   6.817   2.304   6.093 -1.8747  0.2021 -0.9517
22011SOL     OW71868   1.640   9.516   5.367  0.3999 -0.3057  0.3260
22011SOL    HW171869   1.593   9.558   5.295  1.3474 -1.5590 -1.0980
22011SOL    HW271870   1.575   9.461   5.410 -0.1359  0.3176  0.3240
22012SOL     OW71871   4.381   3.273   4.032 -0.2377 -0.0864  0.5616
22012SOL    HW171872   4.424   3.337   4.090 -0.3024  1.2470 -0.8064
22012SOL    HW271873   4.453   3.233   3.984 -0.2965 -0.0880  0.4747
22013SOL     OW71874   4.297   2.254   6.231  0.3081  0.2828 -0.4126
22013SOL    HW171875   4.369   2.220   6.284  0.7494  0.7213 -0.7214
22013SOL    HW271876   4.302   2.349   6.241 -0.7769  0.2845  0.2691
22014SOL     OW71877   0.451   1.020   9.740  0.2293 -0.1748  0.0662
22014SOL    HW171878   0.454   1.102   9.789 -1.3649 -0.0913  0.0838
22014SOL    HW271879   0.415   1.045   9.655  0.6451 -0.7098 -0.2709
22015SOL     OW71880   9.650   6.019   9.371 -1.0393 -0.0228  0.3461
22015SOL    HW171881   9.616   6.013   9.460  2.1870 -0.1666  1.7126
22015SOL    HW271882   9.674   6.111   9.360 -1.6623  0.0580 -0.5395
22016SOL     OW71883   1.196  10.060  10.176 -0.1256 -0.0065 -0.1463
22016SOL    HW171884   1.241  10.124  10.120 -2.0389  1.7183  0.1533
22016SOL    HW271885   1.189  10.104  10.260 -0.2221 -1.2353  0.5055
22017SOL     OW71886   3.458   3.021   1.250 -0.3728 -0.1035 -0.1208
22017SOL    HW171887   3.537   3.055   1.207 -0.2114 -0.3544 -0.0275
22017SOL    HW271888   3.433   3.091   1.311  1.7658 -1.3197  2.3615
22018SOL     OW71889   8.975   1.401   7.193 -0.1101  0.3820 -0.3729
22018SOL    HW171890   8.892   1.418   7.149  0.3153 -1.9637 -2.3322
22018SOL    HW271891   9.041   1.430   7.130  0.5326  0.2217  0.2294
22019SOL     OW71892  10.440   3.487   5.204 -0.0960  0.1526  0.2114
22019SOL    HW171893  10.447   3.393   5.217  0.0880 -0.0586 -1.2737
22019SOL    HW271894  10.346   3.504   5.197 -0.0601 -0.2476 -1.5813
22020SOL     OW71895   7.071   0.646   8.118 -0.1937  0.1828 -0.1492
22020SOL    HW171896   7.142   0.582   8.116  0.8194  1.0641  2.4525
22020SOL    HW271897   7.105   0.721   8.070 -0.7071 -0.5266 -1.6991
22021SOL     OW71898   8.595   2.148   7.348  0.4889 -0.1449 -0.3733
22021SOL    HW171899   8.600   2.166   7.442  2.0184  1.3446 -0.6904
22021SOL    HW271900   8.511   2.103   7.337  0.0723  0.0329  1.6342
22022SOL     OW71901   3.106   9.428   1.205 -0.7299 -0.1079  0.5955
22022SOL    HW171902   3.010   9.421   1.206 -0.7552  0.2299  1.1484
22022SOL    HW271903   3.135   9.372   1.277 -0.4977 -0.3747  0.2941
22023SOL     OW71904   4.680   9.893   9.810 -0.0716  0.2762 -0.2437
22023SOL    HW171905   4.730   9.812   9.818 -0.1169  0.1487 -1.1494
22023SOL    HW271906   4.746   9.963   9.812 -0.0069  0.2065  0.2167
22024SOL     OW71907   1.438   1.267  10.532 -0.0224  0.2415 -0.3890
22024SOL    HW171908   1.360   1.212  10.530  0.4299 -0.5016  1.1420
22024SOL    HW271909   1.456   1.286  10.440 -0.9700 -1.0457 -0.8695
22025SOL     OW71910   7.209   8.724   1.178 -0.8001 -0.0549 -0.5196
22025SOL    HW171911   7.161   8.807   1.185  0.1592  0.4937 -0.2993
22025SOL    HW271912   7.244   8.709   1.265  0.6015  0.2902 -1.0010
22026SOL     OW71913   1.168   7.369   1.940  0.0971  0.1007  0.2850
22026SOL    HW171914   1.088   7.321   1.959 -0.1444  0.9242  1.5050
22026SOL    HW271915   1.212   7.376   2.025  1.1739  0.1697 -0.2623
22027SOL     OW71916   9.633  10.616   5.125 -0.3462 -0.0309  0.5908
22027SOL    HW171917   9.619  10.561   5.049  0.5730  0.6300 -0.0893
22027SOL    HW271918   9.701  10.572   5.176 -2.7673 -1.8628  2.4959
22028SOL     OW71919   7.972   2.391   8.663  0.2079  0.5432  0.7195
22028SOL    HW171920   8.037   2.404   8.594  1.0330 -0.4483  1.2674
22028SOL    HW271921   7.891   2.428   8.628 -0.4192 -3.1754 -2.4103
22029SOL     OW71922  10.266   4.093   1.330 -0.2966  0.1248 -0.2041
22029SOL    HW171923  10.237   4.177   1.294  0.7673 -0.2194 -1.9692
22029SOL    HW271924  10.345   4.114   1.380 -0.5521  0.3023  0.1260
22030SOL     OW71925   1.879   3.558   5.303 -0.7870 -0.2519 -0.0039
22030SOL    HW171926   1.903   3.646   5.331 -2.6109  0.0559  0.7291
22030SOL    HW271927   1.954   3.504   5.328 -0.6043  0.7097  1.7328
22031SOL     OW71928   6.967  10.636   1.912 -0.4496  0.2887 -0.5389
22031SOL    HW171929   6.916  10.558   1.932  1.0830 -0.7872 -0.7468
22031SOL    HW271930   6.978  10.680   1.996 -1.2782  0.2726 -0.4172
22032SOL     OW71931   9.406   6.660   1.396 -0.0748 -0.1146  0.2663
22032SOL    HW171932   9.416   6.754   1.382 -0.2918 -0.0894  0.2738
22032SOL    HW271933   9.460   6.620   1.328  1.4529  0.0208  1.3646
22033SOL     OW71934  10.685   8.292   1.611  0.2705 -0.3077  0.4009
22033SOL    HW171935  10.617   8.303   1.545  1.9046  0.0202 -1.3305
22033SOL    HW271936  10.690   8.197   1.625 -0.0427 -0.3825  0.0032
22034SOL     OW71937   2.982   9.502   0.500  0.0038 -1.4939  0.1376
22034SOL    HW171938   3.073   9.510   0.531  0.0921  0.0076 -0.4359
22034SOL    HW271939   2.972   9.408   0.482  1.4851 -1.6782  0.0945
22035SOL     OW71940   3.038   3.623   3.176  0.7131  0.5477 -0.7162
22035SOL    HW171941   3.094   3.622   3.098  0.1077 -2.3835 -1.2276
22035SOL    HW271942   2.950   3.639   3.143  0.4129 -0.9747 -0.7262
22036SOL     OW71943   4.177   9.005   7.023  0.1892  0.1085  0.2602
22036SOL    HW171944   4.186   9.048   7.108 -0.4388  1.4705 -0.3294
22036SOL    HW271945   4.138   8.920   7.043  2.8832 -0.9210  1.6092
22037SOL     OW71946   8.284   2.122   2.042 -0.8257 -0.2510  0.1096
22037SOL    HW171947   8.320   2.068   1.972 -2.7973 -1.9289  0.3139
22037SOL    HW271948   8.191   2.101   2.044 -1.0406  0.5916  2.5111
22038SOL     OW71949   8.430   0.474   7.941 -0.4840  0.8859  0.3007
22038SOL    HW171950   8.442   0.383   7.968  0.6420  1.2826  1.2429
22038SOL    HW271951   8.452   0.474   7.848  0.0223  0.2710  0.4066
22039SOL     OW71952   9.520   9.905   4.460 -0.6443  0.2335  0.4718
22039SOL    HW171953   9.438   9.942   4.492 -0.8756 -2.2200  3.2363
22039SOL    HW271954   9.499   9.813   4.440  1.3246 -0.4074  1.0529
22040SOL     OW71955   1.914   0.164   6.689  0.4929  0.1195 -0.0006
22040SOL    HW171956   1.941   0.081   6.649  0.4362  0.7875 -1.5062
22040SOL    HW271957   1.823   0.149   6.716  0.9117 -0.7274  1.0113
22041SOL     OW71958   9.245   0.062   3.546 -0.2210  0.4193  0.0415
22041SOL    HW171959   9.300  -0.013   3.572 -2.9951 -2.0955 -0.8022
22041SOL    HW271960   9.263   0.072   3.452 -0.0614  0.6422  0.0955
22042SOL     OW71961   2.514   5.517   3.969  1.0337  0.5401  0.1786
22042SOL    HW171962   2.538   5.465   4.046  1.8481  1.9012  0.8810
22042SOL    HW271963   2.591   5.513   3.913  0.1793 -1.0464 -0.9395
22043SOL     OW71964   5.728   5.170   2.990 -0.4369 -0.4541  0.4797
22043SOL    HW171965   5.823   5.171   2.989 -0.4319  1.5600  0.0079
22043SOL    HW271966   5.705   5.164   3.083  0.1009 -2.1960  0.5365
22044SOL     OW71967   0.181   4.298   0.210 -0.1793 -0.8514 -0.0956
22044SOL    HW171968   0.087   4.280   0.210 -0.4774  0.5801  0.1081
22044SOL    HW271969   0.196   4.347   0.129  0.3202 -0.7685  0.0419
22045SOL     OW71970   1.289   8.292  10.478  0.1655 -0.2270  0.5078
22045SOL    HW171971   1.317   8.273  10.389  0.6228 -0.8770  0.7772
22045SOL    HW271972   1.347   8.239  10.533  0.1090  0.4224  1.2076
22046SOL     OW71973   0.355   4.800   9.681 -0.4547  0.1443  0.3485
22046SOL    HW171974   0.341   4.706   9.683 -0.8092  0.1794 -0.2469
22046SOL    HW271975   0.443   4.813   9.716 -1.4609 -0.1738  3.3127
22047SOL     OW71976   3.275   7.314   6.888  0.1187 -0.0005 -0.0462
22047SOL    HW171977   3.203   7.292   6.947 -0.1525 -1.0848 -0.7774
22047SOL    HW271978   3.286   7.238   6.832  1.0503  0.6166 -0.7421
22048SOL     OW71979   4.524  10.470   1.166  0.1459 -0.4828 -0.5232
22048SOL    HW171980   4.513  10.464   1.261  2.6043 -1.2494 -0.2028
22048SOL    HW271981   4.617  10.452   1.152  0.3724  1.8459 -2.8950
22049SOL     OW71982   9.372   6.647   0.173 -0.1304 -0.1968  0.0178
22049SOL    HW171983   9.396   6.578   0.235 -1.6352 -0.6401  0.1484
22049SOL    HW271984   9.293   6.686   0.210 -0.3994  0.3009 -1.0404
22050SOL     OW71985   5.951  10.179   2.886  0.1428  0.1626 -0.1945
22050SOL    HW171986   6.042  10.176   2.915  0.2324  1.7112 -0.2836
22050SOL    HW271987   5.901  10.195   2.966  0.2182  2.2784 -0.5176
22051SOL     OW71988  10.689   0.428   8.168  0.2972  0.0392  0.0393
22051SOL    HW171989  10.707   0.427   8.262 -0.1200 -3.0938  0.2118
22051SOL    HW271990  10.768   0.464   8.128  0.8144  0.6533  1.5535
22052SOL     OW71991   0.352   7.142   3.659 -0.2592  0.3105  0.2532
22052SOL    HW171992   0.354   7.227   3.703  0.1365  1.5821 -2.0331
22052SOL    HW271993   0.273   7.146   3.605  0.1461 -0.4771 -0.4157
22053SOL     OW71994   9.395   1.261   9.162 -0.0166  0.2708 -0.3383
22053SOL    HW171995   9.388   1.352   9.193  0.9260  0.2657 -0.0774
22053SOL    HW271996   9.432   1.268   9.074  0.7648  0.1123 -0.0302
22054SOL     OW71997   0.617   2.111   1.087 -0.6807  0.2724  0.5074
22054SOL    HW171998   0.633   2.042   1.151 -1.6897  1.0344  1.6041
22054SOL    HW271999   0.676   2.089   1.014 -0.9895 -1.7441  0.7989
22055SOL     OW72000   8.174   9.897   1.894 -0.3366  0.0391  0.0857
22055SOL    HW172001   8.205   9.987   1.881 -0.3983  0.3818  2.0008
22055SOL    HW272002   8.206   9.849   1.818  1.1671  1.3067 -0.1246
22056SOL     OW72003  10.379   8.735   3.874 -0.7542  0.1362 -0.7078
22056SOL    HW172004  10.295   8.779   3.886 -1.3829 -0.8906 -1.1414
22056SOL    HW272005  10.381   8.714   3.780 -0.3437 -0.4686 -0.5702
22057SOL     OW72006   5.924   5.576   8.091  0.0034 -0.5660 -0.3582
22057SOL    HW172007   5.911   5.489   8.054  2.1089 -0.8740 -0.4604
22057SOL    HW272008   5.943   5.632   8.016 -0.4247 -0.1923 -0.1937
22058SOL     OW72009   2.862   1.730   4.430 -0.1525 -0.3572 -0.2078
22058SOL    HW172010   2.906   1.654   4.466  0.8224  0.5411  0.5548
22058SOL    HW272011   2.770   1.721   4.457  0.4592  0.0780  2.2116
22059SOL     OW72012   2.037  10.095   7.287  0.1863 -0.1233  0.8545
22059SOL    HW172013   2.080  10.015   7.317  0.6459  0.5416  2.0229
22059SOL    HW272014   2.106  10.144   7.242  0.2184  0.1780  1.2322
22060SOL     OW72015   1.842  10.318   2.757 -0.4678 -0.1382 -0.1780
22060SOL    HW172016   1.773  10.269   2.802  0.2888 -0.9427  0.1298
22060SOL    HW272017   1.852  10.273   2.673 -0.7467  0.3664 -0.4896
22061SOL     OW72018   3.106   3.599   2.931  0.3176 -0.1805  0.2245
22061SOL    HW172019   3.042   3.656   2.887  0.4993 -0.5647 -0.5461
22061SOL    HW272020   3.063   3.514   2.936  1.5334 -1.0364 -2.2620
22062SOL     OW72021   7.240   0.352   4.950 -0.0568  0.4096 -0.4039
22062SOL    HW172022   7.234   0.442   4.984  2.5578  0.6674 -0.4547
22062SOL    HW272023   7.270   0.300   5.025 -0.8816 -0.3392 -0.5678
22063SOL     OW72024   3.511   4.577   4.461  0.6027 -0.0581 -0.0358
22063SOL    HW172025   3.501   4.529   4.544  0.0827  0.9285  0.4885
22063SOL    HW272026   3.595   4.548   4.426 -0.7059 -3.1921 -0.9592
22064SOL     OW72027   3.390   1.479   8.460  0.3497  0.2879  0.2951
22064SOL    HW172028   3.312   1.423   8.469  0.8213 -0.1740  1.9021
22064SOL    HW272029   3.360   1.554   8.409 -0.8033 -0.4996 -0.2403
22065SOL     OW72030   5.240  10.235   8.248  0.1633 -0.5435  0.2371
22065SOL    HW172031   5.206  10.287   8.175  0.8911 -0.9187 -0.3802
22065SOL    HW272032   5.185  10.260   8.323 -0.5984 -0.1663 -0.4360
22066SOL     OW72033   0.385   1.210   1.859  0.0693 -0.5927 -0.2755
22066SOL    HW172034   0.462   1.172   1.903 -0.6639  0.4379  2.0876
22066SOL    HW272035   0.384   1.301   1.888 -1.5256 -0.3437 -1.0385
22067SOL     OW72036   9.428   1.952   4.419  0.0861 -0.0424  0.2319
22067SOL    HW172037   9.351   1.967   4.365  0.5924 -0.3775 -0.6218
22067SOL    HW272038   9.462   1.868   4.388  0.0986 -0.4995  1.4506
22068SOL     OW72039   6.657   6.682   7.612 -0.2195  0.2759 -0.0002
22068SOL    HW172040   6.579   6.734   7.630  1.2857  2.2958  1.1439
22068SOL    HW272041   6.662   6.678   7.516 -1.3417  0.6633 -0.0891
22069SOL     OW72042   4.954   8.802  10.639  0.5043 -0.4186 -0.9954
22069SOL    HW172043   4.971   8.796  10.545  1.0417 -1.7047 -0.8322
22069SOL    HW272044   4.882   8.865  10.646  0.6725 -0.0625 -2.2369
22070SOL     OW72045   0.546   4.125   0.650  0.1817 -0.0731  0.1159
22070SOL    HW172046   0.470   4.160   0.696  0.3477 -0.0694  0.3924
22070SOL    HW272047   0.581   4.199   0.601  0.4111  0.1029  0.5356
22071SOL     OW72048   5.457   9.042   8.847  0.1076 -0.1003  0.0936
22071SOL    HW172049   5.475   8.948   8.847  0.9386  0.0042  2.1952
22071SOL    HW272050   5.417   9.058   8.762  1.4692 -2.0484 -1.0061
22072SOL     OW72051   7.828   9.486   5.945 -0.2060  0.1216 -0.3467
22072SOL    HW172052   7.847   9.456   6.034  1.8704  2.3854  0.0763
22072SOL    HW272053   7.734   9.469   5.934 -0.5055 -0.3591  2.1987
22073SOL     OW72054   5.198   6.156   7.994  0.2289 -0.0676 -0.0112
22073SOL    HW172055   5.258   6.082   8.004  0.1369 -0.0866  0.3867
22073SOL    HW272056   5.230   6.222   8.056  0.4209  0.2986 -0.4946
22074SOL     OW72057   6.174   7.052   0.956  0.2672  0.0284 -0.1820
22074SOL    HW172058   6.265   7.028   0.973  0.7979  1.1221 -1.2955
22074SOL    HW272059   6.122   6.984   1.000  1.6281 -1.0884 -0.2346
22075SOL     OW72060   3.320   4.487   3.951 -0.2002 -0.2720 -0.3010
22075SOL    HW172061   3.306   4.510   3.859 -0.7299  0.9479  0.0742
22075SOL    HW272062   3.242   4.518   3.996  1.3597  2.0021  1.0467
22076SOL     OW72063   8.568  10.632   5.593 -0.1029 -0.1407  0.6049
22076SOL    HW172064   8.661  10.644   5.573 -0.2369  1.8984  0.9652
22076SOL    HW272065   8.566  10.630   5.689 -0.7337  4.2995  0.9000
22077SOL     OW72066   0.874   8.864   1.076 -0.2672 -0.1032  0.0732
22077SOL    HW172067   0.906   8.781   1.042 -0.5128 -0.4507  0.6895
22077SOL    HW272068   0.792   8.843   1.120 -1.4385  0.7812 -1.5501
22078SOL     OW72069   9.968   3.339   1.346  0.3972 -0.0786  0.0477
22078SOL    HW172070  10.064   3.341   1.350  0.3798  0.9393  0.3284
22078SOL    HW272071   9.943   3.430   1.330 -0.4918 -0.5080 -1.0781
22079SOL     OW72072   8.302   6.842   0.940 -0.5283  0.1753 -0.2839
22079SOL    HW172073   8.283   6.926   0.983  0.1958 -0.8896  2.3476
22079SOL    HW272074   8.390   6.819   0.969 -0.2589 -0.9846 -1.8754
22080SOL     OW72075   2.260   4.211   2.904  1.0956  0.4202 -0.0719
22080SOL    HW172076   2.335   4.187   2.849  0.6241  0.8875 -0.9441
22080SOL    HW272077   2.231   4.295   2.869 -2.0356 -1.2945 -2.1812
22081SOL     OW72078   6.468   1.791   9.921  0.0206 -0.3903  0.3207
22081SOL    HW172079   6.413   1.820   9.994  2.0229  0.9229  1.3842
22081SOL    HW272080   6.498   1.704   9.947 -2.3326 -1.6263 -0.7830
22082SOL     OW72081   0.414   0.346   8.683 -0.0285  0.0120  0.4393
22082SOL    HW172082   0.414   0.343   8.587 -0.3846  0.4430  0.4216
22082SOL    HW272083   0.501   0.316   8.708  0.6519  1.4897 -0.0794
22083SOL     OW72084   8.256   6.382   3.002  0.4808 -0.3640 -0.5452
22083SOL    HW172085   8.186   6.319   3.019 -0.4925  0.8463  0.0296
22083SOL    HW272086   8.337   6.331   3.012 -0.1565 -0.9838  2.5707
22084SOL     OW72087   1.436   6.063   6.481 -0.8695  0.4035 -0.2979
22084SOL    HW172088   1.408   6.005   6.552 -0.4908 -0.1480 -0.5837
22084SOL    HW272089   1.522   6.096   6.510  0.4054 -1.6478 -1.4709
22085SOL     OW72090   3.127   3.835   8.249 -0.5745  0.5869  0.3611
22085SOL    HW172091   3.170   3.910   8.290  1.8015  0.0179 -0.8973
22085SOL    HW272092   3.107   3.863   8.160 -1.4230  0.3402  0.4697
22086SOL     OW72093  10.166   2.742   8.093 -0.0349  0.4578 -0.9059
22086SOL    HW172094  10.191   2.802   8.022  1.0576  0.4707 -0.5338
22086SOL    HW272095  10.070   2.748   8.097 -0.1016  0.5441 -2.2915
22087SOL     OW72096   9.122   7.471   4.527  0.4274 -0.3565 -0.0164
22087SOL    HW172097   9.156   7.537   4.587  1.6307  0.6779 -1.7515
22087SOL    HW272098   9.034   7.453   4.560  0.4402  1.3597  1.1067
22088SOL     OW72099   8.966   4.816   3.709 -0.5462 -0.0709  0.1363
22088SOL    HW172100   9.013   4.732   3.711 -1.3255 -0.5026  1.5507
22088SOL    HW272101   9.033   4.882   3.721 -0.2407 -0.6733  2.0461
22089SOL     OW72102   1.873   1.544   5.143 -0.3938  0.5372 -0.0032
22089SOL    HW172103   1.814   1.553   5.217  1.0119  0.2777  1.1970
22089SOL    HW272104   1.894   1.451   5.140 -3.2317 -0.1777 -3.0472
22090SOL     OW72105   7.296   6.129   6.714 -0.0545  0.7923  0.0454
22090SOL    HW172106   7.249   6.057   6.755  0.4794  0.2469 -0.2833
22090SOL    HW272107   7.228   6.181   6.671 -0.4836  0.6986  0.6049
22091SOL     OW72108  10.281  10.197   2.940  0.1342  0.6514 -0.5072
22091SOL    HW172109  10.327  10.236   2.865 -0.7124 -1.5922 -2.3207
22091SOL    HW272110  10.189  10.216   2.923 -0.0130  0.7160  0.3523
22092SOL     OW72111  10.599  10.606  10.239 -0.1567  0.4015 -0.6606
22092SOL    HW172112  10.636  10.594  10.151 -0.8105  0.7092 -0.9821
22092SOL    HW272113  10.671  10.583  10.298  0.2557  0.0775 -1.2719
22093SOL     OW72114  10.293   7.513  10.415  0.5489 -0.5615 -0.1796
22093SOL    HW172115  10.225   7.536  10.478  0.4905 -0.4424 -0.2850
22093SOL    HW272116  10.373   7.551  10.451  0.8772 -2.0457  0.7615
22094SOL     OW72117   6.330   0.150   4.048 -0.6703  0.2673 -0.2140
22094SOL    HW172118   6.384   0.176   3.973 -1.9401 -1.5541 -1.8744
22094SOL    HW272119   6.393   0.128   4.116  0.5103  2.8196 -0.3841
22095SOL     OW72120   5.550  10.647   3.696 -0.3468  0.2241 -0.3917
22095SOL    HW172121   5.636  10.612   3.720 -1.1324 -1.8801 -0.3926
22095SOL    HW272122   5.497  10.633   3.774 -0.9745  0.4605 -0.7750
22096SOL     OW72123   0.262   2.906   9.079 -0.2729 -0.1854 -0.4695
22096SOL    HW172124   0.260   2.884   8.986 -0.7454 -0.6431 -0.3616
22096SOL    HW272125   0.241   2.823   9.123 -0.2063  0.0630  0.0340
22097SOL     OW72126   4.642   3.401   0.448 -0.0587  0.3769  0.1134
22097SOL    HW172127   4.704   3.441   0.386  2.3004 -0.1876  1.9409
22097SOL    HW272128   4.643   3.459   0.524 -0.9367 -0.2434  0.6130
22098SOL     OW72129   2.588   8.518   3.980  0.0248  0.1363  0.3981
22098SOL    HW172130   2.676   8.509   3.945 -0.0325 -0.9836  0.5005
22098SOL    HW272131   2.599   8.511   4.075 -0.3021 -1.4380  0.3515
22099SOL     OW72132   6.498   5.005   5.845 -0.1559 -0.0078  0.5226
22099SOL    HW172133   6.552   4.996   5.766 -1.2121  2.0258 -0.4886
22099SOL    HW272134   6.428   4.941   5.833  1.2089 -1.7657  1.2566
22100SOL     OW72135   7.346   6.856   9.252 -0.3149 -0.0085  0.0138
22100SOL    HW172136   7.326   6.884   9.341 -1.0079 -0.8256  0.1280
22100SOL    HW272137   7.397   6.776   9.263  1.5776  1.0847 -0.3082
22101SOL     OW72138   1.619   2.872   8.011  0.2257  0.1090 -0.2018
22101SOL    HW172139   1.650   2.961   7.996 -0.0686  0.2411 -0.0355
22101SOL    HW272140   1.690   2.829   8.059  0.2422  0.3414 -0.0201
22102SOL     OW72141   9.636   2.531   6.303  0.5132  0.2344  1.0499
22102SOL    HW172142   9.575   2.592   6.261  0.6488  1.3135  2.3559
22102SOL    HW272143   9.714   2.533   6.248  0.6602  1.5647  1.2678
22103SOL     OW72144   9.568   1.327   1.852  0.3281  0.2073 -0.1318
22103SOL    HW172145   9.566   1.344   1.946 -1.8319 -0.0046 -0.1006
22103SOL    HW272146   9.542   1.410   1.812 -1.4760 -0.4401 -0.3825
22104SOL     OW72147   9.118   9.755   2.987 -0.1022  0.6063  0.3144
22104SOL    HW172148   9.046   9.737   2.927 -0.7768  1.2838  0.9015
22104SOL    HW272149   9.083   9.736   3.074 -0.0623  2.2889  0.7398
22105SOL     OW72150  10.692   9.245   7.341 -0.7176 -0.0667 -0.8750
22105SOL    HW172151  10.685   9.159   7.381 -2.5855  0.9844  1.2547
22105SOL    HW272152  10.638   9.240   7.262  0.1449 -1.1477 -1.4224
22106SOL     OW72153   2.779   8.245   7.116  0.0787  0.2105 -0.4840
22106SOL    HW172154   2.844   8.292   7.169 -1.2206  1.9446 -0.3439
22106SOL    HW272155   2.729   8.194   7.180  2.0020 -2.1582 -0.7167
22107SOL     OW72156   2.184   7.867   3.894  0.5206 -0.0343 -0.9644
22107SOL    HW172157   2.094   7.898   3.887  1.5966  3.4092 -1.5394
22107SOL    HW272158   2.202   7.826   3.810 -0.5478 -0.9555 -0.7566
22108SOL     OW72159   1.151   3.039   7.535  0.5237  0.4344 -0.0395
22108SOL    HW172160   1.167   3.061   7.443 -0.6175  0.3395 -0.2787
22108SOL    HW272161   1.069   3.085   7.556  1.0608  0.8988  1.0908
22109SOL     OW72162   6.635   1.759   4.068 -0.1682 -0.4378 -0.3662
22109SOL    HW172163   6.667   1.675   4.034  1.3259  0.1442 -0.4587
22109SOL    HW272164   6.660   1.822   4.001  0.8167  0.4125  0.7747
22110SOL     OW72165   4.271   3.640   5.294  0.5327  0.7510 -0.3255
22110SOL    HW172166   4.366   3.649   5.285  0.6570 -1.4787 -2.0264
22110SOL    HW272167   4.248   3.704   5.361  3.3875  0.6191  0.9672
22111SOL     OW72168   5.858   7.890   1.571  0.2274 -0.0872  0.0451
22111SOL    HW172169   5.922   7.948   1.530  2.0027 -1.3717  0.8649
22111SOL    HW272170   5.801   7.949   1.620  2.3522  1.0146  1.3642
22112SOL     OW72171   0.390   3.140   0.015  0.2939 -0.1921  0.0944
22112SOL    HW172172   0.305   3.098   0.026 -1.7323  3.1897 -1.2017
22112SOL    HW272173   0.408   3.135  -0.079  1.7121 -1.0748  0.3774
22113SOL     OW72174   2.135   9.290   7.295  1.2196 -0.7403 -0.3722
22113SOL    HW172175   2.196   9.364   7.301 -0.6955  0.8435  1.3944
22113SOL    HW272176   2.065   9.321   7.237 -0.0188 -0.7717  1.0393
22114SOL     OW72177   8.605   5.574   4.770  0.0219  0.3851  0.3306
22114SOL    HW172178   8.550   5.508   4.727  0.4974  0.8569 -1.0698
22114SOL    HW272179   8.548   5.651   4.777  0.4090  0.8119 -0.9438
22115SOL     OW72180   5.801   3.588   7.699  0.3508  0.3398 -0.2817
22115SOL    HW172181   5.789   3.604   7.605  2.4824  2.3683 -0.2984
22115SOL    HW272182   5.875   3.528   7.704 -0.4582 -0.6506  0.1108
22116SOL     OW72183   3.053   2.212  10.276  0.2577 -0.5360 -0.2776
22116SOL    HW172184   2.958   2.201  10.271  0.1093  0.3856  0.3127
22116SOL    HW272185   3.081   2.222  10.184 -0.1570 -1.2049 -0.4812
22117SOL     OW72186   2.022   9.945   7.648  0.4065  0.0811 -0.6717
22117SOL    HW172187   1.958  10.010   7.619 -0.4027 -0.5752 -0.3813
22117SOL    HW272188   2.066   9.917   7.568  0.6692  0.8637 -0.8181
22118SOL     OW72189   3.301   2.658   6.785  0.5268  0.4371  1.1746
22118SOL    HW172190   3.277   2.574   6.822 -0.3322  0.1051 -0.0507
22118SOL    HW272191   3.394   2.651   6.767  0.3657 -0.4540  0.6219
22119SOL     OW72192   0.192   8.966   3.053 -0.0189 -0.1140  0.1057
22119SOL    HW172193   0.227   9.050   3.081  0.5078  0.4293 -1.9541
22119SOL    HW272194   0.104   8.963   3.090  0.0862  1.1794  0.5257
22120SOL     OW72195   1.700   0.157   2.297 -0.1802  0.2337 -0.4858
22120SOL    HW172196   1.672   0.085   2.241 -0.5664 -1.7043  2.0204
22120SOL    HW272197   1.751   0.115   2.367  1.0677  2.6112  0.1575
22121SOL     OW72198   2.201   9.040   9.368  0.3989 -0.3592  0.1143
22121SOL    HW172199   2.168   9.122   9.405 -0.8094 -2.2579  3.8482
22121SOL    HW272200   2.207   9.056   9.274 -2.0157  3.2179  0.3762
22122SOL     OW72201   2.765   3.256  10.552  0.3241 -0.1870 -0.2322
22122SOL    HW172202   2.823   3.299  10.614  0.8208  0.2557 -0.9788
22122SOL    HW272203   2.677   3.267  10.588  0.6737 -0.5938  0.7584
22123SOL     OW72204   9.806   4.543   6.704  0.7506 -0.1511  0.1531
22123SOL    HW172205   9.873   4.505   6.760  1.1104  0.9263  0.4748
22123SOL    HW272206   9.750   4.593   6.764  0.9852  0.7951 -0.4051
22124SOL     OW72207   5.308   8.183   8.450  0.7691 -0.6177 -0.0844
22124SOL    HW172208   5.300   8.264   8.399  1.5052 -0.9628 -0.7689
22124SOL    HW272209   5.263   8.117   8.397  0.2897 -0.6886  0.4081
22125SOL     OW72210   6.150   9.129   3.017  0.1302  0.1632  0.3010
22125SOL    HW172211   6.202   9.049   3.011 -0.9394 -0.5491  0.3778
22125SOL    HW272212   6.059   9.100   3.013 -0.2708  1.5252 -1.4146
22126SOL     OW72213   5.596   4.507   2.438 -0.0678  0.4683 -0.2103
22126SOL    HW172214   5.544   4.518   2.517 -0.2960  0.7471 -0.3964
22126SOL    HW272215   5.610   4.413   2.431  0.8291  0.5169  0.7202
22127SOL     OW72216   3.024   5.414   0.682  0.4036 -0.1778 -0.8631
22127SOL    HW172217   2.973   5.369   0.616  1.4139 -1.0053 -1.1037
22127SOL    HW272218   2.987   5.385   0.765 -0.5519  0.4886 -1.0463
22128SOL     OW72219   7.392   6.559   2.021 -0.1573  0.2747 -0.4773
22128SOL    HW172220   7.349   6.482   2.059  1.4548 -0.4368  0.0095
22128SOL    HW272221   7.452   6.523   1.956  1.1543  1.0515  0.2726
22129SOL     OW72222  10.034   8.847   6.522 -0.3827 -0.2684 -0.1770
22129SOL    HW172223  10.128   8.839   6.539 -0.2010  1.0032 -0.5278
22129SOL    HW272224  10.010   8.932   6.558 -1.1263  0.0260 -1.3125
22130SOL     OW72225   4.126   6.374   6.624 -0.6878 -1.1595 -0.7614
22130SOL    HW172226   4.033   6.354   6.636 -1.2724  1.5083 -0.3378
22130SOL    HW272227   4.163   6.364   6.711 -1.3876  1.2441 -0.1052
22131SOL     OW72228   8.197   4.050   5.814  0.4771 -0.8481 -0.2524
22131SOL    HW172229   8.280   4.011   5.840  1.0498 -0.0578 -0.8179
22131SOL    HW272230   8.177   4.113   5.883  1.1470  0.0552 -0.8548
22132SOL     OW72231   1.337  10.403  10.638 -0.0263 -0.1073  0.0573
22132SOL    HW172232   1.296  10.468  10.694  1.9369  0.1392  1.3115
22132SOL    HW272233   1.401  10.452  10.587 -0.0077 -0.7328 -0.5392
22133SOL     OW72234   6.183  10.622   0.062  0.0222  0.2034  0.3918
22133SOL    HW172235   6.159  10.530   0.049  0.1814  0.1997  0.1197
22133SOL    HW272236   6.102  10.670   0.049 -0.2365  0.0375  1.3316
22134SOL     OW72237   4.717   0.172   0.033 -0.0500  0.2188 -0.8208
22134SOL    HW172238   4.664   0.096   0.011  1.3744 -1.3632  0.8332
22134SOL    HW272239   4.677   0.208   0.112  1.7282 -1.5909  1.0416
22135SOL     OW72240   1.340   0.487   4.610 -0.4435  0.2959 -0.0608
22135SOL    HW172241   1.434   0.479   4.598 -0.2794  1.5010  0.3385
22135SOL    HW272242   1.321   0.578   4.589 -1.3145  0.4272  1.2101
22136SOL     OW72243   0.409   6.015   1.128  0.7534  0.1776 -0.3108
22136SOL    HW172244   0.360   5.983   1.052  1.7797  0.0796 -0.9538
22136SOL    HW272245   0.473   6.075   1.091  1.8820 -0.5685  0.3575
22137SOL     OW72246   6.335   9.483  10.722  0.0328 -0.0562  0.2250
22137SOL    HW172247   6.370   9.505  10.636  0.3917 -1.3843  0.0097
22137SOL    HW272248   6.372   9.549  10.781  1.4733 -0.3720 -0.2902
22138SOL     OW72249   5.942   8.635   4.212  0.1954  0.4022 -0.1501
22138SOL    HW172250   5.951   8.544   4.184  1.5811 -0.1136  1.7697
22138SOL    HW272251   5.961   8.687   4.134 -0.8368 -0.9385 -1.3230
22139SOL     OW72252   0.833   0.277   8.273 -0.3742  0.2774 -0.5855
22139SOL    HW172253   0.832   0.299   8.180 -0.5929  0.9587 -0.4282
22139SOL    HW272254   0.862   0.357   8.316  1.0521 -0.4453 -0.1612
22140SOL     OW72255   9.549   7.602   1.842  0.1642  0.1915  0.1991
22140SOL    HW172256   9.484   7.532   1.851 -1.7539  1.9561  0.9455
22140SOL    HW272257   9.579   7.618   1.931  0.3864  0.5187  0.0670
22141SOL     OW72258   5.734   4.681   2.278 -0.0891 -0.2396 -0.1128
22141SOL    HW172259   5.670   4.744   2.247  0.4770  0.3191 -0.1645
22141SOL    HW272260   5.682   4.606   2.307 -0.6617 -0.6726 -2.1445
22142SOL     OW72261   3.531   7.867   0.542 -0.2744  0.4443  0.3255
22142SOL    HW172262   3.558   7.821   0.462 -1.1630 -0.4431  0.5104
22142SOL    HW272263   3.460   7.812   0.578  1.0063  0.0859  2.4674
22143SOL     OW72264   1.680   2.531   9.764 -0.2551 -0.1291 -0.6776
22143SOL    HW172265   1.731   2.474   9.708 -0.3803  0.3915 -1.3340
22143SOL    HW272266   1.713   2.514   9.852 -0.3963 -1.3204 -0.8301
22144SOL     OW72267   0.723   7.543   6.322  0.7332  0.3227  0.0223
22144SOL    HW172268   0.642   7.546   6.373  0.7093  0.4171 -0.0207
22144SOL    HW272269   0.731   7.631   6.285  1.8444  0.8843  1.5453
22145SOL     OW72270  10.339   5.447   0.329  0.3472  0.3295 -0.6986
22145SOL    HW172271  10.420   5.494   0.311  0.6304  0.0229 -0.2387
22145SOL    HW272272  10.323   5.463   0.423 -0.6431  1.2043 -0.9846
22146SOL     OW72273   4.333   6.040   6.411  0.2958  0.5981  0.1496
22146SOL    HW172274   4.425   6.019   6.393  0.0095 -0.9593  0.4338
22146SOL    HW272275   4.329   6.055   6.505 -0.0462 -1.0946  0.4306
22147SOL     OW72276   4.830  10.603   6.056  0.5448 -0.5848  0.5754
22147SOL    HW172277   4.922  10.580   6.041  0.3061 -0.9308 -0.4574
22147SOL    HW272278   4.797  10.532   6.112  1.2273  0.2397  2.0525
22148SOL     OW72279   4.262   0.369   2.219 -0.2671 -0.1059  0.2072
22148SOL    HW172280   4.250   0.370   2.314  0.3073  2.5327  0.3306
22148SOL    HW272281   4.244   0.459   2.191  2.2807 -0.0881 -1.7987
22149SOL     OW72282   3.708   1.171   0.133 -0.2401  0.1180  0.1791
22149SOL    HW172283   3.764   1.225   0.188 -0.8738 -0.3013  1.2627
22149SOL    HW272284   3.769   1.113   0.087  0.2713  0.2341  0.7013
22150SOL     OW72285   8.314   3.086   2.215 -0.4175 -0.3129  0.2578
22150SOL    HW172286   8.292   2.995   2.235 -2.9027  0.0154 -0.6319
22150SOL    HW272287   8.314   3.091   2.119  0.6472  0.4234  0.2777
22151SOL     OW72288   8.797   3.344   8.452  0.2473  0.3957  0.2230
22151SOL    HW172289   8.720   3.291   8.470 -0.7639  2.1556  1.4030
22151SOL    HW272290   8.847   3.342   8.533  0.7483  0.3538 -0.0859
22152SOL     OW72291   3.240   3.593   1.760  0.7394 -0.0970  0.4138
22152SOL    HW172292   3.249   3.540   1.839  0.2435 -0.0518  0.5019
22152SOL    HW272293   3.312   3.656   1.765  0.6486 -0.0270  0.8764
22153SOL     OW72294   3.658   1.176   4.406  0.4529 -0.0686 -0.3787
22153SOL    HW172295   3.733   1.151   4.351 -0.3095  0.1261 -1.5352
22153SOL    HW272296   3.582   1.145   4.358 -0.3821  2.1317 -0.5584
22154SOL     OW72297   3.598  10.161   8.090  0.5360  0.8792  0.0892
22154SOL    HW172298   3.603  10.254   8.111 -0.7510  0.9432  0.2323
22154SOL    HW272299   3.585  10.118   8.174 -0.0463  0.6959 -0.0866
22155SOL     OW72300   5.003   8.413   6.506  0.2055 -0.2504  0.3580
22155SOL    HW172301   4.995   8.472   6.581 -0.7005  1.2034 -0.8255
22155SOL    HW272302   4.932   8.350   6.518  0.2748 -0.2388  0.8827
22156SOL     OW72303   1.917  10.491   9.128 -0.1700 -0.4996  0.3947
22156SOL    HW172304   1.986  10.548   9.094 -0.3968 -0.8224 -0.6489
22156SOL    HW272305   1.887  10.534   9.208  1.2107 -0.3383  0.8536
22157SOL     OW72306   5.145   9.230   4.670  0.5432 -0.0677  0.5283
22157SOL    HW172307   5.128   9.148   4.624  2.2836 -0.3414  0.2995
22157SOL    HW272308   5.151   9.205   4.762  0.2691 -0.0721  0.5432
22158SOL     OW72309   3.772   0.372   6.105 -0.4093  0.7286  0.1362
22158SOL    HW172310   3.695   0.332   6.146  0.0553  0.9144  1.2476
22158SOL    HW272311   3.787   0.452   6.155 -1.1783  2.2103 -1.8919
22159SOL     OW72312   0.085   5.207   3.132  0.3338 -0.2006  0.5534
22159SOL    HW172313   0.043   5.184   3.214 -1.0570  0.9601  0.2073
22159SOL    HW272314   0.112   5.124   3.094 -1.1629 -0.9485  1.0583
22160SOL     OW72315   9.388   3.002   7.145 -0.1291  0.1162 -0.4216
22160SOL    HW172316   9.389   2.970   7.236  0.6997  0.9940 -0.1008
22160SOL    HW272317   9.480   2.999   7.118  0.0283  2.2955 -0.3196
22161SOL     OW72318   3.287  10.702   6.417  0.5195 -0.0842  0.3480
22161SOL    HW172319   3.287  10.727   6.325 -0.9093  0.8058  0.5733
22161SOL    HW272320   3.377  10.718   6.446  0.9709 -0.3322 -0.8648
22162SOL     OW72321   8.961   3.025   3.877 -0.6850  0.0243  0.4200
22162SOL    HW172322   9.036   3.058   3.827 -0.7716  0.6503  0.6814
22162SOL    HW272323   8.954   3.086   3.951 -1.7035  0.2148  0.1811
22163SOL     OW72324  10.669   3.891   6.415 -0.1479  0.2497 -0.0893
22163SOL    HW172325  10.682   3.967   6.473 -0.5002 -0.7950  1.4131
22163SOL    HW272326  10.607   3.922   6.350 -1.5508  0.8257  1.4401
22164SOL     OW72327   5.520   8.433   4.692 -0.2383 -0.2282  0.3375
22164SOL    HW172328   5.519   8.495   4.765 -2.0313 -2.4718  2.3496
22164SOL    HW272329   5.436   8.388   4.697 -0.6647 -0.1874 -3.4954
22165SOL     OW72330   7.413   5.132   6.929  0.3229 -0.1399 -0.2297
22165SOL    HW172331   7.397   5.155   6.837 -0.3140  0.4948  0.0363
22165SOL    HW272332   7.494   5.080   6.926 -0.2263 -0.9820 -1.2640
22166SOL     OW72333   3.757   3.013   4.122  0.1283 -0.4001  0.4026
22166SOL    HW172334   3.714   3.086   4.166  0.3033 -1.2522  2.0615
22166SOL    HW272335   3.689   2.976   4.066 -0.2110  0.4924  0.2103
22167SOL     OW72336   7.515   8.066   1.941  0.1303  0.4408 -0.2324
22167SOL    HW172337   7.473   8.035   1.861 -0.8554 -1.2289  0.8602
22167SOL    HW272338   7.607   8.074   1.919 -0.4422  2.3828 -2.1897
22168SOL     OW72339   1.512   0.784   6.038 -0.0105 -0.4329  0.4099
22168SOL    HW172340   1.444   0.799   6.104 -0.2981  0.2884 -0.0441
22168SOL    HW272341   1.593   0.774   6.088  0.0299  1.5915  0.7958
22169SOL     OW72342   1.285   7.039   2.146  0.0012 -0.1460 -0.1696
22169SOL    HW172343   1.249   7.067   2.230  0.9607  0.3914  0.0682
22169SOL    HW272344   1.210   7.001   2.100 -0.6125 -0.1156  0.7766
22170SOL     OW72345   5.102   1.600   5.176 -0.0228 -0.1086  0.7626
22170SOL    HW172346   5.016   1.595   5.133 -0.3831 -0.3198  1.4961
22170SOL    HW272347   5.164   1.609   5.103 -0.4739 -2.0247  0.0776
22171SOL     OW72348   5.720   8.472  10.001 -0.2413 -0.2001  0.3780
22171SOL    HW172349   5.763   8.477  10.086 -0.5146 -1.6416  0.6167
22171SOL    HW272350   5.768   8.406   9.952  0.1764  0.9031 -0.7680
22172SOL     OW72351   5.355   4.472   5.080 -0.5971 -0.4964 -0.6945
22172SOL    HW172352   5.381   4.409   5.148 -1.3171  0.6807  0.7452
22172SOL    HW272353   5.381   4.557   5.116 -2.1460  0.2783 -1.3291
22173SOL     OW72354   5.817   7.952   3.030  0.2412 -0.0856 -0.1928
22173SOL    HW172355   5.733   7.972   3.072  1.8422  2.5673  2.1186
22173SOL    HW272356   5.860   7.892   3.091  1.5413  1.7069  0.7232
22174SOL     OW72357   7.319   0.686   9.387  0.3449 -0.3779 -0.0747
22174SOL    HW172358   7.280   0.610   9.344  1.3358 -0.6878 -0.4549
22174SOL    HW272359   7.309   0.668   9.481 -1.4768  0.1187 -0.1354
22175SOL     OW72360   7.073   8.827   0.658 -0.0826  0.2594 -0.0272
22175SOL    HW172361   7.141   8.791   0.602  0.7663  0.7444  0.6678
22175SOL    HW272362   6.999   8.767   0.648  0.3147 -0.0731 -1.0707
22176SOL     OW72363   7.252   4.587   4.911  0.1734  0.0952 -0.1388
22176SOL    HW172364   7.238   4.493   4.900  0.4558  0.1078 -0.6505
22176SOL    HW272365   7.335   4.605   4.866 -0.6091  0.8290 -1.3552
22177SOL     OW72366   8.611   0.532   5.312  0.4173  0.3648 -0.4968
22177SOL    HW172367   8.656   0.600   5.262 -1.0268  0.3302 -1.9548
22177SOL    HW272368   8.638   0.450   5.270  0.4893  0.2086 -0.1445
22178SOL     OW72369   2.308   9.540   9.414  0.3518  0.7253  0.0738
22178SOL    HW172370   2.224   9.528   9.370  0.5637  0.8618 -0.3696
22178SOL    HW272371   2.309   9.474   9.483 -0.1931  0.8375  0.1911
22179SOL     OW72372   0.570   2.435   4.702 -0.0462 -0.1810 -0.1580
22179SOL    HW172373   0.553   2.401   4.614 -1.9079  1.4832 -0.5013
22179SOL    HW272374   0.483   2.444   4.742  0.2096  4.0624 -0.1160
22180SOL     OW72375   1.462   3.613   3.239 -0.0886  0.1162  0.3024
22180SOL    HW172376   1.476   3.631   3.146  0.0384  2.1415  0.6609
22180SOL    HW272377   1.549   3.592   3.272 -0.1612 -0.7788 -0.0579
22181SOL     OW72378   2.026   5.242   4.113  0.3352 -0.3167  0.2789
22181SOL    HW172379   2.120   5.251   4.097  0.0381  1.1655 -0.8669
22181SOL    HW272380   1.985   5.309   4.058 -1.4218 -1.0861  0.5556
22182SOL     OW72381   8.643  10.437   1.029 -1.0790  0.3612 -0.6994
22182SOL    HW172382   8.586  10.361   1.040  0.4436 -0.9386 -1.3141
22182SOL    HW272383   8.682  10.425   0.942 -0.3008  1.4871 -0.5312
22183SOL     OW72384   7.852   3.277   4.907  0.4726  0.1455 -0.3309
22183SOL    HW172385   7.779   3.215   4.919  1.4458 -0.6719  1.9537
22183SOL    HW272386   7.909   3.261   4.983  1.4980  2.8728 -0.4389
22184SOL     OW72387   6.821   3.768   0.430  0.0385  0.1432 -0.6867
22184SOL    HW172388   6.852   3.812   0.509 -0.3092 -1.1515  0.2134
22184SOL    HW272389   6.832   3.833   0.360  0.0749  1.4247  0.4662
22185SOL     OW72390   2.486   7.146   7.171  0.0119 -0.2676 -0.6727
22185SOL    HW172391   2.485   7.241   7.156  1.4812  0.2005  1.7434
22185SOL    HW272392   2.440   7.134   7.254  0.9519 -1.5329 -0.3118
22186SOL     OW72393   4.515   5.292   4.916 -0.0838 -0.0497  0.5664
22186SOL    HW172394   4.607   5.271   4.903 -0.2136 -1.5854  1.8694
22186SOL    HW272395   4.515   5.377   4.959  0.5834  1.2372 -1.8045
22187SOL     OW72396   3.798   8.678   9.077  0.2361  0.6125  0.0038
22187SOL    HW172397   3.810   8.766   9.112 -0.0761  0.5594  0.2533
22187SOL    HW272398   3.776   8.692   8.984  0.0656  0.8046  0.0715
22188SOL     OW72399   5.366   7.468   6.411  0.2852  0.5130  0.0223
22188SOL    HW172400   5.377   7.373   6.420 -0.8333  0.5318  2.2743
22188SOL    HW272401   5.370   7.501   6.501 -2.7688  2.1585 -0.3182
22189SOL     OW72402   6.495   0.472   0.747  0.1529  0.3984 -0.3365
22189SOL    HW172403   6.497   0.400   0.684 -0.4475  1.2479 -1.3479
22189SOL    HW272404   6.584   0.476   0.781 -0.0447 -1.5134  0.5689
22190SOL     OW72405   5.964   6.586   4.127 -0.3214  0.6313 -0.2447
22190SOL    HW172406   5.977   6.583   4.222 -0.9385 -1.1859 -0.1728
22190SOL    HW272407   5.912   6.508   4.108  1.3187 -0.0614 -2.2895
22191SOL     OW72408   1.955   1.234   0.259 -0.3347 -0.8043  0.1093
22191SOL    HW172409   1.952   1.305   0.194 -0.1547  0.2374  1.2144
22191SOL    HW272410   2.039   1.192   0.244 -0.0524 -0.2179  0.0229
22192SOL     OW72411   1.229   0.194   9.075  0.6468  0.5673  0.4305
22192SOL    HW172412   1.145   0.225   9.040  0.9474  0.3375 -0.5173
22192SOL    HW272413   1.263   0.269   9.125  0.2180  0.9112  0.2119
22193SOL     OW72414   7.673   0.176   5.089 -0.0306  0.7063 -0.0104
22193SOL    HW172415   7.702   0.249   5.143 -1.6276  0.8056  0.7882
22193SOL    HW272416   7.682   0.208   4.999  3.3250  0.2820  0.0722
22194SOL     OW72417   6.860  10.040   2.888 -0.6184 -0.2440 -0.3040
22194SOL    HW172418   6.851  10.014   2.797 -1.6482 -1.3009  0.0705
22194SOL    HW272419   6.825   9.966   2.938 -1.8550  1.0769  0.8922
22195SOL     OW72420   7.887   8.528   3.184  0.7239 -0.0936  0.2819
22195SOL    HW172421   7.932   8.449   3.215 -0.6050 -0.7070  0.7334
22195SOL    HW272422   7.796   8.501   3.173  0.7535  0.6125 -2.3715
22196SOL     OW72423   5.970   3.104   4.845 -0.1431 -0.4503 -0.0435
22196SOL    HW172424   6.056   3.105   4.887 -0.2849 -0.0771  0.2386
22196SOL    HW272425   5.909   3.126   4.915 -0.3904  0.0556 -0.4126
22197SOL     OW72426   1.980   2.659   4.978 -0.5337  0.2992  0.3807
22197SOL    HW172427   1.976   2.596   5.050  0.5842  0.4116  0.5639
22197SOL    HW272428   1.953   2.609   4.901  1.2609 -0.7144  0.3522
22198SOL     OW72429   6.547   4.232   4.953  0.5281  0.5872  0.6313
22198SOL    HW172430   6.516   4.243   5.043 -0.0700 -0.4426  0.5637
22198SOL    HW272431   6.469   4.249   4.899  0.5349 -0.1776  0.3715
22199SOL     OW72432  10.378   9.179   8.644  0.3171  0.3894  0.4825
22199SOL    HW172433  10.310   9.123   8.606  0.1270 -1.0509  2.7362
22199SOL    HW272434  10.435   9.118   8.691  1.4874  1.8746  1.0561
22200SOL     OW72435   7.279   4.802   4.024 -0.7372 -0.1941 -0.0635
22200SOL    HW172436   7.272   4.707   4.036  1.9652 -0.3378  1.1615
22200SOL    HW272437   7.268   4.838   4.111  0.2536  0.4351 -0.1858
22201SOL     OW72438   6.581  10.568   9.909  0.8973  0.2173  0.1661
22201SOL    HW172439   6.533  10.533   9.833 -1.2731  0.5643  1.2772
22201SOL    HW272440   6.581  10.662   9.895 -0.9498  0.4377  1.2957
22202SOL     OW72441   1.902   4.243   9.968 -0.0817  0.3026  0.6460
22202SOL    HW172442   1.981   4.285   9.935  0.4302 -0.0802  1.3416
22202SOL    HW272443   1.900   4.267  10.061 -1.4387  1.2982  0.3851
22203SOL     OW72444   0.512   9.525   1.660 -0.0442 -0.1714  0.6585
22203SOL    HW172445   0.566   9.566   1.727  0.5446 -0.8661  0.6176
22203SOL    HW272446   0.555   9.441   1.642  1.3049  1.0663 -2.4787
22204SOL     OW72447   1.023   6.971   8.996 -0.0409 -0.4725  0.1278
22204SOL    HW172448   1.069   7.003   9.074 -0.8572  0.3329  0.3021
22204SOL    HW272449   1.092   6.941   8.937  0.7616  1.2626  0.1319
22205SOL     OW72450   2.646   4.448   3.980 -0.0567 -0.0953 -0.0004
22205SOL    HW172451   2.721   4.409   3.936 -0.1475 -1.0002  0.6335
22205SOL    HW272452   2.666   4.542   3.980  1.6109 -0.4038  1.1238
22206SOL     OW72453   7.015   6.378   3.966  0.5385  0.0359 -0.7080
22206SOL    HW172454   7.082   6.421   4.019  0.3115  1.4680 -1.5247
22206SOL    HW272455   7.047   6.385   3.876  0.1168 -0.8310 -0.9343
22207SOL     OW72456   5.755   0.358   4.375 -0.0290 -0.2095 -0.4821
22207SOL    HW172457   5.704   0.342   4.296 -0.8961 -0.1060  0.0368
22207SOL    HW272458   5.724   0.443   4.407 -2.1079 -1.6323  1.6968
22208SOL     OW72459   4.650   0.432   4.731  0.0660 -0.2380  0.3047
22208SOL    HW172460   4.681   0.494   4.797 -0.7074  1.8137 -1.1290
22208SOL    HW272461   4.719   0.431   4.665 -0.4155 -0.0460 -0.2068
22209SOL     OW72462   8.973   3.762   6.789 -0.4349  1.0439  0.2213
22209SOL    HW172463   8.923   3.721   6.860 -0.7222  0.7129 -0.1677
22209SOL    HW272464   8.967   3.856   6.806 -0.9368  0.9889  0.3424
22210SOL     OW72465   3.111   7.617   0.364  0.0949  0.2206 -0.0198
22210SOL    HW172466   3.180   7.680   0.348  0.0630  0.3583  0.3875
22210SOL    HW272467   3.106   7.609   0.459 -0.2330 -0.0239 -0.0534
22211SOL     OW72468   8.523   5.934  10.381 -0.2424 -0.3218  0.0237
22211SOL    HW172469   8.521   5.851  10.333  1.2473 -0.2870 -0.1487
22211SOL    HW272470   8.536   5.908  10.473  0.4572 -0.2861 -0.0596
22212SOL     OW72471   2.724   6.844   7.193  0.3007 -0.5575  0.1789
22212SOL    HW172472   2.685   6.913   7.139 -0.4390 -0.5376  0.7351
22212SOL    HW272473   2.809   6.880   7.219 -0.2282  0.3043  0.7621
22213SOL     OW72474   7.516   8.561   0.734 -0.1416 -0.0524 -0.2375
22213SOL    HW172475   7.542   8.473   0.761 -0.5590 -0.0251  0.2820
22213SOL    HW272476   7.566   8.578   0.654 -1.0951 -1.3237 -1.1465
22214SOL     OW72477   6.820   6.291   1.431  0.1723 -0.1119  0.9934
22214SOL    HW172478   6.881   6.338   1.375 -0.1639 -0.4637  0.3139
22214SOL    HW272479   6.873   6.225   1.475  0.2457 -0.6068  0.1870
22215SOL     OW72480   7.227   4.040   1.325  0.3306  0.0048 -0.3733
22215SOL    HW172481   7.308   4.072   1.284  1.5792 -0.2839  1.7303
22215SOL    HW272482   7.173   4.119   1.334  1.1094  0.5340 -0.1952
22216SOL     OW72483   6.558   2.853   7.437 -0.1482  0.3116 -0.7132
22216SOL    HW172484   6.598   2.774   7.475 -0.6983  0.0329 -0.7054
22216SOL    HW272485   6.613   2.872   7.361  0.9165  0.8303  0.1549
22217SOL     OW72486   3.626   5.221   1.544  0.0229  0.2852  0.0546
22217SOL    HW172487   3.649   5.307   1.578  0.4276  0.2526 -0.1372
22217SOL    HW272488   3.703   5.193   1.494  1.1670 -1.5140  2.6189
22218SOL     OW72489   3.702   7.178   6.054  0.3228 -0.2398  0.1331
22218SOL    HW172490   3.722   7.120   6.127  3.2505 -0.4469 -0.6894
22218SOL    HW272491   3.685   7.119   5.981  3.1559 -0.2478 -0.6666
22219SOL     OW72492   3.941   0.651   9.318  0.2302  0.1803  0.4740
22219SOL    HW172493   4.006   0.596   9.364 -1.2234 -0.1196  2.3027
22219SOL    HW272494   3.928   0.607   9.234  3.0974  0.8142 -0.4283
22220SOL     OW72495   2.362  10.719   6.440 -0.1002  0.1362 -0.4761
22220SOL    HW172496   2.388  10.744   6.529 -1.8048  0.8838 -0.1512
22220SOL    HW272497   2.444  10.718   6.391  1.0546 -1.5062  1.3613
22221SOL     OW72498   7.623   1.666   3.552  0.2822  0.1582 -0.0874
22221SOL    HW172499   7.574   1.656   3.633  0.0537  2.4637  0.1311
22221SOL    HW272500   7.701   1.715   3.578  1.2620 -0.9054 -0.9349
22222SOL     OW72501   3.374   6.391   1.252 -0.4987 -0.1362  0.2878
22222SOL    HW172502   3.382   6.425   1.342  1.5951 -0.3294  0.2225
22222SOL    HW272503   3.409   6.461   1.197  0.8759 -1.0953 -0.1116
22223SOL     OW72504   8.652   3.417   2.516 -0.0152  0.1834  0.4960
22223SOL    HW172505   8.673   3.345   2.575 -0.4712 -0.0415  0.3860
22223SOL    HW272506   8.569   3.452   2.549  0.1503  0.5871  0.4869
22224SOL     OW72507   2.193   8.192   3.869 -0.6443  0.4052 -0.2038
22224SOL    HW172508   2.269   8.153   3.827 -1.1773  0.2822 -1.0859
22224SOL    HW272509   2.216   8.285   3.879  0.7695 -0.1206  2.2307
22225SOL     OW72510   8.636   9.779   2.552  0.5130 -0.4434  0.3463
22225SOL    HW172511   8.695   9.779   2.477 -0.1933  1.4667 -0.2741
22225SOL    HW272512   8.693   9.785   2.628  1.1695  0.8015 -0.2168
22226SOL     OW72513   2.550   3.174   7.171 -0.0425 -0.0903 -0.1374
22226SOL    HW172514   2.482   3.169   7.239  1.3442  0.9546  1.3874
22226SOL    HW272515   2.626   3.130   7.210  0.1958 -1.3198 -1.8504
22227SOL     OW72516   1.171   5.810   2.387  0.3833  0.2392  0.2587
22227SOL    HW172517   1.100   5.785   2.327  1.6874 -0.3697 -1.0833
22227SOL    HW272518   1.237   5.742   2.376  1.5270  1.2193  0.8963
22228SOL     OW72519   1.452   4.104   7.441 -0.1290  0.5256 -0.0538
22228SOL    HW172520   1.468   4.014   7.467 -0.5588  0.1896 -0.9077
22228SOL    HW272521   1.363   4.123   7.471 -0.2442  0.4796 -0.3661
22229SOL     OW72522   3.010   0.889   4.207  0.1121  0.0441  0.9311
22229SOL    HW172523   3.028   0.983   4.197  1.5586 -0.4383 -2.0749
22229SOL    HW272524   2.917   0.885   4.228 -0.1331  2.1499  0.5160
22230SOL     OW72525   2.913   9.912   4.033 -0.2068  0.1582 -0.2470
22230SOL    HW172526   2.887   9.883   3.946  0.5148 -0.4759 -0.2585
22230SOL    HW272527   3.001   9.877   4.045  0.3801  1.6689  0.0763
22231SOL     OW72528   9.096   3.741   0.781  0.2487  0.1199  0.4265
22231SOL    HW172529   9.106   3.648   0.799 -0.2393 -0.5207 -2.2197
22231SOL    HW272530   9.149   3.757   0.703 -0.4357  1.8267  0.2536
22232SOL     OW72531   5.449   6.122   4.920  0.2615  0.0410  0.3422
22232SOL    HW172532   5.368   6.170   4.939 -0.9350 -0.6458 -2.4868
22232SOL    HW272533   5.419   6.044   4.872  2.5367 -0.7772  0.1512
22233SOL     OW72534   1.431   9.007   6.612  0.0223  0.3978  0.2752
22233SOL    HW172535   1.523   8.995   6.590 -0.4608  0.2727 -1.9883
22233SOL    HW272536   1.423   9.099   6.636  0.5961  0.6392 -0.4320
22234SOL     OW72537   9.913   4.882   5.445  0.3570  0.5359  0.1119
22234SOL    HW172538   9.905   4.944   5.372  1.2265  1.1433  0.5265
22234SOL    HW272539  10.007   4.869   5.456  0.2269  0.2538  0.9642
22235SOL     OW72540   9.136   4.195   1.950 -0.2854  0.0844  0.1512
22235SOL    HW172541   9.086   4.264   1.995 -0.1616  0.6616 -0.5731
22235SOL    HW272542   9.083   4.116   1.962  0.0956  0.0578  1.9117
22236SOL     OW72543   3.172  10.024   2.935 -0.7338  0.5706  0.5066
22236SOL    HW172544   3.207  10.111   2.956 -1.1829  0.5193  1.5209
22236SOL    HW272545   3.146  10.031   2.843  1.0712  0.8869 -0.0292
22237SOL     OW72546   5.366   2.996   0.715  0.1687 -0.5417 -0.2366
22237SOL    HW172547   5.431   3.066   0.722  1.1597 -1.3184 -1.5101
22237SOL    HW272548   5.341   2.978   0.806 -1.1227  2.3589  0.1176
22238SOL     OW72549   0.118   2.628   6.973 -0.2655 -0.4066 -0.7046
22238SOL    HW172550   0.181   2.607   6.904  0.1937  1.3392 -0.8458
22238SOL    HW272551   0.171   2.655   7.047 -0.8070  0.8472 -0.7432
22239SOL     OW72552   3.898   2.670   6.543  0.6167 -0.0600 -0.0510
22239SOL    HW172553   3.839   2.742   6.564  2.0970  1.3584 -0.5158
22239SOL    HW272554   3.850   2.616   6.480  0.5327  2.2127 -2.0470
22240SOL     OW72555   4.243   4.664   1.009  0.0571  0.4576 -0.3953
22240SOL    HW172556   4.254   4.733   0.943  1.8111  1.8330  1.2471
22240SOL    HW272557   4.265   4.706   1.092  0.5886 -1.9315  0.7476
22241SOL     OW72558   9.128   9.306   0.668  0.5317 -0.0993 -0.3099
22241SOL    HW172559   9.189   9.233   0.675  0.9265  0.2321 -0.2286
22241SOL    HW272560   9.148   9.361   0.744 -0.9738 -0.8063  0.6380
22242SOL     OW72561   1.262   2.682   9.141  0.1438  0.4091 -0.1417
22242SOL    HW172562   1.188   2.625   9.160 -0.1951  0.8448 -0.1406
22242SOL    HW272563   1.305   2.694   9.225 -0.2183  0.7538 -0.0032
22243SOL     OW72564   7.377   3.851   1.133  0.1575  0.3116  0.3530
22243SOL    HW172565   7.320   3.887   1.201 -0.9944 -2.0588  0.7398
22243SOL    HW272566   7.338   3.767   1.111  2.4489 -0.5342 -0.7947
22244SOL     OW72567   9.752   5.009   6.109  0.4732 -0.2629 -0.7093
22244SOL    HW172568   9.692   4.935   6.099  1.6826 -1.3839 -0.0993
22244SOL    HW272569   9.702   5.074   6.158 -0.5100 -0.8168 -0.9420
22245SOL     OW72570   6.423   6.977   3.364 -0.3286  0.3515 -0.0538
22245SOL    HW172571   6.467   6.988   3.280  1.3094  1.0006  0.8587
22245SOL    HW272572   6.493   6.981   3.429 -1.4085 -1.2874  1.2942
22246SOL     OW72573   3.533   2.805   5.596  0.4951  0.0907  0.0461
22246SOL    HW172574   3.609   2.772   5.547  1.0103 -1.1286  1.5893
22246SOL    HW272575   3.541   2.900   5.591  0.5810  0.0179 -2.1117
22247SOL     OW72576   1.775   4.694   5.859  0.3969  0.0103 -0.3702
22247SOL    HW172577   1.766   4.766   5.922 -0.4464  1.1039 -1.6861
22247SOL    HW272578   1.864   4.662   5.873  0.6497  1.0266  0.5310
22248SOL     OW72579   1.396   1.516  10.183  0.1185 -0.4896 -0.1211
22248SOL    HW172580   1.473   1.461  10.200  1.2330  0.9491 -0.2649
22248SOL    HW272581   1.379   1.505  10.089  1.5767  0.8671 -0.5915
22249SOL     OW72582   3.674   3.959  10.613  0.4999 -0.0755  0.0143
22249SOL    HW172583   3.716   3.874  10.599  0.2479 -0.1182 -0.5162
22249SOL    HW272584   3.658   3.963  10.707  0.0201 -0.8574 -0.0199
22250SOL     OW72585   7.206   3.276   5.820  0.0191  0.1152 -0.2548
22250SOL    HW172586   7.219   3.251   5.729 -0.6356  0.2823 -0.3987
22250SOL    HW272587   7.111   3.276   5.832  0.1174 -0.7503  0.6695
22251SOL     OW72588   8.806   5.113   0.117  0.1707 -0.1358 -0.2498
22251SOL    HW172589   8.714   5.115   0.142  0.5134  0.1059  1.0608
22251SOL    HW272590   8.848   5.177   0.174  1.5289 -1.8573  0.7672
22252SOL     OW72591   8.672   8.961  10.389  0.0515  0.1836  0.3871
22252SOL    HW172592   8.717   8.944  10.472  0.4665  2.3008  0.6566
22252SOL    HW272593   8.686   9.055  10.373 -1.0040  0.0672 -1.4972
22253SOL     OW72594   5.337   4.450  10.093  0.3425  0.4649  0.7355
22253SOL    HW172595   5.261   4.504  10.072 -0.1813 -0.2071  0.8427
22253SOL    HW272596   5.398   4.466  10.021  0.2360  1.2595  0.8122
22254SOL     OW72597   9.577  10.232   5.599 -0.0371 -0.1251  0.2476
22254SOL    HW172598   9.651  10.292   5.587  2.0161 -2.5977 -0.6362
22254SOL    HW272599   9.513  10.282   5.649  1.4453  2.7772 -0.5238
22255SOL     OW72600   7.968   1.794   0.361 -0.0570  0.0072 -0.1344
22255SOL    HW172601   8.017   1.733   0.416  0.6498  1.3740  0.8132
22255SOL    HW272602   8.030   1.864   0.342 -1.3563  1.3519  0.3675
22256SOL     OW72603   0.107   9.080   7.600 -0.5258 -0.1577  0.0525
22256SOL    HW172604   0.117   9.016   7.671  0.6768 -1.1705 -0.9665
22256SOL    HW272605   0.037   9.044   7.545 -0.2309 -0.3244 -0.2203
22257SOL     OW72606   2.326   5.438   4.957  0.1291 -0.3164 -0.1749
22257SOL    HW172607   2.380   5.513   4.932  1.1455 -1.2402 -0.8116
22257SOL    HW272608   2.386   5.364   4.956 -1.3406 -1.5703 -1.9115
22258SOL     OW72609   6.923   6.074   8.976 -0.0023 -0.3831 -0.3030
22258SOL    HW172610   6.874   5.998   9.008 -0.1189  0.0908  0.6753
22258SOL    HW272611   6.949   6.120   9.056 -1.3973  1.5363 -0.9036
22259SOL     OW72612   3.820   9.962   1.558  0.0186  0.6508 -0.0986
22259SOL    HW172613   3.786   9.926   1.640  0.9719 -1.4268 -0.5605
22259SOL    HW272614   3.870   9.891   1.519  2.3854  2.5823 -0.9003
22260SOL     OW72615   7.099   8.788   7.418  0.8787  0.1382  0.4495
22260SOL    HW172616   7.057   8.873   7.408  2.1081  0.7926  0.6765
22260SOL    HW272617   7.081   8.762   7.509 -0.5005 -0.4214  0.0405
22261SOL     OW72618   4.173   0.153   2.845 -0.8165 -0.0769  0.1141
22261SOL    HW172619   4.184   0.113   2.759 -4.0516  0.1396 -0.5387
22261SOL    HW272620   4.162   0.078   2.904 -2.1549 -0.2550 -0.3187
22262SOL     OW72621  10.257   0.951   0.881 -0.4631 -0.5613  0.0845
22262SOL    HW172622  10.162   0.964   0.876 -0.4364 -0.0548  0.6536
22262SOL    HW272623  10.277   0.891   0.810 -0.8252  1.5315 -1.9120
22263SOL     OW72624   8.081   5.874   4.511 -0.6202 -0.5316  0.0313
22263SOL    HW172625   8.077   5.962   4.549 -2.3024 -1.5254  2.4240
22263SOL    HW272626   8.171   5.865   4.480 -0.0432  1.5428  0.9296
22264SOL     OW72627   3.801   1.481   6.025 -0.0564  0.5929  0.2320
22264SOL    HW172628   3.837   1.565   5.995 -0.4606  0.8272  0.3884
22264SOL    HW272629   3.793   1.491   6.120  1.1973 -0.1359  0.4283
22265SOL     OW72630   2.663   6.136   3.990  0.5471 -0.8767  0.1395
22265SOL    HW172631   2.637   6.219   4.029  1.9166  1.2708 -3.0735
22265SOL    HW272632   2.726   6.099   4.052  0.3139  0.7617  1.4159
22266SOL     OW72633   6.582   0.292   5.168 -0.0620  0.0710 -0.0004
22266SOL    HW172634   6.658   0.296   5.109 -0.4955  0.4422 -0.5457
22266SOL    HW272635   6.543   0.206   5.151  0.2989 -0.1687  0.3662
22267SOL     OW72636   4.542   7.326   9.634  0.2142  0.1404 -0.1439
22267SOL    HW172637   4.558   7.240   9.595  0.7431 -0.9899  2.4085
22267SOL    HW272638   4.618   7.379   9.609  0.5030 -0.5228 -0.6887
22268SOL     OW72639   7.146   3.326   1.829  0.5380 -0.2221  0.0557
22268SOL    HW172640   7.118   3.240   1.861  1.2425 -1.0787 -1.4899
22268SOL    HW272641   7.105   3.334   1.743  1.4038  0.4603 -0.3104
22269SOL     OW72642   8.680   4.546   9.215  0.4902 -0.4123  0.0134
22269SOL    HW172643   8.652   4.561   9.124 -1.5458  0.2950  0.7083
22269SOL    HW272644   8.729   4.464   9.212  0.5268 -0.3620 -1.7353
22270SOL     OW72645   0.762  10.652   1.695  0.3912 -0.7327 -0.5059
22270SOL    HW172646   0.752  10.730   1.641  1.6347 -1.0025 -1.1660
22270SOL    HW272647   0.688  10.655   1.756  0.8532  1.3870  0.0404
22271SOL     OW72648   7.000   3.636   6.553  0.0590  0.0778 -0.2217
22271SOL    HW172649   6.981   3.542   6.555  0.9435 -0.1538 -1.3843
22271SOL    HW272650   7.095   3.640   6.547  0.0611  1.0712  0.3826
22272SOL     OW72651   5.915   2.473   8.946 -0.3543 -0.2708  0.0298
22272SOL    HW172652   5.984   2.418   8.908 -2.1180 -1.5190 -1.5484
22272SOL    HW272653   5.956   2.514   9.023  0.7201 -4.9155  2.2711
22273SOL     OW72654   0.318   7.118   9.624 -0.1302 -0.5813 -0.3341
22273SOL    HW172655   0.301   7.160   9.540  1.8159 -2.2491 -1.6658
22273SOL    HW272656   0.356   7.186   9.679 -2.0586  0.7136 -0.4907
22274SOL     OW72657   7.380   2.987   7.272 -0.6771 -0.3913  0.2473
22274SOL    HW172658   7.397   3.060   7.330 -0.0402 -1.9995  2.1791
22274SOL    HW272659   7.345   2.918   7.328 -1.0150 -1.6880 -1.4423
22275SOL     OW72660   7.598   4.797   1.624  0.7157 -0.6270 -0.4033
22275SOL    HW172661   7.653   4.719   1.635  1.7169  0.2879  1.8595
22275SOL    HW272662   7.619   4.851   1.701 -1.1798  1.1177 -1.0395
22276SOL     OW72663   0.606   6.457   1.782  0.0093  0.5949 -0.2457
22276SOL    HW172664   0.605   6.442   1.876 -0.0358 -0.0865 -0.3507
22276SOL    HW272665   0.518   6.435   1.752  0.0395  0.7511 -0.4540
22277SOL     OW72666   6.783   9.900  10.416 -0.4421  0.1845  0.0371
22277SOL    HW172667   6.776   9.915  10.321  1.1339  0.0540 -0.1371
22277SOL    HW272668   6.786   9.988  10.454  1.8893  0.3438 -0.3513
22278SOL     OW72669   3.774   8.360   8.125  0.0513 -0.7138 -0.1770
22278SOL    HW172670   3.839   8.296   8.154  0.2109 -0.5558 -0.1889
22278SOL    HW272671   3.816   8.405   8.052 -0.5127 -1.4095 -0.9530
22279SOL     OW72672   6.909   9.183   1.471  0.3656 -0.3670  0.1835
22279SOL    HW172673   6.858   9.107   1.498 -1.2704  0.2090 -1.1321
22279SOL    HW272674   6.955   9.155   1.392  0.9471 -0.4087  0.5225
22280SOL     OW72675   4.674   5.599   6.718 -0.8455 -0.1725 -0.0345
22280SOL    HW172676   4.638   5.538   6.783  0.3429 -0.4677  0.3875
22280SOL    HW272677   4.729   5.658   6.770  1.3263 -1.3198 -0.8827
22281SOL     OW72678   2.969   2.305   3.356  0.0563  0.2946  0.5790
22281SOL    HW172679   3.041   2.251   3.324 -0.8453 -0.6058  0.0116
22281SOL    HW272680   2.983   2.309   3.451 -0.8770 -2.5687  0.9261
22282SOL     OW72681   7.636   4.989   2.664 -0.1447  0.3441  0.0875
22282SOL    HW172682   7.630   5.083   2.682  0.8601  0.7383 -1.4494
22282SOL    HW272683   7.724   4.977   2.628 -0.5205 -1.0714 -0.4113
22283SOL     OW72684   2.892   5.796   5.992  0.3501 -0.3774 -0.2763
22283SOL    HW172685   2.926   5.760   6.074 -1.5373 -2.5123 -0.3263
22283SOL    HW272686   2.960   5.778   5.928  0.0986 -2.6746  0.0127
22284SOL     OW72687   1.726   9.378  10.261  0.0071 -0.3052 -0.6326
22284SOL    HW172688   1.664   9.328  10.208  2.1445 -1.8455 -1.8139
22284SOL    HW272689   1.675   9.453  10.293 -2.3586 -1.3377 -1.7310
22285SOL     OW72690   8.519   0.333   8.883 -0.0335 -0.7754 -0.0470
22285SOL    HW172691   8.482   0.395   8.820 -0.2911 -1.9155 -1.0475
22285SOL    HW272692   8.443   0.300   8.931  0.1795  0.2484  1.0652
22286SOL     OW72693   7.434   4.327   3.762  0.1380  0.5066 -0.4112
22286SOL    HW172694   7.352   4.279   3.748  0.4707 -0.5326  1.0633
22286SOL    HW272695   7.467   4.342   3.673 -0.3329 -1.3924 -0.9607
22287SOL     OW72696   1.704   0.621   3.995 -0.5163 -0.6442 -0.0098
22287SOL    HW172697   1.681   0.714   4.004  1.2218  0.0655 -1.9633
22287SOL    HW272698   1.626   0.574   4.023 -0.9651  1.3318  2.4854
22288SOL     OW72699   4.076   1.880   8.355 -0.1161  0.0367  0.4271
22288SOL    HW172700   4.121   1.958   8.387  1.3849 -0.3022 -0.7097
22288SOL    HW272701   4.064   1.826   8.432  1.9054 -0.0546  0.7369
22289SOL     OW72702   4.390   0.505   2.821  0.0884 -0.8112 -0.0812
22289SOL    HW172703   4.461   0.542   2.873 -2.6976  1.8144  2.1823
22289SOL    HW272704   4.392   0.553   2.738 -0.4718  1.0825  0.9438
22290SOL     OW72705   2.167   0.746   9.853  0.0086  0.2293 -0.0729
22290SOL    HW172706   2.159   0.672   9.794 -1.1625  0.5458 -0.3259
22290SOL    HW272707   2.216   0.712   9.928  2.7876  0.1702 -1.7838
22291SOL     OW72708   4.383   2.813   1.726 -0.1944  0.6542  0.0576
22291SOL    HW172709   4.372   2.740   1.786 -0.8111  0.8699  0.2167
22291SOL    HW272710   4.338   2.786   1.646  0.9792  0.1959 -0.4778
22292SOL     OW72711   2.953   1.290   8.829 -0.2861 -0.9080  0.0445
22292SOL    HW172712   2.940   1.359   8.894  0.3000  0.6085 -1.3647
22292SOL    HW272713   2.908   1.322   8.751  3.9486  0.3458 -2.2244
22293SOL     OW72714  10.490   4.528   7.757 -0.9874 -0.3563  0.4954
22293SOL    HW172715  10.426   4.459   7.738  0.8511 -1.6280 -1.4659
22293SOL    HW272716  10.475   4.595   7.689  0.2316 -1.0571 -0.5148
22294SOL     OW72717   2.645   7.222   3.345  0.0315 -0.0917  0.2837
22294SOL    HW172718   2.631   7.236   3.252  0.0740 -0.1568  0.2669
22294SOL    HW272719   2.735   7.253   3.361  1.5911 -3.6843 -0.5087
22295SOL     OW72720   6.457   3.719   1.508 -0.2877 -0.5423 -0.2724
22295SOL    HW172721   6.487   3.704   1.598 -2.0995 -1.8779  0.1682
22295SOL    HW272722   6.526   3.681   1.454  1.5617  1.5949  0.4347
22296SOL     OW72723   5.431   5.008   5.058 -0.2535  0.1404  0.6322
22296SOL    HW172724   5.483   4.937   5.096 -1.1546 -0.4777  0.7602
22296SOL    HW272725   5.495   5.072   5.028  0.6242 -1.1357 -0.3102
22297SOL     OW72726  10.058   1.772   2.928 -0.3087  0.0733 -0.3713
22297SOL    HW172727  10.124   1.710   2.958  0.3404  0.6767 -0.5390
22297SOL    HW272728  10.007   1.723   2.863  2.7793  0.8634 -3.6586
22298SOL     OW72729   1.050   8.144   6.235 -0.2157  0.4217  0.0229
22298SOL    HW172730   1.120   8.191   6.191  0.3068 -0.2309  0.1446
22298SOL    HW272731   1.056   8.171   6.326 -0.9021  1.2954 -0.1785
22299SOL     OW72732   0.228   7.687   0.082  0.1532  0.3925  0.6361
22299SOL    HW172733   0.276   7.708   0.003  0.8083  1.9097  1.4058
22299SOL    HW272734   0.270   7.608   0.116 -1.2150 -1.2985 -1.3679
22300SOL     OW72735   5.214   6.818   0.572  0.1499  0.1985 -0.1527
22300SOL    HW172736   5.162   6.795   0.495  0.8235 -1.7224 -0.0767
22300SOL    HW272737   5.160   6.881   0.620 -1.2353 -0.2491 -1.0857
22301SOL     OW72738   8.811   2.784   1.211  0.3266  0.3944 -0.1548
22301SOL    HW172739   8.812   2.714   1.275 -2.1085 -0.4522 -0.9146
22301SOL    HW272740   8.779   2.743   1.130  0.3215  2.0363 -1.0458
22302SOL     OW72741   8.045   7.405   8.101 -0.0138  0.3369  0.1336
22302SOL    HW172742   8.098   7.341   8.052 -0.5950 -0.5149  0.5883
22302SOL    HW272743   8.040   7.481   8.044 -1.4542 -0.9560 -1.5809
22303SOL     OW72744   7.439   8.359   8.878  0.3314 -0.1889 -0.8015
22303SOL    HW172745   7.491   8.306   8.939 -0.9833 -0.8072 -0.1794
22303SOL    HW272746   7.443   8.448   8.915 -0.4153 -0.5460  0.1929
22304SOL     OW72747   4.821  10.555   0.120 -0.3982 -0.0778  0.0860
22304SOL    HW172748   4.763  10.602   0.181 -0.5433 -0.7754  0.5001
22304SOL    HW272749   4.761  10.508   0.063 -0.2508 -1.1535  0.7946
22305SOL     OW72750   2.187  10.146   5.076  0.4084  0.1442 -0.1868
22305SOL    HW172751   2.158  10.102   5.156  0.4835  0.3896 -0.0213
22305SOL    HW272752   2.175  10.081   5.007 -0.3243  0.1604 -0.0893
22306SOL     OW72753   2.232   3.990   9.259 -0.1606  0.3794 -0.4791
22306SOL    HW172754   2.159   3.978   9.197 -2.2253  1.8051  1.4843
22306SOL    HW272755   2.189   4.018   9.340  2.5507  0.2086  1.1136
22307SOL     OW72756   8.042   7.133   6.175 -0.2618 -0.4119  0.0835
22307SOL    HW172757   8.103   7.087   6.232  1.0574  0.0906 -0.8675
22307SOL    HW272758   7.955   7.104   6.205  0.4077 -0.9711  1.6172
22308SOL     OW72759   2.148   6.472   0.408 -0.2553 -0.3835  0.6202
22308SOL    HW172760   2.219   6.531   0.382 -1.0994  0.4097  0.0475
22308SOL    HW272761   2.107   6.445   0.326 -0.9933 -0.3423  0.9593
22309SOL     OW72762   2.648   8.238   6.855  0.7175  0.1228 -0.4747
22309SOL    HW172763   2.684   8.212   6.939 -0.0376 -0.0394 -0.1915
22309SOL    HW272764   2.676   8.329   6.844 -0.4961  0.6873  0.7235
22310SOL     OW72765   0.276   3.600   9.884  0.0428 -0.0240 -0.1624
22310SOL    HW172766   0.367   3.579   9.904  0.4880  1.6932 -0.2471
22310SOL    HW272767   0.277   3.694   9.864 -1.6191 -0.1393 -0.9186
22311SOL     OW72768   1.374  10.117   1.698 -0.2493 -0.2740 -0.0380
22311SOL    HW172769   1.302  10.084   1.644 -0.9593  1.5280 -0.2901
22311SOL    HW272770   1.402  10.197   1.654 -0.8500  1.2712  2.1840
22312SOL     OW72771   4.330   2.208  10.273  0.0799  0.4928  0.0957
22312SOL    HW172772   4.407   2.178  10.321  1.9662  3.2850 -0.9743
22312SOL    HW272773   4.308   2.292  10.312  0.2882  1.7894 -2.3637
22313SOL     OW72774   1.278   1.611   2.368 -0.1255  0.4369 -0.7670
22313SOL    HW172775   1.327   1.637   2.447 -2.0475 -0.3421  0.7440
22313SOL    HW272776   1.210   1.677   2.359  0.6610  1.1044 -2.4476
22314SOL     OW72777   3.929   5.071   2.727  0.3912 -0.2316  0.3649
22314SOL    HW172778   3.871   5.106   2.660  0.2635  1.7769  1.4293
22314SOL    HW272779   3.877   5.005   2.772 -0.2668 -0.0561 -0.1311
22315SOL     OW72780   3.308   4.680   4.772 -0.4381 -0.3727 -0.0005
22315SOL    HW172781   3.291   4.761   4.723  1.1747  1.0431  1.5895
22315SOL    HW272782   3.238   4.676   4.837 -0.3570 -0.0694  0.1081
22316SOL     OW72783   2.378   8.661  10.433  0.5379  0.0655 -0.6779
22316SOL    HW172784   2.333   8.581  10.408 -2.1066  0.9875  0.7529
22316SOL    HW272785   2.384   8.711  10.351 -1.0473 -0.1187 -0.9432
22317SOL     OW72786   0.037   7.954   3.583 -0.2314  0.0786  0.8091
22317SOL    HW172787   0.123   7.996   3.573 -0.1779 -0.1810  0.1663
22317SOL    HW272788   0.053   7.882   3.644 -0.0040  0.0667  0.7379
22318SOL     OW72789   6.693   6.583   9.439 -0.0877  0.5552  0.5889
22318SOL    HW172790   6.626   6.578   9.507  0.1301 -2.5542  0.7318
22318SOL    HW272791   6.767   6.533   9.475  0.7864  0.5122 -1.1541
22319SOL     OW72792   8.894   0.182   9.503 -0.0470  0.2086  0.1168
22319SOL    HW172793   8.889   0.113   9.437  1.9953 -0.1031  0.2361
22319SOL    HW272794   8.832   0.156   9.571 -0.2188 -0.8358 -0.4253
22320SOL     OW72795   7.261   6.715   7.923 -0.6844  0.5885  0.1463
22320SOL    HW172796   7.231   6.624   7.918  0.2541  0.0809  2.5145
22320SOL    HW272797   7.221   6.748   8.003  2.5907  0.7741  1.8399
22321SOL     OW72798   7.785   8.334   0.682  0.8837  0.7712 -0.3237
22321SOL    HW172799   7.726   8.269   0.720 -0.1905  0.3889 -2.4932
22321SOL    HW272800   7.838   8.365   0.756 -0.4250 -0.5857  1.2526
22322SOL     OW72801   8.184   1.094   8.511 -0.5221  0.3821 -0.2617
22322SOL    HW172802   8.175   0.999   8.504 -1.5629  0.4457 -0.0135
22322SOL    HW272803   8.223   1.121   8.428 -1.6364 -0.1079 -0.9608
22323SOL     OW72804   3.717   7.363   5.577  0.2478  0.3893  0.3670
22323SOL    HW172805   3.795   7.330   5.621  0.6851 -0.0518 -0.6924
22323SOL    HW272806   3.746   7.379   5.487 -1.2737 -1.3947 -0.5102
22324SOL     OW72807   0.040   9.709   7.476  0.4874  0.1450  0.2564
22324SOL    HW172808   0.069   9.658   7.551  1.1093 -0.2123 -0.2239
22324SOL    HW272809   0.038   9.647   7.403 -1.3292  0.1801  0.2162
22325SOL     OW72810   2.423   7.803   1.896 -0.0345 -0.0226 -0.1232
22325SOL    HW172811   2.473   7.851   1.830  0.3778  0.6416  0.6485
22325SOL    HW272812   2.444   7.711   1.880  0.8378  0.1964 -0.3046
22326SOL     OW72813   4.353   0.102   5.609  0.2566 -0.5211  0.0428
22326SOL    HW172814   4.304   0.061   5.680 -0.5323 -0.1865 -0.2986
22326SOL    HW272815   4.369   0.191   5.640 -0.8345 -0.1124 -0.5476
22327SOL     OW72816   0.709  10.187  10.072 -0.6012  0.5065  0.1688
22327SOL    HW172817   0.683  10.103  10.109 -0.0010 -0.1060 -0.7743
22327SOL    HW272818   0.804  10.187  10.076 -0.5580  0.7155 -0.7540
22328SOL     OW72819   5.503   8.975   6.156 -0.6252  0.3199  0.0749
22328SOL    HW172820   5.551   9.025   6.089  0.3090  0.9749  1.1943
22328SOL    HW272821   5.427   9.030   6.175 -0.6218  0.3796 -0.0748
22329SOL     OW72822   9.453   4.144  10.505 -0.2094 -0.0081  0.0708
22329SOL    HW172823   9.507   4.160  10.428  0.2112 -0.8590  0.1781
22329SOL    HW272824   9.431   4.051  10.501  1.3681 -0.5323  1.9243
22330SOL     OW72825   8.635   9.601   9.748  0.2225 -0.1686 -0.1013
22330SOL    HW172826   8.707   9.653   9.783  0.2211  0.3787 -0.9134
22330SOL    HW272827   8.668   9.511   9.749  0.3893 -0.1125  0.8660
22331SOL     OW72828   0.282  10.025   2.871 -0.6102  0.3826 -0.1896
22331SOL    HW172829   0.233  10.048   2.950 -0.9108  0.6221 -0.4399
22331SOL    HW272830   0.362   9.985   2.903  0.1957  2.2736  0.2903
22332SOL     OW72831   1.161   3.531   0.467 -0.1068 -0.2555  0.0843
22332SOL    HW172832   1.135   3.477   0.542  1.1067 -1.0960 -0.0675
22332SOL    HW272833   1.230   3.480   0.424  0.2505  0.8984 -0.7509
22333SOL     OW72834   1.253   2.303   4.565  0.2861 -0.4674  0.3984
22333SOL    HW172835   1.193   2.331   4.635 -0.5755 -0.5465 -0.2933
22333SOL    HW272836   1.340   2.313   4.603  0.0349  2.8034  0.3362
22334SOL     OW72837   4.382   7.215   5.331 -0.2981 -0.1930 -0.3810
22334SOL    HW172838   4.391   7.133   5.380 -1.9093 -0.6059 -0.7240
22334SOL    HW272839   4.433   7.201   5.251  0.4894 -0.3514  0.1272
22335SOL     OW72840   6.022   0.818   6.777 -0.6845 -0.1144  0.1579
22335SOL    HW172841   5.943   0.820   6.831 -0.2056  0.7302  0.8594
22335SOL    HW272842   6.003   0.878   6.704 -1.2427 -1.0759 -0.5104
22336SOL     OW72843   8.518  10.025   1.981 -0.0856 -0.0471  0.5753
22336SOL    HW172844   8.488   9.992   1.896 -1.7351  1.4301  0.5180
22336SOL    HW272845   8.600  10.070   1.962  0.0832 -0.5984 -0.0437
22337SOL     OW72846   9.414   9.462   9.038  0.3067 -0.3476  0.3792
22337SOL    HW172847   9.351   9.409   9.087 -0.3601 -0.3478 -0.4528
22337SOL    HW272848   9.459   9.399   8.981  0.4183 -0.2165  0.3219
22338SOL     OW72849   4.919   3.290   5.716 -0.5485  0.0545  0.4944
22338SOL    HW172850   4.974   3.213   5.704  0.6845  0.7675  1.3778
22338SOL    HW272851   4.829   3.257   5.705 -0.0580 -1.4973  0.8762
22339SOL     OW72852   3.475   4.867   0.979 -0.5152 -0.2534 -0.1397
22339SOL    HW172853   3.557   4.844   1.024  0.0880  0.6218 -0.7583
22339SOL    HW272854   3.467   4.802   0.909 -0.1535 -0.1267 -0.3009
22340SOL     OW72855   1.529   5.958   0.712 -0.2636  0.0154  0.0657
22340SOL    HW172856   1.501   5.922   0.628 -0.0857  0.5970 -0.2477
22340SOL    HW272857   1.625   5.947   0.712 -0.3303 -0.6563  0.5159
22341SOL     OW72858   0.850   4.949   9.361 -0.1362 -0.7016  0.4617
22341SOL    HW172859   0.817   4.864   9.332 -0.4187 -0.8424  1.1636
22341SOL    HW272860   0.836   5.007   9.286 -0.2915 -1.1836  0.1120
22342SOL     OW72861   3.808   3.311   7.468  0.3466 -0.2332 -0.2908
22342SOL    HW172862   3.870   3.383   7.453 -0.3033  0.2009 -0.9277
22342SOL    HW272863   3.774   3.327   7.556 -0.6670  0.9263 -0.8639
22343SOL     OW72864   4.352   1.901   1.522 -0.2781 -0.4898  0.6895
22343SOL    HW172865   4.349   1.939   1.610  2.5725 -0.5818  0.9223
22343SOL    HW272866   4.381   1.973   1.466 -1.6174 -0.5590 -0.1429
22344SOL     OW72867   7.755   2.058   5.177  0.1953 -0.0339 -0.2221
22344SOL    HW172868   7.834   2.052   5.122  1.0218 -1.6288  1.0657
22344SOL    HW272869   7.683   2.060   5.114  1.1337 -1.3997 -1.3945
22345SOL     OW72870   9.554   9.898   2.811  0.0164 -0.0738  0.1634
22345SOL    HW172871   9.554   9.930   2.720 -3.0071  2.4740  0.8682
22345SOL    HW272872   9.467   9.860   2.823  0.1860  0.0462  2.1072
22346SOL     OW72873   5.883   2.232  10.172  0.5049 -0.0938  0.2095
22346SOL    HW172874   5.963   2.235  10.118  0.3654 -2.0551 -0.1636
22346SOL    HW272875   5.818   2.190  10.116 -0.1075 -0.6807  1.3316
22347SOL     OW72876   4.076  10.573   9.308 -0.8831 -0.4135  0.0133
22347SOL    HW172877   3.999  10.595   9.361 -0.9369 -0.8619  0.1325
22347SOL    HW272878   4.149  10.614   9.354 -1.0383 -0.0624 -0.0474
22348SOL     OW72879   1.926   1.569   0.978  0.4145  0.0064  0.1043
22348SOL    HW172880   1.931   1.664   0.982 -1.3249  0.1715 -0.7804
22348SOL    HW272881   1.878   1.544   1.058 -0.6103  0.0408 -0.4821
22349SOL     OW72882   2.333   0.672   0.552 -0.0086 -0.2596  0.0697
22349SOL    HW172883   2.247   0.690   0.591  0.2285  2.5335 -0.4777
22349SOL    HW272884   2.393   0.671   0.627 -0.3372 -1.2175  0.3458
22350SOL     OW72885  10.161   3.519   8.754 -0.4955 -0.6067  0.1983
22350SOL    HW172886  10.106   3.593   8.728  0.3332  0.5186  1.5369
22350SOL    HW272887  10.187   3.478   8.672 -1.5108  0.1649 -0.5344
22351SOL     OW72888   6.015   2.571   2.420  0.1375  0.1831  0.5489
22351SOL    HW172889   5.935   2.584   2.472  0.9025 -0.3117  1.9008
22351SOL    HW272890   5.989   2.512   2.349 -0.4879 -0.7205  1.5084
22352SOL     OW72891   4.135   3.389   1.839 -0.2501 -0.3645  0.4561
22352SOL    HW172892   4.196   3.452   1.800  0.5396 -0.9259  0.7752
22352SOL    HW272893   4.067   3.378   1.772  0.3922 -0.3160 -0.2168
22353SOL     OW72894  10.211   1.439   4.432 -0.2336  0.2674 -0.2007
22353SOL    HW172895  10.165   1.520   4.409 -0.0756  0.4049 -0.0336
22353SOL    HW272896  10.185   1.422   4.523 -0.1811  0.1900 -0.1998
22354SOL     OW72897   4.151   1.816   4.091 -0.3882 -0.0707  0.1314
22354SOL    HW172898   4.161   1.722   4.074  1.5824  0.1246  0.0096
22354SOL    HW272899   4.180   1.827   4.182  1.2900  0.6722 -0.4638
22355SOL     OW72900  10.464   4.741   8.377  0.0462 -0.2027  0.0734
22355SOL    HW172901  10.373   4.711   8.375  0.2530 -0.8905  0.5948
22355SOL    HW272902  10.469   4.795   8.456 -0.4851  1.8032 -1.1913
22356SOL     OW72903   9.117   3.616   5.139  0.5229  0.2512 -0.4343
22356SOL    HW172904   9.133   3.535   5.188  0.1845  0.7185  0.4641
22356SOL    HW272905   9.026   3.608   5.108  0.3952  0.4186 -0.0991
22357SOL     OW72906   6.866   4.623   4.984  0.0968  0.0276  0.4624
22357SOL    HW172907   6.848   4.533   4.957 -0.5718  0.0778  0.7302
22357SOL    HW272908   6.951   4.618   5.028 -0.7901 -0.8316  2.1833
22358SOL     OW72909  10.247   1.879   4.784 -0.2968  0.4496 -0.2688
22358SOL    HW172910  10.311   1.848   4.720 -0.4688  2.5606 -1.5559
22358SOL    HW272911  10.174   1.818   4.776  2.1133 -3.3143  2.6969
22359SOL     OW72912   1.401   7.681   7.360 -0.1109 -0.3205  0.2415
22359SOL    HW172913   1.409   7.758   7.304 -1.4648 -0.7606 -0.6061
22359SOL    HW272914   1.350   7.711   7.435  0.7543 -0.0103  0.7248
22360SOL     OW72915   7.940   8.672   4.984 -0.2306 -0.0258  0.1525
22360SOL    HW172916   7.873   8.637   5.043 -1.1433 -0.3292 -1.0166
22360SOL    HW272917   7.904   8.755   4.954  0.8029  0.7426  0.9785
22361SOL     OW72918   0.291   4.107   0.089  0.0385 -0.0143 -0.4306
22361SOL    HW172919   0.236   4.176   0.126 -0.3800 -0.7081  0.2604
22361SOL    HW272920   0.370   4.152   0.058 -0.4511  0.8343 -0.4479
22362SOL     OW72921   4.541   7.012   4.844  0.7122  0.1879 -0.1169
22362SOL    HW172922   4.498   6.926   4.844 -0.1009  0.5804 -1.0843
22362SOL    HW272923   4.633   6.992   4.864  1.0740 -1.2062 -2.6992
22363SOL     OW72924   8.643   3.793   1.012 -0.5357 -0.1418  0.3666
22363SOL    HW172925   8.730   3.760   1.034 -1.2437 -1.0386  2.0607
22363SOL    HW272926   8.643   3.800   0.917  1.5155  0.3064  0.3535
22364SOL     OW72927   2.851   1.117   2.878  0.1859  0.3952 -0.2796
22364SOL    HW172928   2.784   1.087   2.817  0.7540  0.7298 -1.0884
22364SOL    HW272929   2.819   1.091   2.964 -1.3368  1.2063 -0.5664
22365SOL     OW72930   0.459   7.374  10.319 -0.3221  0.1286  0.2160
22365SOL    HW172931   0.441   7.468  10.315  0.9945  0.3919  0.1194
22365SOL    HW272932   0.380   7.337  10.357  0.3570  1.6673  3.4781
22366SOL     OW72933   0.064   0.768   3.411  0.5812 -0.2364  0.0969
22366SOL    HW172934  -0.029   0.787   3.418  0.8187  1.5284 -0.8952
22366SOL    HW272935   0.076   0.735   3.323  0.9954  0.3143 -0.0603
22367SOL     OW72936   5.766   7.434   1.921  0.2906 -0.0830  0.3419
22367SOL    HW172937   5.687   7.392   1.887  0.8009 -1.0091  0.2783
22367SOL    HW272938   5.762   7.523   1.885 -0.3421 -0.3406 -0.2716
22368SOL     OW72939  10.412   1.256   7.681  0.3143  0.5242  0.2260
22368SOL    HW172940  10.481   1.190   7.692  1.1468  1.5917  1.9865
22368SOL    HW272941  10.345   1.213   7.629  0.4072 -2.0410  2.0542
22369SOL     OW72942   4.396   1.004   4.467  0.1470  0.3547  0.3273
22369SOL    HW172943   4.491   0.993   4.461  0.0133 -0.6942 -0.0095
22369SOL    HW272944   4.360   0.932   4.416 -0.8410  0.5853  0.6753
22370SOL     OW72945   4.191   3.269   9.543  0.4351  0.0320  0.4598
22370SOL    HW172946   4.197   3.272   9.639  0.5353  0.1225  0.4517
22370SOL    HW272947   4.278   3.296   9.513 -0.4510  3.1458  0.3165
22371SOL     OW72948   0.708   6.708   8.893 -0.5668  0.2536 -0.3012
22371SOL    HW172949   0.743   6.626   8.858  2.0385  0.9036  0.5815
22371SOL    HW272950   0.720   6.700   8.988 -2.3887  0.7714  0.0090
22372SOL     OW72951   1.169   2.212   4.316 -0.3913  0.6019 -0.2555
22372SOL    HW172952   1.245   2.235   4.263 -0.6429  0.2816 -0.7663
22372SOL    HW272953   1.192   2.239   4.405  1.6569 -2.3298  0.2642
22373SOL     OW72954   2.451   2.754  10.045 -0.4997  0.0170 -0.8730
22373SOL    HW172955   2.373   2.802  10.075 -0.7076 -0.0517 -1.2919
22373SOL    HW272956   2.510   2.823  10.013 -0.2881  0.0876 -0.3362
22374SOL     OW72957   6.074   2.376   5.429  0.3078  0.0105 -0.4449
22374SOL    HW172958   6.115   2.309   5.375 -2.4274 -1.7349 -0.5147
22374SOL    HW272959   6.034   2.328   5.501  0.5697  1.9012  1.0689
22375SOL     OW72960   1.587   5.346   2.217 -0.4506 -0.0682  0.2974
22375SOL    HW172961   1.593   5.429   2.263 -1.3629 -0.1468  0.5810
22375SOL    HW272962   1.646   5.356   2.142  3.7156 -1.1198  3.0766
22376SOL     OW72963   3.400   9.475   7.538  0.0938 -0.4617 -0.0036
22376SOL    HW172964   3.314   9.513   7.525 -0.4096 -1.4356  0.4084
22376SOL    HW272965   3.457   9.550   7.558 -0.8994  0.0673  0.9188
22377SOL     OW72966   4.270   7.032   1.949 -0.2368  0.5025 -0.2866
22377SOL    HW172967   4.294   7.014   2.040  1.0419 -1.1107 -0.8809
22377SOL    HW272968   4.352   7.054   1.906 -0.7359  0.6694 -1.1810
22378SOL     OW72969   3.128  10.343   8.063  0.0000 -0.0412 -0.1304
22378SOL    HW172970   3.081  10.409   8.013 -0.5186  0.5095  1.0532
22378SOL    HW272971   3.215  10.338   8.022  0.1165  1.5128 -0.1155
22379SOL     OW72972   5.144   1.153   6.711 -0.1501 -0.7399 -0.2596
22379SOL    HW172973   5.057   1.140   6.675 -0.3386 -0.6784  0.1770
22379SOL    HW272974   5.160   1.247   6.700 -0.0490 -0.7864 -0.5333
22380SOL     OW72975   8.007   7.468   7.157  0.1799  1.0015 -0.0716
22380SOL    HW172976   7.918   7.455   7.189  0.3865  1.2421  0.6074
22380SOL    HW272977   8.056   7.498   7.233  1.5927 -2.1129  0.4252
22381SOL     OW72978   4.316   1.447   6.124 -0.3925 -0.2368 -0.0704
22381SOL    HW172979   4.361   1.529   6.146 -0.7012 -0.0892  0.0147
22381SOL    HW272980   4.290   1.410   6.208  2.3286 -1.9274  0.1281
22382SOL     OW72981   3.407   1.087   4.322 -0.5077 -0.3138 -0.5374
22382SOL    HW172982   3.401   1.046   4.236  1.0297  0.4790 -1.0581
22382SOL    HW272983   3.332   1.146   4.326 -1.7888 -1.8787 -0.4487
22383SOL     OW72984   2.824   4.884   4.247 -0.1370  0.0041  0.1523
22383SOL    HW172985   2.906   4.853   4.285  0.0310  0.6884  0.3613
22383SOL    HW272986   2.756   4.838   4.296  0.1361 -1.9950 -1.2747
22384SOL     OW72987   1.646   7.549   4.926  0.3690  0.3283  0.6399
22384SOL    HW172988   1.551   7.543   4.919  0.3665 -1.1903  1.4333
22384SOL    HW272989   1.678   7.470   4.883  1.3102  1.0999 -0.1087
22385SOL     OW72990   0.065   7.574   1.808 -0.2910 -0.3715 -0.3131
22385SOL    HW172991   0.036   7.662   1.786  1.8807  0.8627  1.2844
22385SOL    HW272992   0.141   7.559   1.752 -0.7092 -1.2848 -0.6505
22386SOL     OW72993   7.125   8.436   3.296  0.5349 -0.2366 -0.0674
22386SOL    HW172994   7.163   8.357   3.336  0.7494 -0.1607 -0.1252
22386SOL    HW272995   7.172   8.447   3.214  1.4179  0.6982  0.5437
22387SOL     OW72996  10.674   8.147   9.555  0.3118 -0.1472  0.0673
22387SOL    HW172997  10.689   8.188   9.470  2.4105 -1.5647 -0.3342
22387SOL    HW272998  10.761   8.122   9.585 -0.3651  0.4835  2.7537
22388SOL     OW72999   8.535   4.161   7.357  0.5644 -0.7954  0.3744
22388SOL    HW173000   8.559   4.246   7.320 -0.4211 -1.1509 -1.1822
22388SOL    HW273001   8.569   4.097   7.294  0.9131 -1.5472  1.3042
22389SOL     OW73002   2.928   9.137   8.152  0.6324 -0.4539 -0.5556
22389SOL    HW173003   2.860   9.193   8.190  0.3384 -0.1963 -1.4216
22389SOL    HW273004   2.914   9.051   8.193  1.1114  0.0986  0.8073
22390SOL     OW73005   4.598   6.039   7.163 -0.0263 -0.3270  0.1711
22390SOL    HW173006   4.658   6.102   7.202 -0.5709  0.1391  0.2850
22390SOL    HW273007   4.567   5.987   7.238 -2.0964  1.4318  0.6540
22391SOL     OW73008   4.682   5.425  10.124 -0.0720 -0.3616 -0.2600
22391SOL    HW173009   4.683   5.389  10.213  1.8556  0.9254  0.3084
22391SOL    HW273010   4.763   5.476  10.118 -1.5475  2.0314 -1.7375
22392SOL     OW73011   4.724   9.182   1.313 -0.1070 -0.2961 -0.6488
22392SOL    HW173012   4.804   9.182   1.366 -0.0488  0.7880 -0.7065
22392SOL    HW273013   4.687   9.270   1.326 -2.5211 -1.4475  1.2040
22393SOL     OW73014   9.575  10.493   7.324 -0.2700 -0.1741  0.0246
22393SOL    HW173015   9.621  10.529   7.249  1.5172  0.9574  1.5562
22393SOL    HW273016   9.628  10.419   7.353 -0.1958  0.2140  0.9302
22394SOL     OW73017   6.692   7.764  10.079  0.2197  0.0905 -0.0372
22394SOL    HW173018   6.667   7.856  10.080  0.9715  0.3279  1.8853
22394SOL    HW273019   6.652   7.727  10.157 -0.5387 -1.3868 -1.0750
22395SOL     OW73020   2.227   7.206  10.035  0.2004 -0.4594 -0.5607
22395SOL    HW173021   2.251   7.118  10.006  1.9856 -0.2830  0.2455
22395SOL    HW273022   2.218   7.198  10.130 -2.0426 -0.2611 -0.6983
22396SOL     OW73023   4.813   5.537   5.796 -0.3997  0.0301  0.3405
22396SOL    HW173024   4.795   5.602   5.864  1.7594 -1.1677  2.2014
22396SOL    HW273025   4.850   5.463   5.843 -1.5052 -2.0408 -1.8693
22397SOL     OW73026   6.183   6.018   2.689 -0.3442 -0.0337 -0.1791
22397SOL    HW173027   6.250   5.976   2.636 -2.0413 -2.2957 -0.6996
22397SOL    HW273028   6.177   6.107   2.656 -0.2372 -0.9124 -2.7579
22398SOL     OW73029   8.183   0.978   2.059  0.2293 -0.3397  0.6070
22398SOL    HW173030   8.104   0.973   2.113 -1.3005  0.2533 -1.4832
22398SOL    HW273031   8.156   1.020   1.978  2.6317 -0.4125 -0.3402
22399SOL     OW73032   6.065   7.179   4.273  0.3494 -0.0265 -0.2632
22399SOL    HW173033   6.004   7.249   4.253 -0.5568 -0.5324  0.6328
22399SOL    HW273034   6.023   7.100   4.240  0.4062 -0.4033  0.5252
22400SOL     OW73035   9.080   0.656   9.609 -0.0138 -0.2443 -0.2221
22400SOL    HW173036   9.076   0.725   9.675 -1.8127 -0.6594  0.1513
22400SOL    HW273037   9.045   0.579   9.654 -0.8699 -0.6389 -1.5406
22401SOL     OW73038   9.587  10.472   7.659  0.5771 -0.0461  0.0979
22401SOL    HW173039   9.640  10.537   7.706  0.6803 -0.7056  0.9023
22401SOL    HW273040   9.567  10.515   7.576  3.5719 -0.2889 -0.8737
22402SOL     OW73041   4.773   9.945   7.867  0.3854 -0.0407 -0.7000
22402SOL    HW173042   4.703   9.890   7.831  0.6894  0.1662 -1.6481
22402SOL    HW273043   4.748   9.961   7.958  0.1027 -1.4385 -0.5100
22403SOL     OW73044   2.320   6.263   4.408  0.7138 -0.2582 -0.0432
22403SOL    HW173045   2.253   6.326   4.383  1.4951  1.1555  1.2440
22403SOL    HW273046   2.334   6.210   4.330 -0.5571  0.6172 -0.9059
22404SOL     OW73047   4.277   3.018   4.191 -0.0559  0.3857 -0.3653
22404SOL    HW173048   4.244   2.954   4.254  1.6122  0.0512  0.2121
22404SOL    HW273049   4.276   3.101   4.239 -1.8279  0.7634 -0.9812
22405SOL     OW73050   3.741   3.899  10.308 -0.7965 -0.3256  0.1469
22405SOL    HW173051   3.778   3.812  10.321 -1.1364 -0.4368  0.4061
22405SOL    HW273052   3.763   3.947  10.388 -2.6773 -0.9337  1.0943
22406SOL     OW73053   5.068   1.225   4.377  0.3916  0.1308  0.0043
22406SOL    HW173054   5.062   1.315   4.410 -2.0482  0.2121 -0.4819
22406SOL    HW273055   5.009   1.175   4.434  1.0478 -1.0110 -0.2857
22407SOL     OW73056   0.909  10.155   0.415  0.3331  0.0062 -0.0891
22407SOL    HW173057   0.959  10.079   0.386 -1.4616 -1.9599  1.6010
22407SOL    HW273058   0.905  10.146   0.511 -0.9754  1.5360  0.0512
22408SOL     OW73059   5.312   2.394   2.557  0.0678  0.5778  0.1733
22408SOL    HW173060   5.237   2.343   2.585 -0.0356  0.9030  0.4862
22408SOL    HW273061   5.316   2.380   2.462  0.5533 -0.6956  0.3549
22409SOL     OW73062   6.836   6.554   5.905 -0.1800 -0.6274 -0.3075
22409SOL    HW173063   6.905   6.489   5.919 -0.8426 -0.9256  1.8155
22409SOL    HW273064   6.883   6.632   5.875  0.6635 -1.8887 -2.5588
22410SOL     OW73065   9.310  10.703   9.776 -0.2910  0.0070 -0.1363
22410SOL    HW173066   9.378  10.744   9.723  1.3173 -0.6538  1.3149
22410SOL    HW273067   9.321  10.609   9.762 -0.1527 -0.1562  0.9565
22411SOL     OW73068   9.253  10.003   5.683  0.0803 -0.2270  0.0767
22411SOL    HW173069   9.196   9.938   5.724  0.1765 -0.1037  0.4018
22411SOL    HW273070   9.206  10.086   5.692  0.6048 -0.0171  0.9269
22412SOL     OW73071   0.299   4.905   0.001  0.4328 -0.0792 -0.3661
22412SOL    HW173072   0.270   4.857  -0.077  1.6635  0.6595 -1.3107
22412SOL    HW273073   0.394   4.900  -0.002  0.5229  0.8366  0.5329
22413SOL     OW73074   7.102  10.428   3.203 -0.4143 -0.3628 -0.2406
22413SOL    HW173075   7.060  10.411   3.119 -2.2664  0.2518  0.5167
22413SOL    HW273076   7.053  10.502   3.240  0.3976 -0.5887  1.3610
22414SOL     OW73077   4.698   6.877   3.068 -0.3722 -0.0781 -0.2165
22414SOL    HW173078   4.774   6.888   3.125 -0.1705  1.0104 -0.6817
22414SOL    HW273079   4.719   6.799   3.016  0.1735 -0.1084  0.0411
22415SOL     OW73080  10.460   8.204   1.878  0.2255 -0.1353 -0.4086
22415SOL    HW173081  10.392   8.260   1.841 -0.1815 -0.6103 -0.4064
22415SOL    HW273082  10.459   8.126   1.822  1.6713  0.3789 -1.2080
22416SOL     OW73083   1.165  10.057   0.967 -0.2114  0.8905 -0.0904
22416SOL    HW173084   1.164  10.153   0.962  1.7443  1.0047  0.7239
22416SOL    HW273085   1.245  10.032   0.920 -0.9201 -0.3965 -0.6585
22417SOL     OW73086   0.146   6.389   5.634  0.2409  0.1738 -0.8450
22417SOL    HW173087   0.053   6.372   5.624  0.2305  1.0733 -2.5001
22417SOL    HW273088   0.177   6.318   5.691 -1.4758  0.0144 -0.0544
22418SOL     OW73089   0.596   8.350   1.880 -0.5715  0.1698  0.1723
22418SOL    HW173090   0.501   8.342   1.873 -0.6167  0.7229  0.1081
22418SOL    HW273091   0.622   8.275   1.933 -1.1664  0.5806  1.0776
22419SOL     OW73092   4.872   1.223   6.777  0.2123 -0.4635 -0.2551
22419SOL    HW173093   4.899   1.269   6.857 -0.9032 -0.1818 -0.0201
22419SOL    HW273094   4.853   1.134   6.806  3.1691 -1.4131 -0.8504
22420SOL     OW73095   1.226   6.168   9.517  0.8271  0.5833 -0.3340
22420SOL    HW173096   1.183   6.173   9.431 -2.6247  0.2931  1.2031
22420SOL    HW273097   1.196   6.247   9.563  1.0925 -0.1761  1.1933
22421SOL     OW73098  10.597   0.679   1.264  0.2967 -0.0596  0.2858
22421SOL    HW173099  10.522   0.691   1.323  0.6402  0.7313  0.5824
22421SOL    HW273100  10.561   0.692   1.177  0.4482  2.6452  0.5151
22422SOL     OW73101   7.329   7.523   3.032 -0.5615  0.3229  1.1195
22422SOL    HW173102   7.402   7.461   3.028 -1.1756 -0.3885 -1.2440
22422SOL    HW273103   7.253   7.470   3.007 -1.6703  1.3506  2.2023
22423SOL     OW73104   5.912   3.587   8.157 -0.5714  0.2772  0.0262
22423SOL    HW173105   5.946   3.615   8.242 -2.3731  0.9525  0.5844
22423SOL    HW273106   5.982   3.534   8.119  0.7504  0.9652  1.3927
22424SOL     OW73107   2.330   5.891   9.135 -0.8195 -0.1966  0.5901
22424SOL    HW173108   2.354   5.807   9.175  0.6537 -0.5640 -0.9540
22424SOL    HW273109   2.312   5.870   9.043  0.6999  1.3127 -0.0986
22425SOL     OW73110   5.362   1.856   1.711  0.3096 -0.2458  0.1561
22425SOL    HW173111   5.319   1.833   1.793  1.6976 -1.8666  0.4881
22425SOL    HW273112   5.455   1.840   1.727  0.7611  0.6155 -1.3492
22426SOL     OW73113   0.784   2.584  10.512 -0.0943 -0.5755  0.0662
22426SOL    HW173114   0.704   2.533  10.528 -0.0309 -0.8077 -0.3504
22426SOL    HW273115   0.806   2.622  10.597 -0.3727 -0.9098  0.2870
22427SOL     OW73116   6.277   3.567   7.703 -0.0386 -0.0264 -0.2698
22427SOL    HW173117   6.223   3.541   7.777 -1.4243 -0.5889 -1.4357
22427SOL    HW273118   6.333   3.637   7.738  1.2901 -2.0695  2.0056
22428SOL     OW73119   2.027   7.872   0.847 -0.1944  0.0015  0.1551
22428SOL    HW173120   1.948   7.877   0.793 -0.0839 -0.2496 -0.0281
22428SOL    HW273121   2.099   7.893   0.788 -0.1050  0.0562  0.2815
22429SOL     OW73122   9.016   6.418   0.706  0.7235 -0.2787 -0.5280
22429SOL    HW173123   8.988   6.348   0.765  2.8370  0.3959  1.4263
22429SOL    HW273124   8.988   6.499   0.749 -0.3209  0.1643 -1.9811
22430SOL     OW73125  10.301   9.821   1.747 -0.7288  0.1900  0.1914
22430SOL    HW173126  10.230   9.875   1.780 -3.6186 -2.0419 -1.7883
22430SOL    HW273127  10.303   9.838   1.653 -0.3658 -1.5950 -0.1669
22431SOL     OW73128   6.016   9.945   3.152  0.1706 -0.0466  0.0856
22431SOL    HW173129   6.023   9.973   3.243  0.1764  0.4788 -0.0756
22431SOL    HW273130   6.068  10.009   3.103 -1.3893  0.8183 -0.5105
22432SOL     OW73131   9.684   3.865   7.018  0.3325 -0.0283  0.0912
22432SOL    HW173132   9.731   3.787   7.046  0.7964 -0.1663 -1.0276
22432SOL    HW273133   9.611   3.872   7.079 -0.3440 -1.9432 -0.4234
22433SOL     OW73134   6.146   1.876   9.563  0.0181  0.1199 -0.0719
22433SOL    HW173135   6.237   1.849   9.554 -0.3096 -0.5276 -1.6631
22433SOL    HW273136   6.140   1.958   9.513 -0.4869 -0.3549 -0.7993
22434SOL     OW73137   6.451   4.600   7.045  0.2444 -0.2166 -0.0393
22434SOL    HW173138   6.523   4.661   7.063 -0.5271 -0.1471  3.6208
22434SOL    HW273139   6.373   4.655   7.048 -0.2286 -0.8621 -0.3710
22435SOL     OW73140  10.286   2.514   1.894  0.5334  0.3278  0.0330
22435SOL    HW173141  10.379   2.501   1.878  0.6836  0.9183  0.4047
22435SOL    HW273142  10.282   2.591   1.951 -0.2792  1.4894 -1.5248
22436SOL     OW73143   8.097   1.971   2.370  0.4067 -0.1000 -0.1450
22436SOL    HW173144   8.171   2.022   2.337  0.3145 -0.5227 -1.0285
22436SOL    HW273145   8.020   2.017   2.339  0.2520  0.7978  1.4594
22437SOL     OW73146   5.311   1.379   3.525 -0.1173  0.1543  0.2977
22437SOL    HW173147   5.296   1.332   3.608 -0.3673  0.2406  0.3023
22437SOL    HW273148   5.223   1.400   3.494 -0.3668 -3.5409 -2.1259
22438SOL     OW73149   7.981   7.609   6.890 -0.1372  0.5518  0.0939
22438SOL    HW173150   7.950   7.624   6.979 -1.6293  1.4030 -0.5388
22438SOL    HW273151   7.967   7.515   6.875 -2.0000  0.8233  0.0026
22439SOL     OW73152   7.151   2.426   2.609  0.2459  0.1125 -0.3487
22439SOL    HW173153   7.152   2.504   2.554  0.5712  0.0136 -0.4856
22439SOL    HW273154   7.140   2.459   2.698 -0.5796  0.2567 -0.4986
22440SOL     OW73155   0.176   7.694   5.752 -0.3479  0.3512  0.0864
22440SOL    HW173156   0.200   7.635   5.680  0.8822  0.3472  0.4826
22440SOL    HW273157   0.094   7.734   5.723 -1.5370 -1.9334  0.0312
22441SOL     OW73158   4.935   1.320  10.571  0.6349 -0.4297 -0.5032
22441SOL    HW173159   4.954   1.283  10.657 -1.9494  3.3857  2.0794
22441SOL    HW273160   4.840   1.309  10.561  0.3142  2.1596 -1.1256
22442SOL     OW73161   8.759   3.718   8.821 -0.6272 -0.1017 -0.4662
22442SOL    HW173162   8.761   3.792   8.760  1.2454 -0.4090 -0.8372
22442SOL    HW273163   8.819   3.743   8.891 -0.2422 -1.1296 -0.4161
22443SOL     OW73164  10.401   0.967   9.896 -0.0011  0.4821  0.1736
22443SOL    HW173165  10.433   1.052   9.866  0.4312  0.4958  0.6722
22443SOL    HW273166  10.447   0.903   9.841 -0.5511  0.5765 -0.4071
22444SOL     OW73167   7.549   7.692   8.281  0.5918 -0.1564 -0.2346
22444SOL    HW173168   7.530   7.602   8.253 -0.9358  0.3524 -1.0000
22444SOL    HW273169   7.607   7.727   8.213 -0.2473 -0.0375 -0.9124
22445SOL     OW73170   4.382   8.101   9.298  0.2191  0.0748 -0.3905
22445SOL    HW173171   4.320   8.174   9.302  0.3708  0.1685  0.4102
22445SOL    HW273172   4.341   8.039   9.237  0.2588  0.9680 -1.3513
22446SOL     OW73173   8.115   1.591   5.589  0.0357  0.2996 -0.1513
22446SOL    HW173174   8.069   1.509   5.607 -1.6787  1.2245 -0.1098
22446SOL    HW273175   8.046   1.658   5.587  1.3843  1.7584 -0.1577
22447SOL     OW73176   5.423   8.535   7.535  0.7190  0.9089 -0.3811
22447SOL    HW173177   5.423   8.549   7.629  1.1420  1.0531 -0.4018
22447SOL    HW273178   5.391   8.617   7.498 -0.0933  0.6236 -0.3344
22448SOL     OW73179   9.812   2.886   0.525 -0.3299 -0.6419  0.1814
22448SOL    HW173180   9.859   2.913   0.604 -1.5237  0.7585  0.4542
22448SOL    HW273181   9.866   2.918   0.453 -0.1852 -0.2559  0.4578
22449SOL     OW73182   6.809   7.404   2.898  0.0898 -0.6235  0.3599
22449SOL    HW173183   6.773   7.319   2.925 -0.0134 -1.5013 -2.2160
22449SOL    HW273184   6.732   7.455   2.872  0.2280 -0.0736  1.0102
22450SOL     OW73185   7.361   7.105   7.180 -0.5411 -0.0712  0.0811
22450SOL    HW173186   7.413   7.039   7.227  0.3137  1.2301  1.0236
22450SOL    HW273187   7.414   7.126   7.103 -0.4669  0.0494  0.1655
22451SOL     OW73188   2.954   1.279   6.584 -0.3636 -0.1952  0.2212
22451SOL    HW173189   3.032   1.312   6.538 -0.8544 -0.3104 -0.7346
22451SOL    HW273190   2.971   1.296   6.676  0.1063  1.2438 -0.1035
22452SOL     OW73191   4.469   5.904   0.180 -0.2547 -0.4109 -0.1563
22452SOL    HW173192   4.416   5.825   0.194 -0.6956 -0.3358 -1.2723
22452SOL    HW273193   4.548   5.889   0.231 -1.2388 -0.6357  1.3532
22453SOL     OW73194   7.829   5.260   1.500  0.0309  0.2659  0.2543
22453SOL    HW173195   7.814   5.167   1.485 -1.1986  0.2645  1.3004
22453SOL    HW273196   7.821   5.300   1.413  1.8419 -0.7217 -0.4159
22454SOL     OW73197   1.519   5.005   5.433  0.0591 -0.2281  0.0272
22454SOL    HW173198   1.454   5.075   5.430  1.1715  0.9064  1.1109
22454SOL    HW273199   1.472   4.930   5.469 -0.2664  1.0775  2.5464
22455SOL     OW73200   3.938   5.936   5.750  0.2436 -0.4452 -0.8851
22455SOL    HW173201   3.984   5.866   5.796 -0.6148 -0.4422  0.0183
22455SOL    HW273202   3.893   5.892   5.677  1.7617 -0.4227 -1.8640
22456SOL     OW73203   4.804   0.139   2.241  0.7916  0.6877  0.1590
22456SOL    HW173204   4.802   0.227   2.203  1.2772  0.6996  0.1511
22456SOL    HW273205   4.724   0.098   2.210  1.1236  0.7381 -0.7975
22457SOL     OW73206   3.319   4.846   7.553 -0.7829 -0.1118  0.2308
22457SOL    HW173207   3.403   4.884   7.580 -0.5764 -0.1061 -0.3955
22457SOL    HW273208   3.254   4.911   7.580 -0.7141 -0.6735  1.8355
22458SOL     OW73209   1.053   6.924   2.083  0.1598 -0.3520 -0.1412
22458SOL    HW173210   0.963   6.942   2.054 -0.4883 -2.4450  0.3690
22458SOL    HW273211   1.094   6.882   2.008  0.4230 -0.2492 -0.0552
22459SOL     OW73212   1.987   6.028   8.060 -0.1643  0.3759 -0.0920
22459SOL    HW173213   2.032   6.102   8.102 -3.7210  1.9668  1.2962
22459SOL    HW273214   2.009   6.035   7.967  1.9558  1.3209  0.4292
22460SOL     OW73215   0.903   4.402   0.189  0.1242 -0.7265  0.1499
22460SOL    HW173216   0.929   4.324   0.239 -2.8734 -1.8526  0.2240
22460SOL    HW273217   0.867   4.366   0.108 -1.5620  0.5118  0.2940
22461SOL     OW73218   6.620   9.279   2.587  1.1434  0.0624 -0.4908
22461SOL    HW173219   6.609   9.307   2.678 -2.3519 -0.5981 -0.5535
22461SOL    HW273220   6.584   9.190   2.585 -0.2118  0.5806 -2.7324
22462SOL     OW73221   1.266   9.495   1.184 -0.5260 -0.0762 -0.4062
22462SOL    HW173222   1.347   9.544   1.169 -0.0920  0.1432  2.1703
22462SOL    HW273223   1.296   9.405   1.200 -0.6003  0.2138  1.6617
22463SOL     OW73224   0.095   9.785   4.807  0.3734 -0.1544  0.5683
22463SOL    HW173225   0.006   9.756   4.788  0.1097  0.0511  1.4509
22463SOL    HW273226   0.097   9.876   4.778 -0.3491  0.4883  2.4241
22464SOL     OW73227   7.599   2.044   4.634 -0.0530 -0.1944 -0.0992
22464SOL    HW173228   7.544   2.100   4.688  1.2612  0.5241  0.5231
22464SOL    HW273229   7.599   2.086   4.548  0.2252  0.2739  0.1294
22465SOL     OW73230   0.764   5.658  10.021 -0.4306  0.3633 -0.5653
22465SOL    HW173231   0.837   5.666   9.959  2.5167 -0.6287  2.4332
22465SOL    HW273232   0.747   5.563  10.026 -2.0781  0.5900 -1.2976
22466SOL     OW73233   3.297   5.328   1.993  0.5483  0.1572  0.0631
22466SOL    HW173234   3.372   5.267   1.993  1.1502  0.8700  0.8123
22466SOL    HW273235   3.241   5.296   2.064 -0.4175 -1.0069 -1.1767
22467SOL     OW73236   2.613   8.576   3.278 -0.5661  0.2056 -0.0873
22467SOL    HW173237   2.520   8.594   3.293 -0.5855 -0.2128  0.3189
22467SOL    HW273238   2.637   8.513   3.346  0.2807  1.1036  0.4791
22468SOL     OW73239   7.001   1.242   4.527 -0.0536 -0.2306  0.0022
22468SOL    HW173240   7.078   1.296   4.506  0.2572 -0.8734 -0.5432
22468SOL    HW273241   6.926   1.293   4.496  0.1557  0.3503  0.4331
22469SOL     OW73242   1.392   7.958  10.661 -0.3157 -0.6672 -0.0039
22469SOL    HW173243   1.384   7.871  10.700  1.0788 -2.2589 -2.8995
22469SOL    HW273244   1.307   7.999  10.677 -1.0045 -2.5208  1.5105
22470SOL     OW73245   9.004   4.088   5.216  0.5034 -0.3356 -0.9287
22470SOL    HW173246   8.958   4.019   5.264 -1.7860  0.9011 -1.1999
22470SOL    HW273247   9.075   4.114   5.274 -0.6471 -0.6213  0.6773
22471SOL     OW73248   4.796   9.011   8.839  0.1372  1.1395  0.2578
22471SOL    HW173249   4.742   9.000   8.917  1.0827  2.3851  1.1282
22471SOL    HW273250   4.740   9.057   8.777 -0.5818  0.2448  0.2252
22472SOL     OW73251   5.225   8.673   7.300 -0.4406  0.2525  0.0881
22472SOL    HW173252   5.172   8.597   7.273 -0.3352  0.2364 -0.0743
22472SOL    HW273253   5.236   8.724   7.219 -0.4486  0.4031  0.1815
22473SOL     OW73254   7.064   7.708   8.383  0.7061  0.3175  0.1159
22473SOL    HW173255   7.072   7.613   8.383 -2.4851 -0.0422  0.4782
22473SOL    HW273256   7.013   7.728   8.304  2.4844  1.9213 -0.7133
22474SOL     OW73257   5.335   5.343  10.161 -0.3851 -0.3080  0.1405
22474SOL    HW173258   5.428   5.324  10.173  0.0475  2.2437  1.4112
22474SOL    HW273259   5.291   5.261  10.183  1.4441 -0.8934  1.8971
22475SOL     OW73260   1.224   3.276   6.570  0.3640  0.3703 -0.1334
22475SOL    HW173261   1.289   3.343   6.548  0.0660  0.4966 -0.6302
22475SOL    HW273262   1.169   3.317   6.637  0.8177  0.2474  0.3214
22476SOL     OW73263   9.352   3.938   6.837 -0.7610  0.1982  0.1548
22476SOL    HW173264   9.311   3.872   6.781 -0.1324  2.1910 -2.8799
22476SOL    HW273265   9.446   3.923   6.825 -0.5916  0.1024  1.4625
22477SOL     OW73266   2.409   2.912   6.387  0.0309  0.6278 -0.4210
22477SOL    HW173267   2.490   2.938   6.429 -0.3991 -0.2800  1.0531
22477SOL    HW273268   2.363   2.994   6.369 -0.1866  1.0566  1.7870
22478SOL     OW73269   2.518   2.596   2.419 -0.3810 -0.4251 -0.0473
22478SOL    HW173270   2.494   2.568   2.330 -1.2335  3.0748 -1.0740
22478SOL    HW273271   2.447   2.654   2.446  0.8124  0.1033  2.1348
22479SOL     OW73272   1.352   1.267   1.916  0.1393 -0.1364  0.4776
22479SOL    HW173273   1.380   1.359   1.916 -0.2948  0.0207 -0.6055
22479SOL    HW273274   1.325   1.251   1.825  0.1280 -1.3148  0.6732
22480SOL     OW73275  10.687   2.168   0.234  0.1233 -0.9435 -0.0221
22480SOL    HW173276  10.690   2.108   0.309 -2.1902 -1.0607  0.0357
22480SOL    HW273277  10.721   2.251   0.268 -0.6027 -1.0762  1.0798
22481SOL     OW73278   6.605   5.218   4.572  0.1852  0.5409 -0.3676
22481SOL    HW173279   6.595   5.126   4.546  0.7923 -0.2559  2.0163
22481SOL    HW273280   6.517   5.244   4.601  0.7352 -0.5880  2.6599
22482SOL     OW73281   7.808   1.904   2.766  0.0890 -0.1775 -0.0683
22482SOL    HW173282   7.817   1.981   2.822  0.4483  0.4599 -0.9824
22482SOL    HW273283   7.734   1.856   2.802  0.2579  0.2685  0.8954
22483SOL     OW73284   6.538   4.707   8.015  0.4565 -0.1463  0.0630
22483SOL    HW173285   6.613   4.702   7.956 -0.1619 -0.4009 -0.7207
22483SOL    HW273286   6.539   4.624   8.063 -0.7673 -1.2690 -1.7595
22484SOL     OW73287   0.028  10.165   4.333 -0.2930  0.2832  0.0700
22484SOL    HW173288  -0.050  10.221   4.341  0.5861  1.2815  2.8561
22484SOL    HW273289  -0.002  10.080   4.364 -0.4106  0.5331  0.6573
22485SOL     OW73290   4.920   7.745   2.290  0.1793 -0.0309 -0.1442
22485SOL    HW173291   4.895   7.681   2.356 -0.0126  1.1796  0.9976
22485SOL    HW273292   4.909   7.700   2.206 -2.2462 -0.7340  0.5010
22486SOL     OW73293   1.863   3.432   2.477 -0.9779  0.3775 -0.8241
22486SOL    HW173294   1.915   3.498   2.522 -1.3471 -0.5900  1.1278
22486SOL    HW273295   1.805   3.482   2.420  0.4779  1.5817 -1.3210
22487SOL     OW73296   5.766   3.982   1.187  0.1491  0.2955  0.2949
22487SOL    HW173297   5.711   4.044   1.137 -0.4770  0.0774  0.7082
22487SOL    HW273298   5.767   4.017   1.276  0.7246  0.3169  0.2876
22488SOL     OW73299   4.065   4.051   2.827 -0.5467 -0.1253 -0.3642
22488SOL    HW173300   4.136   3.987   2.836  0.3390  0.7009 -1.2581
22488SOL    HW273301   4.056   4.063   2.733 -0.4122  1.3687 -0.2059
22489SOL     OW73302   3.159   2.379   0.310  0.0929 -0.3227 -0.2692
22489SOL    HW173303   3.176   2.455   0.365  1.6458  0.1150 -1.2841
22489SOL    HW273304   3.174   2.411   0.221 -3.6155 -0.6366 -1.1707
22490SOL     OW73305   9.049   4.204   6.270  0.6704 -0.1918 -0.0332
22490SOL    HW173306   9.133   4.167   6.243  1.3290 -0.2063  1.8649
22490SOL    HW273307   9.069   4.252   6.350 -1.3922 -1.5868  1.4133
22491SOL     OW73308   9.262   8.379   9.290 -1.0137  0.2317  0.0350
22491SOL    HW173309   9.261   8.468   9.256  1.8029  0.2539 -0.2715
22491SOL    HW273310   9.320   8.331   9.230  1.3223 -0.5905  2.6894
22492SOL     OW73311   3.251   1.326  10.397  0.0477 -0.0799  0.4633
22492SOL    HW173312   3.322   1.381  10.365 -0.2577 -1.2561 -2.5758
22492SOL    HW273313   3.191   1.319  10.323 -2.6091 -0.2135  2.4862
22493SOL     OW73314   3.799   0.349   9.421 -0.4708  0.2791  0.5030
22493SOL    HW173315   3.755   0.401   9.354 -0.9004 -1.1734 -0.3933
22493SOL    HW273316   3.779   0.258   9.398  1.0940 -0.3411  1.4166
22494SOL     OW73317   9.969   9.872   0.913 -0.3555 -0.7161  0.4475
22494SOL    HW173318  10.024   9.865   0.836 -0.8950  1.6572 -0.2131
22494SOL    HW273319   9.935   9.961   0.912  0.0763 -0.3738  3.7606
22495SOL     OW73320   3.751   0.579   3.216  0.5157  0.0177  0.4879
22495SOL    HW173321   3.714   0.542   3.136  2.0493 -0.4972 -0.0157
22495SOL    HW273322   3.772   0.670   3.194  2.1921 -0.4907 -0.1719
22496SOL     OW73323   3.416  10.132   6.127 -0.4086 -0.3118  0.3436
22496SOL    HW173324   3.362  10.211   6.119  0.0431  0.0984  1.2742
22496SOL    HW273325   3.500  10.156   6.088 -0.3818 -0.4492  0.3149
22497SOL     OW73326   0.952   2.645   6.354  0.4824 -0.3278  0.4298
22497SOL    HW173327   0.952   2.580   6.425  1.2022  1.0438  1.7520
22497SOL    HW273328   0.877   2.702   6.374  1.7028  1.1106  1.1629
22498SOL     OW73329   7.658   9.535   2.204 -0.0704  0.1482  0.2861
22498SOL    HW173330   7.564   9.536   2.185 -0.7673  0.5394  3.3561
22498SOL    HW273331   7.682   9.443   2.193 -0.7169  0.0864 -0.8117
22499SOL     OW73332   1.622  10.026   7.797 -0.2581 -0.0597 -0.6881
22499SOL    HW173333   1.569   9.971   7.739 -0.9110 -1.4181  1.0944
22499SOL    HW273334   1.700  10.046   7.746 -0.5958 -1.5849 -1.8771
22500SOL     OW73335   3.439   4.716   8.553  0.1434 -0.5700  0.5051
22500SOL    HW173336   3.464   4.732   8.644  1.9417 -0.4501  0.0274
22500SOL    HW273337   3.516   4.675   8.513 -0.9543 -1.5312 -0.7266
22501SOL     OW73338  10.543   4.286   0.917 -0.3320 -0.1456 -0.0297
22501SOL    HW173339  10.540   4.194   0.944  1.9888  0.6308  3.5768
22501SOL    HW273340  10.465   4.325   0.957  0.3349 -0.0110  1.1880
22502SOL     OW73341   8.776   4.131   5.485  0.2068 -0.4882 -0.3148
22502SOL    HW173342   8.700   4.083   5.453 -0.5529  1.0130 -0.8838
22502SOL    HW273343   8.845   4.066   5.492 -0.5352 -1.4827 -1.8739
22503SOL     OW73344   9.604   1.594   4.578 -0.2980 -0.2169  0.3611
22503SOL    HW173345   9.631   1.502   4.577  1.2368  0.1531 -2.2839
22503SOL    HW273346   9.509   1.592   4.570 -0.1694 -1.6329 -1.5429
22504SOL     OW73347   9.182   8.934   1.550 -0.4471 -0.2907 -0.2950
22504SOL    HW173348   9.166   9.028   1.544 -0.7130 -0.4051 -2.2756
22504SOL    HW273349   9.278   8.926   1.550 -0.4224 -0.0258  0.0286
22505SOL     OW73350   9.956   2.129   0.867 -0.4811  0.3509 -0.3320
22505SOL    HW173351   9.943   2.198   0.932 -2.3819 -0.6332  0.4323
22505SOL    HW273352  10.010   2.064   0.913  1.2890  1.2546 -1.0436
22506SOL     OW73353   6.543   9.340   8.638  0.2384 -0.3630 -0.1240
22506SOL    HW173354   6.530   9.435   8.648 -1.4068 -0.2338 -2.7739
22506SOL    HW273355   6.532   9.306   8.727 -1.6514  1.6709  0.5166
22507SOL     OW73356   6.342   5.574   9.559 -0.3161  0.1275 -0.0240
22507SOL    HW173357   6.370   5.579   9.650 -0.9917 -1.1647  0.2788
22507SOL    HW273358   6.385   5.494   9.525 -1.4873 -0.4023 -0.2988
22508SOL     OW73359   2.846   3.555  10.443 -0.7444 -0.1965 -0.4465
22508SOL    HW173360   2.896   3.478  10.417 -0.9972  0.0943 -1.8835
22508SOL    HW273361   2.760   3.543  10.402 -0.7738  0.8670 -0.7322
22509SOL     OW73362   0.837   9.535   9.737  0.6059  0.1019 -0.3457
22509SOL    HW173363   0.899   9.598   9.774  2.3413 -1.7859  0.1426
22509SOL    HW273364   0.891   9.469   9.695 -1.1748 -0.6418 -1.6140
22510SOL     OW73365   4.544   3.184   9.279 -0.3949  0.4797  0.1302
22510SOL    HW173366   4.583   3.099   9.301 -0.6937  0.5120  0.8220
22510SOL    HW273367   4.481   3.164   9.210 -0.7375  0.0665  0.5493
22511SOL     OW73368   0.186   3.287   0.531 -0.1844 -0.1722 -0.1614
22511SOL    HW173369   0.108   3.233   0.515 -0.6346  0.3416  0.2607
22511SOL    HW273370   0.259   3.230   0.508 -0.6692 -0.8113 -0.1555
22512SOL     OW73371   9.867   5.321   5.100 -0.5671  0.2713  0.2073
22512SOL    HW173372   9.816   5.279   5.170 -1.8150 -0.1615 -0.9320
22512SOL    HW273373   9.803   5.376   5.054  0.4032  1.1040 -0.1693
22513SOL     OW73374   4.316   6.375   2.206 -0.4613  0.1734  0.3977
22513SOL    HW173375   4.324   6.446   2.269 -0.5172  1.4720 -0.9813
22513SOL    HW273376   4.271   6.305   2.253  0.0519  0.8540  1.9451
22514SOL     OW73377  10.092   1.330   6.486  0.1332  0.2792  0.1575
22514SOL    HW173378  10.113   1.365   6.399 -1.2525  1.3540  0.2219
22514SOL    HW273379  10.081   1.407   6.541 -1.2988 -0.3024  0.7247
22515SOL     OW73380   3.923   4.157   0.786 -0.2227 -0.1344  0.4875
22515SOL    HW173381   3.949   4.109   0.707 -0.3325  2.1105 -1.0086
22515SOL    HW273382   3.828   4.152   0.787 -0.4550  2.2890 -1.2893
22516SOL     OW73383   9.498   4.431   2.581 -0.1007 -0.5156 -0.1001
22516SOL    HW173384   9.477   4.421   2.674  2.0881  2.0066  0.7747
22516SOL    HW273385   9.566   4.365   2.565 -0.0824 -0.5729  0.2109
22517SOL     OW73386   6.792   7.334   0.131 -0.2310 -0.1188  0.2588
22517SOL    HW173387   6.865   7.273   0.128  0.4619  0.7228 -0.4420
22517SOL    HW273388   6.812   7.392   0.204 -0.6934 -0.4746  0.6762
22518SOL     OW73389   6.183   9.457   1.616 -0.0073 -0.2682 -0.2093
22518SOL    HW173390   6.268   9.442   1.575  0.2047 -0.3697  0.2667
22518SOL    HW273391   6.199   9.448   1.710 -0.4031  0.3871 -0.0706
22519SOL     OW73392   2.958   4.795   0.984  0.1530  0.7826  0.2311
22519SOL    HW173393   2.958   4.868   0.923 -1.5910  0.1585 -0.5649
22519SOL    HW273394   3.047   4.793   1.019  1.1020  1.4143 -1.9839
22520SOL     OW73395   8.580   1.167   1.362 -0.0198 -0.0820  0.3589
22520SOL    HW173396   8.511   1.134   1.419 -0.2953  1.6331  1.0956
22520SOL    HW273397   8.549   1.150   1.273  0.1681 -2.3151  0.6764
22521SOL     OW73398   3.955   1.115   4.899 -0.0184 -0.4170  0.4230
22521SOL    HW173399   3.991   1.105   4.811  1.0998  0.5832  0.7372
22521SOL    HW273400   3.863   1.090   4.890  0.6624 -2.8608 -0.4466
22522SOL     OW73401   4.953   9.107   4.849 -0.7728 -0.2521  0.4096
22522SOL    HW173402   4.965   9.201   4.856  1.0109 -0.3604 -0.4075
22522SOL    HW273403   4.985   9.072   4.933 -1.6627 -0.1252  0.8065
22523SOL     OW73404   3.240   1.265   6.071  0.1500  0.7361 -0.3420
22523SOL    HW173405   3.296   1.337   6.041  1.2250 -0.5049 -1.4473
22523SOL    HW273406   3.302   1.194   6.089 -1.0582 -0.5849 -1.3014
22524SOL     OW73407   6.242   7.220  10.666  0.0668 -0.0433  0.1517
22524SOL    HW173408   6.283   7.306  10.672 -0.2515  0.1445 -0.3348
22524SOL    HW273409   6.314   7.158  10.672  0.5431  0.2957 -1.5530
22525SOL     OW73410   8.992   0.323   1.770  0.0089  0.3150 -0.1612
22525SOL    HW173411   8.999   0.337   1.864  0.6256 -3.4257  0.5066
22525SOL    HW273412   9.083   0.323   1.738 -0.1315  0.4320 -0.5749
22526SOL     OW73413  10.682   7.718   1.083  0.5348  0.1101 -0.0177
22526SOL    HW173414  10.659   7.642   1.029  0.5794 -0.7270  1.0822
22526SOL    HW273415  10.697   7.680   1.170  1.6393  1.2488  0.3000
22527SOL     OW73416   9.044   8.352   9.755  0.1705 -0.3703 -0.0432
22527SOL    HW173417   8.983   8.278   9.757  2.1297 -2.0627  0.4511
22527SOL    HW273418   9.050   8.381   9.846 -0.3390  0.2115 -0.1863
22528SOL     OW73419   7.021   9.301   0.619  0.4102 -0.1845 -0.0311
22528SOL    HW173420   6.976   9.385   0.620  0.3943 -0.1953  0.8270
22528SOL    HW273421   7.087   9.308   0.687 -0.9982 -1.5984  1.5772
22529SOL     OW73422   7.958   6.664   7.212 -0.4228 -0.9019  0.1782
22529SOL    HW173423   7.920   6.576   7.218 -0.2573 -0.9453  0.6035
22529SOL    HW273424   7.904   6.718   7.270 -0.2685 -0.8146  0.2409
22530SOL     OW73425   1.751   5.255   8.779 -0.6882  0.1125 -0.4874
22530SOL    HW173426   1.682   5.248   8.845 -0.4277  3.7891  0.3536
22530SOL    HW273427   1.728   5.333   8.728  1.6501  0.1056 -1.6730
22531SOL     OW73428   5.830  10.307   5.424 -0.5370 -0.2351 -0.0974
22531SOL    HW173429   5.857  10.223   5.460 -2.2004 -0.9268 -0.3834
22531SOL    HW273430   5.819  10.363   5.501  1.2344 -0.0261  0.0535
22532SOL     OW73431   6.861   9.118   7.737 -0.2871  1.1520 -0.6500
22532SOL    HW173432   6.892   9.190   7.681  0.6807  0.9585 -0.3912
22532SOL    HW273433   6.941   9.070   7.759 -0.6049  1.3334  1.0401
22533SOL     OW73434   1.901  10.392   6.423  0.7133 -0.5636  0.6782
22533SOL    HW173435   1.923  10.329   6.354 -0.0869  0.5058 -0.6180
22533SOL    HW273436   1.807  10.407   6.412  0.9768  1.2435  0.5842
22534SOL     OW73437   4.684   8.486   3.957  0.1878 -0.1561 -0.3842
22534SOL    HW173438   4.756   8.524   3.906 -0.5207  1.8263 -0.0199
22534SOL    HW273439   4.697   8.519   4.045 -1.4359  0.7014 -0.4226
22535SOL     OW73440   6.226   7.449   4.457 -0.3258 -0.0284  0.2656
22535SOL    HW173441   6.298   7.402   4.417 -0.7205  0.2835 -0.8621
22535SOL    HW273442   6.234   7.431   4.550  1.6012  0.5378  0.2580
22536SOL     OW73443   6.709   2.919   9.644 -0.1087  0.9913  0.6502
22536SOL    HW173444   6.643   2.874   9.698 -0.1698  1.8413  1.3154
22536SOL    HW273445   6.791   2.905   9.690  0.4104 -1.0000 -0.7549
22537SOL     OW73446   2.167   2.274   0.003  0.1971  0.8947  0.4370
22537SOL    HW173447   2.233   2.247  -0.061 -0.2297  1.3946 -0.2176
22537SOL    HW273448   2.159   2.198   0.062  0.2436  0.2448 -0.3767
22538SOL     OW73449   4.390   6.848   3.048  0.2278 -0.4369  0.3008
22538SOL    HW173450   4.479   6.842   3.083  0.4579  0.0867 -0.1705
22538SOL    HW273451   4.402   6.853   2.953 -0.3693 -1.6750  0.1397
22539SOL     OW73452   7.377   8.138   8.468  0.1802 -0.0614  0.5872
22539SOL    HW173453   7.329   8.166   8.546 -0.6037 -0.7766  0.3746
22539SOL    HW273454   7.330   8.060   8.438  1.7488 -1.0604  0.6346
22540SOL     OW73455   6.161   5.602   1.262 -0.0715 -0.0560  0.3108
22540SOL    HW173456   6.166   5.534   1.330  2.2701 -0.3765 -0.0957
22540SOL    HW273457   6.127   5.556   1.186 -0.9536 -0.1397  0.7464
22541SOL     OW73458   3.783   3.933   3.658  0.8023 -0.6808 -0.1561
22541SOL    HW173459   3.713   3.874   3.686 -0.7301 -0.0352 -2.3486
22541SOL    HW273460   3.839   3.880   3.602  1.6142 -0.9904  0.9375
22542SOL     OW73461   1.326   5.275   2.115  0.0520  0.1453  0.5639
22542SOL    HW173462   1.301   5.361   2.081  0.4620  0.1805  0.3518
22542SOL    HW273463   1.412   5.289   2.154 -0.1046 -0.0540  0.9882
22543SOL     OW73464   6.695   3.916  10.660  0.4418  0.4507 -0.1824
22543SOL    HW173465   6.613   3.871  10.638  1.5831 -1.0029 -1.6477
22543SOL    HW273466   6.721   3.959  10.578  1.4176  0.4451  0.1204
22544SOL     OW73467   2.730   0.723   1.747  1.2907 -0.8723  0.3889
22544SOL    HW173468   2.720   0.757   1.836 -2.2586 -1.3206  0.3129
22544SOL    HW273469   2.729   0.627   1.758 -1.3799 -0.9979 -0.1257
22545SOL     OW73470   5.573   5.672   2.082 -0.1317  0.1577  0.3834
22545SOL    HW173471   5.609   5.744   2.134  0.7248 -1.0210  1.4753
22545SOL    HW273472   5.481   5.696   2.069  0.5331  2.2816 -0.7901
22546SOL     OW73473   1.882   5.314   0.647  0.4415  0.0069 -0.3465
22546SOL    HW173474   1.878   5.274   0.735 -2.3155 -2.3030 -1.3768
22546SOL    HW273475   1.971   5.293   0.617  0.7145 -1.1038  1.0620
22547SOL     OW73476   9.632   5.906   1.920  0.1801  0.1455  0.1274
22547SOL    HW173477   9.697   5.837   1.906 -0.1983 -0.1350 -0.2700
22547SOL    HW273478   9.614   5.941   1.833  0.6240  0.9934  0.3621
22548SOL     OW73479   4.514   8.522   8.840 -0.5848  0.6424 -0.0294
22548SOL    HW173480   4.605   8.493   8.841 -0.7426  0.1472  0.0451
22548SOL    HW273481   4.513   8.600   8.896 -0.6928 -0.8284  2.1234
22549SOL     OW73482   8.751   7.677   0.544 -0.1665  0.2963 -0.5831
22549SOL    HW173483   8.768   7.614   0.614 -0.3229  0.5414 -0.3192
22549SOL    HW273484   8.788   7.637   0.465  0.4426  0.2254 -0.2696
22550SOL     OW73485   1.452   3.042   9.780  0.1532 -0.3525  0.2677
22550SOL    HW173486   1.410   3.049   9.866  0.1749 -1.9099  0.4273
22550SOL    HW273487   1.380   3.043   9.718  0.0456 -0.5382  0.3878
22551SOL     OW73488   6.023   9.730   1.720  0.5869 -0.3229 -0.2286
22551SOL    HW173489   6.100   9.733   1.664 -0.4738  1.4412 -1.7348
22551SOL    HW273490   5.955   9.691   1.665 -0.1960  0.4229  0.1696
22552SOL     OW73491   0.630   4.582   3.253 -0.5315  0.2347 -0.0360
22552SOL    HW173492   0.605   4.516   3.318  1.3366  2.2206  2.9864
22552SOL    HW273493   0.574   4.657   3.273 -1.7421  0.0888 -2.5695
22553SOL     OW73494   2.678   2.983   5.711 -0.5611  0.0895 -0.2626
22553SOL    HW173495   2.675   2.943   5.798 -0.3528  1.8795  0.6134
22553SOL    HW273496   2.616   3.056   5.716 -0.0071  0.6559 -1.3864
22554SOL     OW73497  10.481   8.691   7.642  0.5176  0.0506 -0.4128
22554SOL    HW173498  10.435   8.607   7.654 -0.2559  0.6073  0.6617
22554SOL    HW273499  10.551   8.689   7.707  2.0985 -0.7972 -2.0467
22555SOL     OW73500   9.540  10.149   6.581  0.1024 -0.8393  0.2268
22555SOL    HW173501   9.457  10.122   6.620 -0.3082 -0.3847 -0.3055
22555SOL    HW273502   9.599  10.075   6.595  0.0070 -0.6488  1.7837
22556SOL     OW73503   2.013   2.652   6.268 -0.3514 -0.4505  0.2848
22556SOL    HW173504   1.951   2.636   6.196  0.5809 -0.4413 -0.5383
22556SOL    HW273505   2.046   2.565   6.290  0.7127 -0.2666 -0.5390
22557SOL     OW73506   8.083   3.246   4.216  0.4633 -0.1437 -0.0973
22557SOL    HW173507   8.095   3.206   4.129 -2.8040  1.1668 -1.3099
22557SOL    HW273508   8.106   3.176   4.277  2.0597 -1.3977 -1.9994
22558SOL     OW73509   6.061   7.053   9.168 -0.3529 -0.2185  0.6868
22558SOL    HW173510   5.992   7.067   9.233 -0.5776  0.0041  0.4028
22558SOL    HW273511   6.092   7.142   9.147 -1.3192 -0.1602 -0.6288
22559SOL     OW73512   2.356   2.337   0.480  0.3544 -0.5557 -0.5632
22559SOL    HW173513   2.310   2.283   0.544 -1.3737 -0.0799 -1.3681
22559SOL    HW273514   2.335   2.427   0.505 -1.7315 -0.3653 -2.7112
22560SOL     OW73515   0.791   7.029   1.068  0.1039  0.5920 -0.0248
22560SOL    HW173516   0.834   6.992   0.991  0.0671  1.9948 -0.7617
22560SOL    HW273517   0.705   7.056   1.037  0.3409  1.7915  0.3137
22561SOL     OW73518   9.062   6.555  10.507  0.0152 -0.3987  0.8022
22561SOL    HW173519   9.008   6.626  10.541  0.1623 -0.1713  0.5603
22561SOL    HW273520   9.025   6.535  10.421 -0.8283 -1.4799  1.3819
22562SOL     OW73521   3.605   5.168  10.461  0.0878 -0.5026 -0.3767
22562SOL    HW173522   3.534   5.105  10.474 -0.2635 -0.1985 -0.7746
22562SOL    HW273523   3.564   5.240  10.413  0.3335  0.3144  0.6167
22563SOL     OW73524   5.551   3.230   1.487  0.1694 -0.0427  0.3901
22563SOL    HW173525   5.553   3.216   1.581 -0.1477 -0.4163  0.3462
22563SOL    HW273526   5.568   3.323   1.475 -0.3828  0.1187  0.8481
22564SOL     OW73527   4.795   3.284   6.472  0.0239  0.2576 -0.3707
22564SOL    HW173528   4.746   3.332   6.405  0.1290  1.8215  0.6148
22564SOL    HW273529   4.737   3.281   6.548  0.4864 -0.1474 -0.0243
22565SOL     OW73530   5.560  10.243   6.664  0.2218 -0.1971 -0.0815
22565SOL    HW173531   5.567  10.273   6.755  0.1324 -1.2198  0.2713
22565SOL    HW273532   5.487  10.181   6.665  1.1434 -1.3146 -0.5483
22566SOL     OW73533   8.133   4.129   5.253 -0.3480 -0.3682  0.1458
22566SOL    HW173534   8.170   4.055   5.301  3.1284  0.4221 -1.0567
22566SOL    HW273535   8.098   4.091   5.173  0.4380 -0.8542  0.0239
22567SOL     OW73536   2.536   4.178   4.810 -0.3933 -0.5176 -0.0802
22567SOL    HW173537   2.484   4.235   4.866 -0.8904  1.7902 -2.6277
22567SOL    HW273538   2.472   4.121   4.768  0.0211 -2.5373  1.8793
22568SOL     OW73539   8.861   1.510   6.272 -0.0140 -0.3648  0.1428
22568SOL    HW173540   8.861   1.464   6.356  1.1894  0.0173  0.3799
22568SOL    HW273541   8.798   1.581   6.283 -0.1313 -0.5400  0.6082
22569SOL     OW73542   0.171   4.757   1.655  0.1153 -0.0696  0.3860
22569SOL    HW173543   0.149   4.784   1.566  0.6800  0.2303  0.3288
22569SOL    HW273544   0.190   4.663   1.647  0.9499  0.1164  0.0271
22570SOL     OW73545   0.166   4.599   0.532  0.4354 -0.2292 -0.8769
22570SOL    HW173546   0.164   4.504   0.522 -0.3141 -0.3468  0.1600
22570SOL    HW273547   0.085   4.620   0.580  1.2209  0.7688  0.0829
22571SOL     OW73548   6.470   2.210   0.182 -0.1305 -0.4748  0.4607
22571SOL    HW173549   6.531   2.274   0.145  0.5099 -1.2522  0.1293
22571SOL    HW273550   6.411   2.262   0.237  1.3168  0.2258  1.4364
22572SOL     OW73551   4.718   8.876   1.861 -0.3081 -0.6319  1.0841
22572SOL    HW173552   4.639   8.922   1.890 -1.6095 -0.6811 -1.9644
22572SOL    HW273553   4.781   8.946   1.845 -1.4721  0.0280 -1.1586
22573SOL     OW73554   7.571   3.703   1.310 -0.4031  0.1992 -0.1521
22573SOL    HW173555   7.554   3.779   1.254  1.2108  0.1578 -0.7502
22573SOL    HW273556   7.633   3.736   1.375 -1.1412 -0.1447  0.7496
22574SOL     OW73557   4.793   4.055   8.574 -0.3249  0.0913 -0.2294
22574SOL    HW173558   4.833   4.036   8.489 -0.6546 -1.2608 -0.1032
22574SOL    HW273559   4.818   3.981   8.629 -0.3351  0.8262  0.7877
22575SOL     OW73560   4.481   3.350  10.229 -0.1529  0.5308 -0.2935
22575SOL    HW173561   4.433   3.317  10.305 -0.5246  1.2402 -0.2162
22575SOL    HW273562   4.512   3.436  10.256  2.7455 -0.6070  0.3241
22576SOL     OW73563   7.488  10.608   3.913 -0.0193 -0.0864  0.0189
22576SOL    HW173564   7.549  10.542   3.881  0.5299  0.1141  0.6531
22576SOL    HW273565   7.486  10.596   4.008  1.4198  1.9170  0.3634
22577SOL     OW73566   7.753   8.781   0.315 -0.3486  0.1482  0.2617
22577SOL    HW173567   7.670   8.735   0.302 -0.2550  0.2465 -0.7314
22577SOL    HW273568   7.728   8.868   0.346 -0.5789 -0.0700  0.7045
22578SOL     OW73569   3.697   0.340   1.918 -0.1051 -0.2790  0.6225
22578SOL    HW173570   3.639   0.286   1.972  0.0323 -0.9367  0.1373
22578SOL    HW273571   3.640   0.406   1.880 -0.3633 -0.3506  0.8789
22579SOL     OW73572   8.509   8.056   7.507  0.0191 -0.2900 -0.2074
22579SOL    HW173573   8.534   7.970   7.540 -1.8236  0.3839  3.4882
22579SOL    HW273574   8.579   8.115   7.535 -1.1672  0.1446  2.1622
22580SOL     OW73575   3.793   4.031   1.517  0.5838 -0.3158  0.4960
22580SOL    HW173576   3.717   4.087   1.500 -0.9511 -1.5035  2.9786
22580SOL    HW273577   3.836   4.024   1.432 -0.3068  2.8906 -0.3663
22581SOL     OW73578   9.248   2.216   3.208 -0.1511 -0.3895 -0.2775
22581SOL    HW173579   9.319   2.191   3.149 -1.2880 -1.0778 -1.4020
22581SOL    HW273580   9.173   2.231   3.151 -0.8560  0.6124  0.8554
22582SOL     OW73581   6.851   8.039   3.846 -0.0609  0.2184 -0.1813
22582SOL    HW173582   6.875   8.109   3.907  2.3002  1.1597 -2.0227
22582SOL    HW273583   6.781   8.076   3.793  0.2088  0.6585 -0.2300
22583SOL     OW73584   4.084   4.939   3.596  0.6547  0.5268 -0.8232
22583SOL    HW173585   4.112   5.024   3.563  0.6649  1.6871  1.9179
22583SOL    HW273586   4.039   4.958   3.678  1.0013 -2.1426  0.1064
22584SOL     OW73587   3.027  10.665   9.536 -0.0085  0.3506 -0.0310
22584SOL    HW173588   3.081  10.647   9.613 -0.5048  3.7802  1.2654
22584SOL    HW273589   3.090  10.675   9.465  1.0358  2.5267  1.1010
22585SOL     OW73590   1.606   3.269   0.849 -0.2579 -0.4488  0.3612
22585SOL    HW173591   1.635   3.357   0.825  1.0712 -0.9453  0.0353
22585SOL    HW273592   1.520   3.282   0.889 -0.0173  1.0106  0.4667
22586SOL     OW73593   8.968   3.776   7.376  0.2897 -0.3983 -0.1320
22586SOL    HW173594   8.976   3.871   7.375  0.7741 -0.4174  1.1689
22586SOL    HW273595   8.991   3.749   7.286  0.1738  0.6960 -0.4973
22587SOL     OW73596   6.464  10.515   8.351  0.8579 -0.6905  0.3241
22587SOL    HW173597   6.390  10.458   8.372  0.4346 -0.1227  0.4030
22587SOL    HW273598   6.467  10.579   8.422  0.6020  0.0874 -0.3386
22588SOL     OW73599   1.480   0.128   2.936 -0.6829 -0.6145  0.2560
22588SOL    HW173600   1.452   0.038   2.948  2.8697 -1.7632  1.3441
22588SOL    HW273601   1.519   0.130   2.849 -1.5216  0.1311 -0.1140
22589SOL     OW73602   9.048   6.892   0.590  0.0030  0.1058  0.9068
22589SOL    HW173603   8.973   6.939   0.555 -0.5461  0.2634  2.2422
22589SOL    HW273604   9.011   6.829   0.651  0.7284 -2.0559 -0.7408
22590SOL     OW73605   1.151   0.283   8.419 -0.5821 -0.0308  0.0160
22590SOL    HW173606   1.232   0.302   8.372 -1.8512  1.1979 -1.7752
22590SOL    HW273607   1.122   0.199   8.384 -0.0366 -0.5650  0.7946
22591SOL     OW73608   3.669   8.595   5.328 -0.2647  0.1632 -0.0649
22591SOL    HW173609   3.574   8.589   5.344  0.1489  0.2563  2.9377
22591SOL    HW273610   3.676   8.641   5.244 -2.8590  0.2289 -0.3355
22592SOL     OW73611   1.478  10.529   2.236  0.3548 -0.2141  0.1725
22592SOL    HW173612   1.422  10.545   2.160 -1.0058  0.9385  1.3550
22592SOL    HW273613   1.458  10.438   2.261  1.2819 -0.8168 -1.1791
22593SOL     OW73614   0.294   4.597   2.651 -0.2476  0.0056  0.4938
22593SOL    HW173615   0.263   4.650   2.725  2.7962  0.8100  1.3231
22593SOL    HW273616   0.356   4.653   2.605  0.2296 -1.5643 -0.8759
22594SOL     OW73617   4.142   2.421   3.262  0.4583  0.0155  0.2213
22594SOL    HW173618   4.205   2.436   3.192  0.1880  0.1454  0.0039
22594SOL    HW273619   4.119   2.328   3.254 -0.9226  0.4284 -1.0124
22595SOL     OW73620   6.871  10.247   0.561  0.4919  0.8317  0.1915
22595SOL    HW173621   6.912  10.279   0.641 -1.0736  1.7534  0.6723
22595SOL    HW273622   6.944  10.212   0.509  1.3729 -1.4712  2.7161
22596SOL     OW73623   0.143   6.672  10.024 -0.0967 -0.8808 -0.0002
22596SOL    HW173624   0.209   6.675   9.955  0.2576 -1.9856  0.2663
22596SOL    HW273625   0.188   6.636  10.100 -0.8125 -0.9290  0.4142
22597SOL     OW73626   7.873   0.039   5.220 -0.3912 -0.2523  0.5291
22597SOL    HW173627   7.802   0.080   5.171 -0.0934 -0.4966 -0.1247
22597SOL    HW273628   7.949   0.096   5.205 -0.0006 -0.9625 -0.2994
22598SOL     OW73629   8.072   4.402   1.884 -0.5979 -0.0537  0.0059
22598SOL    HW173630   8.012   4.369   1.818 -1.3250  0.4612  0.3943
22598SOL    HW273631   8.040   4.365   1.966  0.5050 -0.9775  0.0551
22599SOL     OW73632   8.875   1.872   8.287  0.3814 -0.1008  0.0656
22599SOL    HW173633   8.873   1.777   8.282 -0.1599 -0.3029  2.7111
22599SOL    HW273634   8.818   1.901   8.216 -0.1019 -1.7766 -0.2700
22600SOL     OW73635   8.247   6.924   4.176 -0.7687  0.1382  0.2356
22600SOL    HW173636   8.269   6.831   4.173  0.0579  0.3448 -0.8745
22600SOL    HW273637   8.196   6.939   4.096 -0.6070  0.6998  0.2319
22601SOL     OW73638   6.154   6.337   1.203 -0.3229 -0.5523  0.5271
22601SOL    HW173639   6.088   6.390   1.249  0.4084 -0.1573  1.1591
22601SOL    HW273640   6.211   6.401   1.162  0.9028 -0.8010  1.7634
22602SOL     OW73641   2.462   5.863   6.526  0.4590  0.5038 -0.3226
22602SOL    HW173642   2.460   5.956   6.500 -0.2674  0.5227 -0.2289
22602SOL    HW273643   2.476   5.816   6.444 -0.4370  0.6380 -0.5603
22603SOL     OW73644   3.761   0.350   1.057 -0.1373  0.0323  0.2318
22603SOL    HW173645   3.676   0.380   1.087  0.8360  0.1495  3.1600
22603SOL    HW273646   3.822   0.420   1.083  1.1293 -1.0044  0.1736
22604SOL     OW73647   9.515   5.610   3.704 -0.3788  0.5725  0.3249
22604SOL    HW173648   9.562   5.692   3.687  0.7266 -0.1293 -0.1595
22604SOL    HW273649   9.460   5.628   3.779 -0.3199  1.8310  0.0757
22605SOL     OW73650   6.352   2.868   8.479  0.6005  0.0595 -0.0050
22605SOL    HW173651   6.375   2.779   8.455 -1.2238 -0.7144  0.9178
22605SOL    HW273652   6.308   2.904   8.402  0.8477 -0.0291 -0.1869
22606SOL     OW73653   4.136   2.442   5.348  0.0348  0.0147 -0.7792
22606SOL    HW173654   4.165   2.533   5.351 -2.1369  0.7400 -0.0191
22606SOL    HW273655   4.138   2.413   5.440 -0.0187 -0.4614 -0.9222
22607SOL     OW73656   7.673   0.810   5.495 -0.5283  0.0609  0.8018
22607SOL    HW173657   7.672   0.845   5.584 -0.0640  0.1430  0.7776
22607SOL    HW273658   7.741   0.742   5.496  0.6296  1.1695  0.1078
22608SOL     OW73659   9.569   5.252   6.257  0.0136  0.3550  0.5826
22608SOL    HW173660   9.650   5.301   6.266  0.3160 -0.1869  0.8612
22608SOL    HW273661   9.579   5.177   6.315  0.1591 -0.8179 -0.8889
22609SOL     OW73662   3.407  10.600   5.598  0.4589 -0.0076  0.3117
22609SOL    HW173663   3.389  10.623   5.507 -0.4870  1.6303  0.8665
22609SOL    HW273664   3.325  10.561   5.629  1.5027 -2.7571 -0.1242
22610SOL     OW73665   6.075   0.400   3.675 -0.3723 -0.2979  0.0828
22610SOL    HW173666   6.157   0.351   3.675 -0.6327 -0.7569  0.6611
22610SOL    HW273667   6.025   0.363   3.748 -1.3857 -0.5246 -0.6914
22611SOL     OW73668   3.259   9.556  10.342  0.3748 -0.1064 -0.4281
22611SOL    HW173669   3.170   9.589  10.342  0.5496  0.4223  1.0280
22611SOL    HW273670   3.278   9.538  10.434  2.5307  1.9034 -0.4026
22612SOL     OW73671   2.743   1.720   8.964  0.3579  0.5895  0.0815
22612SOL    HW173672   2.679   1.750   9.028 -1.0624  0.5599 -1.2606
22612SOL    HW273673   2.690   1.685   8.892  1.8828  0.8081 -1.2011
22613SOL     OW73674   2.005   0.703   0.302  0.6731 -0.1558  0.3800
22613SOL    HW173675   1.912   0.693   0.281  0.8035 -2.4227  0.6606
22613SOL    HW273676   2.008   0.774   0.365 -1.0261 -0.7846  1.2287
22614SOL     OW73677   1.805  10.517   8.138 -0.2812  0.3037  0.1509
22614SOL    HW173678   1.840  10.558   8.218 -0.7153  1.0209 -0.0205
22614SOL    HW273679   1.796  10.590   8.076  1.6101 -0.4781 -1.1362
22615SOL     OW73680   3.716   6.817   3.784 -0.4564 -1.0808  0.2925
22615SOL    HW173681   3.756   6.850   3.864  0.2127 -1.6920  0.2160
22615SOL    HW273682   3.703   6.724   3.800 -0.3024 -1.2114 -0.3230
22616SOL     OW73683   7.844   4.241   2.836  0.4073  0.1688  0.0444
22616SOL    HW173684   7.850   4.243   2.740  1.7574  0.1975  0.1079
22616SOL    HW273685   7.808   4.327   2.859  0.3149  0.2592 -0.4187
22617SOL     OW73686   4.322   1.102   1.379 -0.2341  0.4796  0.0982
22617SOL    HW173687   4.357   1.168   1.319  0.9180 -0.9021 -0.8052
22617SOL    HW273688   4.389   1.091   1.446  0.4961 -1.1216 -0.8290
22618SOL     OW73689  10.284   4.287  10.080  0.0850 -0.1171  0.3755
22618SOL    HW173690  10.356   4.302  10.141  2.9452 -1.0322 -2.4974
22618SOL    HW273691  10.268   4.372  10.039  1.2189 -0.3566 -0.6129
22619SOL     OW73692   6.349   0.912  10.625  0.1378  0.2320  0.3824
22619SOL    HW173693   6.264   0.868  10.634 -2.3094  4.0379 -1.7232
22619SOL    HW273694   6.386   0.876  10.545  0.2923 -1.0072  0.9832
22620SOL     OW73695   6.592   8.104   3.757  0.2408 -0.2465 -0.1435
22620SOL    HW173696   6.520   8.099   3.694  0.0252 -0.6152  0.1267
22620SOL    HW273697   6.550   8.127   3.840  0.4483 -0.3544 -0.0070
22621SOL     OW73698   4.407   3.059  10.371 -0.4447  0.5059  0.5172
22621SOL    HW173699   4.472   3.112  10.416  1.3971 -1.2275  0.0219
22621SOL    HW273700   4.353   3.022  10.441  0.4604  0.2729  1.1081
22622SOL     OW73701   3.829   2.818   2.994  0.0896 -0.1758  0.1180
22622SOL    HW173702   3.781   2.864   3.063  0.4632  0.0699  0.2175
22622SOL    HW273703   3.881   2.753   3.039  3.7768  2.8107  0.6496
22623SOL     OW73704   8.082   9.511   2.217  0.3157 -0.3938  0.2412
22623SOL    HW173705   8.062   9.560   2.138 -0.6963 -1.0110  0.0947
22623SOL    HW273706   8.170   9.477   2.203  0.0080 -0.7961 -0.7808
22624SOL     OW73707   7.508   9.437   5.898 -0.6335  0.1784  0.4293
22624SOL    HW173708   7.465   9.365   5.945 -3.1051  0.5620 -1.0275
22624SOL    HW273709   7.472   9.516   5.938 -0.5430  0.5316 -0.1691
22625SOL     OW73710   2.631   8.269   2.772  0.9187  0.0616 -0.6359
22625SOL    HW173711   2.639   8.323   2.850  1.3508  1.5798 -1.6713
22625SOL    HW273712   2.537   8.266   2.755  0.8872  0.4540 -0.5388
22626SOL     OW73713   3.406   5.187   2.486 -0.1658 -0.3687  0.0422
22626SOL    HW173714   3.421   5.269   2.439 -3.8029  0.7669  0.6141
22626SOL    HW273715   3.342   5.140   2.433 -1.1655 -0.9873  1.7339
22627SOL     OW73716   5.873   8.068   7.816  0.0878 -0.4490 -0.1012
22627SOL    HW173717   5.829   8.048   7.899  1.0023 -1.9182  0.0602
22627SOL    HW273718   5.804   8.056   7.750 -0.0275 -1.8172  0.2304
22628SOL     OW73719   9.468   6.407  10.357  0.0161  0.2787  0.9510
22628SOL    HW173720   9.529   6.437  10.425  2.4549 -1.6782 -0.2008
22628SOL    HW273721   9.504   6.440  10.275 -2.5334  2.0594  0.4260
22629SOL     OW73722   9.008  10.395   9.110 -0.5138  0.6297  0.1195
22629SOL    HW173723   9.040  10.421   9.196 -0.8995  0.7870  0.2216
22629SOL    HW273724   9.044  10.461   9.051 -2.5321  2.2473  0.5485
22630SOL     OW73725   9.978   0.014   4.111  0.2581  0.4779  0.4275
22630SOL    HW173726  10.029   0.087   4.076  0.0506  0.1597 -0.5747
22630SOL    HW273727   9.922  -0.013   4.038  0.1823 -0.5530  0.8507
22631SOL     OW73728   5.359   9.679   6.097 -0.0434 -0.0332  0.3727
22631SOL    HW173729   5.266   9.693   6.110  0.3111  2.1361  0.9326
22631SOL    HW273730   5.367   9.586   6.078 -2.3051 -0.2639  0.3255
22632SOL     OW73731   8.030  10.592   6.865 -0.0829 -0.3042 -0.3840
22632SOL    HW173732   8.037  10.605   6.960  0.0118 -0.5037 -0.3637
22632SOL    HW273733   7.988  10.672   6.834  1.5384  0.6003 -0.4064
22633SOL     OW73734   0.202   7.381   9.974  1.0637 -0.0698  0.1085
22633SOL    HW173735   0.186   7.382  10.068 -1.0838 -0.7019 -0.1872
22633SOL    HW273736   0.205   7.288   9.951  0.8382  0.0798 -0.5498
22634SOL     OW73737   3.337   5.204   9.463 -0.1410  0.4722  0.8242
22634SOL    HW173738   3.249   5.211   9.428  0.2634 -2.8005 -1.2363
22634SOL    HW273739   3.394   5.209   9.387  1.1977 -1.0202  1.6604
22635SOL     OW73740   3.457   5.839   0.566 -0.1964  0.4247  0.4507
22635SOL    HW173741   3.530   5.869   0.619  0.7618  1.1235 -1.2143
22635SOL    HW273742   3.496   5.782   0.500 -1.2900  0.0337  0.1036
22636SOL     OW73743   0.930   1.005   0.836  0.2504 -0.8003 -0.5374
22636SOL    HW173744   0.955   1.031   0.924 -0.1631 -2.1230 -0.0044
22636SOL    HW273745   0.857   1.062   0.813  0.2777 -0.5363  0.0263
22637SOL     OW73746   4.846   0.635   7.503 -0.2993  0.3816 -0.2269
22637SOL    HW173747   4.907   0.709   7.505  2.7297 -1.8897 -1.1010
22637SOL    HW273748   4.864   0.587   7.583  0.1015 -1.0404 -1.1296
22638SOL     OW73749   6.118   2.216   1.619 -0.5145  0.0444 -0.0040
22638SOL    HW173750   6.173   2.198   1.696 -1.5157  1.1397  1.0158
22638SOL    HW273751   6.176   2.261   1.558  0.6230 -1.8780 -0.4431
22639SOL     OW73752   4.917   5.136  10.192  0.0794  0.3132  0.5767
22639SOL    HW173753   4.965   5.216  10.173  0.8708 -0.5861 -1.4138
22639SOL    HW273754   4.863   5.121  10.114  1.6370 -2.2467 -0.1336
22640SOL     OW73755   9.041   8.401   9.008 -0.3467  0.3372  0.0536
22640SOL    HW173756   9.008   8.410   9.098  2.6188 -0.1775  1.3279
22640SOL    HW273757   9.033   8.308   8.988  0.1761  0.2270  0.3289
22641SOL     OW73758   7.810   2.465   9.071 -0.3820 -0.1763 -0.8036
22641SOL    HW173759   7.810   2.372   9.094 -1.0903  0.1374  0.5530
22641SOL    HW273760   7.902   2.491   9.075 -0.3345 -0.4686  0.3811
22642SOL     OW73761   5.156   2.852   4.325  0.7659  0.0243  0.4657
22642SOL    HW173762   5.126   2.933   4.285 -1.4603 -0.9310  0.0981
22642SOL    HW273763   5.234   2.878   4.374  0.8204  2.1314 -0.6086
22643SOL     OW73764   1.875   0.595   3.026  0.1094  0.3050  0.0636
22643SOL    HW173765   1.937   0.662   3.056  1.7247  0.3414 -3.0153
22643SOL    HW273766   1.791   0.642   3.019  0.2903  0.9482  1.6393
22644SOL     OW73767   6.643   9.435  10.633  0.3781 -0.3035 -0.7552
22644SOL    HW173768   6.609   9.439  10.723 -0.2847  0.5285 -1.0254
22644SOL    HW273769   6.650   9.526  10.606  0.8185 -0.5391 -1.4685
22645SOL     OW73770  10.293   1.049   5.586 -0.1692 -0.2681  0.0201
22645SOL    HW173771  10.330   1.057   5.498  1.7943 -0.9492  0.7352
22645SOL    HW273772  10.358   0.999   5.635 -1.6078 -0.6228  1.6568
22646SOL     OW73773   4.326   0.025   0.665  0.3634 -0.6053  0.2883
22646SOL    HW173774   4.318   0.055   0.755 -0.3290 -1.6221  0.5888
22646SOL    HW273775   4.249  -0.030   0.651 -0.1452  0.4246 -1.2888
22647SOL     OW73776   3.913   8.640   7.004 -0.1406  0.1153 -0.5936
22647SOL    HW173777   3.840   8.702   7.002  0.3831  0.9051  2.0001
22647SOL    HW273778   3.985   8.686   6.961  0.2110  1.3303  1.2134
22648SOL     OW73779   7.041  10.185   7.043 -0.2843  0.3160 -0.2895
22648SOL    HW173780   7.103  10.127   6.998 -0.0817  0.6723 -0.4740
22648SOL    HW273781   7.039  10.264   6.989  1.3929  1.5224  1.2760
22649SOL     OW73782   4.750   3.836   6.895  0.3631 -0.2733  0.2237
22649SOL    HW173783   4.695   3.792   6.830  0.4423 -0.2168  0.1173
22649SOL    HW273784   4.785   3.913   6.849  0.8636 -0.5342  0.1559
22650SOL     OW73785   6.977   8.617   3.968 -0.6232 -0.5307 -0.1661
22650SOL    HW173786   7.073   8.611   3.968 -0.6315 -0.7405  0.7566
22650SOL    HW273787   6.957   8.672   3.892  0.3297  1.1239  0.7302
22651SOL     OW73788   8.285   0.176   3.861  0.6272  0.3691  0.1025
22651SOL    HW173789   8.339   0.253   3.875  1.2865 -0.4921  3.1748
22651SOL    HW273790   8.323   0.110   3.919 -2.6854 -0.8067  1.1543
22652SOL     OW73791   6.221   8.659   7.127 -0.0330 -0.1488  0.0528
22652SOL    HW173792   6.214   8.651   7.222 -0.1263 -0.5593  0.0105
22652SOL    HW273793   6.136   8.633   7.094  0.4838 -1.5321 -0.2375
22653SOL     OW73794   8.674   6.373   3.731 -0.5094  0.2025 -0.1524
22653SOL    HW173795   8.643   6.283   3.738  0.2189 -0.2500 -2.0171
22653SOL    HW273796   8.762   6.365   3.693 -0.8777  1.7264 -1.4412
22654SOL     OW73797   8.331   4.245   8.644  0.2565  0.0064 -0.1615
22654SOL    HW173798   8.378   4.283   8.570 -1.1019 -0.6555 -1.4188
22654SOL    HW273799   8.386   4.263   8.719  1.7791  0.5503 -1.3555
22655SOL     OW73800   3.873   4.914   4.467 -0.3976 -0.4815 -0.1487
22655SOL    HW173801   3.964   4.923   4.440 -0.0996 -2.4847  0.0055
22655SOL    HW273802   3.831   4.995   4.438  1.1881  0.0144 -1.2012
22656SOL     OW73803   5.515   3.992  10.657  0.1006  0.1029  0.1242
22656SOL    HW173804   5.459   3.927  10.614 -1.2936  0.3697  1.4541
22656SOL    HW273805   5.544   4.050  10.586  1.0867 -1.7086 -1.0326
22657SOL     OW73806   5.399   0.728   9.902 -0.0497 -0.2137 -0.1447
22657SOL    HW173807   5.362   0.717   9.990  0.9558 -3.3789 -0.0037
22657SOL    HW273808   5.489   0.756   9.917 -0.5714  1.7441 -0.3303
22658SOL     OW73809   4.934   4.475   4.756  0.3378  0.3399  0.1075
22658SOL    HW173810   4.984   4.437   4.828  0.2489 -1.0881 -0.5592
22658SOL    HW273811   4.931   4.406   4.689 -2.0703  0.5637 -0.0954
22659SOL     OW73812   8.490   8.921   3.417 -0.0903  0.3331 -0.5951
22659SOL    HW173813   8.515   9.013   3.401  0.8716 -0.1874 -2.3718
22659SOL    HW273814   8.433   8.900   3.343  0.7695 -0.8657 -0.9437
22660SOL     OW73815   3.313   9.203   2.315 -0.1743  0.0281 -0.1704
22660SOL    HW173816   3.313   9.251   2.397  0.3594 -1.2045  0.5812
22660SOL    HW273817   3.224   9.213   2.281  0.2342  2.5915 -0.7203
22661SOL     OW73818   2.103   7.099   6.829 -0.5714 -0.5372 -0.6855
22661SOL    HW173819   2.107   7.169   6.764  0.2732 -1.8869 -2.1479
22661SOL    HW273820   2.102   7.145   6.913  0.3902  1.2143 -1.5716
22662SOL     OW73821   5.844   9.792   2.990  0.1748 -0.2248  0.4329
22662SOL    HW173822   5.912   9.850   3.025 -1.2577  1.6533  0.2739
22662SOL    HW273823   5.849   9.804   2.895  0.2397 -0.8197  0.3583
22663SOL     OW73824   0.907   0.167   2.480 -0.5643  0.6687 -0.0981
22663SOL    HW173825   0.878   0.076   2.471  0.5370  0.3735 -0.8372
22663SOL    HW273826   0.962   0.167   2.558 -1.7625  1.0430  0.7835
22664SOL     OW73827  10.341   1.309   7.077  0.0642 -0.1464  0.0335
22664SOL    HW173828  10.285   1.311   6.999  1.3878  1.0700 -0.9257
22664SOL    HW273829  10.352   1.400   7.101  1.2256 -0.3968  0.5064
22665SOL     OW73830   4.208  10.299   3.812 -0.0941 -0.0688 -0.0354
22665SOL    HW173831   4.215  10.206   3.791  0.2003  0.3063 -1.7298
22665SOL    HW273832   4.179  10.301   3.904 -2.3075 -1.8527 -0.6064
22666SOL     OW73833   3.180   0.170   3.583  0.0444  0.2518 -0.0900
22666SOL    HW173834   3.193   0.164   3.488 -0.3339 -0.0449 -0.1255
22666SOL    HW273835   3.085   0.160   3.595  0.0239  0.8397  0.2767
22667SOL     OW73836   6.627   6.288   9.001  0.7228  0.1152  0.0858
22667SOL    HW173837   6.566   6.361   9.001  0.8818  0.2514  0.4748
22667SOL    HW273838   6.610   6.242   8.919  0.5249  0.5047 -0.0915
22668SOL     OW73839   0.991   8.487   1.204  0.1271 -0.3474 -0.2870
22668SOL    HW173840   0.932   8.522   1.271 -1.3620 -0.8504 -1.2938
22668SOL    HW273841   0.972   8.393   1.202  1.7219 -0.7205  0.0720
22669SOL     OW73842   6.524   9.060   3.760 -0.2461 -0.0357 -0.0687
22669SOL    HW173843   6.579   9.028   3.831  1.2191 -0.3181 -1.2830
22669SOL    HW273844   6.577   9.125   3.715 -0.5683 -0.8486 -1.7338
22670SOL     OW73845   6.345   0.302   9.042 -0.0494  0.1583 -0.3624
22670SOL    HW173846   6.408   0.313   8.972  0.8462 -0.3954  0.3345
22670SOL    HW273847   6.262   0.335   9.006  0.8431  1.8708 -0.9277
22671SOL     OW73848   1.655   4.159   4.292  0.4423  0.5051  0.2197
22671SOL    HW173849   1.600   4.099   4.343 -1.1084  1.2461 -0.5016
22671SOL    HW273850   1.717   4.194   4.356 -0.1944 -0.0515  1.1830
22672SOL     OW73851   1.063  10.626   7.912  0.0173 -0.4286  0.1591
22672SOL    HW173852   1.119  10.692   7.871 -0.9036  0.0612 -0.3499
22672SOL    HW273853   0.990  10.616   7.851  1.1195 -3.4642 -0.8555
22673SOL     OW73854   6.830   4.578   6.506  0.1376  0.2596  0.2177
22673SOL    HW173855   6.826   4.531   6.423 -1.2956  0.4463  0.1439
22673SOL    HW273856   6.776   4.526   6.565  0.2559  0.7065  0.7249
22674SOL     OW73857   8.708  10.043   9.803  0.1731  0.3983  0.6445
22674SOL    HW173858   8.676  10.044   9.713 -1.1186  0.9251  1.0692
22674SOL    HW273859   8.710  10.135   9.829 -0.1124  0.2150  1.3539
22675SOL     OW73860  10.598   6.424   1.836  0.2850 -0.1921  0.4207
22675SOL    HW173861  10.678   6.470   1.810  1.0103 -0.5952  1.8235
22675SOL    HW273862  10.616   6.332   1.820  0.2448 -0.3189  1.0550
22676SOL     OW73863   7.344   5.439   8.141 -0.1232 -0.0420  0.0991
22676SOL    HW173864   7.407   5.510   8.129  0.7782 -0.8983 -0.3089
22676SOL    HW273865   7.378   5.366   8.090 -0.1325 -1.3360  1.8280
22677SOL     OW73866   1.215   0.893   1.543 -0.1399  0.4508  0.1154
22677SOL    HW173867   1.283   0.949   1.505  0.6869 -1.5653 -1.6707
22677SOL    HW273868   1.171   0.948   1.607  2.7200  2.0862  0.8609
22678SOL     OW73869   3.649   5.466   8.907  0.3219 -0.1670  0.0596
22678SOL    HW173870   3.692   5.514   8.977  0.8602 -0.5240 -0.0180
22678SOL    HW273871   3.556   5.488   8.916  0.4517  0.1964  0.5569
22679SOL     OW73872   9.128   3.091   9.689 -0.0524 -0.2942 -0.3175
22679SOL    HW173873   9.214   3.060   9.718  0.2133 -0.2104 -1.0096
22679SOL    HW273874   9.099   3.026   9.625  0.6511  0.9963 -2.0274
22680SOL     OW73875   7.832   4.720   5.930 -0.0359  0.1304 -0.6475
22680SOL    HW173876   7.770   4.783   5.967  0.5340  1.2986 -1.6257
22680SOL    HW273877   7.817   4.640   5.981  1.5857  1.9212  2.9992
22681SOL     OW73878   9.533   1.578   3.355 -0.0255  0.3783  0.5032
22681SOL    HW173879   9.609   1.540   3.312 -0.0270  0.3459  0.5286
22681SOL    HW273880   9.570   1.643   3.415 -0.1094  1.4622 -0.6024
22682SOL     OW73881   4.403   0.685   9.082  0.3362 -0.3869  0.7284
22682SOL    HW173882   4.379   0.598   9.052  0.3150 -0.3117  0.5289
22682SOL    HW273883   4.326   0.717   9.129 -0.4261  0.3393 -0.9367
22683SOL     OW73884   5.135   6.068   5.779  0.0604 -0.0269  0.1227
22683SOL    HW173885   5.160   6.154   5.813  0.5151  0.3400 -1.0922
22683SOL    HW273886   5.090   6.025   5.852 -2.4775  2.2139  0.0183
22684SOL     OW73887   5.007   4.641   6.146 -0.1127  0.3235 -0.0155
22684SOL    HW173888   4.935   4.590   6.109 -0.2512  0.4225  0.1169
22684SOL    HW273889   5.063   4.661   6.071 -0.4764  0.6594 -0.2058
22685SOL     OW73890   7.862   8.386   5.596 -0.5595  0.3082 -0.1993
22685SOL    HW173891   7.831   8.477   5.590 -2.1358 -0.2206 -0.7006
22685SOL    HW273892   7.926   8.378   5.526 -0.7030  0.9392 -0.4114
22686SOL     OW73893   7.080   9.016   6.541  0.7925  0.0724 -0.7788
22686SOL    HW173894   7.154   8.958   6.523  0.4573 -0.2956 -0.9498
22686SOL    HW273895   7.003   8.961   6.535  0.4623  0.5570 -1.0517
22687SOL     OW73896   1.760   1.850   6.326 -0.5864  0.1948 -0.2286
22687SOL    HW173897   1.844   1.875   6.364 -0.7654 -0.2628  0.4924
22687SOL    HW273898   1.743   1.762   6.361 -1.9433  0.7703  0.6480
22688SOL     OW73899   1.492   8.769   0.476  0.1173 -0.3078 -0.1976
22688SOL    HW173900   1.501   8.686   0.522 -0.3701  0.1819  0.8221
22688SOL    HW273901   1.579   8.787   0.440 -0.2060 -2.1934 -2.1499
22689SOL     OW73902   0.129   8.216   1.210 -0.2356  0.2199  0.6413
22689SOL    HW173903   0.082   8.133   1.217 -0.4621  0.0259 -2.0579
22689SOL    HW273904   0.063   8.279   1.180  0.6717  0.4710 -0.9539
22690SOL     OW73905   9.343   2.932   1.982 -0.1425  0.0790 -0.4309
22690SOL    HW173906   9.424   2.937   1.933 -0.5428  0.4228 -1.0739
22690SOL    HW273907   9.360   2.981   2.062 -0.9622  3.8503 -2.3483
22691SOL     OW73908   4.221   8.624   9.509 -0.4976  0.6506 -0.0909
22691SOL    HW173909   4.277   8.573   9.450  0.6233  0.7298  0.8528
22691SOL    HW273910   4.153   8.661   9.453  0.2070  0.2603 -1.2297
22692SOL     OW73911   8.056   7.399   8.651 -0.1871  0.2289  0.1057
22692SOL    HW173912   8.149   7.389   8.668 -0.2729 -0.7460  0.0641
22692SOL    HW273913   8.048   7.398   8.555 -0.3628 -1.2192  0.1018
22693SOL     OW73914   1.418   7.887   5.004  0.2500 -0.3278  0.0049
22693SOL    HW173915   1.471   7.880   5.084  0.4687  1.9612  0.1321
22693SOL    HW273916   1.480   7.866   4.934  0.8172  0.3644  0.2815
22694SOL     OW73917   8.394   1.340   5.869  0.5705  0.5082  0.1272
22694SOL    HW173918   8.410   1.422   5.916  3.1748 -0.8999  1.9803
22694SOL    HW273919   8.340   1.288   5.929 -2.4723  1.3116 -1.7023
22695SOL     OW73920   2.219   7.543   7.878  0.0934  0.2750 -0.0854
22695SOL    HW173921   2.253   7.555   7.967  0.4159  2.7370 -0.4572
22695SOL    HW273922   2.280   7.590   7.822 -0.8906  0.0103 -1.4446
22696SOL     OW73923   6.891   4.198   6.611  0.0600 -0.1217  0.2168
22696SOL    HW173924   6.830   4.272   6.604 -1.8809 -1.7806 -1.4120
22696SOL    HW273925   6.900   4.184   6.705 -2.2546  0.0745  0.5177
22697SOL     OW73926   5.562   3.006   3.981 -0.2072  0.4426 -0.3342
22697SOL    HW173927   5.559   3.044   3.893 -1.2172  0.9336 -0.1000
22697SOL    HW273928   5.508   3.064   4.034  0.4516  0.1893  0.6345
22698SOL     OW73929   0.201   0.307   5.177 -0.1697 -0.4082  0.5034
22698SOL    HW173930   0.148   0.349   5.244  0.2579  1.5234 -0.3013
22698SOL    HW273931   0.226   0.222   5.215  0.3523  0.7476  2.9337
22699SOL     OW73932   3.568   4.712   7.981 -0.5312  0.3191  0.1874
22699SOL    HW173933   3.605   4.712   8.070 -3.6995 -1.4049  1.6476
22699SOL    HW273934   3.544   4.621   7.965 -2.0214  0.9630 -1.5310
22700SOL     OW73935   2.156   0.395   0.110  0.1186 -0.2058 -0.1169
22700SOL    HW173936   2.246   0.423   0.093 -0.2572  2.3664  1.5140
22700SOL    HW273937   2.152   0.384   0.205 -1.6135  1.1543  0.0070
22701SOL     OW73938   9.340   7.982   2.716 -0.6715 -0.0503 -0.0617
22701SOL    HW173939   9.386   7.987   2.799 -0.9001  0.0879  0.0592
22701SOL    HW273940   9.396   8.030   2.654 -0.7421  0.2791  0.1258
22702SOL     OW73941   8.977   0.688   8.767  0.4337 -0.1758 -0.2720
22702SOL    HW173942   9.026   0.631   8.826 -0.4654  0.5828  1.2671
22702SOL    HW273943   8.985   0.775   8.805 -0.5902  0.2590 -0.9860
22703SOL     OW73944   3.797   1.861   4.509  0.0121 -1.0365  0.2575
22703SOL    HW173945   3.839   1.918   4.573 -1.4593  0.3450  0.0482
22703SOL    HW273946   3.712   1.841   4.546 -0.8571 -0.2459 -1.2065
22704SOL     OW73947   4.700   6.947  10.567  0.7186 -0.5703  0.1381
22704SOL    HW173948   4.765   6.996  10.616 -0.8650  1.6077  0.2176
22704SOL    HW273949   4.704   6.983  10.478 -1.0189  0.3405  0.3908
22705SOL     OW73950   6.457   5.741   1.715  0.3030  0.3887 -0.0999
22705SOL    HW173951   6.546   5.718   1.687  0.4730 -0.2020  0.8669
22705SOL    HW273952   6.416   5.776   1.636  2.1257  3.0069 -0.0419
22706SOL     OW73953   2.216   9.707   1.446 -0.0495  0.6745 -0.4318
22706SOL    HW173954   2.308   9.731   1.437  0.1220 -0.2919 -1.7129
22706SOL    HW273955   2.201   9.645   1.374 -1.1699 -0.7427  0.9585
22707SOL     OW73956   2.720   6.024   6.381  0.3067  0.1626  0.7643
22707SOL    HW173957   2.763   5.977   6.452  2.1016  1.7190  0.7799
22707SOL    HW273958   2.673   6.096   6.423 -0.3778 -0.1470  0.5421
22708SOL     OW73959   6.606   3.733   2.751  0.0567  0.0182 -0.4458
22708SOL    HW173960   6.529   3.790   2.747  0.0760  0.0848  0.0739
22708SOL    HW273961   6.608   3.702   2.842  2.0411  1.9699  0.2626
22709SOL     OW73962   9.492   6.470   7.503 -0.2620 -0.3392  0.4497
22709SOL    HW173963   9.572   6.463   7.450 -0.0063  0.7994  0.6518
22709SOL    HW273964   9.433   6.524   7.451 -0.7605 -0.8674  0.4662
22710SOL     OW73965   2.126   1.568   2.469  0.2239 -0.0451 -0.3085
22710SOL    HW173966   2.102   1.630   2.400  0.7728  0.9685  0.3861
22710SOL    HW273967   2.222   1.563   2.464  0.1459 -1.4549 -0.8592
22711SOL     OW73968   8.522   8.910   2.228  0.2088  0.1141 -0.2948
22711SOL    HW173969   8.576   8.900   2.150  0.4497  0.4938 -0.1777
22711SOL    HW273970   8.470   8.989   2.212  0.4894  0.3747  0.0616
22712SOL     OW73971   8.193   9.720   5.727  0.3896 -0.2963 -0.2663
22712SOL    HW173972   8.165   9.729   5.818  2.7334 -0.4628  0.5165
22712SOL    HW273973   8.216   9.809   5.700 -1.3144 -0.0636 -1.1032
22713SOL     OW73974   3.004   4.277   7.918  0.4475  0.0104  0.1920
22713SOL    HW173975   2.917   4.256   7.883  0.7073 -0.1008 -0.3921
22713SOL    HW273976   3.061   4.279   7.842  1.0640 -0.4120  0.6367
22714SOL     OW73977   3.776   3.717   5.958 -0.4144  0.1748  0.0699
22714SOL    HW173978   3.714   3.646   5.973  0.1016 -0.0589  1.2678
22714SOL    HW273979   3.723   3.789   5.925 -1.2909 -0.0973  0.8244
22715SOL     OW73980   2.557  10.598   9.575  0.2106 -0.4061  0.5130
22715SOL    HW173981   2.515  10.661   9.633 -0.6490 -0.7171  0.2417
22715SOL    HW273982   2.536  10.629   9.487 -2.2521 -2.3105  0.3203
22716SOL     OW73983   5.433   3.050   2.912 -0.2966  0.0218  0.1061
22716SOL    HW173984   5.511   3.022   2.960  0.1005  0.8806 -0.0329
22716SOL    HW273985   5.389   2.968   2.891 -0.2577 -0.3975  1.5399
22717SOL     OW73986   6.180   6.841   4.393 -0.6195  0.2153 -0.6845
22717SOL    HW173987   6.247   6.817   4.328 -0.3786  2.6125 -1.4252
22717SOL    HW273988   6.108   6.876   4.340 -1.3378  0.1812  0.2565
22718SOL     OW73989   2.950   8.026   7.051 -0.1536 -0.2001  0.6868
22718SOL    HW173990   2.928   8.034   6.958  1.2121  1.4625  0.4481
22718SOL    HW273991   2.901   8.096   7.094 -0.9335 -1.0860  1.2739
22719SOL     OW73992   7.373   7.019   9.043 -0.4996  0.4120 -0.2014
22719SOL    HW173993   7.349   6.954   9.108  0.0920 -1.1662 -1.5028
22719SOL    HW273994   7.449   7.063   9.079 -0.2946 -0.3067  0.2596
22720SOL     OW73995   3.212   3.047   6.441 -0.3180 -0.0932 -0.1894
22720SOL    HW173996   3.217   2.990   6.519 -2.4405  0.5838  0.4975
22720SOL    HW273997   3.290   3.102   6.447 -0.6803  0.2684  1.7374
22721SOL     OW73998   8.055   6.401   8.742 -0.3264  0.3208 -0.1681
22721SOL    HW173999   8.089   6.439   8.823 -0.7842  0.5842 -0.1032
22721SOL    HW274000   8.123   6.339   8.716 -0.1553  0.2597  0.3983
22722SOL     OW74001   3.226   6.671   3.770  0.1883  0.5300 -0.2479
22722SOL    HW174002   3.209   6.699   3.680 -0.4584 -0.3221 -0.4055
22722SOL    HW274003   3.278   6.592   3.761  1.7272  1.4480  0.1864
22723SOL     OW74004   7.645   4.749   8.906 -0.4324  0.1916 -0.2004
22723SOL    HW174005   7.673   4.691   8.835 -0.2326 -1.3885  1.1063
22723SOL    HW274006   7.724   4.795   8.932  0.0778 -1.1055  0.6430
22724SOL     OW74007   7.349   9.499   6.791 -0.1275  0.4354  0.2653
22724SOL    HW174008   7.349   9.438   6.717 -1.3552 -0.8493  1.2810
22724SOL    HW274009   7.291   9.570   6.763  1.0197  1.0061 -0.7761
22725SOL     OW74010   4.139   7.310  10.450 -0.5126 -0.0892  0.4357
22725SOL    HW174011   4.072   7.245  10.432 -2.8428  1.7654  1.7226
22725SOL    HW274012   4.135   7.370  10.375  1.0733 -0.9627 -0.3778
22726SOL     OW74013   0.125   3.228   5.356 -0.4268 -0.4211  0.4947
22726SOL    HW174014   0.149   3.173   5.281  2.0897 -0.2081  1.0356
22726SOL    HW274015   0.168   3.312   5.338 -1.8632  0.4503  1.0163
22727SOL     OW74016   7.486   6.952  10.573  0.1825  0.3314 -0.5336
22727SOL    HW174017   7.479   6.922  10.664  2.2084  2.1746  0.3302
22727SOL    HW274018   7.549   6.894  10.533 -0.0170  0.0871 -0.4971
22728SOL     OW74019   8.893   4.175   9.522 -0.7208  0.0187 -0.4206
22728SOL    HW174020   8.843   4.113   9.577 -0.0962 -0.7387 -0.6851
22728SOL    HW274021   8.852   4.260   9.538  0.8456  0.2962  3.0437
22729SOL     OW74022   0.990   2.878   0.130 -0.6174 -0.2052 -0.3146
22729SOL    HW174023   0.948   2.936   0.067 -0.9842 -0.2564 -0.1189
22729SOL    HW274024   0.947   2.794   0.118  1.1136 -0.9382 -1.8386
22730SOL     OW74025  10.466   0.531   8.971 -0.8259 -0.6554  0.1942
22730SOL    HW174026  10.556   0.541   8.941  0.4523 -2.8620  2.7733
22730SOL    HW274027  10.423   0.482   8.901  0.3682 -0.7260 -0.5226
22731SOL     OW74028   3.978   6.512   1.673 -0.1019 -0.4922  0.3524
22731SOL    HW174029   3.985   6.607   1.672  0.1461 -0.5032 -0.5624
22731SOL    HW274030   3.906   6.492   1.614  0.3462 -0.8950 -0.0743
22732SOL     OW74031   3.409   6.081   1.362  0.4745  0.3217  0.0449
22732SOL    HW174032   3.409   5.994   1.321  2.5690  0.9286 -1.4265
22732SOL    HW274033   3.350   6.133   1.308  0.9051  0.3493 -0.4054
22733SOL     OW74034  10.418   2.131   4.275  0.7961  0.5198  0.6311
22733SOL    HW174035  10.491   2.069   4.275  0.9554  0.7024  0.1413
22733SOL    HW274036  10.411   2.160   4.366 -0.8271 -1.9950  1.3953
22734SOL     OW74037   2.018   5.321   9.269 -0.4047  0.3468 -0.8616
22734SOL    HW174038   1.941   5.266   9.284  1.2041 -1.4146  2.1031
22734SOL    HW274039   2.022   5.332   9.174 -2.7426 -1.8094 -1.3305
22735SOL     OW74040   0.381   9.470   4.810 -0.5228  0.7402  0.2907
22735SOL    HW174041   0.429   9.473   4.727 -1.8164 -0.7771 -0.5503
22735SOL    HW274042   0.447   9.443   4.875  0.3643  1.4001 -0.3059
22736SOL     OW74043   7.297   3.063   7.717 -0.8935  0.4251 -0.2376
22736SOL    HW174044   7.346   3.087   7.639 -1.0855 -0.5948 -0.6883
22736SOL    HW274045   7.228   3.004   7.686  0.5665 -2.1108  0.9348
22737SOL     OW74046   1.008  10.483   1.261 -0.3705 -0.0359 -0.7185
22737SOL    HW174047   0.945  10.516   1.325  0.4470  1.3043 -0.5677
22737SOL    HW274048   1.091  10.522   1.287 -0.0200  0.6041 -2.6362
22738SOL     OW74049   0.722   7.822   1.658 -0.0392  0.7177 -0.9422
22738SOL    HW174050   0.665   7.811   1.735  0.3351  1.5593 -0.5245
22738SOL    HW274051   0.796   7.764   1.675 -0.2669  0.4142 -0.9788
22739SOL     OW74052  10.429   3.207   1.572 -0.8643  0.1200 -0.1692
22739SOL    HW174053  10.470   3.290   1.598 -1.3388  0.3164 -0.0468
22739SOL    HW274054  10.467   3.188   1.486  0.7450 -0.5492  0.6365
22740SOL     OW74055   9.148   0.215   1.312  0.4062 -0.0235  0.2914
22740SOL    HW174056   9.057   0.221   1.283  0.2939  2.7706  0.8686
22740SOL    HW274057   9.199   0.212   1.231 -0.1309  2.0114 -0.1980
22741SOL     OW74058   6.238   2.894   9.606  0.0561  0.4865  0.8086
22741SOL    HW174059   6.161   2.904   9.549  0.1835 -2.1962  0.0243
22741SOL    HW274060   6.201   2.864   9.690  0.1918 -1.7895  0.1375
22742SOL     OW74061   2.680   7.621  10.275 -0.0344 -0.4045 -0.1805
22742SOL    HW174062   2.771   7.633  10.250  0.3006  0.8143  1.4537
22742SOL    HW274063   2.640   7.576  10.201  0.9969  2.3380 -2.5837
22743SOL     OW74064   2.452   5.321   1.598 -0.0541 -0.9400  0.6120
22743SOL    HW174065   2.451   5.271   1.679 -0.7068 -0.8363  0.6767
22743SOL    HW274066   2.504   5.399   1.618 -0.2902 -0.8701  0.9639
22744SOL     OW74067   7.787   2.719   3.221 -0.0931 -0.3162  0.0051
22744SOL    HW174068   7.832   2.703   3.138  1.0376  1.3616  0.2501
22744SOL    HW274069   7.852   2.699   3.288  0.2608  1.7811  0.3736
22745SOL     OW74070   9.356   3.385   0.208  0.0956 -0.4633 -0.5141
22745SOL    HW174071   9.310   3.320   0.156  0.4848 -0.8207 -0.4166
22745SOL    HW274072   9.437   3.342   0.235  0.5274  0.1784 -0.7557
22746SOL     OW74073   3.521   7.310   4.125 -0.0797  0.6227  0.3091
22746SOL    HW174074   3.455   7.244   4.145  0.3644 -0.0568 -0.4310
22746SOL    HW274075   3.593   7.292   4.185 -0.5501  1.3715  1.1244
22747SOL     OW74076   6.514   0.682   5.315 -0.4780  0.1814  0.3850
22747SOL    HW174077   6.594   0.658   5.361 -1.4028 -1.5598  1.1798
22747SOL    HW274078   6.485   0.763   5.358  0.6506  0.6434  0.3054
22748SOL     OW74079   2.978   8.211   4.308 -0.3670  0.1833 -0.3921
22748SOL    HW174080   2.942   8.298   4.322  1.1890  0.5884  1.3961
22748SOL    HW274081   3.073   8.223   4.305 -0.1841 -1.1608 -2.5996
22749SOL     OW74082   6.560   4.828   4.773 -0.4342  0.2435 -0.3936
22749SOL    HW174083   6.655   4.838   4.784 -0.1934 -1.7798 -0.2721
22749SOL    HW274084   6.523   4.871   4.850  0.3925  0.6529 -0.2024
22750SOL     OW74085   7.521   1.762   1.652  0.6844  0.1228  0.1845
22750SOL    HW174086   7.589   1.774   1.718 -0.4807 -0.0169  1.4683
22750SOL    HW274087   7.568   1.744   1.571  2.3045  4.1479  0.0379
22751SOL     OW74088   1.741   2.448   4.636  0.0997 -0.0582 -0.3821
22751SOL    HW174089   1.814   2.386   4.625 -0.5949 -0.8663 -0.5872
22751SOL    HW274090   1.776   2.517   4.691  0.1171 -2.0163  2.2469
22752SOL     OW74091   2.492   5.635   7.423  0.1083  0.4277 -0.5256
22752SOL    HW174092   2.545   5.577   7.368 -1.9340 -2.3189  0.1949
22752SOL    HW274093   2.510   5.607   7.512  1.9788  3.6120  0.2725
22753SOL     OW74094   4.034   9.388   1.659 -0.1641  0.1432 -0.2246
22753SOL    HW174095   3.947   9.418   1.686  0.5562  1.5435  0.6479
22753SOL    HW274096   4.031   9.293   1.668 -1.4210  0.2167  0.3224
22754SOL     OW74097   7.795   0.464  10.540 -0.0900  0.1809 -0.4850
22754SOL    HW174098   7.734   0.523  10.585 -0.3600  0.9338 -1.7919
22754SOL    HW274099   7.778   0.479  10.447  1.8681  0.1753 -0.8834
22755SOL     OW74100   2.356   9.362   9.602 -0.6741 -0.2792  0.5194
22755SOL    HW174101   2.426   9.413   9.643  0.0323 -0.6608 -0.1996
22755SOL    HW274102   2.390   9.273   9.599 -1.9147 -0.8431  1.8009
22756SOL     OW74103   9.488   2.311   4.251  0.2424  0.3146  0.0347
22756SOL    HW174104   9.463   2.230   4.208 -0.3883  1.8257 -2.6244
22756SOL    HW274105   9.577   2.295   4.282 -0.0834 -1.5575  0.1204
22757SOL     OW74106   5.037   7.052   5.790 -0.2013  0.0474 -0.4154
22757SOL    HW174107   4.990   7.135   5.793 -0.3470 -0.0614  0.7221
22757SOL    HW274108   5.055   7.031   5.882 -1.0904 -1.7052 -0.6045
22758SOL     OW74109  10.213   3.781   0.134  0.0100  0.0965 -0.2406
22758SOL    HW174110  10.298   3.738   0.144 -0.6528 -1.1133  0.3970
22758SOL    HW274111  10.234   3.866   0.095  1.5922  0.1839  0.7097
22759SOL     OW74112   3.633   2.006   3.444 -0.0806 -0.0489  0.3723
22759SOL    HW174113   3.726   1.985   3.457  0.4085  1.3366 -0.6610
22759SOL    HW274114   3.630   2.101   3.444 -1.4143 -0.0727 -0.2801
22760SOL     OW74115   5.145   8.431   7.208 -0.1503 -0.0578  0.8264
22760SOL    HW174116   5.220   8.449   7.151 -0.6983  0.6516  0.3179
22760SOL    HW274117   5.175   8.360   7.265  0.5511 -0.5192 -0.0821
22761SOL     OW74118   9.843   5.964   1.483 -0.3838 -0.5175  0.8135
22761SOL    HW174119   9.785   6.012   1.542 -1.2965 -1.4958  0.7518
22761SOL    HW274120   9.931   5.986   1.513 -0.8205 -0.3901  2.0588
22762SOL     OW74121  10.116   5.089   0.282  0.1875  0.3440  0.0762
22762SOL    HW174122  10.110   5.036   0.202 -0.4558 -0.4354  0.6315
22762SOL    HW274123  10.029   5.083   0.321  0.3620  1.1195  0.5932
22763SOL     OW74124   5.108   2.358   3.175 -0.0721 -0.5790 -0.5386
22763SOL    HW174125   5.116   2.419   3.102 -0.5246  0.8921  0.5870
22763SOL    HW274126   5.149   2.404   3.249 -1.1255 -1.2924  0.5307
22764SOL     OW74127   3.311   4.767   4.211  0.3803 -0.3327  0.1980
22764SOL    HW174128   3.275   4.815   4.137  1.2656 -2.3598 -1.6454
22764SOL    HW274129   3.382   4.822   4.244  1.0487 -0.1184 -1.5234
22765SOL     OW74130   1.118   4.339   5.757  0.0081  0.1126 -0.1946
22765SOL    HW174131   1.136   4.405   5.824 -0.3224 -0.4369  0.4503
22765SOL    HW274132   1.152   4.258   5.794 -2.7437 -0.7797  0.6580
22766SOL     OW74133   0.915   6.963   0.064 -0.5677 -0.2723 -0.7852
22766SOL    HW174134   0.854   7.001   0.001  0.7251 -1.2548 -2.7216
22766SOL    HW274135   0.885   6.873   0.075 -1.7101  0.2903  1.3038
22767SOL     OW74136   6.152  10.411   8.884 -0.3298  0.3371  0.4203
22767SOL    HW174137   6.195  10.347   8.827 -1.1395 -0.2307  0.4358
22767SOL    HW274138   6.121  10.359   8.959 -1.7782  0.5803  0.0128
22768SOL     OW74139   3.771   5.343   2.745 -0.2734 -0.3206 -0.2045
22768SOL    HW174140   3.847   5.302   2.705  1.0248  1.8515 -0.1440
22768SOL    HW274141   3.792   5.437   2.746 -2.2290  0.1731  1.3828
22769SOL     OW74142   7.085   9.455   6.944 -0.5062  0.4678 -0.0037
22769SOL    HW174143   7.120   9.381   6.894  1.5913  0.9438  0.6642
22769SOL    HW274144   7.145   9.527   6.926 -0.7663  1.1655  1.6843
22770SOL     OW74145   8.346   6.084   2.767 -0.3015  0.5610 -0.8720
22770SOL    HW174146   8.393   6.125   2.839 -1.5391  3.2223 -1.4503
22770SOL    HW274147   8.363   6.141   2.691 -1.1110 -0.7163 -2.0689
22771SOL     OW74148  10.130   0.330  10.387  0.0031  0.4463  0.0234
22771SOL    HW174149  10.125   0.329  10.483  1.3254 -0.5957  0.1183
22771SOL    HW274150  10.160   0.242  10.364  0.6478  0.9807 -1.2907
22772SOL     OW74151   8.892   3.605   9.418  0.0427  0.0483  0.4495
22772SOL    HW174152   8.846   3.685   9.442  1.0181  0.8433 -0.2780
22772SOL    HW274153   8.953   3.631   9.350  0.6288 -1.2462  0.4459
22773SOL     OW74154   1.500   8.496   0.894 -0.3160 -0.1339 -0.0858
22773SOL    HW174155   1.439   8.559   0.931  0.4497  0.2666  0.5328
22773SOL    HW274156   1.487   8.417   0.947 -1.3041 -0.5207 -0.8884
22774SOL     OW74157   6.603  10.478   8.088 -0.0546  0.1830 -0.0334
22774SOL    HW174158   6.581  10.498   8.179 -0.2473  0.7051 -0.1880
22774SOL    HW274159   6.663  10.403   8.093  0.7581  0.8532  0.5854
22775SOL     OW74160   5.023   5.580   3.098  0.0751  0.3382  0.2903
22775SOL    HW174161   5.061   5.581   3.185 -0.0432  1.2579  0.3463
22775SOL    HW274162   4.929   5.573   3.112  0.0710  0.2758  0.2331
22776SOL     OW74163   6.517   2.757   7.760 -0.2395  0.7697  0.1470
22776SOL    HW174164   6.478   2.819   7.699  0.3636  1.7462  0.7359
22776SOL    HW274165   6.451   2.748   7.829 -0.0352  1.3085  0.4171
22777SOL     OW74166   9.100   7.105   3.257 -0.1531 -0.3769  0.0851
22777SOL    HW174167   9.129   7.109   3.348  0.9020  0.7000 -0.2740
22777SOL    HW274168   9.010   7.139   3.260 -0.1058 -0.2867  0.7031
22778SOL     OW74169  10.364  10.572   4.693 -0.1132  0.4708 -0.1603
22778SOL    HW174170  10.372  10.664   4.669  0.0784  0.2968 -0.7852
22778SOL    HW274171  10.306  10.534   4.627 -1.0121  0.3520  0.6814
22779SOL     OW74172   8.789   0.372   5.786  0.0143 -0.2691  0.6064
22779SOL    HW174173   8.773   0.409   5.699 -0.8429 -0.2514  0.7536
22779SOL    HW274174   8.780   0.278   5.774  0.0425 -0.2770  0.6468
22780SOL     OW74175   4.142   7.513  10.221  0.3325 -0.3703 -0.0275
22780SOL    HW174176   4.216   7.536  10.164  0.4094  0.1020  0.2614
22780SOL    HW274177   4.169   7.540  10.308 -0.6276  0.8706 -0.0835
22781SOL     OW74178   0.260   1.982   2.947 -0.6046  0.2555 -0.1688
22781SOL    HW174179   0.340   1.932   2.962 -1.1598 -0.3225  0.9864
22781SOL    HW274180   0.283   2.044   2.877  1.3190  1.1582  1.1682
22782SOL     OW74181   0.989   5.525   9.499 -0.5835  0.7555  0.3054
22782SOL    HW174182   0.939   5.598   9.461 -1.2806 -0.6275 -1.5578
22782SOL    HW274183   0.952   5.447   9.458  0.4035 -0.6440  1.9648
22783SOL     OW74184   3.592  10.349   3.437  0.8884  0.8164 -0.6282
22783SOL    HW174185   3.591  10.434   3.480  0.7202  0.9475 -0.8898
22783SOL    HW274186   3.500  10.328   3.421  0.9227  0.5276 -0.4496
22784SOL     OW74187   4.010   5.247   8.268 -0.1096 -0.4783  0.1040
22784SOL    HW174188   3.984   5.258   8.360  1.8152  0.8132  0.5425
22784SOL    HW274189   3.930   5.267   8.219 -0.6497  0.8872  1.4462
22785SOL     OW74190   1.076   3.192   8.998  0.1805 -0.5842 -0.1851
22785SOL    HW174191   1.002   3.166   8.943 -1.2204  1.4645  0.6062
22785SOL    HW274192   1.104   3.277   8.963  1.5792 -0.9093  0.0955
22786SOL     OW74193   7.635   4.517   7.104  0.3676 -0.5392  0.0287
22786SOL    HW174194   7.593   4.514   7.190  0.3857  0.0461  0.0626
22786SOL    HW274195   7.569   4.482   7.044 -0.1663  0.3189  0.0918
22787SOL     OW74196   1.176  10.052   5.534  1.0037  0.7566  0.5542
22787SOL    HW174197   1.106  10.010   5.583  0.9902  0.9773  0.7230
22787SOL    HW274198   1.131  10.103   5.467  1.0279  0.2810  0.1661
22788SOL     OW74199   1.248   2.098   6.024 -0.2435  0.0621  0.4846
22788SOL    HW174200   1.280   2.183   5.992  0.4321  0.1797  1.4237
22788SOL    HW274201   1.315   2.070   6.087  0.5148 -2.0398 -1.1214
22789SOL     OW74202   6.215  10.254  10.375 -0.0256 -0.0312  0.6431
22789SOL    HW174203   6.305  10.225  10.361  0.3339  1.0253  0.6643
22789SOL    HW274204   6.167  10.220  10.300  0.3249 -0.8415  0.7755
22790SOL     OW74205   5.442   7.111  10.312 -0.5485  0.0312 -0.3948
22790SOL    HW174206   5.421   7.168  10.239  0.2046 -1.1561 -1.5785
22790SOL    HW274207   5.383   7.036  10.302 -0.6487 -0.0124  0.4019
22791SOL     OW74208   0.156   6.806   0.519  0.1137  0.6035 -0.0380
22791SOL    HW174209   0.167   6.858   0.440 -0.5747  1.5023  0.4232
22791SOL    HW274210   0.077   6.842   0.560  0.5948  0.3332  1.1782
22792SOL     OW74211   8.872   2.888   4.450  0.2829 -0.0657  0.3565
22792SOL    HW174212   8.910   2.939   4.521  0.4121  0.2306  0.0751
22792SOL    HW274213   8.783   2.868   4.480  0.1415  0.5513  0.3544
22793SOL     OW74214   3.667   8.552   2.136 -0.0033 -0.0184 -0.1028
22793SOL    HW174215   3.724   8.601   2.077  1.2549 -2.2470 -0.8455
22793SOL    HW274216   3.593   8.612   2.152  0.5907  1.4543 -2.2995
22794SOL     OW74217   3.182   4.024   3.639  0.6199  0.6026  0.1457
22794SOL    HW174218   3.187   4.003   3.732  0.8886 -1.6700 -0.3215
22794SOL    HW274219   3.265   4.068   3.620  1.3212 -0.4372  0.6749
22795SOL     OW74220   2.179   1.410   3.612  0.3452 -0.1808 -0.1864
22795SOL    HW174221   2.183   1.362   3.529  0.3150 -1.3282  0.4587
22795SOL    HW274222   2.097   1.458   3.609 -0.0762 -0.9138 -0.4516
22796SOL     OW74223   0.747   2.566   3.187 -0.0627 -0.0701 -0.3826
22796SOL    HW174224   0.676   2.610   3.234  0.3188  0.9652 -0.7391
22796SOL    HW274225   0.711   2.550   3.100  0.5114  1.5711 -0.9624
22797SOL     OW74226   5.422   2.089   4.439 -0.4863 -1.0864  0.5576
22797SOL    HW174227   5.389   2.130   4.519  1.2570  0.8155  0.4001
22797SOL    HW274228   5.356   2.108   4.372 -0.2261  0.6477  0.7447
22798SOL     OW74229   0.676   5.189  10.266  0.6636 -0.2292  0.1572
22798SOL    HW174230   0.761   5.149  10.245  0.7034 -0.1036  0.0774
22798SOL    HW274231   0.613   5.118  10.257  0.6861 -0.1900 -0.3424
22799SOL     OW74232   4.743   0.375   2.778 -0.8635 -0.2689 -0.1230
22799SOL    HW174233   4.816   0.396   2.719  0.0396 -1.2863  0.5827
22799SOL    HW274234   4.775   0.301   2.830 -1.5718  0.6496  1.7251
22800SOL     OW74235   1.928   3.784   7.320 -0.1835 -0.2861  0.0972
22800SOL    HW174236   1.971   3.711   7.275  0.4491  0.7864 -1.1092
22800SOL    HW274237   1.999   3.845   7.339 -0.8756  0.6206 -0.1438
22801SOL     OW74238  10.099   3.559   0.904  0.6628 -0.1174 -0.3455
22801SOL    HW174239  10.023   3.555   0.845 -1.1702 -0.5447  1.8788
22801SOL    HW274240  10.136   3.471   0.901 -1.3373 -1.1423  1.3256
22802SOL     OW74241   3.078   0.925   3.023  0.6559 -0.1923 -0.7800
22802SOL    HW174242   3.064   0.915   2.929 -0.8262 -3.6787 -0.3327
22802SOL    HW274243   3.019   0.996   3.049  2.4525  2.1532 -2.6291
22803SOL     OW74244   3.075   4.287   0.282  0.1069 -0.1948  0.7969
22803SOL    HW174245   3.169   4.274   0.272  0.3203  0.6175  1.6167
22803SOL    HW274246   3.060   4.376   0.249 -0.3969 -0.3528  0.5867
22804SOL     OW74247   4.972   1.986   0.966  0.0282  0.1373 -0.1495
22804SOL    HW174248   4.922   2.065   0.942  0.7797  0.4574 -0.6824
22804SOL    HW274249   4.952   1.973   1.059 -0.0049  1.0317 -0.0226
22805SOL     OW74250   8.705   8.953   0.182  0.0169  0.2602  0.1044
22805SOL    HW174251   8.716   8.974   0.274  0.9283  0.9218 -0.1459
22805SOL    HW274252   8.638   8.884   0.181  1.6291 -1.4238  1.4447
22806SOL     OW74253   2.669   3.306   8.793  0.3674 -0.1108 -0.0635
22806SOL    HW174254   2.580   3.294   8.824  0.5321  1.5878  1.2114
22806SOL    HW274255   2.659   3.340   8.704 -0.2775  0.2491  0.1378
22807SOL     OW74256   9.490   4.063   4.703  0.5046 -0.3763 -0.5123
22807SOL    HW174257   9.513   4.094   4.791 -0.4769  0.4450 -0.5257
22807SOL    HW274258   9.567   4.015   4.674  1.3188  0.3904  0.3026
22808SOL     OW74259   6.503   9.475   9.240  0.7265 -0.1415 -0.0358
22808SOL    HW174260   6.423   9.478   9.188  1.2766 -0.5800 -0.9263
22808SOL    HW274261   6.565   9.530   9.192  1.9080 -2.2285 -1.0500
22809SOL     OW74262   4.166   6.379   6.893 -0.2867 -0.3555 -0.4244
22809SOL    HW174263   4.093   6.372   6.955 -0.0057 -0.7208 -0.1384
22809SOL    HW274264   4.222   6.447   6.930 -0.5847  0.0856 -0.7585
22810SOL     OW74265   2.540   2.831   7.310  0.1817  0.0433 -0.2196
22810SOL    HW174266   2.464   2.828   7.367 -1.1294  1.6915 -1.7672
22810SOL    HW274267   2.545   2.745   7.270 -0.2791 -0.3746  0.6135
22811SOL     OW74268   5.582   5.997   1.419 -0.3543 -0.0825  0.6875
22811SOL    HW174269   5.677   6.001   1.431 -0.5466  0.0014  2.5613
22811SOL    HW274270   5.561   6.074   1.368  0.7819 -1.1504 -1.5173
22812SOL     OW74271   6.985   4.119   3.130 -0.0703 -0.0470 -0.3163
22812SOL    HW174272   7.076   4.145   3.143 -0.2121 -0.0194  0.7062
22812SOL    HW274273   6.978   4.034   3.173 -0.5042 -0.0850 -0.4604
22813SOL     OW74274   2.737   8.943   0.352 -0.3341  0.1903 -0.0920
22813SOL    HW174275   2.644   8.926   0.361 -0.1778 -0.1481  1.1159
22813SOL    HW274276   2.755   9.015   0.414 -0.1751  1.8269 -1.9275
22814SOL     OW74277  10.157   1.983   2.281  0.3413 -0.2282 -0.0815
22814SOL    HW174278  10.231   2.042   2.270 -0.0155  0.2396  0.0055
22814SOL    HW274279  10.196   1.902   2.314  0.6875  0.4207  1.1813
22815SOL     OW74280   5.028  10.683   5.215  0.2585 -0.6521 -0.3340
22815SOL    HW174281   5.104  10.732   5.182 -0.2050 -0.7648 -1.6322
22815SOL    HW274282   4.953  10.736   5.189 -0.1612 -1.0687  0.0240
22816SOL     OW74283   6.466   5.273   5.778 -0.2960  0.1818 -0.0642
22816SOL    HW174284   6.557   5.271   5.748 -0.9437  0.4337 -2.2687
22816SOL    HW274285   6.460   5.203   5.843  0.5901 -2.6641 -2.8079
22817SOL     OW74286   6.336   3.334   2.358 -0.0763  0.1275  0.1963
22817SOL    HW174287   6.355   3.360   2.447 -0.4003 -0.8951  0.5866
22817SOL    HW274288   6.409   3.368   2.306  1.0512 -0.8018  1.1261
22818SOL     OW74289   4.834   7.710   3.943  0.0879  0.2360  0.0011
22818SOL    HW174290   4.862   7.618   3.947  1.0153  0.5629  1.6300
22818SOL    HW274291   4.869   7.750   4.022  2.3301  2.7671 -2.0920
22819SOL     OW74292   1.744   6.201   9.543 -0.3933 -0.0016  0.3286
22819SOL    HW174293   1.653   6.210   9.570 -1.0179 -0.1033 -1.5476
22819SOL    HW274294   1.747   6.117   9.497  0.7267 -0.1381  0.6269
22820SOL     OW74295   0.827   9.074   2.022 -0.0418  0.2823 -0.3281
22820SOL    HW174296   0.770   9.144   2.054  0.1259  0.0170  0.6061
22820SOL    HW274297   0.769   8.999   2.010  0.4400 -0.9237  3.5439
22821SOL     OW74298  10.009   2.647   2.440  0.3838 -0.2521  0.4074
22821SOL    HW174299   9.933   2.680   2.392  0.3584 -0.1794  0.4978
22821SOL    HW274300  10.081   2.705   2.414  0.2507  0.1347  0.8813
22822SOL     OW74301   6.704   9.429   7.094 -0.0295 -0.8729  0.4300
22822SOL    HW174302   6.688   9.370   7.167  0.1935 -1.5083 -0.0267
22822SOL    HW274303   6.669   9.383   7.017  0.3090 -0.4941  0.0444
22823SOL     OW74304   2.190   2.531   8.088  0.0688  0.2930 -0.4336
22823SOL    HW174305   2.282   2.532   8.114 -0.4722 -0.3381  1.6388
22823SOL    HW274306   2.144   2.491   8.162 -1.7486 -0.4351 -1.8764
22824SOL     OW74307   1.385  10.357   1.401 -0.1820 -0.3653  0.4754
22824SOL    HW174308   1.357  10.429   1.345 -0.9195  1.5369  3.0938
22824SOL    HW274309   1.330  10.283   1.375  0.2743  0.0680 -1.9646
22825SOL     OW74310   2.024  10.036  10.681 -0.0916 -0.1789  0.3435
22825SOL    HW174311   2.066   9.958  10.646  0.3314  0.1170  0.1720
22825SOL    HW274312   2.024  10.024  10.776  0.3730 -0.1901  0.3446
22826SOL     OW74313   8.701   4.919  10.333 -0.2962  0.7654 -0.6704
22826SOL    HW174314   8.795   4.905  10.344 -0.5567 -2.2646 -1.1998
22826SOL    HW274315   8.677   4.981  10.401  2.2935  2.9123 -1.5397
22827SOL     OW74316   1.603   4.985   0.276  0.2155  0.7950  0.1612
22827SOL    HW174317   1.555   5.026   0.347 -2.6392 -0.0662 -1.1278
22827SOL    HW274318   1.584   4.891   0.284  0.7314  0.5600 -1.0801
22828SOL     OW74319   6.855   5.294   2.697 -0.4629 -0.4984 -0.3146
22828SOL    HW174320   6.908   5.372   2.713  0.1793 -0.9970  0.0421
22828SOL    HW274321   6.844   5.253   2.783 -0.4458 -1.0171 -0.5539
22829SOL     OW74322   3.206   7.929   8.348  0.2115  0.3710  0.3339
22829SOL    HW174323   3.298   7.945   8.329  0.1197  0.6090  0.0800
22829SOL    HW274324   3.178   7.864   8.284  0.2211  0.2395  0.4620
22830SOL     OW74325   7.534   9.484   2.502 -0.2191 -0.5692 -0.4146
22830SOL    HW174326   7.598   9.478   2.573  0.0929 -2.0487 -0.7881
22830SOL    HW274327   7.580   9.529   2.432 -0.9460  2.1352  0.7096
22831SOL     OW74328   1.510   2.478   5.064  0.4011  0.1959  0.0322
22831SOL    HW174329   1.573   2.539   5.101  0.4703  0.1512 -0.0097
22831SOL    HW274330   1.428   2.494   5.111  0.6068 -0.1785  0.5264
22832SOL     OW74331   9.390   6.971   3.163 -0.3821  0.6108  0.3090
22832SOL    HW174332   9.383   6.921   3.082 -2.5492 -1.1273  1.4693
22832SOL    HW274333   9.358   7.058   3.140  0.0714  0.4802 -0.9138
22833SOL     OW74334   9.804   7.074   3.628 -0.1237 -0.2176 -0.0882
22833SOL    HW174335   9.717   7.115   3.631 -0.1114 -0.2108  0.1362
22833SOL    HW274336   9.785   6.980   3.635 -0.1637 -0.2694 -0.7845
22834SOL     OW74337  10.268   2.051   9.164  0.4467  0.2366 -0.2194
22834SOL    HW174338  10.334   2.094   9.219  1.6589 -1.3651 -0.3443
22834SOL    HW274339  10.314   2.032   9.082 -1.0474  1.7039 -1.4873
22835SOL     OW74340   5.524   7.563   7.494 -0.1886 -0.1376  0.4353
22835SOL    HW174341   5.579   7.624   7.543  1.7766 -1.4160 -0.0915
22835SOL    HW274342   5.531   7.592   7.403 -0.4746 -0.2641  0.3716
22836SOL     OW74343   6.701   7.887   8.993 -0.2839  0.0223  0.0813
22836SOL    HW174344   6.616   7.922   8.964 -0.5065  0.1400  0.8470
22836SOL    HW274345   6.745   7.962   9.033 -0.5759 -0.4531  1.3196
22837SOL     OW74346   1.254   5.154   0.795  0.2686  0.0487 -0.0478
22837SOL    HW174347   1.287   5.242   0.816  1.6223 -0.6178  0.6955
22837SOL    HW274348   1.332   5.104   0.771 -0.5259 -0.8811 -0.7510
22838SOL     OW74349   6.484   5.108   5.392 -0.7755 -0.2069  0.0268
22838SOL    HW174350   6.440   5.105   5.308  0.5898 -0.1870 -0.7232
22838SOL    HW274351   6.418   5.080   5.456 -0.8790 -3.7821 -1.4245
22839SOL     OW74352   5.598   7.663   5.195  0.3257  0.2826  0.4758
22839SOL    HW174353   5.531   7.604   5.160 -0.3605  0.9845  0.5894
22839SOL    HW274354   5.681   7.623   5.169 -0.1445 -0.0556 -0.5571
22840SOL     OW74355   5.790   2.620   7.861 -0.3132  0.3354 -0.0676
22840SOL    HW174356   5.812   2.619   7.768  4.0128  0.8751  0.7422
22840SOL    HW274357   5.867   2.583   7.904 -2.5499 -0.8739  3.3204
22841SOL     OW74358   6.632   8.715   9.217 -0.2501 -0.3072 -0.1599
22841SOL    HW174359   6.660   8.655   9.286 -0.3372 -0.2224 -0.0508
22841SOL    HW274360   6.714   8.744   9.177 -0.1310  0.4924  0.6313
22842SOL     OW74361   7.827   0.818   9.379  0.1377  0.2141  0.6274
22842SOL    HW174362   7.842   0.735   9.425  2.3512  0.3677  0.2783
22842SOL    HW274363   7.863   0.803   9.291 -0.3934  1.2376  0.2175
22843SOL     OW74364   3.102  10.548   3.497  0.2413 -0.1391 -0.0226
22843SOL    HW174365   3.038  10.522   3.564 -1.1408 -0.7597 -1.5145
22843SOL    HW274366   3.170  10.595   3.545 -0.8183 -0.3723  1.7727
22844SOL     OW74367   7.982   0.408   4.340 -0.3255 -0.2811  0.2388
22844SOL    HW174368   7.914   0.475   4.335 -1.0092 -0.9748  0.1591
22844SOL    HW274369   8.022   0.408   4.253 -0.5275 -0.1949  0.1459
22845SOL     OW74370   4.626   2.647   3.279  0.4933  0.2247  0.3556
22845SOL    HW174371   4.667   2.678   3.360 -0.6216 -0.5047  1.2310
22845SOL    HW274372   4.697   2.605   3.230  1.0800  0.2168  1.1944
22846SOL     OW74373   0.573   6.946   3.653 -0.0493  0.4318  0.8437
22846SOL    HW174374   0.664   6.971   3.637  0.2331 -1.5010 -1.1121
22846SOL    HW274375   0.524   7.027   3.642  1.1961  1.0348 -0.9199
22847SOL     OW74376   8.332   4.771   0.753  0.2071  0.5138  0.1088
22847SOL    HW174377   8.369   4.856   0.727 -0.9668  0.7227 -0.9738
22847SOL    HW274378   8.314   4.781   0.846  0.7270  1.2195  0.1427
22848SOL     OW74379   1.018   5.154  10.430  0.4280 -0.5266  0.3031
22848SOL    HW174380   1.026   5.249  10.421 -0.1922 -0.5532 -0.7437
22848SOL    HW274381   1.060   5.119  10.352 -1.7642 -0.9767 -0.7587
22849SOL     OW74382   5.321   5.250   9.709  0.4107  0.4974  0.0803
22849SOL    HW174383   5.341   5.331   9.757 -0.7384  0.8600 -0.0130
22849SOL    HW274384   5.298   5.187   9.778 -0.2276  0.7198  0.0829
22850SOL     OW74385   9.289   9.188   4.956  0.0025  0.2770  0.1433
22850SOL    HW174386   9.268   9.152   5.042 -0.7883  1.5854  0.5304
22850SOL    HW274387   9.351   9.126   4.919 -0.0471 -0.5941  1.4374
22851SOL     OW74388  10.449   3.328   6.801  0.1870 -0.5739 -0.7278
22851SOL    HW174389  10.489   3.340   6.715  1.2863  0.9731 -0.0349
22851SOL    HW274390  10.393   3.404   6.813  2.2387  0.7713  1.0534
22852SOL     OW74391   8.617   5.901   2.105  0.0381  0.2113 -0.1928
22852SOL    HW174392   8.620   5.991   2.137 -1.9985 -0.3685  1.9022
22852SOL    HW274393   8.592   5.909   2.013  1.9291  1.7923 -0.6462
22853SOL     OW74394   6.170   0.879   0.654 -0.3263 -0.0450 -0.0410
22853SOL    HW174395   6.143   0.847   0.740 -1.0311  0.3317 -0.1145
22853SOL    HW274396   6.236   0.817   0.624 -0.1559 -0.2400  0.7252
22854SOL     OW74397   0.872   6.320   1.872  0.1775  0.5726 -0.1211
22854SOL    HW174398   0.795   6.334   1.927 -0.8691  1.7000 -1.7933
22854SOL    HW274399   0.839   6.329   1.782  2.0650  0.0197 -0.9100
22855SOL     OW74400   7.629   3.004   9.101  0.6585  0.7110  0.2711
22855SOL    HW174401   7.664   2.926   9.143  2.2827 -0.1043 -2.3565
22855SOL    HW274402   7.704   3.063   9.093  0.3608  0.9350 -1.1755
22856SOL     OW74403  10.155   9.052   9.671 -1.3557  0.6990 -0.5308
22856SOL    HW174404  10.250   9.039   9.675 -1.0981  0.4927 -4.1748
22856SOL    HW274405  10.144   9.145   9.654 -1.8844  0.8350  0.4753
22857SOL     OW74406   9.376   8.977   9.090 -0.2244  0.4678  0.0465
22857SOL    HW174407   9.448   8.922   9.119  0.7991  0.0438 -2.9053
22857SOL    HW274408   9.397   9.064   9.125  2.9433  0.8312 -2.2975
22858SOL     OW74409   3.653   6.250   4.877 -0.0652  0.3258  0.3397
22858SOL    HW174410   3.660   6.328   4.932  0.6986 -0.0009  0.7297
22858SOL    HW274411   3.739   6.208   4.884 -0.3785 -0.4106 -0.0787
22859SOL     OW74412   8.394   0.600   2.231 -0.2537 -0.0984  0.6834
22859SOL    HW174413   8.437   0.520   2.201 -0.8993 -0.9248  1.8815
22859SOL    HW274414   8.424   0.668   2.170 -1.1579 -1.5781 -1.5632
22860SOL     OW74415   1.939   8.796  10.649  0.1853 -0.2660  0.2584
22860SOL    HW174416   1.864   8.808  10.708 -0.7249  0.2121 -0.9437
22860SOL    HW274417   1.918   8.716  10.601  0.7399 -0.4505  0.3265
22861SOL     OW74418   2.780   5.276  10.018  0.3185  0.4391  0.2243
22861SOL    HW174419   2.692   5.314  10.008  1.1832  2.4692 -0.2161
22861SOL    HW274420   2.818   5.323  10.092  0.9869 -0.5486  0.5227
22862SOL     OW74421   7.698   0.544   6.026 -0.4814 -0.7526  0.4457
22862SOL    HW174422   7.722   0.557   5.934 -1.0157 -1.5283  0.1865
22862SOL    HW274423   7.617   0.494   6.023 -0.8924 -0.1623  1.3435
22863SOL     OW74424   0.599  10.156   4.057  0.1540 -0.1658 -0.2683
22863SOL    HW174425   0.531  10.120   4.001  0.7120 -1.3737 -0.2052
22863SOL    HW274426   0.644  10.079   4.093  0.6365  0.5902  0.8155
22864SOL     OW74427   3.564   1.403   2.985  0.3129  0.2169  0.6631
22864SOL    HW174428   3.648   1.362   2.965  0.6094  1.4201 -0.7980
22864SOL    HW274429   3.501   1.356   2.930  0.3005  0.3326  0.5775
22865SOL     OW74430   0.362   2.408   4.952 -0.1875 -0.2407  0.2660
22865SOL    HW174431   0.291   2.352   4.921  0.3142 -0.6463 -0.1806
22865SOL    HW274432   0.352   2.410   5.047  0.1729 -1.6350  0.3528
22866SOL     OW74433   5.296   8.107   6.046 -0.0070 -0.3449 -0.2380
22866SOL    HW174434   5.391   8.105   6.036  0.1044 -0.4303  0.7493
22866SOL    HW274435   5.263   8.117   5.957  0.9114 -0.7703 -0.6425
22867SOL     OW74436   1.056   7.614   8.946 -0.7664  0.0015 -0.1485
22867SOL    HW174437   1.082   7.594   9.036  0.0942  2.4912  0.2306
22867SOL    HW274438   1.126   7.576   8.892  0.2833  1.0029  0.4558
22868SOL     OW74439   8.849   2.549   0.158  0.5267  0.1556  0.9059
22868SOL    HW174440   8.854   2.592   0.073 -0.5243 -1.7742 -0.1963
22868SOL    HW274441   8.797   2.609   0.212 -1.8108 -0.1116 -0.8839
22869SOL     OW74442   4.249   1.149   0.253  0.2117  0.1997  0.3039
22869SOL    HW174443   4.217   1.211   0.187  1.3878 -1.4583 -1.9681
22869SOL    HW274444   4.195   1.071   0.241  0.0196  0.0695  1.8109
22870SOL     OW74445   2.450   7.297   7.946 -0.1728 -0.5009 -0.2962
22870SOL    HW174446   2.400   7.216   7.935 -1.1531  0.1133 -0.5634
22870SOL    HW274447   2.429   7.326   8.035  1.3356 -1.2751  0.3441
22871SOL     OW74448   0.645   5.688   6.511  0.5048 -0.1735 -0.7585
22871SOL    HW174449   0.559   5.667   6.474  1.8074 -2.3348 -2.8442
22871SOL    HW274450   0.666   5.774   6.474  0.1312 -0.6039 -2.0260
22872SOL     OW74451  10.062   9.224   5.663 -0.2564  0.3063 -0.1826
22872SOL    HW174452   9.995   9.290   5.678 -0.6613 -0.1544  0.0946
22872SOL    HW274453  10.014   9.146   5.635  0.0901 -0.2166  0.6027
22873SOL     OW74454   9.047   5.551  10.095  0.1089  0.8177 -0.1759
22873SOL    HW174455   8.995   5.508  10.027  3.4711 -1.0414 -1.8143
22873SOL    HW274456   9.067   5.637  10.059  0.2059  0.6103 -0.6233
22874SOL     OW74457   6.187   4.332   8.401 -0.0537 -1.1837  0.3535
22874SOL    HW174458   6.279   4.340   8.425 -0.1593 -0.0488  0.4505
22874SOL    HW274459   6.156   4.254   8.447  0.2979 -0.3080  2.1284
22875SOL     OW74460   5.571   2.513   6.511  0.9288  0.0959  0.1395
22875SOL    HW174461   5.625   2.469   6.445 -2.3715 -2.5534 -1.1107
22875SOL    HW274462   5.563   2.449   6.582 -3.0178 -1.1673 -1.1829
22876SOL     OW74463   6.903  10.695   8.465 -0.7043  0.2519 -0.2642
22876SOL    HW174464   6.962  10.766   8.489 -0.0466  0.1262 -1.4270
22876SOL    HW274465   6.958  10.634   8.415 -1.9831  0.5356 -2.0917
22877SOL     OW74466  10.565   9.784   4.416  0.2014  0.1832  0.0566
22877SOL    HW174467  10.495   9.844   4.392  0.1223 -0.3484 -1.1301
22877SOL    HW274468  10.621   9.781   4.338  1.5544  0.5949  0.9733
22878SOL     OW74469   5.095   7.066   3.319 -0.2029  0.6000 -0.2587
22878SOL    HW174470   5.044   7.067   3.400  0.5004 -1.4113  0.2810
22878SOL    HW274471   5.182   7.037   3.346  0.9619  2.8417 -1.3336
22879SOL     OW74472   1.904   7.165   0.781  0.7002  0.2069 -0.2897
22879SOL    HW174473   1.863   7.130   0.860  2.2070  0.5619  0.6819
22879SOL    HW274474   1.991   7.193   0.809  0.8118  1.5144 -1.7968
22880SOL     OW74475   7.749   3.467   4.209 -0.6197  0.6082 -0.6365
22880SOL    HW174476   7.770   3.558   4.231  0.3710  0.5213 -1.1448
22880SOL    HW274477   7.794   3.416   4.277  0.2035  0.4471 -1.2887
22881SOL     OW74478   9.078   0.410   3.583  0.2441  0.7752 -0.1588
22881SOL    HW174479   9.154   0.392   3.638 -0.8443 -2.2374  0.5622
22881SOL    HW274480   9.114   0.418   3.495  1.4657 -0.2093  0.2177
22882SOL     OW74481   9.786   5.069   1.505 -0.0126  0.0132  0.2816
22882SOL    HW174482   9.740   5.140   1.550  2.3100  3.4838 -2.3616
22882SOL    HW274483   9.768   5.083   1.412  5.7651  1.5384 -0.9875
22883SOL     OW74484   0.803   4.847   7.873 -0.4504  0.2365  0.4873
22883SOL    HW174485   0.880   4.842   7.817  1.4934 -0.5616  3.0398
22883SOL    HW274486   0.729   4.830   7.814  1.4921 -1.4958 -1.6258
22884SOL     OW74487   9.753   3.508   8.437 -0.1191  0.8798  0.5870
22884SOL    HW174488   9.677   3.547   8.480 -0.9434 -0.1180  0.0983
22884SOL    HW274489   9.732   3.513   8.343 -0.6513 -1.3784  0.5186
22885SOL     OW74490   2.760   5.060   0.249  0.5429 -0.6547  0.2669
22885SOL    HW174491   2.826   5.053   0.319  2.7085  0.4571 -1.5306
22885SOL    HW274492   2.756   4.972   0.212 -0.9683 -1.3748  1.9962
22886SOL     OW74493   9.481   9.491   5.772 -0.6607 -0.5188 -0.1468
22886SOL    HW174494   9.414   9.431   5.738  0.3835  0.3617 -4.3334
22886SOL    HW274495   9.560   9.468   5.724  1.5580  0.0334  2.9320
22887SOL     OW74496   3.325   2.205   3.540  0.4135  0.2316 -0.0650
22887SOL    HW174497   3.249   2.188   3.596  0.3004  0.6947 -0.0725
22887SOL    HW274498   3.345   2.298   3.554 -0.8037  0.8788 -2.2076
22888SOL     OW74499   8.953   8.710  10.184  0.4994 -0.0166  0.3639
22888SOL    HW174500   8.987   8.694  10.272  1.2086 -2.7957 -0.3033
22888SOL    HW274501   8.860   8.726  10.197  0.6348 -0.1400  1.6280
22889SOL     OW74502   2.921   6.455   1.329  0.0356 -0.0534  0.3137
22889SOL    HW174503   2.914   6.542   1.368  0.8460 -0.9090  2.5687
22889SOL    HW274504   2.889   6.466   1.240  2.4886  3.1256 -0.3831
22890SOL     OW74505   0.960   8.895   2.455  0.1919  0.1978 -0.0576
22890SOL    HW174506   0.907   8.844   2.517  0.1390  0.5512  0.1876
22890SOL    HW274507   0.995   8.967   2.507  1.8756 -0.6753  0.0716
22891SOL     OW74508   8.615   4.060   1.547  0.2430 -0.0793  0.4204
22891SOL    HW174509   8.543   4.116   1.520  0.6861  1.5128  2.3629
22891SOL    HW274510   8.603   4.047   1.641  1.1484 -1.8055  0.3415
22892SOL     OW74511   6.131   3.317   8.675 -0.3955  0.1916  0.1937
22892SOL    HW174512   6.050   3.279   8.708  0.1667  0.0993  1.5472
22892SOL    HW274513   6.183   3.241   8.648 -0.5633  0.2159 -0.1946
22893SOL     OW74514   9.797   8.774   8.025 -0.3695  0.3433  0.3869
22893SOL    HW174515   9.870   8.820   8.069  0.4249 -0.4672 -0.0577
22893SOL    HW274516   9.780   8.699   8.082 -0.0342 -0.1359 -0.1381
22894SOL     OW74517   2.651  10.156   9.268  0.2702 -0.2758 -0.1882
22894SOL    HW174518   2.663  10.245   9.303 -0.0784  1.0158 -3.0440
22894SOL    HW274519   2.566  10.128   9.302 -0.5176  1.3171 -0.7319
22895SOL     OW74520   0.526   4.795   5.366  0.2792  0.9985 -0.1905
22895SOL    HW174521   0.574   4.849   5.303  0.9307 -0.2266 -0.7895
22895SOL    HW274522   0.462   4.747   5.313 -0.0358  0.9063  0.2668
22896SOL     OW74523   0.499   4.444   6.530 -0.5533 -0.6373  0.1904
22896SOL    HW174524   0.584   4.420   6.566  0.5252  0.2017 -1.6613
22896SOL    HW274525   0.449   4.362   6.531 -0.3130 -0.8340  2.6791
22897SOL     OW74526   5.071   7.620   1.070 -0.1672 -0.4983  0.0437
22897SOL    HW174527   5.080   7.552   1.003  1.2391 -0.1804 -0.1278
22897SOL    HW274528   5.160   7.656   1.079 -0.2102 -0.8357  2.4033
22898SOL     OW74529   8.408   5.432   4.623 -0.4509  0.2815  0.4891
22898SOL    HW174530   8.378   5.355   4.672  0.4732 -1.0553 -0.9625
22898SOL    HW274531   8.337   5.496   4.633 -0.8318 -0.4061  2.4780
22899SOL     OW74532   0.039   9.079   4.877  0.4798 -0.1528 -0.2123
22899SOL    HW174533   0.003   9.132   4.948  1.4535  2.2490 -1.3686
22899SOL    HW274534  -0.032   9.021   4.851  0.0730 -1.0877  2.6038
22900SOL     OW74535   5.123   3.240   7.045  0.5961  0.8845 -0.1696
22900SOL    HW174536   5.044   3.291   7.029  0.7685  1.2820  0.2249
22900SOL    HW274537   5.113   3.206   7.133 -0.4145 -1.4265 -1.0960
22901SOL     OW74538   0.611   4.606   7.577  0.2854 -0.3464  0.2800
22901SOL    HW174539   0.540   4.557   7.620  1.1036 -0.5828  1.4041
22901SOL    HW274540   0.581   4.616   7.486 -2.0423  1.1829  1.1189
22902SOL     OW74541   3.696   2.965   7.044 -0.0870  0.1931 -0.1867
22902SOL    HW174542   3.766   2.993   7.102 -1.0060 -0.9660  1.5699
22902SOL    HW274543   3.741   2.935   6.964  1.0861  3.5384 -0.9291
22903SOL     OW74544   3.336   2.382   3.307 -0.3697 -0.0300 -0.1018
22903SOL    HW174545   3.297   2.429   3.233 -0.4043  0.8129  0.4420
22903SOL    HW274546   3.315   2.436   3.383  0.3246 -0.5008  0.4295
22904SOL     OW74547   9.643   2.048   7.266  0.2844  0.8391 -0.4823
22904SOL    HW174548   9.616   1.973   7.318  0.3968  0.3662 -1.0991
22904SOL    HW274549   9.562   2.100   7.255 -0.6461 -0.9406 -2.9408
22905SOL     OW74550   2.441   8.611   5.618  0.3036  0.6001  0.3721
22905SOL    HW174551   2.444   8.577   5.528  0.2547  0.1420  0.5409
22905SOL    HW274552   2.349   8.602   5.644  0.5566 -0.5175  0.9350
22906SOL     OW74553   9.844   1.294   9.272  0.0831 -0.4344  0.3157
22906SOL    HW174554   9.918   1.342   9.310 -1.2164  0.8863  1.2695
22906SOL    HW274555   9.773   1.305   9.336 -1.1889 -0.9439 -0.9701
22907SOL     OW74556  10.648   4.724   7.147 -0.5185 -0.5983 -0.1331
22907SOL    HW174557  10.742   4.708   7.145 -0.4431 -0.1384 -2.2496
22907SOL    HW274558  10.610   4.650   7.101 -1.2054 -0.7521  0.6595
22908SOL     OW74559   8.637   6.970   0.886  0.0217  0.0229  0.1950
22908SOL    HW174560   8.583   6.988   0.810 -0.7354  0.3610  0.8045
22908SOL    HW274561   8.681   7.053   0.904  0.0704 -0.0106  0.2308
22909SOL     OW74562  10.186   9.966   7.664 -0.5884 -0.4933  0.2359
22909SOL    HW174563  10.256   9.944   7.725 -0.6963  1.4874  1.1808
22909SOL    HW274564  10.226   9.959   7.578  1.3538  2.1211  0.8024
22910SOL     OW74565   9.037   7.275   4.341 -0.4604  0.5286 -0.2740
22910SOL    HW174566   9.067   7.338   4.406 -1.0232  0.5837 -0.0634
22910SOL    HW274567   8.965   7.229   4.384  0.0428 -0.3662 -0.3692
22911SOL     OW74568  10.318   9.913   7.895 -0.0963  0.4827 -0.7906
22911SOL    HW174569  10.272   9.888   7.974  0.4479  0.3891 -0.4967
22911SOL    HW274570  10.407   9.879   7.907  0.2955  1.3952 -0.9595
22912SOL     OW74571   2.669   4.213   7.541 -0.2092 -0.2577 -0.2694
22912SOL    HW174572   2.605   4.200   7.612  0.4538 -0.7679  0.2475
22912SOL    HW274573   2.616   4.217   7.462 -0.9838  0.5011  0.2730
22913SOL     OW74574   6.183   6.155   3.246  0.0682  0.6831 -0.0363
22913SOL    HW174575   6.190   6.240   3.289  0.6371  0.5536  0.1389
22913SOL    HW274576   6.214   6.092   3.311 -0.4335  0.3317 -0.1343
22914SOL     OW74577   8.035   9.408   0.628  0.2546  0.2414 -0.0147
22914SOL    HW174578   8.046   9.450   0.713 -0.1392 -0.5099  0.4129
22914SOL    HW274579   8.001   9.478   0.572 -0.3950  0.5071  0.6912
22915SOL     OW74580   7.811   6.138   9.835 -0.2110 -0.1998 -0.3423
22915SOL    HW174581   7.796   6.140   9.741 -1.4301  1.4529 -0.1655
22915SOL    HW274582   7.905   6.153   9.845 -0.2252  0.6399 -1.3000
22916SOL     OW74583   2.593   1.616   6.354  0.1974 -0.2529 -0.1186
22916SOL    HW174584   2.591   1.568   6.271 -1.1977 -1.0879  0.3693
22916SOL    HW274585   2.686   1.619   6.376  0.5413 -0.5480 -1.4026
22917SOL     OW74586   7.063   8.282   5.069 -0.2699 -0.2795  0.0849
22917SOL    HW174587   7.059   8.227   5.147  0.9798 -2.1217 -1.0951
22917SOL    HW274588   7.041   8.223   4.996  1.9552  0.5279 -1.3260
22918SOL     OW74589   9.392   5.387   9.657 -0.4437  0.0312  0.2384
22918SOL    HW174590   9.340   5.390   9.576 -1.8183 -0.1446  1.0924
22918SOL    HW274591   9.483   5.393   9.627 -0.8846 -0.7936 -1.3757
22919SOL     OW74592   1.378   1.494   3.533  0.4712 -0.1154  0.4995
22919SOL    HW174593   1.471   1.474   3.543  0.4912 -0.8299 -0.8618
22919SOL    HW274594   1.375   1.567   3.471  0.1123 -0.7614 -0.2701
22920SOL     OW74595   8.927   0.553   5.927 -0.2828 -0.0764 -0.0595
22920SOL    HW174596   9.014   0.512   5.923 -0.6105 -0.7986  0.0983
22920SOL    HW274597   8.866   0.483   5.904 -0.9103  0.1104  0.9495
22921SOL     OW74598   5.262   3.214   3.680  0.4052  0.2369  0.2376
22921SOL    HW174599   5.221   3.212   3.594  0.1885  1.5815  0.2873
22921SOL    HW274600   5.354   3.192   3.664  0.2909  0.1405 -0.2863
22922SOL     OW74601   0.683   7.384   0.849 -0.5296 -0.0474 -0.1269
22922SOL    HW174602   0.643   7.465   0.818 -1.7683 -0.7954 -0.5379
22922SOL    HW274603   0.696   7.332   0.770  0.0964 -0.3220  0.1526
22923SOL     OW74604   7.410   3.713   5.402 -0.3580  0.2939  0.0563
22923SOL    HW174605   7.389   3.715   5.309 -1.5277  1.7919  0.3116
22923SOL    HW274606   7.329   3.738   5.446  0.5304  0.9883  1.3980
22924SOL     OW74607   9.960   4.024   3.812 -0.1613  0.0555  0.9778
22924SOL    HW174608   9.919   4.046   3.729  2.4211 -3.2519 -1.4622
22924SOL    HW274609  10.028   4.091   3.823 -0.9412  0.8963  0.8350
22925SOL     OW74610   5.137   5.332   8.265 -0.0802  0.4989  0.2067
22925SOL    HW174611   5.129   5.244   8.302 -0.0304  0.3952 -0.0320
22925SOL    HW274612   5.209   5.372   8.315  0.5958  0.0490 -0.3828
22926SOL     OW74613   1.608   9.218   6.046 -0.2272 -0.6039  0.2674
22926SOL    HW174614   1.525   9.262   6.064 -1.4850 -1.9422 -1.8037
22926SOL    HW274615   1.672   9.288   6.042 -1.8812  0.9301 -1.3590
22927SOL     OW74616  10.463   6.850   4.748  0.2836 -0.6772 -0.5453
22927SOL    HW174617  10.427   6.880   4.831  0.2442  1.2203 -1.2091
22927SOL    HW274618  10.557   6.863   4.757  0.0918  3.8430 -2.2207
22928SOL     OW74619   4.665   3.586   8.330  0.2629 -0.1857  0.5801
22928SOL    HW174620   4.632   3.656   8.272  0.9443  2.8264  3.5014
22928SOL    HW274621   4.754   3.613   8.351  0.0014 -1.0155  3.1025
22929SOL     OW74622   6.776   1.112   1.551 -0.3357  0.3476 -0.1338
22929SOL    HW174623   6.745   1.039   1.498  0.4310  0.4868 -0.7931
22929SOL    HW274624   6.715   1.183   1.533  0.2468  0.5711 -1.2941
22930SOL     OW74625   7.217  10.004   0.585  0.0292 -0.4614  0.6557
22930SOL    HW174626   7.226   9.912   0.564  0.3534 -0.4869  0.8942
22930SOL    HW274627   7.145  10.008   0.647 -0.4711 -0.4649  0.0764
22931SOL     OW74628   7.326   8.465   6.861  0.3034 -1.0192 -0.4599
22931SOL    HW174629   7.351   8.377   6.890 -0.1280 -0.5584  1.4494
22931SOL    HW274630   7.247   8.485   6.912  1.3892  1.1512  0.4711
22932SOL     OW74631   7.662   1.462   9.411  0.2060  0.1980 -0.3130
22932SOL    HW174632   7.568   1.484   9.413 -0.2811 -1.6640 -0.5625
22932SOL    HW274633   7.690   1.482   9.322 -0.3447 -0.6123 -0.6819
22933SOL     OW74634   7.731   5.188   3.926 -0.3378 -0.0165  0.5104
22933SOL    HW174635   7.661   5.184   3.992 -2.2639  0.6904 -1.3758
22933SOL    HW274636   7.779   5.268   3.947 -1.1608  0.3956  0.8564
22934SOL     OW74637   8.044   1.455   3.668 -0.1256  0.3792  0.0403
22934SOL    HW174638   7.971   1.420   3.718  1.0837  0.0541  1.6640
22934SOL    HW274639   8.106   1.383   3.662  0.1458  0.6879 -1.1930
22935SOL     OW74640   0.923   3.806   7.812 -0.3608  0.3449 -0.1655
22935SOL    HW174641   0.993   3.743   7.831  1.1075  1.7402 -0.7578
22935SOL    HW274642   0.845   3.751   7.800  0.9515 -1.4327 -1.1923
22936SOL     OW74643   1.605   1.582   1.353 -0.5226 -0.4591 -0.0572
22936SOL    HW174644   1.601   1.541   1.440  1.9796  0.0020  0.3410
22936SOL    HW274645   1.530   1.641   1.352 -2.4611 -2.7192  0.5279
22937SOL     OW74646   8.464   8.054   8.556  0.2139 -0.0645 -0.3784
22937SOL    HW174647   8.415   8.136   8.558  0.1437 -0.1150  0.8577
22937SOL    HW274648   8.478   8.032   8.648  0.4403 -1.3209 -0.6903
22938SOL     OW74649   7.292   0.514   1.118  0.2895  0.4752 -0.6255
22938SOL    HW174650   7.373   0.466   1.135 -0.5008 -0.7340 -0.1239
22938SOL    HW274651   7.255   0.531   1.205  0.4934  1.9229 -0.8022
22939SOL     OW74652   8.852   7.217   3.333 -0.3866 -0.1137  0.2403
22939SOL    HW174653   8.852   7.312   3.338  0.2155 -0.0216 -1.1210
22939SOL    HW274654   8.783   7.196   3.270 -0.3580 -0.5653  0.3520
22940SOL     OW74655   7.823   4.632   0.376  0.7807 -0.7231  0.2140
22940SOL    HW174656   7.879   4.700   0.413 -0.1844  0.2177  0.0122
22940SOL    HW274657   7.775   4.677   0.306 -0.2231 -1.5007  0.3865
22941SOL     OW74658   6.783   4.698   6.167  0.6680  0.1999  0.4306
22941SOL    HW174659   6.857   4.735   6.118  1.6556 -0.0913  1.6343
22941SOL    HW274660   6.810   4.608   6.186 -0.1405 -0.0051  0.6338
22942SOL     OW74661   4.360   2.846   4.727 -0.1473 -0.0855  0.3879
22942SOL    HW174662   4.349   2.938   4.702 -0.3674 -0.0066  0.7679
22942SOL    HW274663   4.402   2.849   4.812  0.4506 -0.3523  0.1046
22943SOL     OW74664   8.578   2.183   8.040 -0.0710  0.1419  0.2186
22943SOL    HW174665   8.545   2.252   7.983  0.0466 -1.0986 -1.3925
22943SOL    HW274666   8.663   2.216   8.070  1.1275 -0.2693 -2.4874
22944SOL     OW74667   1.962   9.167   7.468 -0.4664  0.4132 -0.0993
22944SOL    HW174668   1.998   9.228   7.533  0.8572 -0.2312 -0.1740
22944SOL    HW274669   2.014   9.184   7.389 -0.5738 -0.3100 -0.3270
22945SOL     OW74670   8.881   8.057   2.655  0.3198 -0.0338 -0.1723
22945SOL    HW174671   8.944   7.992   2.624  0.3747  0.3271 -0.8390
22945SOL    HW274672   8.901   8.135   2.604  0.1071  0.4401  0.4668
22946SOL     OW74673   8.787   1.160   3.564  0.5823 -0.0070 -0.6474
22946SOL    HW174674   8.766   1.252   3.576  0.3451  0.1476 -2.0563
22946SOL    HW274675   8.746   1.115   3.638  0.8985  1.0299  0.1784
22947SOL     OW74676   3.412   3.588   8.539  0.4140 -0.1040  0.2767
22947SOL    HW174677   3.371   3.523   8.483  1.7993 -1.9247  1.2589
22947SOL    HW274678   3.387   3.672   8.501 -0.1448 -1.2133 -1.9828
22948SOL     OW74679   5.991   5.336   9.523 -0.3140  0.5788 -0.3096
22948SOL    HW174680   5.933   5.275   9.478  0.3947 -1.4945  1.4029
22948SOL    HW274681   6.045   5.280   9.580  0.9106  2.7464  0.7878
22949SOL     OW74682   6.438   7.427   4.709 -0.4332  0.0412  0.1542
22949SOL    HW174683   6.440   7.396   4.800 -0.1191  1.7189  0.7490
22949SOL    HW274684   6.504   7.374   4.665 -1.2351 -1.4504  0.6540
22950SOL     OW74685   6.277   9.462   5.863 -0.1422  0.4074 -0.6250
22950SOL    HW174686   6.265   9.530   5.930  0.1849 -0.2755  0.1484
22950SOL    HW274687   6.200   9.471   5.806  0.0073  1.5598 -0.6664
22951SOL     OW74688   6.420   5.566   8.192 -0.5423  0.0184  0.4223
22951SOL    HW174689   6.496   5.624   8.195  0.3689 -1.0895 -0.3495
22951SOL    HW274690   6.353   5.610   8.244  0.3376  1.4353  0.3831
22952SOL     OW74691   8.956   2.234   3.328  0.2957  0.5321 -0.5738
22952SOL    HW174692   8.982   2.151   3.289  1.1571  0.3253  0.4077
22952SOL    HW274693   9.001   2.237   3.413  1.0523  2.3984 -0.9712
22953SOL     OW74694   4.363   3.744   4.831 -0.6356  0.3279  0.4285
22953SOL    HW174695   4.402   3.661   4.802  0.5881  1.0805 -0.1695
22953SOL    HW274696   4.433   3.808   4.819 -1.7330  1.5484  0.3730
22954SOL     OW74697   0.213   9.674   2.309 -1.1008 -0.2793 -0.5288
22954SOL    HW174698   0.151   9.620   2.358 -0.9659  0.0897  0.0637
22954SOL    HW274699   0.294   9.668   2.360 -1.0331  0.3188 -0.5661
22955SOL     OW74700   4.902   8.831   7.677 -0.0901  0.0653 -0.2036
22955SOL    HW174701   4.878   8.742   7.654 -0.2296 -0.4474  1.7324
22955SOL    HW274702   4.951   8.864   7.602  1.1036 -2.1023 -0.4327
22956SOL     OW74703   8.055   0.302   3.211 -0.4950  0.5936  1.1960
22956SOL    HW174704   8.120   0.233   3.225 -0.6775 -0.0403 -0.8430
22956SOL    HW274705   8.027   0.292   3.120 -0.9969  2.9598  1.0130
22957SOL     OW74706   6.332   0.539   1.136  0.1389  0.1924 -0.0004
22957SOL    HW174707   6.424   0.553   1.157 -0.5031  1.7030  2.1270
22957SOL    HW274708   6.295   0.627   1.127 -1.1806 -0.3813 -0.5173
22958SOL     OW74709   8.251   0.184   2.909 -0.1213 -0.3844  0.1220
22958SOL    HW174710   8.321   0.167   2.846  0.1852 -0.3665  0.4483
22958SOL    HW274711   8.265   0.275   2.934  1.4442 -1.1088  2.2127
22959SOL     OW74712   5.717   0.403   6.361  0.7145 -0.5653  0.2929
22959SOL    HW174713   5.711   0.323   6.414 -1.9737  0.3756  1.6082
22959SOL    HW274714   5.703   0.373   6.271  0.7309 -1.6859  0.6435
22960SOL     OW74715   4.465   1.717   3.011  0.1768  0.4173 -0.1379
22960SOL    HW174716   4.510   1.748   2.932  1.3892  1.0190  0.7575
22960SOL    HW274717   4.471   1.791   3.072  1.8148 -0.9953  1.5194
22961SOL     OW74718   5.646  10.490   8.869 -0.4305  0.0967 -0.5331
22961SOL    HW174719   5.661  10.417   8.809  0.1810 -0.9551  0.8127
22961SOL    HW274720   5.679  10.567   8.823 -0.4865 -0.5722 -1.7362
22962SOL     OW74721   6.642   3.991   4.902  0.0316  0.4462  0.0587
22962SOL    HW174722   6.612   3.954   4.819  0.9801  1.6244 -0.8372
22962SOL    HW274723   6.622   4.084   4.896 -0.1225  0.5078  1.2739
22963SOL     OW74724   1.058  10.181   2.817  0.2347 -0.1536  0.0272
22963SOL    HW174725   1.077  10.272   2.838 -0.4359 -0.3856  1.8273
22963SOL    HW274726   1.114  10.161   2.742  2.3277  0.9985  1.2116
22964SOL     OW74727   7.917   4.329   1.665 -0.5904  0.0514 -0.5505
22964SOL    HW174728   7.962   4.331   1.580  0.6729 -0.2745  0.0815
22964SOL    HW274729   7.841   4.273   1.651  0.5490 -1.4456 -1.0479
22965SOL     OW74730   9.581   2.018   8.870  0.3490  0.5931  0.0800
22965SOL    HW174731   9.553   2.108   8.890  0.7075  0.8505 -0.5367
22965SOL    HW274732   9.670   2.012   8.905  0.3457  0.5000  0.0720
22966SOL     OW74733  10.640   3.506   3.127 -0.0008  0.2817  0.3292
22966SOL    HW174734  10.588   3.555   3.189 -0.4321 -1.1355  1.1359
22966SOL    HW274735  10.703   3.569   3.092 -0.6006  1.4025  1.2301
22967SOL     OW74736   0.837  10.714   1.038 -0.7636 -0.2213  0.3267
22967SOL    HW174737   0.765  10.725   1.100 -0.1523 -1.0568  1.2156
22967SOL    HW274738   0.796  10.722   0.952 -1.5512  1.4166  0.8307
22968SOL     OW74739  10.061   7.651   1.896 -0.3394 -0.4892 -0.0979
22968SOL    HW174740  10.089   7.655   1.988  0.3390  0.0629 -0.3215
22968SOL    HW274741  10.138   7.676   1.846 -0.6784 -0.8760 -0.8314
22969SOL     OW74742   5.765   5.049  10.550  0.3857  0.2946  0.1497
22969SOL    HW174743   5.832   5.085  10.492  1.5617  1.6748  2.2089
22969SOL    HW274744   5.772   4.954  10.540  1.4504  0.4701 -0.9765
22970SOL     OW74745   1.506   7.421  10.261  0.0365  0.6519 -0.1646
22970SOL    HW174746   1.520   7.380  10.347 -1.4847  0.7883  0.1766
22970SOL    HW274747   1.499   7.347  10.200 -0.3834  0.4817  0.0829
22971SOL     OW74748  10.410   4.693   1.925 -0.1823 -0.3835 -0.2134
22971SOL    HW174749  10.467   4.661   1.996  0.2009  2.0788  0.7175
22971SOL    HW274750  10.465   4.756   1.878 -1.4733  0.5054 -0.5812
22972SOL     OW74751   0.063   5.503   1.128 -0.0335 -0.5198 -0.8954
22972SOL    HW174752   0.105   5.468   1.207  1.3534  0.5696 -1.1093
22972SOL    HW274753  -0.005   5.562   1.162 -0.3460 -1.0711 -0.5365
22973SOL     OW74754  10.504   2.687   3.677 -0.0068  0.0725  0.2035
22973SOL    HW174755  10.586   2.650   3.644 -0.1671 -0.3032  0.2140
22973SOL    HW274756  10.528   2.734   3.757  0.4984  1.5504 -0.7797
22974SOL     OW74757  10.168   1.684   8.204  0.1337 -0.2625  0.2677
22974SOL    HW174758  10.091   1.673   8.149  0.8834 -1.7148 -0.5600
22974SOL    HW274759  10.139   1.657   8.291 -0.6514  0.5723  0.2792
22975SOL     OW74760   6.217   7.925   5.208  0.0420  0.2266  0.2166
22975SOL    HW174761   6.269   7.971   5.142 -0.7866  0.2778 -0.4207
22975SOL    HW274762   6.220   7.982   5.285  2.8286 -0.8535  1.0177
22976SOL     OW74763   2.159   4.641   1.538  0.0470  0.2662  0.1773
22976SOL    HW174764   2.222   4.713   1.537  0.2524  0.1126  0.8778
22976SOL    HW274765   2.074   4.684   1.546  0.2341  0.4358  1.7130
22977SOL     OW74766   1.111   8.222   5.565 -0.4490  0.3129 -0.2555
22977SOL    HW174767   1.052   8.175   5.506  0.4611 -0.4365 -0.5883
22977SOL    HW274768   1.196   8.217   5.523 -0.2830  2.1752 -0.2398
22978SOL     OW74769   6.937   1.115   7.734 -0.2944 -0.0651 -0.2973
22978SOL    HW174770   6.896   1.038   7.696 -1.3059  0.6886 -0.7899
22978SOL    HW274771   7.026   1.115   7.700  0.3533 -2.0168  1.2050
22979SOL     OW74772   9.628  10.369   2.365 -0.2929  0.8802 -0.0962
22979SOL    HW174773   9.700  10.371   2.428 -1.1261  3.4810  0.9136
22979SOL    HW274774   9.551  10.345   2.416 -0.6121  0.8862 -0.5595
22980SOL     OW74775   7.869   7.908  10.288 -0.5158  0.2754 -0.5493
22980SOL    HW174776   7.902   7.887  10.375 -1.6359  0.5974 -0.0437
22980SOL    HW274777   7.933   7.971  10.253 -0.1683  0.2969  0.1113
22981SOL     OW74778   0.008   9.215   6.396 -0.3947  0.9313 -0.0391
22981SOL    HW174779   0.088   9.237   6.445  0.8810  1.7270 -2.3548
22981SOL    HW274780   0.031   9.231   6.305 -1.9459 -2.6756 -1.2033
22982SOL     OW74781   7.247   7.930   8.366 -0.2367 -0.2364 -0.1037
22982SOL    HW174782   7.183   7.861   8.385 -0.8711 -0.1594 -1.8384
22982SOL    HW274783   7.275   7.914   8.276  2.7384 -0.6470  0.7985
22983SOL     OW74784   0.315   9.786   7.564 -0.2418  0.3316  0.0418
22983SOL    HW174785   0.288   9.833   7.643  1.2292  0.4320  0.5131
22983SOL    HW274786   0.241   9.728   7.544 -1.2482  1.3942  0.6063
22984SOL     OW74787  10.372   8.890   6.956  0.6730  0.1558  0.2799
22984SOL    HW174788  10.279   8.906   6.941  0.6724  0.2563  0.3926
22984SOL    HW274789  10.402   8.847   6.876  0.8326  1.3699 -0.3356
22985SOL     OW74790   5.150   0.923   7.984  0.4141 -0.5711 -0.5082
22985SOL    HW174791   5.219   0.870   7.943  1.0408  0.2870 -0.5837
22985SOL    HW274792   5.170   1.013   7.958  0.8456  0.0250  1.6414
22986SOL     OW74793   2.358   2.119   6.487  0.0797  0.2735  0.1745
22986SOL    HW174794   2.285   2.075   6.529 -0.4778  0.3447 -0.7103
22986SOL    HW274795   2.429   2.114   6.552  0.4748 -3.0292 -0.3426
22987SOL     OW74796   7.275   6.513   8.797  0.2807  0.0278 -0.1105
22987SOL    HW174797   7.313   6.595   8.829 -2.4678  0.3572  2.7915
22987SOL    HW274798   7.319   6.445   8.847  0.5668 -0.0316 -0.4404
22988SOL     OW74799   7.193  10.698   2.349 -0.2055  0.1862 -0.1329
22988SOL    HW174800   7.113  10.698   2.401 -0.1026 -1.6385  0.0616
22988SOL    HW274801   7.231  10.611   2.361  1.4662  0.7761 -0.7658
22989SOL     OW74802   3.464   8.702   2.175  0.1172  0.6034  0.4566
22989SOL    HW174803   3.446   8.790   2.209 -0.4296  0.8227 -0.3603
22989SOL    HW274804   3.409   8.696   2.097  0.0238 -0.5296  0.6040
22990SOL     OW74805   8.044   2.997   1.192  0.3106 -0.3777  0.3382
22990SOL    HW174806   8.111   3.024   1.254 -1.7452  0.5528  2.2809
22990SOL    HW274807   8.007   3.079   1.159  0.7893 -0.8613 -1.5351
22991SOL     OW74808   4.378  10.693   6.173 -0.7337  0.1548  0.2093
22991SOL    HW174809   4.321  10.651   6.237 -0.0448 -0.0211  0.7282
22991SOL    HW274810   4.391  10.627   6.106 -1.7439  0.4628 -0.3068
22992SOL     OW74811   3.184   0.573   5.183  0.5026 -0.2095 -0.4815
22992SOL    HW174812   3.188   0.510   5.255  3.2479 -0.0436 -0.3556
22992SOL    HW274813   3.210   0.523   5.106  0.1233  0.1976 -0.8779
22993SOL     OW74814   4.883   0.800   5.599 -0.0588  0.2953  0.1032
22993SOL    HW174815   4.790   0.802   5.622 -1.3509  1.5677 -4.3394
22993SOL    HW274816   4.903   0.890   5.571  2.1552 -0.2544 -0.3214
22994SOL     OW74817   6.290  10.426  10.062  0.6332  0.0439 -0.0093
22994SOL    HW174818   6.204  10.391  10.042  0.4868  1.1067 -1.4107
22994SOL    HW274819   6.348  10.384   9.998  0.6100  1.5327 -1.0729
22995SOL     OW74820   0.334   7.384   5.693  0.1572  0.0740  0.2940
22995SOL    HW174821   0.258   7.350   5.739 -0.7945  1.1729 -0.4123
22995SOL    HW274822   0.353   7.319   5.626 -0.7138  0.1937 -0.0802
22996SOL     OW74823   4.577   6.372   5.490  0.2413 -0.0541  0.2231
22996SOL    HW174824   4.574   6.430   5.566 -0.2022  0.9341 -0.5273
22996SOL    HW274825   4.670   6.365   5.469  0.2201  1.7283 -0.6564
22997SOL     OW74826   5.614   3.991   8.522  0.7996 -0.1821  0.7656
22997SOL    HW174827   5.535   4.040   8.500 -0.7236 -3.2094 -1.1560
22997SOL    HW274828   5.583   3.903   8.544  3.5727 -1.3384  0.5464
22998SOL     OW74829   2.218   5.106   4.292  0.0421 -0.1512  0.1707
22998SOL    HW174830   2.282   5.177   4.281  0.4417 -0.5637 -0.2027
22998SOL    HW274831   2.149   5.145   4.346  0.1034  0.6133 -0.2833
22999SOL     OW74832   5.750   3.774   5.429  0.0012  0.2242 -0.1322
22999SOL    HW174833   5.824   3.717   5.453  1.9177  1.9825 -1.5166
22999SOL    HW274834   5.713   3.733   5.351  1.5904  0.9767 -1.3305
23000SOL     OW74835   4.695   3.508  10.450 -0.0261  0.0286 -0.2807
23000SOL    HW174836   4.756   3.570  10.490 -1.4480  1.0072  0.4611
23000SOL    HW274837   4.611   3.552  10.453 -0.7405 -1.1634 -1.5620
23001SOL     OW74838   9.428   9.289   2.147  0.5036 -0.1239 -0.7720
23001SOL    HW174839   9.380   9.213   2.115 -0.5111  0.2958 -0.2782
23001SOL    HW274840   9.391   9.306   2.233  1.2454  0.4767 -0.5637
23002SOL     OW74841  10.251   7.770   3.236  0.5448 -0.1467 -0.2621
23002SOL    HW174842  10.344   7.748   3.235  0.5822 -0.1972  1.4968
23002SOL    HW274843  10.209   7.696   3.192  1.1684 -1.1951  0.8330
23003SOL     OW74844   8.636   2.082   3.417 -0.1300 -0.0470 -0.7740
23003SOL    HW174845   8.549   2.075   3.454 -0.1358  0.8983 -0.5702
23003SOL    HW274846   8.644   2.175   3.392  0.5833 -0.2495 -1.3551
23004SOL     OW74847   2.066   8.609   0.244  0.4883 -0.2928 -0.7692
23004SOL    HW174848   2.026   8.683   0.198  1.1463 -0.9474 -2.4641
23004SOL    HW274849   2.160   8.624   0.237  0.6153 -0.9322 -0.5070
23005SOL     OW74850   1.170   2.974   1.930  0.5450  0.0084 -0.1536
23005SOL    HW174851   1.189   2.999   1.840 -0.0785  0.0880 -0.2683
23005SOL    HW274852   1.135   3.053   1.970 -0.4664 -0.3903 -0.2271
23006SOL     OW74853   4.273   3.603   9.988 -0.1548  0.1230 -0.0722
23006SOL    HW174854   4.220   3.602   9.908 -1.7625 -1.6323  0.9463
23006SOL    HW274855   4.362   3.621   9.957 -1.0468  1.7356 -1.9950
23007SOL     OW74856   0.822  10.005   3.181 -0.2514 -0.0022  0.0353
23007SOL    HW174857   0.760  10.077   3.191  1.8354  2.3341 -2.3013
23007SOL    HW274858   0.775   9.939   3.131 -1.0635  1.5520 -1.3698
23008SOL     OW74859   7.585   4.521  10.143 -0.4616  0.3064 -0.1494
23008SOL    HW174860   7.562   4.429  10.153 -1.9921  0.2922 -2.7984
23008SOL    HW274861   7.507   4.568  10.170  0.5345  0.9614  1.8368
23009SOL     OW74862   0.559   3.426   3.317  0.3149  0.4711 -0.4100
23009SOL    HW174863   0.476   3.432   3.269  0.0877  0.8628  0.0227
23009SOL    HW274864   0.562   3.335   3.347  0.3073  0.3085 -0.8910
23010SOL     OW74865   0.846   1.055   4.917 -0.1413  0.4952  0.5615
23010SOL    HW174866   0.821   0.985   4.856 -0.4477  0.8065  0.3301
23010SOL    HW274867   0.915   1.016   4.971  1.3086  0.7129 -1.0473
23011SOL     OW74868   6.683   5.558   1.656 -0.0502 -0.2148 -0.1557
23011SOL    HW174869   6.647   5.472   1.639 -1.0207  0.3153 -0.8750
23011SOL    HW274870   6.748   5.544   1.726  0.6557 -1.6854 -1.0702
23012SOL     OW74871   4.367  10.304   0.408  0.7381 -0.0668  0.1082
23012SOL    HW174872   4.303  10.271   0.472  0.8284  0.5714  0.5332
23012SOL    HW274873   4.412  10.225   0.377 -0.2715 -0.5334 -0.2247
23013SOL     OW74874   8.745   3.193   9.695  0.1857  0.0414  0.8410
23013SOL    HW174875   8.688   3.270   9.697  0.5713  0.3208  1.1549
23013SOL    HW274876   8.834   3.228   9.696  0.3672 -0.3993  0.6296
23014SOL     OW74877   8.927   8.607   3.510  0.0619 -0.0703 -0.5667
23014SOL    HW174878   8.917   8.666   3.585 -1.0076  0.6861 -1.2977
23014SOL    HW274879   9.004   8.640   3.464 -0.7820  1.0523 -1.2151
23015SOL     OW74880   8.752   1.421   6.861  0.1157 -0.3330  0.3281
23015SOL    HW174881   8.679   1.385   6.812  0.2142  0.8091 -0.7161
23015SOL    HW274882   8.824   1.423   6.798  0.7692 -0.5217  1.0541
23016SOL     OW74883   5.453  10.492   7.399 -0.3174  0.0121 -0.0260
23016SOL    HW174884   5.521  10.454   7.343  0.1506  0.9719 -0.1389
23016SOL    HW274885   5.371  10.458   7.365  0.0792 -0.9083 -0.0946
23017SOL     OW74886   6.288   8.485   5.809  0.1967 -0.5390 -0.6067
23017SOL    HW174887   6.280   8.390   5.818  1.3085 -0.4530  2.0579
23017SOL    HW274888   6.248   8.520   5.889 -0.9086  1.3242 -1.8933
23018SOL     OW74889   4.249   4.182   4.689 -0.2542  0.1773 -0.2613
23018SOL    HW174890   4.263   4.100   4.642 -1.4820 -0.3040  0.1740
23018SOL    HW274891   4.309   4.244   4.647  0.4825 -0.8546 -0.7876
23019SOL     OW74892   6.968   1.750   4.560  0.2768  0.2204 -0.0620
23019SOL    HW174893   6.877   1.739   4.533 -0.0535  0.7445  0.8082
23019SOL    HW274894   6.971   1.836   4.601  1.4051  0.6763 -1.0316
23020SOL     OW74895   9.745   4.785   0.218 -0.2898 -0.2325 -0.2258
23020SOL    HW174896   9.684   4.711   0.222 -0.8721  0.2720  0.4989
23020SOL    HW274897   9.827   4.751   0.254 -1.0521 -0.0586  1.7960
23021SOL     OW74898   4.843   2.587  10.070 -0.5723 -0.5028  0.2192
23021SOL    HW174899   4.910   2.570  10.004 -0.3896 -0.5560  0.4186
23021SOL    HW274900   4.815   2.500  10.098 -1.9826 -0.5306 -1.1267
23022SOL     OW74901   4.688   2.731   5.157 -0.1938 -0.2253  0.1226
23022SOL    HW174902   4.668   2.648   5.200 -2.1729  0.7549  1.2510
23022SOL    HW274903   4.686   2.796   5.227 -0.9576  1.0836 -1.0427
23023SOL     OW74904   4.449   8.881   8.747 -0.1214 -0.0429  0.4536
23023SOL    HW174905   4.395   8.960   8.757  0.5217  0.2813  1.4772
23023SOL    HW274906   4.453   8.843   8.835  0.6844 -0.4868  0.2373
23024SOL     OW74907   9.728   1.438   0.646  0.3194 -0.0973  0.5551
23024SOL    HW174908   9.654   1.448   0.587 -0.3365  0.6041  1.4829
23024SOL    HW274909   9.690   1.408   0.729  1.2012 -0.8310  0.7177
23025SOL     OW74910  10.016   8.820   9.750  0.1834  0.5361  0.0909
23025SOL    HW174911  10.001   8.774   9.668  0.9219  0.1368  0.1717
23025SOL    HW274912  10.053   8.905   9.724 -0.2169  0.6789 -0.0139
23026SOL     OW74913   3.251   6.059   2.021 -0.5348  0.1910  0.6016
23026SOL    HW174914   3.225   5.974   2.057  1.5413 -1.3904 -1.2931
23026SOL    HW274915   3.284   6.109   2.096 -0.4846 -1.2285  1.5567
23027SOL     OW74916   1.008   5.011   8.282 -0.3718  0.6910  0.5297
23027SOL    HW174917   1.096   5.017   8.318  0.1051  0.0238 -0.4715
23027SOL    HW274918   0.958   4.963   8.349  0.5137 -0.6008  0.2937
23028SOL     OW74919   1.820   0.806  10.721 -0.4707  0.0675  0.0126
23028SOL    HW174920   1.758   0.865  10.679  0.1187  0.7268  0.0419
23028SOL    HW274921   1.771   0.766  10.793 -0.2349  2.4114  1.5934
23029SOL     OW74922   2.772   0.484   4.389  0.3410  0.9645 -0.4958
23029SOL    HW174923   2.742   0.397   4.415  2.0357  0.9450  1.6880
23029SOL    HW274924   2.698   0.542   4.406 -1.2807 -0.1315 -3.2247
23030SOL     OW74925   9.937   8.131   7.740  0.2431 -0.5003 -0.4261
23030SOL    HW174926   9.953   8.037   7.732  0.4808 -0.4362 -0.7024
23030SOL    HW274927   9.959   8.167   7.654  0.4466 -0.1456 -0.2283
23031SOL     OW74928   5.744   7.487   6.325  0.2930 -0.2015 -0.1659
23031SOL    HW174929   5.818   7.547   6.322 -0.9774  1.5008  1.0008
23031SOL    HW274930   5.734   7.458   6.234  0.9797  1.3189 -0.7624
23032SOL     OW74931   3.890   7.555   3.635  0.1355  0.0466  0.2390
23032SOL    HW174932   3.797   7.541   3.617 -0.1814  1.7531  0.3738
23032SOL    HW274933   3.923   7.599   3.557  0.0714  2.2611  1.3714
23033SOL     OW74934   7.748   2.052   6.261 -0.3251  0.3422  0.8614
23033SOL    HW174935   7.735   2.003   6.342  1.0381 -2.5852 -0.5310
23033SOL    HW274936   7.821   2.111   6.281  0.0829 -0.4322  1.7780
23034SOL     OW74937   5.223   9.549   1.937 -0.1138  0.0993  0.3646
23034SOL    HW174938   5.230   9.506   2.022  0.1702 -0.3787  0.0957
23034SOL    HW274939   5.167   9.492   1.885 -1.3270  1.0038  0.6197
23035SOL     OW74940   3.325   1.111   4.948 -0.3926 -0.1213 -0.3049
23035SOL    HW174941   3.312   1.018   4.965  0.2120 -0.3957 -1.2972
23035SOL    HW274942   3.361   1.115   4.860  0.1574  1.0154 -0.0467
23036SOL     OW74943   9.442   3.120   9.016 -0.9174  0.8551 -0.0674
23036SOL    HW174944   9.487   3.076   9.088  0.4071  1.2755 -0.6148
23036SOL    HW274945   9.511   3.142   8.953 -2.0673  0.1761 -1.6609
23037SOL     OW74946   4.387   9.785   7.282  0.0170  0.2774  0.5904
23037SOL    HW174947   4.448   9.740   7.223  1.4691  2.2311  0.5083
23037SOL    HW274948   4.425   9.771   7.370 -0.2331  0.2747  0.6982
23038SOL     OW74949   4.664   3.862   5.033  0.3748  0.2783 -1.2835
23038SOL    HW174950   4.709   3.934   5.078  0.7295  0.2727 -1.6220
23038SOL    HW274951   4.715   3.784   5.056  1.2764  0.4409 -2.6511
23039SOL     OW74952   9.616   4.162   2.628  0.1393 -0.4208  0.1467
23039SOL    HW174953   9.687   4.190   2.685  0.2970 -1.6299  0.5774
23039SOL    HW274954   9.607   4.068   2.644 -2.4096 -0.1137  1.0765
23040SOL     OW74955   3.879   6.110   4.905 -0.3623 -0.1326  0.0669
23040SOL    HW174956   3.911   6.021   4.918 -0.4986 -0.4371 -1.5089
23040SOL    HW274957   3.940   6.165   4.954 -1.1150 -1.1654  2.2986
23041SOL     OW74958   8.200   8.379   3.060 -0.4419 -0.0291  0.1590
23041SOL    HW174959   8.275   8.412   3.109  0.7715 -0.8931 -1.0152
23041SOL    HW274960   8.203   8.426   2.977  0.3948 -1.8517 -0.9243
23042SOL     OW74961   0.953   1.893   5.039 -0.2631  0.0892  0.5469
23042SOL    HW174962   0.986   1.854   5.120  1.1518 -1.2587 -0.6039
23042SOL    HW274963   0.863   1.919   5.059 -0.4404 -1.5643  2.1289
23043SOL     OW74964   8.667   2.896   6.065  0.8075 -0.3617 -0.0072
23043SOL    HW174965   8.691   2.918   5.975  1.3941  0.2649  0.2961
23043SOL    HW274966   8.699   2.970   6.117 -0.0154 -0.4612  0.6493
23044SOL     OW74967   5.394   6.511   6.950  0.3913  0.0596  0.2927
23044SOL    HW174968   5.328   6.580   6.938 -1.0405 -1.4203 -0.7444
23044SOL    HW274969   5.373   6.472   7.035 -0.0602 -0.3777 -0.0143
23045SOL     OW74970  10.425   3.524   2.611  0.2844 -0.2514 -0.2191
23045SOL    HW174971  10.409   3.562   2.697 -1.2346  0.4549 -0.7742
23045SOL    HW274972  10.496   3.460   2.625 -0.9289 -1.2359  1.8395
23046SOL     OW74973   9.521   1.307   3.815  1.0567 -0.0674  0.1967
23046SOL    HW174974   9.596   1.289   3.871  0.9907  1.1301  0.7174
23046SOL    HW274975   9.452   1.335   3.876  0.6532  0.2308 -0.3858
23047SOL     OW74976   1.731   9.858   0.378 -0.1084  1.0416 -0.2244
23047SOL    HW174977   1.701   9.949   0.388 -0.2081  0.9354  0.4731
23047SOL    HW274978   1.657   9.813   0.339  0.0155  1.3015 -0.7728
23048SOL     OW74979   5.581  10.691  10.636  0.0982  0.4373 -0.1505
23048SOL    HW174980   5.592  10.670  10.543 -0.4759  0.7498 -0.2909
23048SOL    HW274981   5.619  10.616  10.682 -1.5727 -0.7461 -0.6346
23049SOL     OW74982   4.808   3.826   3.673 -0.4423 -0.2746  0.4911
23049SOL    HW174983   4.759   3.757   3.627  0.4036 -0.6462  0.1194
23049SOL    HW274984   4.869   3.778   3.730  0.8538  0.1170 -0.5057
23050SOL     OW74985   0.466   5.200   6.696  0.0037  0.0764 -0.3117
23050SOL    HW174986   0.537   5.252   6.657 -1.2242  1.8116 -0.3775
23050SOL    HW274987   0.398   5.199   6.628 -1.0037  0.6238  0.6554
23051SOL     OW74988   5.961   7.066   2.864  0.2732 -0.3048 -0.0548
23051SOL    HW174989   6.024   7.050   2.795  0.9039 -0.8783  0.6400
23051SOL    HW274990   6.010   7.116   2.930 -0.3715  0.4052 -0.0944
23052SOL     OW74991   8.393   7.957   5.159 -0.3231 -0.4828  0.2237
23052SOL    HW174992   8.462   7.907   5.115 -0.7415 -0.3179 -0.6436
23052SOL    HW274993   8.357   8.013   5.090 -1.1320 -0.3679  0.7311
23053SOL     OW74994   4.617  10.678   0.269 -0.1577 -0.2492 -0.5009
23053SOL    HW174995   4.553  10.633   0.324  2.2729  0.9399  3.8104
23053SOL    HW274996   4.589  10.769   0.268  0.4039 -0.0671 -0.2387
23054SOL     OW74997   9.911   2.758   8.213 -0.0630 -0.2668  0.1963
23054SOL    HW174998   9.913   2.663   8.202  0.3193 -0.1188 -1.1137
23054SOL    HW274999   9.862   2.771   8.294 -1.8092 -1.4921 -0.6067
23055SOL     OW75000   8.438   5.848   2.394 -0.3678  0.0957  0.1177
23055SOL    HW175001   8.502   5.777   2.395 -0.2936  0.1597 -0.1401
23055SOL    HW275002   8.388   5.836   2.475 -0.1415 -0.0543  0.2370
23056SOL     OW75003   4.216   1.814   1.851  0.3627 -1.1061 -0.0260
23056SOL    HW175004   4.190   1.726   1.879  0.3094 -1.1294 -0.1484
23056SOL    HW275005   4.248   1.856   1.931  0.1462 -1.1498  0.0832
23057SOL     OW75006   7.116   1.600   8.653  0.1822  0.4833 -0.4977
23057SOL    HW175007   7.037   1.647   8.679  0.6837  0.6347  0.7872
23057SOL    HW275008   7.178   1.669   8.630 -0.0802  0.3622 -1.6400
23058SOL     OW75009   9.764   0.474   0.522  0.5817 -0.1411  0.5480
23058SOL    HW175010   9.855   0.503   0.526  0.5753 -0.1347  0.6494
23058SOL    HW275011   9.715   0.542   0.569  0.3677  0.4998 -0.5642
23059SOL     OW75012   9.483   6.974   2.819  0.1888 -0.0501 -0.1679
23059SOL    HW175013   9.428   6.935   2.751  1.6792 -0.1938 -1.3449
23059SOL    HW275014   9.572   6.955   2.792  0.9233  2.2274  0.4239
23060SOL     OW75015   0.853   6.295   9.873  0.1002  0.1671 -0.0590
23060SOL    HW175016   0.773   6.346   9.884  1.2304  2.4614 -1.5693
23060SOL    HW275017   0.848   6.262   9.783  2.2457  3.3191 -1.5489
23061SOL     OW75018   1.078   8.853   4.171 -0.0329  0.2457  0.3007
23061SOL    HW175019   1.167   8.888   4.176  0.1593 -0.2634  0.6160
23061SOL    HW275020   1.022   8.922   4.207 -0.0456  1.4727 -1.9250
23062SOL     OW75021   3.722   8.462   1.226 -0.3445 -0.4314  0.3019
23062SOL    HW175022   3.788   8.525   1.195 -1.3659 -0.4618 -2.0646
23062SOL    HW275023   3.773   8.396   1.273  1.1005  0.4642  0.0631
23063SOL     OW75024   6.150   6.110   8.131  0.0066 -0.3299  0.1990
23063SOL    HW175025   6.241   6.094   8.158  0.3928  0.1393 -0.7998
23063SOL    HW275026   6.141   6.064   8.048 -1.7632 -3.4542  1.9315
23064SOL     OW75027   8.235   9.810   8.035 -0.0691 -0.0520 -0.4194
23064SOL    HW175028   8.247   9.716   8.047  1.6388 -0.3290 -3.1864
23064SOL    HW275029   8.315   9.849   8.071 -0.3274  0.2441 -0.1621
23065SOL     OW75030  10.054   4.199   3.084 -0.1163  0.6691 -0.2102
23065SOL    HW175031  10.028   4.284   3.047  0.4697  0.8526 -0.2068
23065SOL    HW275032  10.002   4.135   3.034 -2.4907  1.1448  1.4912
23066SOL     OW75033   5.615   3.872   7.412  0.5980  0.1376  0.2581
23066SOL    HW175034   5.571   3.789   7.400  1.2571  0.0133 -1.6244
23066SOL    HW275035   5.695   3.850   7.461 -0.9678  0.2802  3.1189
23067SOL     OW75036   4.017   2.597   5.791 -0.2551 -0.0737 -0.4165
23067SOL    HW175037   4.009   2.686   5.826 -1.3498 -0.5053  0.5310
23067SOL    HW275038   4.017   2.608   5.696  0.0815  0.9635 -0.3136
23068SOL     OW75039   6.416   1.471   7.127  0.3403 -0.0942  0.1783
23068SOL    HW175040   6.451   1.387   7.097  0.0682 -0.1646  0.0615
23068SOL    HW275041   6.416   1.465   7.222  2.3949  0.5952  0.2769
23069SOL     OW75042   5.332   3.439   6.740  0.1791 -0.0066 -0.0745
23069SOL    HW175043   5.322   3.384   6.662  0.2471 -0.8973  0.5351
23069SOL    HW275044   5.250   3.488   6.745  1.3067  2.3901 -2.4235
23070SOL     OW75045   8.270   1.075   6.713  0.4748  0.1381 -0.4189
23070SOL    HW175046   8.247   1.167   6.696 -0.2210  0.0841  0.2025
23070SOL    HW275047   8.362   1.078   6.740  0.1509  0.7846  0.6608
23071SOL     OW75048   4.988   7.326   5.127  0.4467  0.0286 -0.4294
23071SOL    HW175049   4.999   7.308   5.220  0.7684  2.2604  0.0068
23071SOL    HW275050   5.063   7.283   5.086  1.2526  0.4791  0.5440
23072SOL     OW75051   1.190   9.075   0.388 -0.2555 -0.2264  0.5881
23072SOL    HW175052   1.235   9.101   0.307 -2.4504  0.6589 -0.4219
23072SOL    HW275053   1.211   9.145   0.450 -1.7972  1.2860 -0.4983
23073SOL     OW75054   0.997   1.017   7.588 -0.9617 -0.4760  0.5074
23073SOL    HW175055   1.020   1.053   7.502  0.8548 -1.1886  0.6391
23073SOL    HW275056   1.062   1.055   7.647 -2.4795  0.3729  1.6877
23074SOL     OW75057   0.202   2.364   2.671  0.3576 -0.2207  0.1511
23074SOL    HW175058   0.203   2.426   2.744 -0.7366  0.1793 -0.1491
23074SOL    HW275059   0.231   2.282   2.710 -0.7331 -0.1526  1.1904
23075SOL     OW75060   3.259  10.160   0.611  0.0021  0.0138  0.8924
23075SOL    HW175061   3.172  10.122   0.593 -0.0562  0.4137  0.3151
23075SOL    HW275062   3.320  10.102   0.565 -0.2373  1.7642 -1.8404
23076SOL     OW75063   1.546   2.368   6.415  0.0890 -0.4912 -0.4223
23076SOL    HW175064   1.485   2.329   6.477  0.2820  1.5841  1.1511
23076SOL    HW275065   1.492   2.389   6.339 -0.0703 -3.4432 -1.2529
23077SOL     OW75066   6.380   9.764   9.385 -0.2089 -0.0286 -0.1360
23077SOL    HW175067   6.367   9.792   9.294  0.3128  1.7971  0.3112
23077SOL    HW275068   6.474   9.747   9.392  0.0016  1.2905  0.4265
23078SOL     OW75069   1.448   4.555   3.458  0.1279 -0.5309 -0.4866
23078SOL    HW175070   1.522   4.533   3.401  1.5818  0.3655  0.9610
23078SOL    HW275071   1.482   4.543   3.546 -1.2644  0.5859  0.2299
23079SOL     OW75072  10.155   4.632   3.777  0.5547 -0.4251 -0.0357
23079SOL    HW175073  10.126   4.634   3.687  0.8736  0.3372 -0.1309
23079SOL    HW275074  10.209   4.553   3.783 -1.4736 -1.8810  0.1613
23080SOL     OW75075   0.259   2.206   4.739  0.3603 -0.5441  0.3985
23080SOL    HW175076   0.281   2.146   4.667  0.6859 -0.2440  0.2414
23080SOL    HW275077   0.188   2.163   4.786 -0.2963 -0.4484 -0.4876
23081SOL     OW75078   6.900   7.693   7.450  0.0930  0.3305  0.1400
23081SOL    HW175079   6.814   7.672   7.414  1.3194 -1.4946 -2.0391
23081SOL    HW275080   6.885   7.703   7.544 -3.1043  4.0586 -0.5024
23082SOL     OW75081   8.445   5.182   0.190  0.3004  0.1753  0.0913
23082SOL    HW175082   8.480   5.094   0.175  2.4134  0.7589  1.2490
23082SOL    HW275083   8.351   5.173   0.174  0.4153 -2.3568  0.4331
23083SOL     OW75084   1.918   5.928   9.187  0.0359  0.3311  0.7956
23083SOL    HW175085   1.976   5.853   9.178  0.0533  0.3795  0.4753
23083SOL    HW275086   1.977   6.004   9.184  0.0004  0.3636  0.9255
23084SOL     OW75087   2.175   2.825   0.505 -0.5530 -0.3607  0.4326
23084SOL    HW175088   2.141   2.863   0.586 -0.7215  1.1221 -0.2929
23084SOL    HW275089   2.108   2.845   0.440 -0.3381 -1.3805 -0.1214
23085SOL     OW75090   8.320   1.908   1.857  0.2151  0.0264  0.0701
23085SOL    HW175091   8.407   1.881   1.830  0.7466  1.6981 -0.0322
23085SOL    HW275092   8.283   1.952   1.780  0.4583  1.9034  0.9572
23086SOL     OW75093   7.042   8.741   9.601 -0.3230 -0.3091 -0.2974
23086SOL    HW175094   7.055   8.829   9.635  0.3221 -0.6061  0.2638
23086SOL    HW275095   7.079   8.743   9.512  1.6880 -0.5454  0.4728
23087SOL     OW75096   0.013   1.900   6.259  0.1295  0.2530 -0.1706
23087SOL    HW175097   0.072   1.913   6.334  1.2124  1.4899 -1.1812
23087SOL    HW275098  -0.074   1.917   6.294  0.5948  0.5922  0.8704
23088SOL     OW75099   7.460   2.948  10.077  0.3866 -0.0144 -0.3505
23088SOL    HW175100   7.442   2.856  10.098 -1.0973  0.3695  0.1434
23088SOL    HW275101   7.392   2.997  10.123  1.3684  1.3679 -0.3243
23089SOL     OW75102   3.652   1.322   3.468 -0.4188  0.1182  0.5165
23089SOL    HW175103   3.560   1.315   3.444 -0.7982 -0.3983  2.0170
23089SOL    HW275104   3.678   1.232   3.490  1.0724 -0.1356 -1.9074
23090SOL     OW75105   3.554   3.983   7.412 -0.2250 -0.2762  0.5406
23090SOL    HW175106   3.508   4.037   7.347 -1.2791  1.4566  2.5763
23090SOL    HW275107   3.617   3.933   7.361 -1.6395  0.2518 -1.9144
23091SOL     OW75108   3.289   8.416   9.692  0.4036  0.9298 -0.3832
23091SOL    HW175109   3.328   8.466   9.621 -0.8886 -0.7868 -2.4556
23091SOL    HW275110   3.226   8.476   9.732  0.1687  1.5511 -1.6229
23092SOL     OW75111   5.968   6.187   7.844  0.4633 -0.4096 -0.7500
23092SOL    HW175112   5.943   6.121   7.908 -1.0762  0.9673  0.1556
23092SOL    HW275113   6.060   6.169   7.824  0.9390 -0.9961  1.7154
23093SOL     OW75114   0.586   5.445   2.799 -0.4956  0.2168  0.1392
23093SOL    HW175115   0.528   5.443   2.875 -0.1884 -1.1783  0.3585
23093SOL    HW275116   0.604   5.538   2.785 -1.3934  0.5530  1.1290
23094SOL     OW75117   7.064  10.364   8.762  0.3870  0.2992 -0.2679
23094SOL    HW175118   6.996  10.424   8.791  1.5372  2.2841 -1.4647
23094SOL    HW275119   7.102  10.405   8.684  1.0058 -2.1773 -1.3892
23095SOL     OW75120  10.211   6.518   3.451  0.6746  0.1247  0.0838
23095SOL    HW175121  10.274   6.455   3.485  2.5439  0.7867 -1.9202
23095SOL    HW275122  10.211   6.590   3.514  3.7330  1.1435 -0.9078
23096SOL     OW75123   7.404   3.491   8.086 -0.1652  0.6849 -0.2521
23096SOL    HW175124   7.348   3.435   8.032 -1.7586  2.2114 -0.2723
23096SOL    HW275125   7.355   3.574   8.093  2.6008  2.5495 -1.2535
23097SOL     OW75126   3.136   6.733   2.415 -0.1939  0.6013 -0.1471
23097SOL    HW175127   3.087   6.775   2.486  0.8117 -1.0482  1.6073
23097SOL    HW275128   3.227   6.761   2.428  0.2495 -0.8674  0.1719
23098SOL     OW75129   4.962   9.171   2.773 -0.0767 -0.6420 -0.2210
23098SOL    HW175130   4.934   9.142   2.860 -1.1857  0.2487 -0.2632
23098SOL    HW275131   5.023   9.103   2.744 -1.2060 -1.9757  0.4133
23099SOL     OW75132   7.314   5.581   7.259 -0.1219  0.1647  0.4653
23099SOL    HW175133   7.340   5.513   7.197  2.3623  1.4305  0.0146
23099SOL    HW275134   7.275   5.650   7.205  0.2010  0.4168  0.5522
23100SOL     OW75135   0.207   7.459   1.499  0.3049 -0.2936  0.5338
23100SOL    HW175136   0.245   7.375   1.474  1.2695  0.9335 -2.5281
23100SOL    HW275137   0.140   7.476   1.433 -0.1231  1.2134  1.3087
23101SOL     OW75138   9.695   8.766   8.437  0.3326 -0.3471 -0.3364
23101SOL    HW175139   9.696   8.685   8.487 -0.4898 -0.6754 -0.8361
23101SOL    HW275140   9.626   8.754   8.372 -0.0896  0.9071 -0.1611
23102SOL     OW75141   2.959  10.194   5.110  0.0904 -0.4782  0.0773
23102SOL    HW175142   2.894  10.261   5.090  0.2578  0.3405  2.0607
23102SOL    HW275143   2.987  10.213   5.199  2.2306 -1.4981 -0.2992
23103SOL     OW75144   7.629   3.029   9.861 -0.3031 -1.1197  0.2184
23103SOL    HW175145   7.554   3.055   9.808 -1.0954 -2.2000  0.7672
23103SOL    HW275146   7.596   2.958   9.917  0.7783 -0.7380  1.4047
23104SOL     OW75147   2.854   4.388   5.003 -0.6571 -1.1468 -0.1216
23104SOL    HW175148   2.904   4.459   5.043 -2.1301 -0.6060  0.8504
23104SOL    HW275149   2.765   4.399   5.036 -1.8454 -1.1104 -3.0005
23105SOL     OW75150   9.254   6.761   9.390 -0.5623  0.4111  0.2230
23105SOL    HW175151   9.343   6.763   9.424  0.4680 -0.6419 -2.1694
23105SOL    HW275152   9.203   6.715   9.457  0.6054  1.2652  1.7481
23106SOL     OW75153   2.582   1.365   4.705 -0.0834 -0.3088  0.5632
23106SOL    HW175154   2.596   1.438   4.646 -0.6401 -2.4433 -2.4165
23106SOL    HW275155   2.665   1.316   4.704  0.4812  0.4325  2.9538
23107SOL     OW75156  10.552   1.091   6.670  0.0577  0.3999  0.2181
23107SOL    HW175157  10.605   1.016   6.696 -1.0687 -0.7523 -0.6960
23107SOL    HW275158  10.532   1.136   6.753  0.4266 -0.5272  0.8257
23108SOL     OW75159   6.266   2.396   8.013 -0.2000 -0.2238  0.4772
23108SOL    HW175160   6.248   2.305   7.989  1.1472 -0.8364  1.6532
23108SOL    HW275161   6.352   2.414   7.977  0.1412  0.1240  1.4278
23109SOL     OW75162   9.269   1.219   5.853  0.8922  0.2325  0.6918
23109SOL    HW175163   9.364   1.227   5.858  0.9484 -0.6850  1.6044
23109SOL    HW275164   9.253   1.127   5.831  0.2207  0.3017  0.8453
23110SOL     OW75165   5.867   7.133   4.876 -0.3440 -0.1913 -0.4552
23110SOL    HW175166   5.947   7.138   4.823  0.1085  1.3768  0.3243
23110SOL    HW275167   5.879   7.056   4.930  2.1709  1.6876  1.9344
23111SOL     OW75168  10.393   5.201  10.375 -0.4513 -0.2858  0.0587
23111SOL    HW175169  10.339   5.277  10.355  0.8029  0.7159  0.3563
23111SOL    HW275170  10.449   5.190  10.298  0.2051 -0.1512  0.5075
23112SOL     OW75171   4.416   8.575   6.134  0.7601 -0.6866 -0.3254
23112SOL    HW175172   4.479   8.645   6.153  0.8394 -0.8788  0.1270
23112SOL    HW275173   4.355   8.615   6.071  1.4432 -0.5677 -0.9199
23113SOL     OW75174   0.115   7.130   2.451 -0.5375  0.1981 -0.5133
23113SOL    HW175175   0.028   7.132   2.411 -0.4433 -2.1157 -0.9896
23113SOL    HW275176   0.111   7.057   2.512  0.4434  1.4270  1.1015
23114SOL     OW75177   7.017   9.284   2.985  0.5142  0.2921 -0.1906
23114SOL    HW175178   6.987   9.256   3.071  1.2790  0.3454  0.0994
23114SOL    HW275179   7.027   9.379   2.992  1.1317  0.2319 -0.1526
23115SOL     OW75180   1.345   8.257   8.831  0.2598 -0.0979 -0.4831
23115SOL    HW175181   1.356   8.343   8.790 -1.2054 -0.6507 -2.1238
23115SOL    HW275182   1.384   8.268   8.918  0.4716  2.0981 -0.7840
23116SOL     OW75183   7.875   0.342   9.590  0.5350  0.6293  0.5354
23116SOL    HW175184   7.917   0.263   9.554  0.6757  1.2865 -0.8045
23116SOL    HW275185   7.938   0.377   9.652  1.6301  1.1027 -0.7942
23117SOL     OW75186   8.552   6.150   3.782 -0.4177 -0.7887 -0.2310
23117SOL    HW175187   8.559   6.099   3.863  0.8111 -0.6122 -0.2127
23117SOL    HW275188   8.485   6.104   3.731 -1.6042 -0.5952  1.0962
23118SOL     OW75189   6.653   3.344   5.368 -0.4388  0.1520  0.5458
23118SOL    HW175190   6.612   3.333   5.282  1.8501 -0.9553 -0.4885
23118SOL    HW275191   6.607   3.418   5.407 -1.9410  0.3166 -1.3740
23119SOL     OW75192   7.240   7.495   1.739  0.2863  0.2001  0.0282
23119SOL    HW175193   7.241   7.579   1.784 -0.7255  0.5712 -0.6148
23119SOL    HW275194   7.167   7.502   1.677  0.3098 -1.0772 -0.1631
23120SOL     OW75195   0.893   0.494   5.858  0.6951 -0.4881 -0.1557
23120SOL    HW175196   0.974   0.452   5.831  0.3677 -0.4509 -1.2065
23120SOL    HW275197   0.895   0.580   5.816  0.5716 -0.0882  0.6234
23121SOL     OW75198   1.077   3.250  10.318  0.1067  0.4935  0.1292
23121SOL    HW175199   1.070   3.157  10.297  2.5247  0.1649  0.4513
23121SOL    HW275200   0.988   3.277  10.340 -0.8305 -1.4749 -1.0069
23122SOL     OW75201   1.857   5.321   7.332  0.1227  0.3041  0.6555
23122SOL    HW175202   1.834   5.242   7.282 -1.9778 -0.4369  2.6073
23122SOL    HW275203   1.951   5.332   7.318  0.1572 -1.5810 -1.0058
23123SOL     OW75204   5.553   6.274   1.246  0.1757  0.0346  0.4157
23123SOL    HW175205   5.641   6.274   1.209 -0.1485 -0.6891 -0.4018
23123SOL    HW275206   5.509   6.348   1.204  0.2684  0.1398  0.5043
23124SOL     OW75207   9.186   1.890   2.994  0.1265 -0.3647  0.1861
23124SOL    HW175208   9.258   1.951   3.011 -0.7980  1.2405 -1.2938
23124SOL    HW275209   9.173   1.895   2.899 -0.5943 -2.2087  0.1512
23125SOL     OW75210   9.789   2.706  10.702  0.0978 -0.5665  0.0101
23125SOL    HW175211   9.823   2.619  10.678 -0.4466 -0.1949 -2.3250
23125SOL    HW275212   9.860   2.766  10.681 -0.5983 -0.1699 -1.2978
23126SOL     OW75213   4.352   8.153   6.830  0.1157 -0.7855  0.2125
23126SOL    HW175214   4.334   8.191   6.916  0.0540  0.3582 -0.2932
23126SOL    HW275215   4.445   8.171   6.815  0.6310 -2.6420  0.8219
23127SOL     OW75216   2.194   1.176   6.999  0.1622 -0.0946  0.3075
23127SOL    HW175217   2.204   1.144   7.089  1.3582 -0.4328  0.0654
23127SOL    HW275218   2.107   1.216   6.998 -0.5779 -1.5956  1.1509
23128SOL     OW75219   0.703   2.979   2.452  0.0130  0.0697  0.0167
23128SOL    HW175220   0.787   3.016   2.481  0.1544 -0.3336  0.1445
23128SOL    HW275221   0.637   3.029   2.499  0.0750  1.6475 -1.4798
23129SOL     OW75222   5.361   1.162   1.026  0.1063 -0.1305 -0.1430
23129SOL    HW175223   5.275   1.176   0.987  0.7806  0.8653 -1.3789
23129SOL    HW275224   5.345   1.107   1.102 -1.6346  0.1485 -0.2691
23130SOL     OW75225   3.005   2.031   7.680 -0.3674  0.3047 -0.5658
23130SOL    HW175226   2.976   1.944   7.706  1.2432  0.3422  1.6959
23130SOL    HW275227   3.010   2.028   7.585  1.9058 -2.8874 -0.5013
23131SOL     OW75228   9.136   8.283   0.069  0.1020  0.2077  0.0832
23131SOL    HW175229   9.181   8.364   0.044 -0.1388  0.4642  0.4669
23131SOL    HW275230   9.185   8.214   0.026 -0.7860  0.6824 -1.7837
23132SOL     OW75231   9.428   5.363   0.521 -0.4999  0.2567  0.2472
23132SOL    HW175232   9.406   5.319   0.439  2.3093 -2.0870  0.5733
23132SOL    HW275233   9.509   5.411   0.502 -0.4879  0.6941  1.3366
23133SOL     OW75234   7.849   5.952   5.345  0.2877  0.1169 -0.0176
23133SOL    HW175235   7.795   5.995   5.411  0.9926 -0.9330  1.2867
23133SOL    HW275236   7.864   6.019   5.278  1.2475  1.8916  1.8757
23134SOL     OW75237   3.860  10.518   1.856  0.2274  0.1835  0.6852
23134SOL    HW175238   3.898  10.458   1.793 -1.1043  1.1050 -1.0908
23134SOL    HW275239   3.823  10.461   1.924  0.7829 -0.8920  0.1135
23135SOL     OW75240   8.282   8.019   6.196 -0.0660 -0.2245 -0.1014
23135SOL    HW175241   8.287   8.096   6.251  0.9460  0.3860 -1.0095
23135SOL    HW275242   8.216   8.040   6.131  0.4530  0.0304 -0.5556
23136SOL     OW75243   1.414   1.810   6.713  0.0727 -0.1210  0.5562
23136SOL    HW175244   1.497   1.839   6.675 -0.1907  0.7464  0.6189
23136SOL    HW275245   1.370   1.891   6.739 -0.8604 -0.5630  0.3927
23137SOL     OW75246   0.138   0.025   9.808 -0.3670 -0.5376  0.0304
23137SOL    HW175247   0.203   0.030   9.738  0.0683 -0.7377  0.4188
23137SOL    HW275248   0.189   0.011   9.888 -0.9655 -2.1644  0.1582
23138SOL     OW75249  10.067   3.509   0.445 -0.0489 -0.5181 -0.5675
23138SOL    HW175250  10.038   3.443   0.508  1.1699 -0.6525 -0.1335
23138SOL    HW275251  10.148   3.544   0.482 -1.2228  2.0655 -0.1763
23139SOL     OW75252   2.802   7.160   6.800 -0.3384  0.0868  0.1312
23139SOL    HW175253   2.756   7.242   6.783 -1.0332 -0.4286 -0.5457
23139SOL    HW275254   2.802   7.115   6.716  1.0196 -0.1323  0.2253
23140SOL     OW75255   3.154   4.012   7.776 -0.3007 -0.0362 -0.6367
23140SOL    HW175256   3.141   4.078   7.708 -0.5957 -0.0392 -0.5872
23140SOL    HW275257   3.128   3.930   7.735 -2.1598  0.1948 -0.0041
23141SOL     OW75258   7.293   5.409   6.145 -0.3280 -0.3477  0.1856
23141SOL    HW175259   7.292   5.319   6.113  0.9237 -1.1523  2.2119
23141SOL    HW275260   7.230   5.410   6.217 -0.6172  0.5129 -0.0674
23142SOL     OW75261   9.698   5.416  10.575 -0.2202  0.4122  0.4750
23142SOL    HW175262   9.703   5.376  10.488 -0.1623  1.0089  0.1983
23142SOL    HW275263   9.771   5.377  10.623  1.4392  2.0321 -0.5902
23143SOL     OW75264   6.088  10.132   1.572  0.0866 -0.0345 -0.6204
23143SOL    HW175265   6.109  10.039   1.584 -1.6101 -0.2797  0.9227
23143SOL    HW275266   6.124  10.154   1.486 -2.5375 -3.0561 -2.7244
23144SOL     OW75267   9.670   9.269  10.124  0.1357  0.0829  0.1646
23144SOL    HW175268   9.699   9.314  10.044  0.4470  1.1047  0.8324
23144SOL    HW275269   9.741   9.282  10.186 -0.2252 -0.4601  0.7051
23145SOL     OW75270   7.777   7.377   0.966 -0.1769 -0.0207 -0.3336
23145SOL    HW175271   7.722   7.404   1.040  1.4013  1.9861  0.2108
23145SOL    HW275272   7.827   7.302   1.000 -0.4293  0.0433  0.1909
23146SOL     OW75273   0.132   0.149   1.530 -0.8279  0.2800  0.3471
23146SOL    HW175274   0.142   0.236   1.491 -0.7114  0.7967  1.4988
23146SOL    HW275275   0.045   0.121   1.503 -0.0697 -0.1946 -1.8209
23147SOL     OW75276   5.629   2.980   1.464 -0.0072 -0.2614  0.0226
23147SOL    HW175277   5.538   2.955   1.477 -0.4291  2.0769  2.5099
23147SOL    HW275278   5.629   3.075   1.474  2.3061  0.1965 -2.9578
23148SOL     OW75279   0.743   5.929   0.197  0.2399  0.5392 -0.5746
23148SOL    HW175280   0.772   5.839   0.183 -1.6515 -0.0635 -0.8735
23148SOL    HW275281   0.792   5.958   0.273  0.5625 -0.9104 -0.1946
23149SOL     OW75282   4.264   3.877   9.693 -0.5171 -0.3013  0.3616
23149SOL    HW175283   4.284   3.784   9.703 -1.3018 -0.3755  1.3660
23149SOL    HW275284   4.316   3.905   9.618 -0.7556 -1.6938 -0.3455
23150SOL     OW75285   4.009   3.146   9.153 -0.2887 -0.3941  0.3579
23150SOL    HW175286   3.945   3.167   9.084  0.4887  1.5465  0.1735
23150SOL    HW275287   3.961   3.089   9.213 -1.8254  0.0632 -0.3795
23151SOL     OW75288   5.287  10.526   2.537 -0.6450 -0.5586 -0.2681
23151SOL    HW175289   5.360  10.588   2.534  0.7110 -2.0795 -1.0687
23151SOL    HW275290   5.254  10.531   2.627  0.8811 -0.2507  0.3055
23152SOL     OW75291   5.757   1.622   5.560  0.4893  0.2277 -0.0548
23152SOL    HW175292   5.675   1.657   5.595  1.2570  1.2711  0.7228
23152SOL    HW275293   5.761   1.532   5.594  0.1386  0.4900  0.7031
23153SOL     OW75294  10.614   2.257   7.618  0.4493  0.7662 -0.0768
23153SOL    HW175295  10.558   2.305   7.679  0.0265  0.1378  0.0371
23153SOL    HW275296  10.674   2.323   7.584  0.1121  1.3026  0.3495
23154SOL     OW75297   4.278   3.156   9.147  0.0030  0.6756 -0.2538
23154SOL    HW175298   4.277   3.084   9.084 -1.1040 -1.5652  2.1013
23154SOL    HW275299   4.186   3.175   9.163  0.2228  0.6579  1.1842
23155SOL     OW75300   0.587   6.233   9.304 -0.0974  0.7988 -0.0501
23155SOL    HW175301   0.610   6.312   9.255 -0.4737  0.4566 -0.8011
23155SOL    HW275302   0.651   6.168   9.275 -1.0021  0.2826 -0.9583
23156SOL     OW75303   4.983   8.131   9.856  0.3464  0.1467 -0.0403
23156SOL    HW175304   4.897   8.154   9.821  1.0634  2.1022 -0.6451
23156SOL    HW275305   5.044   8.153   9.785  1.5183  0.8750  1.1517
23157SOL     OW75306   4.873   2.840   8.677  0.0559  0.3969  0.2770
23157SOL    HW175307   4.812   2.790   8.731  0.8502 -0.1557  0.6857
23157SOL    HW275308   4.934   2.879   8.740 -0.6342  2.0297 -0.0184
23158SOL     OW75309   9.536   1.834   0.856 -0.3619  0.2831  0.0782
23158SOL    HW175310   9.626   1.864   0.866  0.2764 -0.8614 -1.7537
23158SOL    HW275311   9.485   1.914   0.841  0.6053  0.8178 -0.4552
23159SOL     OW75312   1.863   9.633   4.916 -0.0912 -0.0947 -0.2814
23159SOL    HW175313   1.814   9.566   4.963  0.9737  0.2130  1.3453
23159SOL    HW275314   1.803   9.662   4.847 -1.3353 -1.2751  0.2456
23160SOL     OW75315  10.161   8.528   8.807  0.4373  0.0936  0.0565
23160SOL    HW175316  10.218   8.601   8.782  1.3846 -0.2421  1.1432
23160SOL    HW275317  10.113   8.560   8.883  0.7839 -0.3605  0.4756
23161SOL     OW75318   5.457   0.042   1.288 -0.6370  0.2057 -0.1723
23161SOL    HW175319   5.388  -0.020   1.308 -0.3202 -0.0865  0.0188
23161SOL    HW275320   5.419   0.100   1.222 -1.5071  0.8337  0.8482
23162SOL     OW75321  10.551   4.902   6.901 -0.0363  0.7776  0.2352
23162SOL    HW175322  10.549   4.991   6.865 -0.7426  0.8315  0.3833
23162SOL    HW275323  10.615   4.906   6.972  0.4725  0.9766 -0.2294
23163SOL     OW75324   4.390   1.919   7.213 -0.4894 -0.1628  0.1584
23163SOL    HW175325   4.334   1.855   7.169 -0.7543 -0.6480  1.1852
23163SOL    HW275326   4.373   1.906   7.306 -0.1482  1.0436  0.4055
23164SOL     OW75327   7.088   1.752   5.583  0.2089  0.1562  0.2566
23164SOL    HW175328   7.015   1.778   5.527 -0.4835 -0.8001  0.6743
23164SOL    HW275329   7.138   1.690   5.531 -0.1867 -0.3938  0.5087
23165SOL     OW75330   5.300   2.924   8.182 -0.1425  0.4021 -0.0728
23165SOL    HW175331   5.232   2.981   8.148 -0.0558  0.1066 -0.7431
23165SOL    HW275332   5.253   2.850   8.221 -0.1903 -0.4105 -1.6141
23166SOL     OW75333   1.207   7.845   6.295  0.4036 -0.0295 -0.5577
23166SOL    HW175334   1.281   7.877   6.347 -2.2134  0.8861  2.9615
23166SOL    HW275335   1.165   7.924   6.262 -0.9627 -0.2500  0.5414
23167SOL     OW75336   7.356   7.223   2.326  0.0481  0.4560 -0.8417
23167SOL    HW175337   7.313   7.255   2.405  1.5068  1.4571 -0.4128
23167SOL    HW275338   7.388   7.135   2.349  0.0054  0.5320 -0.4927
23168SOL     OW75339   1.491   9.561   9.976  0.1663  0.3906  0.7293
23168SOL    HW175340   1.472   9.476  10.016  0.1072 -0.5057 -1.1324
23168SOL    HW275341   1.409   9.587   9.934  1.4238 -1.1300 -3.0706
23169SOL     OW75342   3.928   8.442   2.592 -0.1151  0.0114 -0.4873
23169SOL    HW175343   3.972   8.455   2.508 -1.0015  0.5302 -0.8811
23169SOL    HW275344   3.837   8.464   2.575 -0.3793 -0.2673  0.5196
23170SOL     OW75345   3.195   9.416   3.149 -0.3290  0.3186  0.2759
23170SOL    HW175346   3.168   9.430   3.240 -0.8321 -0.7760  0.3058
23170SOL    HW275347   3.289   9.432   3.150 -0.3932  0.6969  0.9102
23171SOL     OW75348   3.715   0.142  10.023  0.0864 -0.2372  0.6553
23171SOL    HW175349   3.762   0.224  10.039 -2.3341  1.5411 -0.7277
23171SOL    HW275350   3.772   0.092   9.965  1.3876  0.6908  1.0947
23172SOL     OW75351   4.456   5.825   5.175 -0.6613  0.2409  0.4971
23172SOL    HW175352   4.464   5.839   5.081 -0.7269  1.4243  0.6542
23172SOL    HW275353   4.387   5.759   5.184  0.9324 -1.6499 -0.3672
23173SOL     OW75354   0.558   5.345   1.836 -0.0222  0.0576  0.4284
23173SOL    HW175355   0.604   5.410   1.783 -0.1983 -0.9817 -1.0528
23173SOL    HW275356   0.484   5.392   1.873  0.0058  0.7753 -0.4075
23174SOL     OW75357   7.121   0.876   6.102  0.6817  0.4987  0.3167
23174SOL    HW175358   7.125   0.965   6.068 -2.0796  0.8757  0.6976
23174SOL    HW275359   7.105   0.887   6.196  1.2447 -0.4202  0.5340
23175SOL     OW75360   2.420   3.828   5.107  0.0761 -0.1022 -0.3354
23175SOL    HW175361   2.497   3.873   5.070  0.0454 -0.0199 -0.2992
23175SOL    HW275362   2.348   3.890   5.094  0.4461  0.8497  1.7835
23176SOL     OW75363   3.908   7.202   1.472 -0.4303  0.3688  0.4671
23176SOL    HW175364   3.915   7.297   1.462 -1.3882  0.3447 -0.7778
23176SOL    HW275365   3.972   7.180   1.540 -1.6098  2.1510  2.2976
23177SOL     OW75366   1.208   0.462   6.379  0.0000 -0.0063  0.3080
23177SOL    HW175367   1.172   0.408   6.308 -2.1353  0.5721  0.8890
23177SOL    HW275368   1.165   0.547   6.369 -0.3913  0.0780  2.2954
23178SOL     OW75369   8.045   2.945  10.583 -0.1073 -0.0322  0.1552
23178SOL    HW175370   8.056   3.031  10.623  0.4941  0.4615 -1.0131
23178SOL    HW275371   7.982   2.958  10.513 -0.9037 -0.8111  0.7061
23179SOL     OW75372   8.974   6.075   3.119 -0.3006 -0.0273 -0.4125
23179SOL    HW175373   8.881   6.069   3.098 -0.6881 -2.5373  1.5671
23179SOL    HW275374   8.996   5.991   3.159  3.2148 -0.0999 -2.1063
23180SOL     OW75375   5.845   1.368   8.890  0.5073 -0.0356 -0.1882
23180SOL    HW175376   5.892   1.450   8.908  0.8498 -0.2229 -0.2049
23180SOL    HW275377   5.817   1.376   8.799 -0.3686  0.4974  0.1146
23181SOL     OW75378   4.723   0.225   3.947  0.4258 -0.4122  0.5898
23181SOL    HW175379   4.706   0.137   3.980 -0.8585 -0.8151 -1.0556
23181SOL    HW275380   4.806   0.217   3.899 -0.2107 -0.9790 -0.4292
23182SOL     OW75381   0.598   4.390   0.321  0.4072 -0.0835  0.2862
23182SOL    HW175382   0.537   4.316   0.331  0.5190 -0.0348  1.4494
23182SOL    HW275383   0.663   4.376   0.389  0.7689  0.7752  0.1222
23183SOL     OW75384   6.038   0.639   5.520 -0.2998 -0.2445  0.4066
23183SOL    HW175385   5.991   0.616   5.440 -0.2528 -0.7506  0.5165
23183SOL    HW275386   5.972   0.676   5.578 -0.5052 -0.6673  0.4451
23184SOL     OW75387   6.264   2.802   5.420 -0.0272 -0.8096  0.9165
23184SOL    HW175388   6.360   2.796   5.424 -0.0852 -1.9549  0.9325
23184SOL    HW275389   6.244   2.892   5.448  1.0104 -0.7274  1.4407
23185SOL     OW75390   7.093   8.174   8.301 -0.1440  0.1028 -0.2598
23185SOL    HW175391   7.090   8.230   8.378 -1.0852  0.3122 -0.4355
23185SOL    HW275392   7.179   8.132   8.305 -0.5740 -0.7159  1.4866
23186SOL     OW75393   1.929   2.143   9.500  0.0804  0.7481  0.3682
23186SOL    HW175394   1.874   2.081   9.547  0.3522  1.8834  2.3163
23186SOL    HW275395   2.000   2.090   9.464  1.5453  0.0700  3.8587
23187SOL     OW75396   6.434   8.462   9.097  0.1463  0.4041  0.3141
23187SOL    HW175397   6.434   8.475   9.192  0.1361  1.2078  0.2102
23187SOL    HW275398   6.519   8.497   9.068 -0.2594  1.0615 -0.0905
23188SOL     OW75399   7.599   7.463   4.127  0.0126  0.3635 -0.3966
23188SOL    HW175400   7.669   7.408   4.163 -0.4631 -1.7046 -2.3707
23188SOL    HW275401   7.519   7.424   4.161 -0.2895  1.0057 -0.3606
23189SOL     OW75402   4.389   5.075   3.685 -0.1391  0.4022 -0.0412
23189SOL    HW175403   4.413   5.148   3.743  1.0175  0.0298 -0.0384
23189SOL    HW275404   4.333   5.116   3.618  0.7562  1.3660 -0.2282
23190SOL     OW75405   8.861   2.945   0.883 -0.2325 -0.7474 -0.2494
23190SOL    HW175406   8.946   2.915   0.851  0.1358 -0.6679  0.6211
23190SOL    HW275407   8.879   2.979   0.971 -1.1309 -0.5432 -0.1318
23191SOL     OW75408   1.158   5.842   8.720  0.1320 -0.3842  0.0840
23191SOL    HW175409   1.173   5.761   8.770 -0.5120 -0.4383  0.1987
23191SOL    HW275410   1.230   5.900   8.747  1.3944 -1.3714 -1.0023
23192SOL     OW75411   6.830   9.470   9.834 -0.0962 -0.2257 -0.3312
23192SOL    HW175412   6.874   9.544   9.875 -0.5811  0.6987 -1.4067
23192SOL    HW275413   6.746   9.464   9.879  0.2827 -0.6865  0.3346
23193SOL     OW75414   6.816   3.917   9.877 -0.3992 -0.0914 -0.2224
23193SOL    HW175415   6.830   3.938   9.970  0.9658 -0.8710 -0.2315
23193SOL    HW275416   6.795   3.824   9.877  0.0591 -0.1942 -0.7433
23194SOL     OW75417   9.411   7.462   4.319  0.2830 -0.3941  0.0599
23194SOL    HW175418   9.499   7.497   4.332 -0.4654  1.0550  1.4646
23194SOL    HW275419   9.407   7.385   4.376 -0.1110  0.9267  1.8874
23195SOL     OW75420  10.698   9.448   4.480  0.6869  0.2731 -0.3076
23195SOL    HW175421  10.661   9.441   4.569  2.6918  1.6510  0.6941
23195SOL    HW275422  10.762   9.518   4.486  0.5186  0.7501 -3.0244
23196SOL     OW75423   9.012   0.619   4.333  0.8082  0.1759 -0.1110
23196SOL    HW175424   9.054   0.606   4.418 -0.5534 -0.9882  0.4178
23196SOL    HW275425   8.938   0.677   4.351  1.1673  0.8577 -0.7346
23197SOL     OW75426   0.072   8.467   7.290  0.1127  0.3642 -0.7387
23197SOL    HW175427   0.104   8.409   7.360 -2.3552 -2.2477 -1.5460
23197SOL    HW275428   0.028   8.538   7.336  0.3315 -0.1918  0.3695
23198SOL     OW75429   7.598   6.777   1.737 -0.2570  0.2346 -0.6002
23198SOL    HW175430   7.603   6.682   1.749  0.2886  0.4861  1.5522
23198SOL    HW275431   7.688   6.804   1.720 -0.1991  0.5126  0.1318
23199SOL     OW75432   3.638   3.042   5.505 -0.4115  0.2741 -0.0309
23199SOL    HW175433   3.673   3.077   5.424  0.8169  0.6843  0.6538
23199SOL    HW275434   3.552   3.083   5.514  0.0161  1.2954 -0.4315
23200SOL     OW75435   6.050  10.547   9.542  0.0358 -0.0087  0.4045
23200SOL    HW175436   6.127  10.597   9.515 -0.9665  1.3175 -0.0814
23200SOL    HW275437   6.071  10.517   9.631  0.4404  1.8009  0.9544
23201SOL     OW75438   9.849  10.316  10.020  0.1295 -0.0915 -0.5830
23201SOL    HW175439   9.857  10.248  10.086  0.4909 -0.0801 -0.6138
23201SOL    HW275440   9.891  10.279   9.942  2.1131  0.8808 -0.0575
23202SOL     OW75441   1.426   2.589   4.832  0.3252 -0.8880  0.4193
23202SOL    HW175442   1.487   2.554   4.897  1.1388  0.2198  0.2710
23202SOL    HW275443   1.348   2.533   4.840  0.6973 -1.2460  1.8089
23203SOL     OW75444   6.086   7.932   0.250  0.4364 -0.0027  0.3193
23203SOL    HW175445   6.087   8.023   0.218 -0.1390 -0.1645 -0.1787
23203SOL    HW275446   6.089   7.940   0.345 -0.1408  0.5600  0.2971
23204SOL     OW75447   9.032   8.189   0.994  0.6063 -0.3305 -0.4099
23204SOL    HW175448   9.114   8.213   0.950  0.2088 -0.9965 -1.5521
23204SOL    HW275449   9.023   8.095   0.978 -0.8962 -0.0890 -1.2200
23205SOL     OW75450   5.588   5.311   8.730 -0.7193  0.2638 -0.4598
23205SOL    HW175451   5.674   5.281   8.701 -0.1456  0.8882  0.5364
23205SOL    HW275452   5.551   5.235   8.775 -0.1265  0.3903  0.2686
23206SOL     OW75453   7.740   2.666   7.169 -0.5726  0.5033 -0.4934
23206SOL    HW175454   7.671   2.701   7.112 -0.4792 -0.5996 -1.3195
23206SOL    HW275455   7.697   2.651   7.253 -0.4665  3.1581  0.1390
23207SOL     OW75456   0.356   5.713   1.719 -0.1402 -0.1706  0.1421
23207SOL    HW175457   0.383   5.783   1.659  1.4619 -1.1324 -0.3213
23207SOL    HW275458   0.265   5.695   1.695 -0.3189  1.1456 -0.3038
23208SOL     OW75459  10.572   3.295   9.585 -0.2205  0.1090  0.3439
23208SOL    HW175460  10.646   3.349   9.557  0.7167 -1.6142 -0.6976
23208SOL    HW275461  10.563   3.312   9.678  4.6186 -3.0345  1.7384
23209SOL     OW75462   6.916   0.533   6.662  0.2444 -0.5304  0.0209
23209SOL    HW175463   6.958   0.507   6.743  1.5815 -1.5605 -0.9675
23209SOL    HW275464   6.876   0.453   6.628 -2.8077  0.4219  1.0084
23210SOL     OW75465   1.382   4.498   6.604 -0.5330 -0.6361 -0.0711
23210SOL    HW175466   1.421   4.447   6.533  1.1158 -0.4563  0.6614
23210SOL    HW275467   1.399   4.447   6.683  1.4959  1.1214  0.7287
23211SOL     OW75468   9.878  10.161   2.054  0.4316  0.8108 -0.2068
23211SOL    HW175469   9.972  10.179   2.066 -0.1609  4.4107  0.1335
23211SOL    HW275470   9.855  10.106   2.129  2.0280  0.8587  0.3686
23212SOL     OW75471   6.043   2.135   7.563 -0.1663 -0.1399 -0.7546
23212SOL    HW175472   5.955   2.146   7.527 -0.7181 -0.4332  0.4623
23212SOL    HW275473   6.096   2.201   7.518 -0.2948 -1.8856 -3.7005
23213SOL     OW75474   6.507   3.159   9.574 -0.0237  0.4063  0.7220
23213SOL    HW175475   6.492   3.252   9.588  0.5354  0.7130 -0.6377
23213SOL    HW275476   6.600   3.146   9.593 -0.2081  0.0068  1.4169
23214SOL     OW75477   3.234   4.568   8.632  0.0033  0.1605 -0.1055
23214SOL    HW175478   3.284   4.649   8.622 -0.0545  0.0108 -2.1963
23214SOL    HW275479   3.194   4.574   8.718  0.6424  1.9846  0.1060
23215SOL     OW75480   4.771  10.326   1.098 -0.6700 -0.6247 -0.4859
23215SOL    HW175481   4.751  10.345   1.006 -1.0853  0.3924 -0.2004
23215SOL    HW275482   4.840  10.388   1.121 -1.7417  0.3188  0.3391
23216SOL     OW75483   5.149   3.589   4.725 -0.3432  0.2390  0.5537
23216SOL    HW175484   5.152   3.593   4.821 -0.7130  0.1146  0.5699
23216SOL    HW275485   5.241   3.588   4.699 -0.2161  2.1342  0.8152
23217SOL     OW75486   9.748   6.825   6.005 -0.1733 -0.1143  0.0656
23217SOL    HW175487   9.816   6.856   5.946  1.1050  0.4479  1.7511
23217SOL    HW275488   9.774   6.858   6.091 -2.8540  0.5805  0.7101
23218SOL     OW75489   4.472   1.542   4.267 -0.3971 -0.0469  0.3978
23218SOL    HW175490   4.382   1.514   4.281 -0.2487 -0.8680 -0.2124
23218SOL    HW275491   4.522   1.499   4.336 -0.3059 -0.5524  0.0219
23219SOL     OW75492   7.509   1.071   5.439  0.1033  0.0925  0.3175
23219SOL    HW175493   7.462   1.089   5.520  0.1819 -0.4673  0.4963
23219SOL    HW275494   7.441   1.057   5.373  0.0370  0.2749  0.3464
23220SOL     OW75495   7.941   7.295   3.256  0.1169 -0.1197  0.1880
23220SOL    HW175496   7.852   7.265   3.237 -0.6135  1.6986  0.5387
23220SOL    HW275497   7.984   7.219   3.294 -0.8125 -1.4978 -1.3595
23221SOL     OW75498   2.131  10.530   5.944  0.3294 -0.3159 -0.6279
23221SOL    HW175499   2.174  10.582   6.012  1.9266 -0.9543 -1.0870
23221SOL    HW275500   2.202  10.506   5.884 -1.1249  0.9181 -3.0207
23222SOL     OW75501   9.244   9.703  10.359 -0.5168 -0.4339 -0.3895
23222SOL    HW175502   9.166   9.684  10.412  0.1391  0.0473  0.8012
23222SOL    HW275503   9.315   9.709  10.423  0.2325  0.6413 -1.2806
23223SOL     OW75504   8.340   6.756   2.414 -0.1254  0.0954  0.4315
23223SOL    HW175505   8.280   6.726   2.482  1.6735 -1.1137  1.5719
23223SOL    HW275506   8.292   6.826   2.369 -2.3464 -0.7956  1.2691
23224SOL     OW75507   0.880   3.027   6.378  0.1510 -0.0765  0.0561
23224SOL    HW175508   0.855   3.084   6.305 -0.4190  0.7003  0.8410
23224SOL    HW275509   0.821   3.052   6.449  0.8348 -0.6819  0.8521
23225SOL     OW75510   2.231   7.591   0.489 -0.7553  0.3554 -0.1810
23225SOL    HW175511   2.154   7.535   0.494  0.1536 -0.8762  0.5178
23225SOL    HW275512   2.286   7.550   0.423 -0.3194  0.7306 -0.0573
23226SOL     OW75513   2.731   6.155  10.040 -0.7360  0.5215 -0.3855
23226SOL    HW175514   2.826   6.156  10.032 -0.5594  1.5153  1.2287
23226SOL    HW275515   2.707   6.062  10.041  0.3908  0.2167  0.5737
23227SOL     OW75516   8.072   1.747  10.203 -0.5203  0.1831 -0.2932
23227SOL    HW175517   8.037   1.690  10.134 -2.2999 -1.2462  1.6559
23227SOL    HW275518   8.000   1.806  10.224  0.3761  1.3259 -0.3685
23228SOL     OW75519   5.382   6.906   1.259  0.7256  0.8885  0.7603
23228SOL    HW175520   5.407   6.998   1.265 -0.2290  1.2242 -0.1534
23228SOL    HW275521   5.288   6.907   1.247  0.8374 -0.1718 -0.3765
23229SOL     OW75522   4.213   6.279   5.390  0.3193  0.5163 -0.5349
23229SOL    HW175523   4.253   6.197   5.360  0.4550  0.3369  0.1185
23229SOL    HW275524   4.161   6.254   5.466  0.3789  1.0484 -0.3170
23230SOL     OW75525   5.506   1.100   8.161  0.3910  0.5919  0.3107
23230SOL    HW175526   5.484   1.021   8.211 -2.7435  1.0311 -0.2080
23230SOL    HW275527   5.602   1.100   8.159  0.5441 -2.2498  1.7910
23231SOL     OW75528   3.341   2.852   6.283  0.4028 -0.3793  0.2885
23231SOL    HW175529   3.290   2.930   6.304  0.4888 -0.1330 -0.4030
23231SOL    HW275530   3.277   2.780   6.288 -0.0464 -0.0540 -0.6880
23232SOL     OW75531   9.076   2.566   0.683 -0.2725  0.3465 -0.1778
23232SOL    HW175532   9.139   2.588   0.751 -0.5338  0.4907  0.0178
23232SOL    HW275533   9.129   2.558   0.603 -0.1178  1.2826 -0.1761
23233SOL     OW75534   4.586   7.225   1.291 -0.0107 -0.3910  0.2775
23233SOL    HW175535   4.610   7.158   1.355  0.9754 -0.0751  0.2451
23233SOL    HW275536   4.497   7.201   1.264 -0.5163 -0.4173  1.8889
23234SOL     OW75537   5.038   3.814  10.298 -0.1599 -0.1395  0.2973
23234SOL    HW175538   5.073   3.800  10.210 -0.2440 -0.9622  0.3834
23234SOL    HW275539   4.987   3.894  10.292  0.6421  0.3487 -0.1571
23235SOL     OW75540   7.009   0.232   8.477 -0.1870 -0.0885  0.0282
23235SOL    HW175541   6.963   0.288   8.414 -0.1776 -1.9701 -1.7656
23235SOL    HW275542   6.945   0.219   8.548 -0.6570  1.1038 -0.1539
23236SOL     OW75543   6.057   2.332   9.925 -0.0062 -0.2349 -0.2679
23236SOL    HW175544   6.030   2.418   9.957 -0.8730 -0.9176  0.8910
23236SOL    HW275545   6.025   2.329   9.834 -1.4709  0.0360  0.2122
23237SOL     OW75546   4.940   4.103   2.841  0.1695  0.0736 -0.3809
23237SOL    HW175547   4.935   4.025   2.896 -0.4600  0.3175 -0.0856
23237SOL    HW275548   4.852   4.114   2.806  0.1213  0.9398 -0.0168
23238SOL     OW75549   0.847   6.578   8.232  0.2593 -0.2361 -0.5014
23238SOL    HW175550   0.795   6.643   8.185  0.0343  1.2991  1.7279
23238SOL    HW275551   0.926   6.625   8.259  0.0664 -0.8315  1.2066
23239SOL     OW75552   5.944   0.217   2.680 -0.5344 -0.2909 -0.1184
23239SOL    HW175553   5.985   0.303   2.676 -0.9611 -0.1211 -1.3916
23239SOL    HW275554   6.005   0.159   2.635 -0.4753 -0.5552  0.3016
23240SOL     OW75555   4.789   8.558   2.364 -0.3195  0.9951  0.1520
23240SOL    HW175556   4.758   8.514   2.443  0.1528  0.0550 -0.1695
23240SOL    HW275557   4.728   8.530   2.295  0.8741 -0.4520 -0.3753
23241SOL     OW75558   0.330   7.460   2.417 -0.0417 -0.4932  1.0108
23241SOL    HW175559   0.324   7.395   2.487  0.2030 -1.6172  0.0230
23241SOL    HW275560   0.359   7.410   2.341  0.0116  0.7612  0.1837
23242SOL     OW75561   3.863   2.307   1.928  0.6361 -0.0738 -0.1225
23242SOL    HW175562   3.812   2.273   2.001  0.7329 -0.4826 -0.2421
23242SOL    HW275563   3.818   2.276   1.850 -0.4299  1.7651 -0.2874
23243SOL     OW75564   1.634   2.511   3.018 -0.2950 -0.0826  0.1722
23243SOL    HW175565   1.624   2.589   2.963  0.9499 -1.3177 -1.9556
23243SOL    HW275566   1.553   2.461   3.003 -0.0314 -0.3366 -0.4180
23244SOL     OW75567   2.523   2.559   2.948 -0.1895  0.1971  1.1228
23244SOL    HW175568   2.429   2.576   2.948 -0.2628  0.0246 -0.9555
23244SOL    HW275569   2.553   2.588   2.862  1.4694 -0.7193  1.3497
23245SOL     OW75570   4.670   5.513   9.307  0.3128 -0.1438 -0.2886
23245SOL    HW175571   4.595   5.454   9.308  0.1905  0.0107 -0.2344
23245SOL    HW275572   4.744   5.458   9.282  0.0824 -0.1856 -0.8983
23246SOL     OW75573   2.958   5.066   0.842  0.1656 -0.0421  0.5932
23246SOL    HW175574   3.029   5.034   0.786  0.6288  3.9659 -1.5552
23246SOL    HW275575   2.889   5.093   0.780 -0.6876  1.5832  2.1494
23247SOL     OW75576   3.081   7.974   2.233 -0.5344  0.6863 -0.4257
23247SOL    HW175577   3.029   8.050   2.260  0.4004  0.5026  2.1990
23247SOL    HW275578   3.155   7.973   2.293 -0.2135 -2.0069 -0.7292
23248SOL     OW75579   9.695   2.501  10.086 -0.1580  0.3507 -0.7352
23248SOL    HW175580   9.731   2.531  10.170 -1.4475 -0.3015  0.0734
23248SOL    HW275581   9.770   2.504  10.026  0.9903  0.0608  0.6235
23249SOL     OW75582   2.249   7.429   1.865 -0.0003  0.4436 -0.2362
23249SOL    HW175583   2.279   7.472   1.785 -0.2933 -0.3238 -0.7784
23249SOL    HW275584   2.259   7.495   1.934 -0.4392  1.3683 -1.0319
23250SOL     OW75585   8.747   3.728   5.976  0.5945 -0.6305 -0.3567
23250SOL    HW175586   8.788   3.769   5.899  0.0949 -1.0498 -0.8510
23250SOL    HW275587   8.749   3.634   5.957  2.0582 -0.8981  0.9264
23251SOL     OW75588   6.451   5.463   4.589 -0.0576 -0.0837  0.4344
23251SOL    HW175589   6.467   5.428   4.502 -0.1217 -1.4107  0.9337
23251SOL    HW275590   6.380   5.526   4.578 -0.4567 -0.6660 -0.3727
23252SOL     OW75591   5.273   1.037   8.696  0.1391  0.2035 -0.4536
23252SOL    HW175592   5.360   1.000   8.714  0.2642  0.1551 -1.1308
23252SOL    HW275593   5.255   1.093   8.771  1.2787  1.1468 -0.8510
23253SOL     OW75594   7.361   4.906   1.001  0.1605 -0.1904 -0.1989
23253SOL    HW175595   7.292   4.843   1.021  0.6303 -0.2042  1.4797
23253SOL    HW275596   7.425   4.855   0.950 -0.2370 -0.6280 -0.2664
23254SOL     OW75597   6.437   8.488   0.154 -0.1828 -0.1148 -0.3336
23254SOL    HW175598   6.489   8.568   0.166  1.2293 -0.8992 -0.9387
23254SOL    HW275599   6.451   8.465   0.062 -0.5618 -1.0682 -0.1550
23255SOL     OW75600   3.552   7.195   9.293 -0.0103  0.0515 -0.4639
23255SOL    HW175601   3.621   7.137   9.261 -0.9861 -0.8547 -1.0293
23255SOL    HW275602   3.587   7.283   9.281  0.5706 -0.3414 -1.9220
23256SOL     OW75603   4.453  10.416   3.039 -0.3449 -0.0595  0.4160
23256SOL    HW175604   4.548  10.405   3.040 -0.1136  1.6989  1.7824
23256SOL    HW275605   4.424  10.378   3.122 -0.7517  0.0635  0.3310
23257SOL     OW75606   6.848   5.322   3.864  0.5821 -0.4145 -0.4168
23257SOL    HW175607   6.926   5.293   3.816 -0.3109 -1.4764 -1.2424
23257SOL    HW275608   6.777   5.270   3.830 -1.1357  2.6266 -1.9197
23258SOL     OW75609   4.339   8.017   9.599  0.2859 -0.1893  0.5847
23258SOL    HW175610   4.392   8.052   9.527  0.0129  0.7420  0.8188
23258SOL    HW275611   4.280   7.955   9.558 -1.0822  1.6114 -0.3092
23259SOL     OW75612  10.653   1.050   1.383 -0.2940  0.5118  0.1842
23259SOL    HW175613  10.703   0.977   1.419  0.4017  1.3257  0.9030
23259SOL    HW275614  10.562   1.019   1.384  0.0834 -0.7184 -0.4856
23260SOL     OW75615   2.897  10.168   3.153  0.3205  0.0510 -0.2621
23260SOL    HW175616   2.951  10.206   3.084  0.7790 -1.6789 -0.9202
23260SOL    HW275617   2.837  10.238   3.179  0.4665  0.8951 -2.0873
23261SOL     OW75618   7.174   7.224  10.627 -0.0579  0.7800  0.3843
23261SOL    HW175619   7.148   7.187  10.712  0.3153  0.1385  0.2212
23261SOL    HW275620   7.117   7.301  10.616  0.3832  1.3046  1.5529
23262SOL     OW75621   2.257   7.212   0.534 -0.0116  0.2167  0.0546
23262SOL    HW175622   2.210   7.145   0.583 -0.4631 -0.1362 -0.8323
23262SOL    HW275623   2.349   7.183   0.535 -0.3702 -1.1604 -1.4220
23263SOL     OW75624   7.707   7.140   3.508 -0.2505 -0.3170  0.4724
23263SOL    HW175625   7.707   7.184   3.593 -1.6304 -0.4492  0.5725
23263SOL    HW275626   7.724   7.048   3.529 -1.1331 -0.4416  0.6770
23264SOL     OW75627   2.252   4.740   6.358  0.2123 -0.2907  0.2922
23264SOL    HW175628   2.252   4.674   6.427  0.6368  0.6331  1.2112
23264SOL    HW275629   2.159   4.755   6.339  0.1161 -1.7359 -0.5470
23265SOL     OW75630   5.630   1.700   6.429 -0.0735  0.0395  0.4833
23265SOL    HW175631   5.545   1.680   6.470 -0.4620  0.2366 -0.2266
23265SOL    HW275632   5.674   1.615   6.424 -1.0502 -0.4101 -0.9835
23266SOL     OW75633   1.730   9.488   9.859 -0.3042  0.2969  0.4067
23266SOL    HW175634   1.719   9.509   9.766 -0.6604 -1.0968  0.1046
23266SOL    HW275635   1.650   9.520   9.901 -0.6183 -0.0152  0.0510
23267SOL     OW75636   1.139   5.066   2.144 -0.0784 -0.3865 -0.7482
23267SOL    HW175637   1.083   5.068   2.221 -0.0095 -1.4065 -0.6557
23267SOL    HW275638   1.199   5.139   2.156 -0.3763 -0.2475 -0.0717
23268SOL     OW75639   0.567   2.730   7.525 -0.1044  0.3238 -0.7390
23268SOL    HW175640   0.575   2.821   7.556  0.2389  0.3156 -0.8013
23268SOL    HW275641   0.655   2.707   7.495 -0.3233  0.1704 -1.2771
23269SOL     OW75642   0.321   0.820   4.567 -0.3332  0.5735  0.2627
23269SOL    HW175643   0.348   0.742   4.519 -1.7592  0.1448  0.1143
23269SOL    HW275644   0.394   0.837   4.628  0.5182 -0.1550 -0.5247
23270SOL     OW75645   3.517   5.464   9.751  0.2844  0.2043  0.3532
23270SOL    HW175646   3.553   5.514   9.678  2.1718  0.0128  1.1027
23270SOL    HW275647   3.484   5.531   9.812 -1.2103  0.3655 -0.5716
23271SOL     OW75648   7.408   7.339   7.713 -0.6872  0.0154 -0.0680
23271SOL    HW175649   7.388   7.373   7.625 -0.4451  1.2346  0.3257
23271SOL    HW275650   7.326   7.351   7.762 -0.7614 -0.4746 -0.0699
23272SOL     OW75651   1.536   2.386   0.037 -0.7101 -0.6394 -0.2061
23272SOL    HW175652   1.469   2.390   0.105  0.1755  0.1123  0.6399
23272SOL    HW275653   1.498   2.329  -0.030 -2.1461 -0.3197  0.2965
23273SOL     OW75654   2.232   7.627   8.810 -0.5829 -0.4564  0.4897
23273SOL    HW175655   2.313   7.673   8.786 -1.7816  1.1963 -0.5160
23273SOL    HW275656   2.240   7.542   8.767 -0.5589  0.6947 -1.9718
23274SOL     OW75657   0.686   7.408  10.152 -0.4039  0.1411 -0.1029
23274SOL    HW175658   0.616   7.356  10.191  0.7810  0.3030  2.4728
23274SOL    HW275659   0.754   7.410  10.220 -0.1152  4.5217 -0.2371
23275SOL     OW75660   2.899   1.389   6.865 -0.0649 -0.6179  0.5068
23275SOL    HW175661   2.929   1.455   6.927 -1.7986 -0.0959  0.8367
23275SOL    HW275662   2.817   1.356   6.902  0.6477 -2.8563  0.2711
23276SOL     OW75663   7.197   6.207   0.702 -0.2188 -0.6318 -0.0935
23276SOL    HW175664   7.155   6.155   0.633 -1.5129 -0.4706  0.5410
23276SOL    HW275665   7.287   6.176   0.703 -0.4818 -1.4971 -1.0424
23277SOL     OW75666   9.860   1.278   3.719  0.5911 -0.2059 -0.1429
23277SOL    HW175667   9.803   1.255   3.792  0.9743  0.8237  0.4998
23277SOL    HW275668   9.800   1.310   3.651  0.3223 -0.0735  0.1539
23278SOL     OW75669   0.235   0.320   2.970  0.5686  0.3550  0.2560
23278SOL    HW175670   0.329   0.303   2.970  0.6309  0.6415 -0.8420
23278SOL    HW275671   0.198   0.248   3.021  1.2958 -0.2587 -0.0620
23279SOL     OW75672  10.343   1.276   5.331  0.2086 -0.3272 -0.9016
23279SOL    HW175673  10.397   1.304   5.257  0.4562  1.7014 -0.0253
23279SOL    HW275674  10.277   1.219   5.293  0.2785  0.7340 -2.7041
23280SOL     OW75675   6.793   3.550   2.584  0.6543 -0.1026 -0.1247
23280SOL    HW175676   6.796   3.612   2.511  1.1920  0.3627  0.2786
23280SOL    HW275677   6.775   3.604   2.661 -1.0710 -0.7356 -0.0541
23281SOL     OW75678  10.195  10.570   7.325 -0.0900 -0.5021 -0.2061
23281SOL    HW175679  10.105  10.563   7.293 -1.1773  0.4384  2.4178
23281SOL    HW275680  10.216  10.663   7.320  1.0420 -0.7836 -1.4073
23282SOL     OW75681   2.001  10.364   8.767 -0.4551 -0.6649  0.0817
23282SOL    HW175682   2.041  10.318   8.841  0.0677  1.4765  1.2164
23282SOL    HW275683   1.908  10.368   8.789 -0.2396  0.3579  0.8959
23283SOL     OW75684   0.926   9.308   0.249  0.7871  0.2304  0.1114
23283SOL    HW175685   0.887   9.222   0.263  0.3365  0.3626 -0.2955
23283SOL    HW275686   1.013   9.302   0.287  0.3040 -0.0163  1.2087
23284SOL     OW75687   4.240   0.981   2.148  0.6826  0.1867 -0.3850
23284SOL    HW175688   4.273   1.069   2.164 -0.1832  0.7990 -1.8255
23284SOL    HW275689   4.313   0.934   2.109  1.1329  0.2477  0.3540
23285SOL     OW75690   2.305   2.217   1.711 -0.0450  0.4050 -0.0225
23285SOL    HW175691   2.324   2.199   1.619 -0.8847  0.2434 -0.1666
23285SOL    HW275692   2.210   2.210   1.719 -0.2083  2.4080  0.4248
23286SOL     OW75693   4.009   9.801   3.048  0.0080  0.1898 -0.2158
23286SOL    HW175694   4.094   9.844   3.043 -0.0578  0.5212  1.0981
23286SOL    HW275695   4.019   9.722   2.995  0.5428  1.1324 -1.5851
23287SOL     OW75696   0.164   1.648   4.867 -0.2672  0.1056 -0.9535
23287SOL    HW175697   0.213   1.729   4.850 -0.1453 -0.1960 -2.1641
23287SOL    HW275698   0.204   1.584   4.808 -0.4631 -0.8018 -0.1146
23288SOL     OW75699   1.870   4.358  10.555  0.0251  0.1808  0.0167
23288SOL    HW175700   1.952   4.309  10.549 -0.2959 -0.3374 -0.1564
23288SOL    HW275701   1.804   4.293  10.580 -0.7275  0.1770 -1.8456
23289SOL     OW75702   9.125   1.604   0.222  0.0054  0.0518 -0.0304
23289SOL    HW175703   9.132   1.646   0.307  1.4783 -1.8035  0.8598
23289SOL    HW275704   9.093   1.516   0.241  1.3936 -0.7697 -1.2133
23290SOL     OW75705   0.450   0.822   7.160 -0.1678 -0.0332 -0.2022
23290SOL    HW175706   0.493   0.764   7.223 -1.3125 -1.6071 -0.8119
23290SOL    HW275707   0.445   0.771   7.080 -0.9744  1.0156 -0.8466
23291SOL     OW75708   4.214   2.788   2.297  0.4276  0.4768 -0.1126
23291SOL    HW175709   4.157   2.720   2.263 -1.8694  2.1851  0.0760
23291SOL    HW275710   4.247   2.834   2.219  1.3333 -0.2981 -0.2076
23292SOL     OW75711   8.923  10.566   1.537 -0.2065  0.2221 -0.4405
23292SOL    HW175712   8.864  10.583   1.611 -0.9757  1.7206 -1.3403
23292SOL    HW275713   8.989  10.636   1.544 -1.2481  1.4224 -2.0897
23293SOL     OW75714   9.669   6.924   1.898 -0.2211 -0.2336  0.1786
23293SOL    HW175715   9.597   6.981   1.926  0.3644  0.7390 -0.2567
23293SOL    HW275716   9.630   6.866   1.834 -0.7933 -0.2184  0.5059
23294SOL     OW75717  10.704   3.859   1.929 -0.3674  0.4846 -0.3660
23294SOL    HW175718  10.758   3.860   1.850  0.1664 -1.1140 -0.0601
23294SOL    HW275719  10.679   3.767   1.939  0.5957  0.4100  2.0140
23295SOL     OW75720   6.067   2.583   9.576 -0.1528  0.2421 -0.2482
23295SOL    HW175721   6.141   2.527   9.601 -1.4077 -0.8733  1.1262
23295SOL    HW275722   6.092   2.671   9.604  1.0322  0.0525 -0.6644
23296SOL     OW75723   2.948   2.086   8.659 -0.0376  0.0561 -0.2757
23296SOL    HW175724   3.015   2.046   8.714 -1.7841 -1.6320  0.7620
23296SOL    HW275725   2.870   2.032   8.674 -1.6590  1.9772 -1.3570
23297SOL     OW75726   9.441   2.141   5.359 -0.6631  0.7933  0.6108
23297SOL    HW175727   9.499   2.180   5.424 -1.0460  2.2056  0.1445
23297SOL    HW275728   9.496   2.081   5.310 -0.3492 -0.2590  2.1703
23298SOL     OW75729   3.001   2.323   6.116 -0.2551  0.5394 -0.6861
23298SOL    HW175730   2.958   2.245   6.152  1.2974 -1.1444 -2.2066
23298SOL    HW275731   3.065   2.347   6.182  0.7851 -0.9075 -1.1082
23299SOL     OW75732   2.537   8.490  10.628 -0.5196  0.5795  0.0355
23299SOL    HW175733   2.505   8.548  10.558 -0.6390  1.6903  0.9774
23299SOL    HW275734   2.578   8.550  10.691 -1.6347 -0.2498  1.5857
23300SOL     OW75735   4.741   1.336   3.633 -0.3010 -0.0601 -0.1608
23300SOL    HW175736   4.673   1.403   3.623  0.8898  1.3085  0.5974
23300SOL    HW275737   4.741   1.289   3.549 -2.6871 -0.6475  0.0852
23301SOL     OW75738   4.784   1.540  10.304 -0.0018  0.2137 -0.2196
23301SOL    HW175739   4.766   1.633  10.294 -0.0372  0.1949 -0.3340
23301SOL    HW275740   4.877   1.536  10.325 -0.5223  0.4373  2.3897
23302SOL     OW75741   1.200  10.217  10.389  0.4507 -0.1476 -0.8048
23302SOL    HW175742   1.124  10.275  10.396  0.6705  0.3444 -2.2182
23302SOL    HW275743   1.233  10.210  10.478 -1.2425 -0.3728 -0.1548
23303SOL     OW75744   7.043   6.464   6.686  0.1444 -0.4126  0.2723
23303SOL    HW175745   7.055   6.559   6.689 -0.0205 -0.3746 -0.2561
23303SOL    HW275746   7.078   6.434   6.770 -0.3405  0.1716  0.6991
23304SOL     OW75747   9.260   2.295   0.670 -0.5460  0.1153 -0.2257
23304SOL    HW175748   9.318   2.369   0.655  0.3833 -0.3179  1.0077
23304SOL    HW275749   9.212   2.284   0.588  0.0103  1.4499 -0.7510
23305SOL     OW75750  10.322   5.915   9.737  0.4243  0.4134 -0.3021
23305SOL    HW175751  10.251   5.921   9.801  0.7999  0.3394  0.1287
23305SOL    HW275752  10.346   5.822   9.737  1.1670  0.5909  0.2775
23306SOL     OW75753   5.612   5.656   4.841  0.9829 -0.4009  0.0811
23306SOL    HW175754   5.539   5.596   4.826  1.0697 -0.8703  1.4435
23306SOL    HW275755   5.615   5.709   4.761 -0.5853 -0.6399 -0.1795
23307SOL     OW75756   3.240   1.896   8.556  0.0218  0.2136 -0.3971
23307SOL    HW175757   3.190   1.841   8.495  0.6008 -0.1713 -0.5261
23307SOL    HW275758   3.257   1.839   8.631  1.2019 -0.0074 -0.8157
23308SOL     OW75759   0.476   0.257   1.667  0.6155  0.2039 -0.2172
23308SOL    HW175760   0.473   0.169   1.705 -0.1110  0.7694  1.0809
23308SOL    HW275761   0.418   0.309   1.722 -1.1442  0.8892 -2.5695
23309SOL     OW75762  10.134   6.633  10.216 -1.2294 -0.0403  0.6234
23309SOL    HW175763  10.185   6.568  10.168  0.2524  0.7092  1.1353
23309SOL    HW275764  10.055   6.586  10.242 -1.4570 -0.8596 -1.3479
23310SOL     OW75765   3.053   7.169  10.511  0.1971  0.2408  0.0726
23310SOL    HW175766   3.095   7.224  10.577 -0.5105  1.9622 -0.8694
23310SOL    HW275767   3.009   7.100  10.562  0.9869  0.6029  1.2788
23311SOL     OW75768   7.325   6.558  10.156  0.2429  0.4716  0.5977
23311SOL    HW175769   7.249   6.499  10.160  0.5838  0.0066  0.2508
23311SOL    HW275770   7.358   6.548  10.067  0.2873  1.2100  0.5308
23312SOL     OW75771  10.037   9.847   0.333  0.0095  0.5539 -0.8649
23312SOL    HW175772   9.959   9.809   0.292 -0.3823  0.9039 -0.4652
23312SOL    HW275773  10.022   9.835   0.427  0.3442  0.8019 -0.7798
23313SOL     OW75774   8.418   8.618   1.202  0.0181  0.3262 -0.4434
23313SOL    HW175775   8.372   8.572   1.272 -0.8126  1.0076 -0.5267
23313SOL    HW275776   8.349   8.657   1.149  0.6822  1.7171 -0.3420
23314SOL     OW75777   9.752   9.830   8.207 -0.3337  0.0059 -0.2490
23314SOL    HW175778   9.671   9.806   8.252  0.2521 -0.5858  0.5128
23314SOL    HW275779   9.780   9.912   8.248 -0.9321  0.6317 -1.0410
23315SOL     OW75780   2.908   6.959   0.704 -0.3595  0.9958  0.0241
23315SOL    HW175781   2.938   6.868   0.692 -1.0746  0.8215 -0.4979
23315SOL    HW275782   2.936   6.982   0.792  1.3891  0.8690 -0.4642
23316SOL     OW75783  10.476   0.112   8.198 -0.1182 -0.5816  0.1675
23316SOL    HW175784  10.475   0.203   8.228  1.9139 -0.6086  0.4519
23316SOL    HW275785  10.454   0.118   8.105 -2.0539 -0.0514  0.6154
23317SOL     OW75786   9.228   6.431   3.939  0.0323  0.0962 -0.4887
23317SOL    HW175787   9.240   6.433   4.034  0.5165 -0.1167 -0.5443
23317SOL    HW275788   9.152   6.488   3.924  0.8689  1.3539 -0.1160
23318SOL     OW75789   8.583   3.074  10.381 -0.1524 -0.2817  0.0159
23318SOL    HW175790   8.610   3.036  10.465  1.6716  1.5913  0.3636
23318SOL    HW275791   8.655   3.056  10.322 -0.4811  0.2377 -0.5597
23319SOL     OW75792   1.037   2.667   1.010 -0.3086  0.1730 -0.4073
23319SOL    HW175793   0.961   2.701   1.057  0.5466 -1.6505  2.5746
23319SOL    HW275794   1.111   2.718   1.043  0.2600 -0.8269 -0.0927
23320SOL     OW75795   3.805   8.130   9.231  0.3423 -0.4024  0.0173
23320SOL    HW175796   3.748   8.071   9.182  0.7082  0.1743 -1.1586
23320SOL    HW275797   3.748   8.168   9.298  0.4661 -3.2065  1.8686
23321SOL     OW75798   3.701   2.462   9.419  0.2097  0.1746  0.2063
23321SOL    HW175799   3.781   2.502   9.384  0.3154  1.2518  1.5940
23321SOL    HW275800   3.732   2.389   9.472  0.4597  1.6326  2.1669
23322SOL     OW75801   6.064   2.530   4.740  0.1466 -0.0794 -0.2035
23322SOL    HW175802   6.056   2.582   4.659  1.3614  0.0722 -0.2511
23322SOL    HW275803   6.066   2.439   4.710  0.5924 -0.0232 -0.3589
23323SOL     OW75804   2.421   5.532   0.609 -0.3697  0.1259 -0.2028
23323SOL    HW175805   2.400   5.598   0.676 -1.1503 -2.3175  2.1484
23323SOL    HW275806   2.354   5.545   0.541 -1.0774  1.1399  0.6405
23324SOL     OW75807   6.339   2.575   6.096 -0.2549 -0.3770  0.2430
23324SOL    HW175808   6.252   2.617   6.101 -0.6661 -1.0748 -0.7488
23324SOL    HW275809   6.397   2.636   6.141 -0.8032  1.3811 -1.2998
23325SOL     OW75810   4.922   8.209   6.862  0.8727 -0.7016 -0.4253
23325SOL    HW175811   4.906   8.153   6.939  1.0989  0.0488  0.1763
23325SOL    HW275812   4.949   8.147   6.794 -0.9964 -1.5933 -0.4357
23326SOL     OW75813   0.607   4.948   9.661  0.1767 -0.0760 -0.4545
23326SOL    HW175814   0.568   5.030   9.694 -0.0394 -0.3384 -0.0472
23326SOL    HW275815   0.701   4.962   9.670  0.1240 -0.2519  0.5899
23327SOL     OW75816   2.912   9.565   1.471  0.3258 -0.2536 -0.2765
23327SOL    HW175817   2.861   9.522   1.540 -0.4013  0.2121 -0.5141
23327SOL    HW275818   2.847   9.601   1.412  0.9138  1.0224 -0.1732
23328SOL     OW75819   5.821   0.410  10.701  0.0346  0.2218  0.0549
23328SOL    HW175820   5.846   0.468  10.629 -3.7272  2.0581 -0.0599
23328SOL    HW275821   5.853   0.455  10.780 -0.7955  1.3101 -0.1933
23329SOL     OW75822   5.060   5.102   3.895 -0.3210  0.4517  0.2383
23329SOL    HW175823   5.012   5.104   3.812  1.8470 -0.3077 -1.1328
23329SOL    HW275824   5.081   5.193   3.913 -5.1621  1.3716  2.8444
23330SOL     OW75825   0.222   8.506   5.007  0.0193  0.1042 -0.4552
23330SOL    HW175826   0.186   8.420   4.986  0.6094 -0.0425 -0.9130
23330SOL    HW275827   0.285   8.523   4.936  1.0536  0.2154  0.4640
23331SOL     OW75828   1.466   2.342   7.007  0.0477  0.2165  0.0638
23331SOL    HW175829   1.431   2.376   6.925  2.4521  0.2539 -1.0419
23331SOL    HW275830   1.482   2.420   7.060 -2.8516  0.1084  1.2346
23332SOL     OW75831   8.322   0.386   9.461  0.6436 -0.2622 -0.5279
23332SOL    HW175832   8.306   0.359   9.551 -4.0142  2.3266 -0.2784
23332SOL    HW275833   8.384   0.459   9.468  0.8105 -0.4926  0.4908
23333SOL     OW75834   4.568   0.825   4.215  0.0216  0.3284 -0.1890
23333SOL    HW175835   4.590   0.871   4.296 -0.1185 -0.0646  0.0713
23333SOL    HW275836   4.628   0.751   4.212 -1.1943 -0.7330  0.5054
23334SOL     OW75837  10.072   8.251   1.984 -0.1578 -0.0757 -0.2635
23334SOL    HW175838  10.056   8.158   1.969 -0.0480  0.1560 -2.0284
23334SOL    HW275839  10.128   8.278   1.911 -0.5098  1.4626 -0.0004
23335SOL     OW75840  10.426   8.144   4.068  0.2889 -0.5329 -0.1944
23335SOL    HW175841  10.453   8.100   3.988  0.1107  0.1332 -0.6179
23335SOL    HW275842  10.494   8.209   4.085 -0.0282 -0.2046 -0.1771
23336SOL     OW75843   8.725   9.062   7.540 -0.2173 -0.3913 -0.4780
23336SOL    HW175844   8.763   8.974   7.544 -0.9772 -0.6955  0.7512
23336SOL    HW275845   8.694   9.079   7.629  1.5120  1.8634 -0.1932
23337SOL     OW75846   0.018  10.127   0.210 -0.3969  0.0036  0.1989
23337SOL    HW175847   0.112  10.132   0.195  0.1581 -0.7570  2.8924
23337SOL    HW275848  -0.015  10.212   0.183  1.1673  0.5439 -0.1256
23338SOL     OW75849   4.175  10.438   1.147  0.5899 -0.5324  0.1161
23338SOL    HW175850   4.208  10.458   1.235  1.3979 -2.3225  0.2617
23338SOL    HW275851   4.242  10.472   1.088 -0.6079  1.9475  0.0594
23339SOL     OW75852   0.982   0.162   1.722 -0.6544 -0.4252  0.0179
23339SOL    HW175853   0.888   0.145   1.725 -0.9888  1.3031  0.2489
23339SOL    HW275854   1.004   0.157   1.629 -0.7584 -1.7318  0.0366
23340SOL     OW75855   4.909   7.131   3.093 -0.7416  0.1758  0.2907
23340SOL    HW175856   4.971   7.118   3.165 -1.2026  1.3312  0.9143
23340SOL    HW275857   4.953   7.091   3.017  1.0240  1.4146  0.5893
23341SOL     OW75858   9.765   3.619   5.342 -0.4462  0.1181  0.0230
23341SOL    HW175859   9.827   3.546   5.337 -3.4796 -2.7217  0.1766
23341SOL    HW275860   9.722   3.608   5.427  0.1043  3.2077  0.8100
23342SOL     OW75861   6.910   6.257   8.500 -0.4163  0.5168 -0.0835
23342SOL    HW175862   6.881   6.264   8.591  0.2561  1.1952  0.0891
23342SOL    HW275863   7.002   6.282   8.502  0.0261 -0.9067 -0.7277
23343SOL     OW75864   9.437   9.158   8.682  0.5395 -0.3332  0.7101
23343SOL    HW175865   9.422   9.154   8.587  1.0482  2.7691  0.4037
23343SOL    HW275866   9.359   9.119   8.720 -0.4238 -0.1462 -0.9702
23344SOL     OW75867   3.205   1.296   8.550  0.1906 -0.1060  0.1516
23344SOL    HW175868   3.115   1.279   8.576  0.2661 -1.6909 -0.4944
23344SOL    HW275869   3.242   1.344   8.624 -0.8421 -0.5397  0.9829
23345SOL     OW75870   9.333   7.404   0.845 -0.0871  0.2277 -0.3006
23345SOL    HW175871   9.354   7.317   0.809  0.6817  0.5382 -0.6117
23345SOL    HW275872   9.418   7.446   0.857 -0.3163  0.2351  1.6684
23346SOL     OW75873   2.570  10.072   9.665 -0.0516 -0.1209 -0.1194
23346SOL    HW175874   2.551   9.995   9.718  1.0718 -0.2552  0.1267
23346SOL    HW275875   2.666  10.075   9.660 -0.0894  0.8665 -0.7056
23347SOL     OW75876   0.005   2.039   1.450 -0.0411  0.1911 -0.0235
23347SOL    HW175877   0.072   2.006   1.511 -0.8949 -0.4029  0.6139
23347SOL    HW275878  -0.012   1.965   1.391 -0.0357  0.3893 -0.2733
23348SOL     OW75879   3.624   5.965   6.604  0.3131 -0.1005  0.2684
23348SOL    HW175880   3.592   6.031   6.665  0.6634  0.4059 -0.0812
23348SOL    HW275881   3.662   5.897   6.659 -2.6734 -1.4860  0.7775
23349SOL     OW75882   8.484   0.736   8.829 -0.1843 -0.2261 -0.1181
23349SOL    HW175883   8.571   0.697   8.838  0.0760  0.1582 -0.8058
23349SOL    HW275884   8.497   0.828   8.854  0.2111  0.4696 -2.5588
23350SOL     OW75885   0.479   2.784   3.020  0.1554 -0.4018 -0.1704
23350SOL    HW175886   0.396   2.817   2.987 -1.2785 -1.1401  2.3745
23350SOL    HW275887   0.545   2.823   2.963 -1.8057  1.6625 -1.2023
23351SOL     OW75888   3.916   9.054   0.526 -0.0684  0.4828 -0.7448
23351SOL    HW175889   3.934   9.112   0.452 -1.5926  2.2153  0.1343
23351SOL    HW275890   3.911   9.113   0.602 -1.7512 -0.7829  0.2053
23352SOL     OW75891   5.419   1.401   8.752 -0.1870 -0.4516  0.5446
23352SOL    HW175892   5.483   1.468   8.777 -0.4990  0.5662 -1.1987
23352SOL    HW275893   5.472   1.331   8.713  0.0248 -0.5144  0.9466
23353SOL     OW75894  10.307   2.506  10.446 -0.0888 -0.3497  0.7864
23353SOL    HW175895  10.288   2.448  10.520  0.1249  0.3848  1.4387
23353SOL    HW275896  10.380   2.560  10.477  0.5646 -0.5911 -0.2768
23354SOL     OW75897   1.146   6.760   1.892  0.4109 -0.3415  0.3947
23354SOL    HW175898   1.134   6.779   1.799  2.6614  0.0457  0.1265
23354SOL    HW275899   1.100   6.677   1.906 -0.9523  0.1844 -0.7683
23355SOL     OW75900   4.568   1.423   8.769  0.6804 -0.2668  0.1407
23355SOL    HW175901   4.562   1.346   8.713  0.5433  0.3982 -0.7941
23355SOL    HW275902   4.580   1.389   8.858 -0.5605 -1.3938 -0.0899
23356SOL     OW75903   7.364   7.224   0.344  0.2356  0.2132  0.0890
23356SOL    HW175904   7.415   7.214   0.264 -0.7492 -1.2700 -0.3974
23356SOL    HW275905   7.315   7.142   0.352 -1.1362  1.0864  1.1877
23357SOL     OW75906   9.196   5.642   8.762  0.0444 -0.1114  0.2801
23357SOL    HW175907   9.231   5.557   8.738  1.0824  0.3562  0.0968
23357SOL    HW275908   9.267   5.685   8.809  2.0156  3.0493 -4.7765
23358SOL     OW75909   6.421   1.670   1.916 -0.4013  0.0163  0.1776
23358SOL    HW175910   6.501   1.666   1.864 -0.9968  1.1698 -0.8714
23358SOL    HW275911   6.368   1.597   1.884 -0.4287  0.2247 -0.2527
23359SOL     OW75912   7.872   4.386   9.124 -0.2608 -0.8613 -0.1959
23359SOL    HW175913   7.856   4.470   9.083 -2.1241 -0.4739  1.1857
23359SOL    HW275914   7.807   4.327   9.085  1.1608 -1.7663 -1.3083
23360SOL     OW75915   6.575   4.880   1.789  0.1105  0.1931  0.2199
23360SOL    HW175916   6.538   4.791   1.795 -2.2460  1.0184 -0.8433
23360SOL    HW275917   6.626   4.889   1.869  1.0688 -2.3755  0.0091
23361SOL     OW75918   2.788   3.439   2.725 -0.1645  0.0216 -0.1350
23361SOL    HW175919   2.821   3.505   2.663 -0.8535  1.3560  0.8632
23361SOL    HW275920   2.829   3.461   2.808  1.0383 -1.9868 -0.1503
23362SOL     OW75921   9.862   5.474   2.034  0.8826 -0.2795 -0.0219
23362SOL    HW175922   9.814   5.530   2.095  0.3735 -0.7092 -0.0310
23362SOL    HW275923   9.803   5.463   1.959  2.3012  2.0367 -1.6339
23363SOL     OW75924   6.265   0.452  10.334 -0.5985 -0.5248 -0.3507
23363SOL    HW175925   6.181   0.411  10.355 -2.3300  3.0520  0.5779
23363SOL    HW275926   6.242   0.522  10.273  1.5115  1.1854  0.6964
23364SOL     OW75927   2.914   1.000   6.679 -0.0977  0.6093  0.5686
23364SOL    HW175928   2.902   0.925   6.621 -3.3495  0.2696  1.4878
23364SOL    HW275929   2.893   1.076   6.624 -1.2914  0.4320  0.7417
23365SOL     OW75930   7.435   4.223   6.143  0.4571 -0.4839  0.3487
23365SOL    HW175931   7.516   4.238   6.094  0.5690  1.5920  1.0527
23365SOL    HW275932   7.464   4.185   6.226  0.5443 -1.2674 -0.0354
23366SOL     OW75933   9.215   9.261   2.740  0.4333 -0.5667  0.7586
23366SOL    HW175934   9.174   9.304   2.815 -0.3545  0.7592 -0.3787
23366SOL    HW275935   9.171   9.177   2.734  0.4619 -0.6642  1.7385
23367SOL     OW75936   9.684   3.098  10.471  0.8325  0.0954 -0.3419
23367SOL    HW175937   9.651   3.180  10.507  1.0281 -0.1763  0.4870
23367SOL    HW275938   9.638   3.086  10.388 -1.5045 -0.5099  0.9733
23368SOL     OW75939   3.580   5.797   1.949 -0.0207  0.2650  0.7155
23368SOL    HW175940   3.583   5.893   1.957  1.6086  0.4012 -0.7660
23368SOL    HW275941   3.504   5.781   1.893 -0.5266  0.6589  1.2770
23369SOL     OW75942   8.946   2.324   3.824  0.2555 -0.3641 -0.1502
23369SOL    HW175943   8.948   2.418   3.842 -1.3843 -0.7734  2.9015
23369SOL    HW275944   9.031   2.292   3.855 -0.2785 -0.1957  1.6400
23370SOL     OW75945   5.951   7.418   7.445  0.5894 -0.3186 -0.2109
23370SOL    HW175946   5.908   7.502   7.427  1.1038 -0.0023 -0.0060
23370SOL    HW275947   5.965   7.380   7.358 -0.3987 -0.5893 -0.2624
23371SOL     OW75948  10.242   2.300   3.796 -0.2486 -0.3767  0.3957
23371SOL    HW175949  10.238   2.392   3.823  0.7299 -0.2346  0.0886
23371SOL    HW275950  10.326   2.292   3.751  0.2928 -1.7422  1.5754
23372SOL     OW75951   1.833   3.197   2.366 -0.0849 -0.8797  0.5127
23372SOL    HW175952   1.925   3.194   2.339  0.0684  1.8010  0.4695
23372SOL    HW275953   1.822   3.285   2.404 -3.0120 -0.5312 -0.8848
23373SOL     OW75954   6.784   0.797   6.619 -0.3428 -0.5252 -0.0306
23373SOL    HW175955   6.816   0.710   6.643  2.8653  0.9623  1.8015
23373SOL    HW275956   6.750   0.834   6.700 -2.9858 -0.4358 -1.0711
23374SOL     OW75957   7.821   5.754  10.425  0.0161  0.4135  0.0597
23374SOL    HW175958   7.883   5.699  10.473  0.6402  0.3557 -0.7893
23374SOL    HW275959   7.735   5.720  10.449  0.4002 -1.0583 -0.5924
23375SOL     OW75960   2.127   4.083   0.958 -0.0995 -0.3808  0.5416
23375SOL    HW175961   2.198   4.107   1.016 -0.6835  0.4692  0.9197
23375SOL    HW275962   2.084   4.009   1.002  2.7227 -3.5272 -1.4212
23376SOL     OW75963   3.046   7.896   0.097  0.1628 -0.4561 -0.0534
23376SOL    HW175964   2.998   7.872   0.017  1.4063 -0.1024 -0.9277
23376SOL    HW275965   3.105   7.822   0.112  0.9854  0.1387 -0.3189
23377SOL     OW75966   9.412   5.170   4.272 -0.0775  0.6307  0.1138
23377SOL    HW175967   9.501   5.166   4.236 -0.1309 -2.8838 -0.0294
23377SOL    HW275968   9.413   5.107   4.344 -2.5433  0.1775 -0.1579
23378SOL     OW75969   5.981   5.549   2.509  0.4361 -0.5328  0.0652
23378SOL    HW175970   6.036   5.597   2.571  0.8249  1.1539 -1.5019
23378SOL    HW275971   5.905   5.523   2.561  0.7987  0.7085  1.3030
23379SOL     OW75972   1.933   3.559   4.171  0.2919 -0.0869 -0.0541
23379SOL    HW175973   1.984   3.553   4.252 -0.2959  1.4314  0.4743
23379SOL    HW275974   1.920   3.468   4.144  1.2397 -0.5867  1.0897
23380SOL     OW75975   7.909   8.611   0.513 -0.5202 -0.6785 -0.0687
23380SOL    HW175976   7.858   8.646   0.440  0.3341  1.0481  0.1089
23380SOL    HW275977   7.905   8.516   0.502  0.6519 -0.4961 -3.1544
23381SOL     OW75978   9.326   7.328   3.304  0.3054  0.0035  0.7454
23381SOL    HW175979   9.422   7.332   3.302  0.2687  1.6479  0.6744
23381SOL    HW275980   9.306   7.257   3.365  1.5560 -1.0652 -0.0441
23382SOL     OW75981   7.026  10.414   2.429 -0.1743  0.2030 -0.0781
23382SOL    HW175982   7.078  10.422   2.509 -2.3540  0.8406  1.3426
23382SOL    HW275983   6.990  10.325   2.433 -2.0973  0.9823  0.8605
23383SOL     OW75984   3.057   5.817   4.790  0.1499 -0.2765  0.0885
23383SOL    HW175985   2.970   5.791   4.821 -0.9473  0.9204 -1.7489
23383SOL    HW275986   3.066   5.908   4.818  0.3292 -0.0598 -0.6477
23384SOL     OW75987   1.158   8.968  10.717 -0.1613 -0.1684 -0.7847
23384SOL    HW175988   1.114   8.922  10.788  0.9941  2.0446  1.5731
23384SOL    HW275989   1.088   9.012  10.669 -0.8051  0.5439  0.7580
23385SOL     OW75990   6.510   1.998   8.417  0.0364 -0.3018 -0.3396
23385SOL    HW175991   6.548   2.081   8.445 -0.0294 -0.1041 -0.8255
23385SOL    HW275992   6.417   2.006   8.437  0.3195 -1.0087  1.3810
23386SOL     OW75993   6.402   1.580   4.259  0.3989 -0.8254  0.4439
23386SOL    HW175994   6.384   1.608   4.349  2.4032  0.6813  0.4502
23386SOL    HW275995   6.496   1.558   4.259  0.6475  0.0358 -1.4529
23387SOL     OW75996   4.947   8.410   8.109  0.3225  0.2674  0.3767
23387SOL    HW175997   4.891   8.456   8.046 -1.3673  2.3229  3.1221
23387SOL    HW275998   4.901   8.328   8.127 -0.1659  0.5188  0.2793
23388SOL     OW75999   1.803   6.176   0.305  0.5383 -0.0265  0.0472
23388SOL    HW176000   1.845   6.163   0.221  0.3704  1.2430 -0.2476
23388SOL    HW276001   1.746   6.252   0.293 -0.1832 -0.3761  1.0481
23389SOL     OW76002   6.249  10.206   7.580  0.2229 -0.2126  0.6385
23389SOL    HW176003   6.271  10.277   7.519 -0.3410 -1.2678 -0.8683
23389SOL    HW276004   6.179  10.242   7.634  0.1531  0.4921  0.0967
23390SOL     OW76005   4.504   0.945   9.922  0.2963  0.1802  0.5468
23390SOL    HW176006   4.559   1.011   9.880  0.6068  0.2654  1.0881
23390SOL    HW276007   4.519   0.865   9.872  1.7115 -0.0653  1.3189
23391SOL     OW76008   0.669   5.119   1.953  0.4378  0.7851  0.3949
23391SOL    HW176009   0.730   5.093   1.884  1.1307  0.7890  0.9866
23391SOL    HW276010   0.635   5.204   1.925  1.2320  1.1062  0.3815
23392SOL     OW76011   8.031   6.369   3.739 -0.2321 -0.8248 -0.4311
23392SOL    HW176012   8.066   6.297   3.685 -1.8050 -0.9217 -1.3819
23392SOL    HW276013   7.938   6.371   3.718 -0.2023  1.6420 -0.5782
23393SOL     OW76014   1.094   9.131   1.994  0.1502  0.1251 -0.0000
23393SOL    HW176015   1.102   9.192   2.067  1.2309 -1.9329  1.7125
23393SOL    HW276016   1.000   9.117   1.984 -0.0086  0.1072  1.3303
23394SOL     OW76017   3.650   2.674   1.725  0.5357 -0.4958 -0.1117
23394SOL    HW176018   3.578   2.621   1.689  1.4816 -0.0344 -2.9153
23394SOL    HW276019   3.616   2.707   1.808 -3.1218  0.8841 -1.9374
23395SOL     OW76020  10.054  10.456   0.818  0.0413  0.7713  0.6149
23395SOL    HW176021   9.959  10.461   0.808 -0.2324 -2.3557  0.8252
23395SOL    HW276022  10.077  10.370   0.784  2.5606  0.6750  2.3406
23396SOL     OW76023   8.105   0.318   9.305  0.1014  0.1333  0.0689
23396SOL    HW176024   8.105   0.231   9.266 -0.6082  0.3508 -0.4363
23396SOL    HW276025   8.179   0.317   9.366  1.0559 -0.2983 -1.0736
23397SOL     OW76026   5.450   7.245   2.755  0.0128 -0.3592  0.3255
23397SOL    HW176027   5.406   7.305   2.816  0.1136  1.2336 -1.1001
23397SOL    HW276028   5.429   7.279   2.668  1.3860 -1.4988 -0.4961
23398SOL     OW76029   2.632   3.898   0.339 -0.0664  0.1734  0.1333
23398SOL    HW176030   2.608   3.914   0.431 -2.0486 -0.5960 -0.1847
23398SOL    HW276031   2.549   3.905   0.292  0.6689 -0.9231 -1.3844
23399SOL     OW76032   9.686   6.361   4.018  0.1317  0.3996  0.1295
23399SOL    HW176033   9.781   6.362   4.026  0.0707  0.8715  0.9157
23399SOL    HW276034   9.665   6.271   3.996  0.6909  0.0665  0.9293
23400SOL     OW76035   5.640   1.791   9.903  0.2946  0.8526  0.8816
23400SOL    HW176036   5.568   1.839   9.863  0.1938  1.1064  1.3597
23400SOL    HW276037   5.599   1.714   9.943  0.2962  0.9586  1.0900
23401SOL     OW76038   1.742   1.355   5.756 -0.3215  0.3765  0.3011
23401SOL    HW176039   1.677   1.332   5.690 -0.9851  1.4120  0.5683
23401SOL    HW276040   1.693   1.402   5.823  0.8311  1.9035  0.1241
23402SOL     OW76041   5.895   6.771   8.838 -0.0496 -0.5496 -0.1735
23402SOL    HW176042   5.807   6.804   8.857 -1.2512 -1.6771 -3.1635
23402SOL    HW276043   5.952   6.847   8.846 -1.3918  0.3461  1.2154
23403SOL     OW76044   9.402   5.880   9.896  0.2121  0.1373 -0.0978
23403SOL    HW176045   9.381   5.968   9.926  1.0496 -0.5069  2.6744
23403SOL    HW276046   9.328   5.854   9.841 -0.7067  2.0260  0.1881
23404SOL     OW76047   0.232   4.172   1.323  0.0466  0.9525  0.0043
23404SOL    HW176048   0.299   4.133   1.380  1.9321 -0.4957 -2.9475
23404SOL    HW276049   0.278   4.243   1.278 -0.0162 -0.6194 -2.7328
23405SOL     OW76050   8.357   5.300   9.278  0.6346 -0.0662 -0.3381
23405SOL    HW176051   8.396   5.268   9.359  0.1269  0.9690  0.3400
23405SOL    HW276052   8.341   5.222   9.226  0.7238 -0.7728  0.6725
23406SOL     OW76053   6.482   0.425   7.977  0.2180  0.3094 -0.2404
23406SOL    HW176054   6.461   0.501   8.031 -0.5531 -1.1343  1.6148
23406SOL    HW276055   6.400   0.375   7.973  1.4696 -2.1025  1.5014
23407SOL     OW76056   1.855   4.686   8.642  0.2029 -0.1160  0.4364
23407SOL    HW176057   1.926   4.748   8.660 -0.7253  1.2581 -0.4577
23407SOL    HW276058   1.808   4.679   8.725  1.3920 -1.1284  1.0725
23408SOL     OW76059   7.135   9.899   8.074 -0.1395 -0.4075  0.4784
23408SOL    HW176060   7.227   9.900   8.104 -0.4342 -0.3628  1.4200
23408SOL    HW276061   7.138   9.856   7.989  0.8071 -0.0959  0.3340
23409SOL     OW76062   1.384  10.255  10.088  0.2987  0.0522 -0.1941
23409SOL    HW176063   1.315  10.313  10.054 -1.5960 -1.2133  1.2385
23409SOL    HW276064   1.421  10.304  10.162  1.2746  0.9097 -1.2174
23410SOL     OW76065   5.173   9.570   7.120  0.2433  0.5313  0.3595
23410SOL    HW176066   5.234   9.638   7.147  1.2015 -0.4323  0.6833
23410SOL    HW276067   5.226   9.490   7.114 -0.5814  0.0584 -1.2771
23411SOL     OW76068   6.594   9.366   2.043 -0.0223  0.0169  0.2173
23411SOL    HW176069   6.667   9.422   2.070  1.6448 -0.7820 -2.3030
23411SOL    HW276070   6.519   9.425   2.040  0.7134  1.1122  1.7816
23412SOL     OW76071   2.721   7.082  10.515  0.4718 -0.0030 -0.4159
23412SOL    HW176072   2.747   7.002  10.470  0.2682 -1.4036  1.8405
23412SOL    HW276073   2.697   7.054  10.603 -0.8090  2.3828  0.0739
23413SOL     OW76074   8.147   3.675  10.528 -0.2184 -0.4300 -0.6393
23413SOL    HW176075   8.067   3.649  10.574 -0.7188  1.8381 -0.1287
23413SOL    HW276076   8.166   3.601  10.470 -2.0028 -1.5298  0.0989
23414SOL     OW76077   3.487   3.518   8.994 -0.4879 -0.1853  0.2314
23414SOL    HW176078   3.493   3.424   8.979  0.6465 -0.2651  1.0667
23414SOL    HW276079   3.577   3.550   8.983 -0.8298  0.7720  0.1322
23415SOL     OW76080   2.751   3.638   0.942 -0.1780 -0.3664 -0.1584
23415SOL    HW176081   2.780   3.722   0.978 -1.0571 -0.1835  0.1417
23415SOL    HW276082   2.774   3.574   1.010  2.4456 -0.7202 -1.2593
23416SOL     OW76083   4.205   6.154  10.126  0.2364 -0.3407  0.2159
23416SOL    HW176084   4.234   6.232  10.174  0.4330 -0.5859  0.4977
23416SOL    HW276085   4.282   6.127  10.076 -0.5160  1.1047 -1.8779
23417SOL     OW76086   8.820   9.293   4.397 -0.5210  0.1467 -0.2431
23417SOL    HW176087   8.757   9.293   4.468 -0.5649  2.5840 -0.2187
23417SOL    HW276088   8.807   9.376   4.352  2.6582  0.7933 -0.2225
23418SOL     OW76089  10.525   0.936   7.645  0.3308 -0.1241 -0.3428
23418SOL    HW176090  10.487   0.848   7.646  0.1850 -0.0745  1.0811
23418SOL    HW276091  10.612   0.924   7.685  0.0600  0.4549  0.4464
23419SOL     OW76092   7.185   2.134   4.226  0.3684  0.4177  0.2642
23419SOL    HW176093   7.109   2.185   4.253 -0.8432 -1.2755  0.2114
23419SOL    HW276094   7.243   2.198   4.185 -1.5115  1.5967 -0.7145
23420SOL     OW76095   1.972  10.662   2.466 -0.6362  0.1070  0.3948
23420SOL    HW176096   1.982  10.651   2.560  1.1127 -0.1617  0.2073
23420SOL    HW276097   1.902  10.601   2.442  1.0443 -2.1958  1.0761
23421SOL     OW76098   7.769   6.839  10.327 -0.3061 -0.1793  0.5054
23421SOL    HW176099   7.718   6.813  10.251 -0.4397 -0.9374  0.8525
23421SOL    HW276100   7.859   6.815  10.305 -0.1717  0.6601  0.1166
23422SOL     OW76101   0.285   1.774   8.485  0.3802 -1.0002  0.2278
23422SOL    HW176102   0.379   1.772   8.502  0.3610  0.6595  0.7098
23422SOL    HW276103   0.245   1.757   8.570  0.2993  4.1369  1.5122
23423SOL     OW76104   4.562   2.218   6.888 -0.4477 -0.3607 -0.0010
23423SOL    HW176105   4.483   2.252   6.928 -0.6113  0.3926 -0.9209
23423SOL    HW276106   4.577   2.275   6.812 -0.0369 -1.5831 -0.8749
23424SOL     OW76107   5.159   7.544   4.172  0.5954  0.7538 -0.1075
23424SOL    HW176108   5.219   7.486   4.125  0.5505  0.7091 -0.1106
23424SOL    HW276109   5.178   7.527   4.264  0.4062  0.5472 -0.1055
23425SOL     OW76110  10.575   8.912   3.967 -0.5980  0.0530 -0.1732
23425SOL    HW176111  10.547   8.944   4.053 -1.9445 -0.8866 -0.2356
23425SOL    HW276112  10.498   8.867   3.932  0.1133 -0.0765 -1.6302
23426SOL     OW76113   3.017   2.516   5.048 -0.2320 -0.7826  0.3619
23426SOL    HW176114   3.011   2.519   5.144 -0.4352  1.3173  0.3305
23426SOL    HW276115   2.972   2.435   5.024  0.8717 -1.9800  2.0951
23427SOL     OW76116   5.133  10.447   6.434  0.1916  0.1989  0.2180
23427SOL    HW176117   5.104  10.506   6.505  0.8810  0.6463  0.1294
23427SOL    HW276118   5.181  10.378   6.479  0.7013  0.5278  0.1843
23428SOL     OW76119   7.066   7.692   7.755 -0.6614 -0.7461 -0.0852
23428SOL    HW176120   7.140   7.737   7.715 -0.0049 -0.3823  1.4544
23428SOL    HW276121   6.989   7.734   7.718 -0.0724  1.1972  0.7512
23429SOL     OW76122   9.265   1.443   9.379  0.1812 -0.4142  0.2493
23429SOL    HW176123   9.273   1.532   9.344  0.6030 -0.8911 -0.9258
23429SOL    HW276124   9.348   1.428   9.424  1.1687 -1.0459 -1.6431
23430SOL     OW76125   3.733   9.053   3.561  0.1728  0.0762 -0.7821
23430SOL    HW176126   3.668   8.997   3.517  1.4847 -0.3640 -2.2682
23430SOL    HW276127   3.752   9.122   3.498 -0.0771  1.1764  0.3182
23431SOL     OW76128   1.018   1.031   1.098 -0.1243 -0.3112  0.3052
23431SOL    HW176129   1.005   1.124   1.115  0.4976 -0.1888  0.1096
23431SOL    HW276130   1.008   0.990   1.184 -1.1268 -0.1506  0.2744
23432SOL     OW76131   2.743   0.766   9.913 -0.0070 -0.0817  0.1336
23432SOL    HW176132   2.824   0.745   9.959 -0.3550  1.2419  1.4439
23432SOL    HW276133   2.747   0.861   9.899 -0.7417 -0.1943 -0.9759
23433SOL     OW76134   2.853   2.667   2.076 -0.1284 -0.0912  0.1191
23433SOL    HW176135   2.937   2.699   2.108 -0.2746 -1.4229  2.0556
23433SOL    HW276136   2.788   2.709   2.132 -0.7905  0.8800 -1.3199
23434SOL     OW76137   8.928   2.406   6.451 -0.2874 -0.3492  0.6977
23434SOL    HW176138   8.975   2.373   6.528  3.1042 -0.0411 -1.0140
23434SOL    HW276139   8.950   2.499   6.448 -1.0541 -0.1889 -0.2178
23435SOL     OW76140   5.235   1.647   9.644 -0.0362  0.0160  0.7231
23435SOL    HW176141   5.242   1.593   9.566 -1.6907 -2.6908  2.3101
23435SOL    HW276142   5.142   1.670   9.650 -0.6366 -2.4382  3.3576
23436SOL     OW76143   9.105   0.251   5.165  0.3478  0.6821  0.9076
23436SOL    HW176144   9.017   0.236   5.130  0.6459  1.4618 -0.2318
23436SOL    HW276145   9.090   0.276   5.257 -0.4673 -1.0947  1.2932
23437SOL     OW76146   7.680   6.487   9.658  0.1495  0.0079 -0.1099
23437SOL    HW176147   7.721   6.411   9.618  0.2454 -0.0328  0.0679
23437SOL    HW276148   7.721   6.494   9.745 -1.3545 -0.9788  0.7207
23438SOL     OW76149   7.343   6.820   1.946  0.3916  0.1800  0.3845
23438SOL    HW176150   7.386   6.867   2.018  0.5139  0.0026  0.4288
23438SOL    HW276151   7.359   6.728   1.965  0.2691  0.1254  0.2252
23439SOL     OW76152   4.756   4.634   1.438  0.2412  0.0968 -0.6036
23439SOL    HW176153   4.738   4.650   1.531  0.5038 -0.9404 -0.3614
23439SOL    HW276154   4.679   4.667   1.392 -0.0624  0.2594  0.0156
23440SOL     OW76155  10.594   3.937   8.673  0.0577 -0.0843  0.3450
23440SOL    HW176156  10.679   3.899   8.649 -0.1659 -1.5199  1.6717
23440SOL    HW276157  10.557   3.874   8.735 -1.9677  0.5398 -0.1794
23441SOL     OW76158   1.763   3.465   1.439 -0.3270 -0.9072  0.0153
23441SOL    HW176159   1.850   3.442   1.407  0.5524 -0.9761  2.2499
23441SOL    HW276160   1.724   3.515   1.368  2.2200  0.6199 -0.4447
23442SOL     OW76161   8.993   4.334   1.357 -0.2009 -0.4381 -0.1170
23442SOL    HW176162   9.082   4.369   1.346 -0.9889  1.2528 -1.5494
23442SOL    HW276163   8.947   4.358   1.277 -2.1076 -0.8366  0.7947
23443SOL     OW76164   5.938   4.779   3.582 -0.2593  0.3715  0.4091
23443SOL    HW176165   5.875   4.768   3.653  1.3439  0.1172  1.8489
23443SOL    HW276166   5.887   4.763   3.502 -2.3305  1.6105  1.4107
23444SOL     OW76167   5.688   2.408   6.298  0.2916  0.2901 -0.0622
23444SOL    HW176168   5.631   2.334   6.314 -0.9748  1.5040  1.2962
23444SOL    HW276169   5.731   2.388   6.215  0.2098 -2.0588  0.3962
23445SOL     OW76170   8.294   9.604   0.700  0.4053  0.2013 -0.3085
23445SOL    HW176171   8.323   9.513   0.709 -1.3644 -0.4239 -0.3965
23445SOL    HW276172   8.320   9.629   0.612 -2.1666 -1.5110 -1.7041
23446SOL     OW76173   3.221   0.771   2.533 -0.2229  0.8175 -0.5681
23446SOL    HW176174   3.170   0.748   2.611 -0.6643  1.7188 -0.5758
23446SOL    HW276175   3.190   0.858   2.510 -1.0521  0.0693 -2.5359
23447SOL     OW76176   9.088  10.021   4.088  0.5690  0.0595  0.7000
23447SOL    HW176177   9.009  10.076   4.084  1.0680  0.9141  1.9418
23447SOL    HW276178   9.073   9.964   4.164  0.9531 -0.1025  0.6557
23448SOL     OW76179   9.890   6.350   2.037  0.6546 -0.5019 -0.5370
23448SOL    HW176180   9.817   6.319   1.984 -1.6645  1.2666  1.3951
23448SOL    HW276181   9.909   6.278   2.097  0.6880 -1.0666 -1.2197
23449SOL     OW76182   2.600   1.648   0.278  0.3724 -0.1904  0.3033
23449SOL    HW176183   2.548   1.629   0.200 -0.2515  2.0760  0.1204
23449SOL    HW276184   2.536   1.676   0.343  1.1447  0.5519  0.7554
23450SOL     OW76185   2.594   3.186   6.366 -0.5143  0.3744 -0.0833
23450SOL    HW176186   2.632   3.125   6.429  0.3410  0.9587 -0.0211
23450SOL    HW276187   2.535   3.241   6.418 -0.8134  0.0088 -0.0313
23451SOL     OW76188   1.550   3.576   2.684  0.5074 -0.1274  0.0253
23451SOL    HW176189   1.618   3.643   2.691  0.1753  0.4075 -1.5228
23451SOL    HW276190   1.596   3.494   2.703  1.0459  0.4431  1.3403
23452SOL     OW76191   6.523   0.957   0.406 -0.6435 -0.3843 -0.0778
23452SOL    HW176192   6.602   0.909   0.433 -1.3281 -0.8349  1.2027
23452SOL    HW276193   6.549   1.004   0.327  1.4209  0.8706  1.2601
23453SOL     OW76194   4.208   2.450  10.123 -0.3295 -0.4254  0.0261
23453SOL    HW176195   4.141   2.415  10.182 -0.5825  1.1872  0.7624
23453SOL    HW276196   4.289   2.443  10.173 -0.3474 -0.1462  0.0932
23454SOL     OW76197  10.381   6.294   0.717 -0.7233  0.1367 -0.4860
23454SOL    HW176198  10.322   6.370   0.718 -0.2556  0.5496  1.5378
23454SOL    HW276199  10.339   6.230   0.775 -1.3433 -1.3963 -2.5388
23455SOL     OW76200   9.967   8.189   9.829  0.5283 -0.1351  0.1104
23455SOL    HW176201   9.880   8.197   9.789  0.7836 -0.9232 -0.6383
23455SOL    HW276202   9.970   8.258   9.895 -0.1350  0.8136 -0.8251
23456SOL     OW76203   0.052   8.847   0.373 -0.6446 -0.1364 -0.3124
23456SOL    HW176204   0.131   8.889   0.339  0.1097 -0.8807  0.4580
23456SOL    HW276205   0.051   8.761   0.331 -1.0726 -0.1134 -0.3540
23457SOL     OW76206   0.039   1.682   2.663 -0.0733 -0.0516  0.6209
23457SOL    HW176207  -0.006   1.625   2.726 -2.3319 -1.9171 -2.4179
23457SOL    HW276208  -0.018   1.759   2.655 -0.7222 -0.6172 -0.3584
23458SOL     OW76209   1.340   3.108  10.037 -0.3704  0.0711 -0.4852
23458SOL    HW176210   1.381   3.188  10.003 -1.1112  0.1358 -1.2850
23458SOL    HW276211   1.401   3.075  10.103 -1.1236  2.5742  1.6353
23459SOL     OW76212   9.459   4.338   2.846  0.4231 -0.4682 -0.0143
23459SOL    HW176213   9.530   4.291   2.890  0.8628 -1.3480 -1.5841
23459SOL    HW276214   9.400   4.363   2.917  1.5114 -1.0818  1.1617
23460SOL     OW76215   7.028   7.978   5.535 -0.6279  0.1377 -0.7517
23460SOL    HW176216   7.072   7.967   5.619 -1.2688 -0.2457 -0.4642
23460SOL    HW276217   7.086   7.936   5.472  0.7849  2.0160 -0.7984
23461SOL     OW76218   8.031   2.869   7.781  0.6915 -0.6980  0.2758
23461SOL    HW176219   8.124   2.866   7.801  0.3482 -3.3466  1.9930
23461SOL    HW276220   8.019   2.809   7.707  0.1162 -2.2249  1.5522
23462SOL     OW76221   3.030   8.724   7.837 -0.4803  0.2529  0.0751
23462SOL    HW176222   2.974   8.690   7.906 -0.9185 -1.4655 -1.0658
23462SOL    HW276223   3.110   8.672   7.841 -0.1362  0.7494 -0.1433
23463SOL     OW76224   9.371   0.616   5.297 -0.1851  0.1945  0.0926
23463SOL    HW176225   9.277   0.612   5.279 -0.2203  0.3143  0.2508
23463SOL    HW276226   9.401   0.525   5.289  0.1039  0.4285 -2.2003
23464SOL     OW76227   1.957   3.081   3.058 -0.1895 -0.0470  0.7173
23464SOL    HW176228   1.966   3.078   3.154  3.8607 -1.7529  0.4730
23464SOL    HW276229   1.998   3.164   3.033 -2.5120  1.0874  0.4368
23465SOL     OW76230   1.359   1.196   8.704 -0.4397  0.6032 -0.0756
23465SOL    HW176231   1.446   1.156   8.702  0.2805  2.0119  1.2926
23465SOL    HW276232   1.356   1.249   8.624  0.8394  2.2288  0.9028
23466SOL     OW76233   9.274   6.700   2.438  0.6011 -0.1202  0.2090
23466SOL    HW176234   9.305   6.612   2.419  0.4754 -0.3352  0.9508
23466SOL    HW276235   9.179   6.690   2.450  0.5626  0.1465  0.1268
23467SOL     OW76236   4.589   5.847  10.137 -0.2649  0.3888  0.0803
23467SOL    HW176237   4.501   5.820  10.166  1.0474 -2.6477  1.7170
23467SOL    HW276238   4.587   5.836  10.042 -1.5838  0.1527  0.1112
23468SOL     OW76239   3.986  10.337   2.318  0.5578  0.6684  0.0583
23468SOL    HW176240   3.928  10.348   2.242 -0.7045 -2.9312  0.3156
23468SOL    HW276241   4.074  10.330   2.281  0.1839  0.8391 -0.8875
23469SOL     OW76242   7.385   6.895   1.156  0.5724  0.4245  0.0082
23469SOL    HW176243   7.368   6.938   1.072 -0.1084  0.6898  0.2768
23469SOL    HW276244   7.406   6.967   1.216 -0.5100  0.3853  0.4447
23470SOL     OW76245   5.737   8.982   1.001 -0.2641  0.0066  0.2518
23470SOL    HW176246   5.751   9.072   0.972  1.5880  0.3839  2.0141
23470SOL    HW276247   5.715   8.990   1.094  1.1168 -1.3669  0.7420
23471SOL     OW76248   6.701   2.871   7.226  0.4735  0.5544  0.1172
23471SOL    HW176249   6.797   2.868   7.226  0.4862 -0.8129 -1.7965
23471SOL    HW276250   6.679   2.936   7.159  0.0285  1.5173  1.1655
23472SOL     OW76251   6.049  10.218   7.749 -0.2123  0.0564  0.4802
23472SOL    HW176252   6.118  10.183   7.806  1.8260  0.1620 -1.7658
23472SOL    HW276253   6.039  10.309   7.777 -0.3565 -0.2979  1.6384
23473SOL     OW76254  10.285   8.976   0.299 -0.6378 -0.3291  0.2258
23473SOL    HW176255  10.356   8.913   0.311 -1.1423 -1.2878 -1.4449
23473SOL    HW276256  10.217   8.926   0.255 -1.9154  0.8688  0.7891
23474SOL     OW76257  10.572   7.405   9.669  0.6239 -0.5878  0.1687
23474SOL    HW176258  10.621   7.382   9.748  1.2004  0.8551  0.2630
23474SOL    HW276259  10.485   7.429   9.700  0.7487 -0.3464  0.3322
23475SOL     OW76260   3.296   0.472   0.400 -0.4188  0.3529 -0.5152
23475SOL    HW176261   3.294   0.484   0.495 -1.7825 -0.0586 -0.4624
23475SOL    HW276262   3.306   0.377   0.388 -0.7503  0.3475 -0.7700
23476SOL     OW76263   2.478   5.281   3.711 -0.0113 -0.4504 -0.1953
23476SOL    HW176264   2.513   5.350   3.766 -1.8662  0.0386  0.4578
23476SOL    HW276265   2.391   5.312   3.685 -0.9939 -2.5756  0.2854
23477SOL     OW76266   0.215   1.775  10.413  0.1717  0.5397 -0.0931
23477SOL    HW176267   0.179   1.831  10.481 -1.4531  0.2863 -0.6936
23477SOL    HW276268   0.161   1.696  10.415  2.2054 -0.9106  0.5209
23478SOL     OW76269   7.600   3.846   0.947 -0.1938 -0.4512 -0.2693
23478SOL    HW176270   7.528   3.818   1.004  0.2884 -0.1898  0.4867
23478SOL    HW276271   7.598   3.784   0.874 -1.3552 -0.2787 -0.4075
23479SOL     OW76272   8.493   1.971   8.270 -0.2494  0.6266 -0.2416
23479SOL    HW176273   8.467   2.020   8.347  0.3700 -1.2684  1.2629
23479SOL    HW276274   8.524   2.037   8.208 -1.6713  2.2714  0.7238
23480SOL     OW76275   4.460  10.423   9.063 -0.3300  0.5712 -0.1344
23480SOL    HW176276   4.407  10.390   8.991 -1.3036  1.5080  0.1196
23480SOL    HW276277   4.530  10.359   9.074 -1.1858 -0.4877 -0.7476
23481SOL     OW76278   3.184   6.611   7.554  0.1096  0.7992  0.1184
23481SOL    HW176279   3.137   6.664   7.618 -1.3082 -0.1383 -0.0933
23481SOL    HW276280   3.269   6.595   7.593  0.0169  1.9418  0.8456
23482SOL     OW76281   8.077   0.210   0.977  0.3430  0.0813  0.4038
23482SOL    HW176282   8.171   0.212   0.955  0.3495  1.1385  0.4923
23482SOL    HW276283   8.058   0.298   1.010 -0.9320  0.2216 -0.6314
23483SOL     OW76284   1.154   1.485   8.696 -0.7067 -0.1845 -0.0651
23483SOL    HW176285   1.119   1.413   8.750 -0.5296  0.3072  0.7180
23483SOL    HW276286   1.229   1.447   8.651 -1.0897 -0.7123 -0.2687
23484SOL     OW76287   3.502   3.157   4.426  0.0530 -0.2606  0.9078
23484SOL    HW176288   3.467   3.092   4.486 -0.7241  0.3535  1.1463
23484SOL    HW276289   3.465   3.134   4.341  1.4586 -1.3576  0.5607
23485SOL     OW76290   3.185   4.045   9.643 -0.3910  0.7270  0.1356
23485SOL    HW176291   3.278   4.047   9.663 -0.2076 -0.8414 -0.4203
23485SOL    HW276292   3.142   4.064   9.727  0.4093 -1.4064  1.1023
23486SOL     OW76293   3.072   6.323   1.970  0.0153 -0.1404  0.7833
23486SOL    HW176294   2.997   6.352   1.917  1.3567  2.1079  0.0053
23486SOL    HW276295   3.116   6.258   1.915 -0.2388  0.0153  0.3875
23487SOL     OW76296   1.572   7.359  10.594 -0.0123 -0.0922 -0.2094
23487SOL    HW176297   1.521   7.331  10.670 -1.2882 -0.3918 -1.1540
23487SOL    HW276298   1.589   7.452  10.609  1.3780 -0.5300  1.3202
23488SOL     OW76299   2.893   7.031   6.030  0.2279 -0.0252  0.2020
23488SOL    HW176300   2.925   7.081   5.954  1.8352  1.7919  1.9429
23488SOL    HW276301   2.973   7.008   6.078 -0.7946  0.0598  2.0221
23489SOL     OW76302   6.219   1.597   9.463 -0.1976  0.1732  0.8843
23489SOL    HW176303   6.167   1.634   9.534 -2.7514 -1.1441 -0.1791
23489SOL    HW276304   6.286   1.663   9.445 -1.2218  1.7701  2.6276
23490SOL     OW76305   4.643   4.334   2.429 -0.3410  0.4262  0.2579
23490SOL    HW176306   4.658   4.424   2.458  0.2496  0.9850 -1.6172
23490SOL    HW276307   4.567   4.339   2.372 -1.6715 -0.6882  1.8512
23491SOL     OW76308  10.040   6.172   4.158 -0.0496  0.1489  0.0393
23491SOL    HW176309  10.062   6.222   4.237  3.0854 -1.9315  0.6680
23491SOL    HW276310  10.073   6.227   4.086  1.8434 -0.1636  0.6068
23492SOL     OW76311   4.452   8.646   3.413 -0.2095 -0.3531  0.2561
23492SOL    HW176312   4.409   8.703   3.349  1.7550  0.0822 -0.7625
23492SOL    HW276313   4.481   8.706   3.481  0.3955 -0.3682  0.0143
23493SOL     OW76314   8.935  10.501  10.665 -0.1075 -0.1134 -0.1164
23493SOL    HW176315   8.841  10.504  10.651 -0.0938  0.1716 -0.1591
23493SOL    HW276316   8.948  10.432  10.730 -0.4857  0.8661  1.0222
23494SOL     OW76317   7.772   7.459   6.579 -0.2587  0.1509  0.5603
23494SOL    HW176318   7.682   7.425   6.573  0.5454 -1.9388 -2.1221
23494SOL    HW276319   7.818   7.395   6.634  0.1096 -0.2614 -0.2040
23495SOL     OW76320   7.167   9.713   3.376  0.0719 -0.1435  0.2131
23495SOL    HW176321   7.111   9.695   3.451  2.6717 -1.7354  1.9097
23495SOL    HW276322   7.164   9.809   3.367  0.0566  0.1552  2.6687
23496SOL     OW76323   0.054   2.398   4.840  0.2251  0.8411 -0.4212
23496SOL    HW176324   0.003   2.338   4.785  0.3022  1.9465 -1.7651
23496SOL    HW276325   0.030   2.485   4.809  0.3187  1.5219  1.2951
23497SOL     OW76326   3.266   8.319   6.150  0.0234  0.0042  0.7412
23497SOL    HW176327   3.298   8.237   6.188  0.2676  0.2162  0.9975
23497SOL    HW276328   3.173   8.322   6.174 -0.7846 -1.6337 -1.7775
23498SOL     OW76329   2.065   4.198   4.587 -0.2293  0.6565  0.0740
23498SOL    HW176330   1.981   4.215   4.544 -0.1654  0.4655 -0.1311
23498SOL    HW276331   2.124   4.264   4.552 -0.0024  0.0787 -0.6579
23499SOL     OW76332   6.249   9.945  10.617  0.1633  0.2394  0.2496
23499SOL    HW176333   6.157   9.931  10.598 -0.1195  0.6044  1.2456
23499SOL    HW276334   6.274  10.019  10.562 -0.5532  1.0932  1.0240
23500SOL     OW76335  10.461   7.420   1.661 -0.6615 -0.1998 -0.2144
23500SOL    HW176336  10.509   7.423   1.578 -0.8911  0.0619 -0.3402
23500SOL    HW276337  10.422   7.507   1.669 -0.6204 -0.2170  0.1806
23501SOL     OW76338   3.130   8.157   8.458 -0.2563 -0.3550 -0.4891
23501SOL    HW176339   3.221   8.183   8.472 -0.0222 -1.0332 -0.6967
23501SOL    HW276340   3.136   8.083   8.397 -0.8531 -1.1475  0.3796
23502SOL     OW76341   8.463   2.172   1.122  0.2574  0.4009 -0.1377
23502SOL    HW176342   8.547   2.205   1.088  0.3930 -0.1783 -0.3790
23502SOL    HW276343   8.409   2.250   1.132  0.1943  0.6014 -1.7573
23503SOL     OW76344   1.511   5.205   3.373  0.0446 -0.3564  0.0960
23503SOL    HW176345   1.573   5.197   3.445  1.7164  1.6394 -1.0039
23503SOL    HW276346   1.555   5.163   3.299 -0.4875 -0.0504 -0.3970
23504SOL     OW76347   2.958   8.308   6.178  0.0114 -0.4816 -0.4656
23504SOL    HW176348   2.978   8.370   6.107  2.1712 -1.9269 -1.2516
23504SOL    HW276349   2.939   8.363   6.254 -0.3480  1.1182 -1.6710
23505SOL     OW76350   8.970   4.960   2.327 -0.4840  0.1474  0.0249
23505SOL    HW176351   9.061   4.972   2.299 -0.0930 -2.2545  0.0304
23505SOL    HW276352   8.974   4.890   2.392 -2.0183  2.0197  2.3178
23506SOL     OW76353   8.217   6.902   9.971  0.2556  0.5348 -0.2919
23506SOL    HW176354   8.273   6.900  10.049 -2.4531 -1.3554  1.7859
23506SOL    HW276355   8.263   6.847   9.908  0.3657 -1.8745  1.7259
23507SOL     OW76356   6.493   8.056   0.963  0.1075 -0.5002 -0.3497
23507SOL    HW176357   6.546   8.053   0.883 -0.0564 -1.6446 -0.4245
23507SOL    HW276358   6.404   8.037   0.933 -0.1494  0.1960 -0.0497
23508SOL     OW76359   9.106   4.972   9.314 -0.2043 -0.5586 -0.2009
23508SOL    HW176360   9.157   5.000   9.390  0.1229  1.0837 -0.9815
23508SOL    HW276361   9.110   4.876   9.316 -2.5934 -0.7909  3.4877
23509SOL     OW76362   6.665   1.766   7.807  0.2242  0.1719 -0.0988
23509SOL    HW176363   6.704   1.827   7.744  2.5638  1.1595  2.1545
23509SOL    HW276364   6.739   1.715   7.840 -1.1555 -1.3196  0.8211
23510SOL     OW76365   3.158   3.770   7.674  0.0610  0.4306 -0.1524
23510SOL    HW176366   3.180   3.791   7.583  1.4431  0.4610  0.1646
23510SOL    HW276367   3.199   3.685   7.690 -0.1946  0.4122  0.4244
23511SOL     OW76368   7.169   4.159   0.210  0.3850  0.6363 -0.3094
23511SOL    HW176369   7.077   4.145   0.232  0.6998 -0.7406  0.2740
23511SOL    HW276370   7.213   4.078   0.238  2.0462  1.9177  1.0430
23512SOL     OW76371   3.280  10.163   3.318  0.1149  0.2855  0.6319
23512SOL    HW176372   3.189  10.136   3.335  0.2397  1.1903  3.2228
23512SOL    HW276373   3.302  10.219   3.393  2.7386  0.3003 -0.0777
23513SOL     OW76374   6.510   3.526   1.033  0.1011  0.6601 -0.0212
23513SOL    HW176375   6.452   3.539   1.108  0.0020 -1.1060  0.2601
23513SOL    HW276376   6.470   3.454   0.984  0.7845  1.0180 -1.1535
23514SOL     OW76377   6.188   5.720   6.235  0.1972  0.1351 -0.0022
23514SOL    HW176378   6.257   5.674   6.187 -0.4235  0.0004 -0.7715
23514SOL    HW276379   6.111   5.712   6.180 -0.7646 -0.7539  1.3858
23515SOL     OW76380   8.528   6.467   6.690 -0.5308 -0.7356 -0.6610
23515SOL    HW176381   8.537   6.507   6.604  0.1920  0.2340 -0.1543
23515SOL    HW276382   8.557   6.534   6.752 -1.2872 -1.3078  0.3690
23516SOL     OW76383   9.457   3.737   9.721 -0.0514 -0.1699 -0.1361
23516SOL    HW176384   9.467   3.649   9.757  0.1434 -0.5202 -1.0174
23516SOL    HW276385   9.543   3.757   9.683  0.4126  1.0564  1.4580
23517SOL     OW76386   2.905   2.680   6.790  0.0408 -0.2206  0.4228
23517SOL    HW176387   2.916   2.702   6.883  0.4800 -0.6911  0.4896
23517SOL    HW276388   2.929   2.760   6.744 -2.1682  0.7029  0.7490
23518SOL     OW76389   7.704   9.683   5.474 -0.2384  0.4370 -0.4221
23518SOL    HW176390   7.797   9.661   5.486 -0.4370  0.6317  1.7457
23518SOL    HW276391   7.657   9.608   5.511 -1.0037  0.0082 -2.1373
23519SOL     OW76392   4.001   2.344   2.528 -0.0549  0.2321  0.6000
23519SOL    HW176393   4.090   2.380   2.524 -0.5670  1.5029 -0.3665
23519SOL    HW276394   3.945   2.422   2.526 -1.2357 -0.5900 -1.6935
23520SOL     OW76395   7.580   2.986  10.543 -0.2671 -0.5084  0.5214
23520SOL    HW176396   7.565   2.896  10.513 -2.1054  0.1085 -0.6375
23520SOL    HW276397   7.669   2.986  10.576 -0.0089 -2.6136 -0.0130
23521SOL     OW76398   0.153   7.793   1.606 -0.5557 -0.3786 -0.3495
23521SOL    HW176399   0.124   7.750   1.525 -1.2229 -1.9788  0.7005
23521SOL    HW276400   0.208   7.865   1.576 -1.3060 -0.5410 -2.2523
23522SOL     OW76401   5.609   9.759   3.944 -0.2134 -0.5131 -0.0711
23522SOL    HW176402   5.600   9.839   3.994 -0.4188 -0.6947  0.1862
23522SOL    HW276403   5.527   9.712   3.958 -1.0686  0.2716 -2.0779
23523SOL     OW76404   6.514   9.165   0.819  0.2263 -0.3733 -0.3247
23523SOL    HW176405   6.450   9.229   0.788  0.3657 -0.0249  0.0934
23523SOL    HW276406   6.509   9.170   0.914  1.9669  0.8025 -0.2402
23524SOL     OW76407   8.800   6.920   7.395 -0.5467 -0.1075  0.0443
23524SOL    HW176408   8.758   6.908   7.310  0.9309 -1.5104 -0.5453
23524SOL    HW276409   8.751   6.991   7.437 -2.8916 -1.0684 -0.9204
23525SOL     OW76410   4.100   9.852   0.396 -0.2033  0.3060 -0.2298
23525SOL    HW176411   4.095   9.810   0.310 -1.6144 -0.0647  0.0047
23525SOL    HW276412   4.118   9.780   0.456 -0.3282  0.3887 -0.0924
23526SOL     OW76413   2.155   0.187   1.789  0.5758  0.0575  0.1540
23526SOL    HW176414   2.105   0.182   1.871 -0.0779  0.3738 -0.2160
23526SOL    HW276415   2.090   0.211   1.723  1.3233  1.0932 -0.2405
23527SOL     OW76416   2.852   6.583   5.596 -0.2425 -0.0573 -0.0385
23527SOL    HW176417   2.775   6.613   5.548 -0.7255  0.1418  0.8342
23527SOL    HW276418   2.818   6.523   5.661  0.5730 -1.4708 -0.8700
23528SOL     OW76419   1.309   1.834   9.613 -0.0521  0.8622 -0.2571
23528SOL    HW176420   1.357   1.917   9.619 -0.1513  0.8529  0.9763
23528SOL    HW276421   1.372   1.768   9.641 -0.9437  0.9366  2.1681
23529SOL     OW76422   2.342   8.868   0.651 -0.1010 -0.3069 -0.2166
23529SOL    HW176423   2.356   8.801   0.718 -0.3661 -0.3805 -0.2315
23529SOL    HW276424   2.375   8.948   0.691  0.7793 -0.5524 -0.4295
23530SOL     OW76425   2.839   9.436   7.845 -0.0652  1.0729  0.2638
23530SOL    HW176426   2.762   9.415   7.792 -0.6394  0.1228  1.4488
23530SOL    HW276427   2.894   9.358   7.840  0.8260  1.7202 -0.5273
23531SOL     OW76428   1.280   9.535   9.648  0.3584 -0.1402 -0.0128
23531SOL    HW176429   1.214   9.483   9.602  0.6405  1.3214 -2.2255
23531SOL    HW276430   1.246   9.544   9.737 -1.4567 -1.0248 -0.5733
23532SOL     OW76431   6.558   2.943   4.209 -0.2712 -0.1502  0.0149
23532SOL    HW176432   6.593   2.917   4.124  1.1448  0.2668  0.4409
23532SOL    HW276433   6.552   2.862   4.259 -1.8956 -0.5248 -0.7186
23533SOL     OW76434   3.200   4.694   5.471  0.2926 -0.0520  0.1587
23533SOL    HW176435   3.172   4.744   5.548  0.0973 -0.0144  0.0639
23533SOL    HW276436   3.287   4.728   5.451  0.0753  0.4074 -0.0320
23534SOL     OW76437   1.818   8.032   8.533 -0.9044 -0.3711 -0.5804
23534SOL    HW176438   1.751   8.099   8.549 -0.5108 -0.3910  1.4687
23534SOL    HW276439   1.872   8.033   8.612 -0.5396 -2.7139 -0.7251
23535SOL     OW76440   5.527   6.040   3.974 -0.2257 -0.4629 -0.3518
23535SOL    HW176441   5.500   5.949   3.986 -1.0060  0.0874  3.4078
23535SOL    HW276442   5.623   6.035   3.966 -0.2702 -1.6340 -0.3337
23536SOL     OW76443   1.384   1.165   0.560  0.3680  0.7769  0.0645
23536SOL    HW176444   1.314   1.152   0.624  0.7299  1.7796  0.6954
23536SOL    HW276445   1.446   1.222   0.605  1.0561  0.7850 -0.8786
23537SOL     OW76446  10.320  10.347   5.576 -0.1021  0.0012 -0.1300
23537SOL    HW176447  10.354  10.308   5.496 -1.0540  0.6106 -0.8591
23537SOL    HW276448  10.332  10.441   5.563 -0.1217  0.0946  0.5090
23538SOL     OW76449   0.490   7.562   1.537 -0.2434 -0.1109 -0.8425
23538SOL    HW176450   0.514   7.478   1.575  0.5153 -0.1397 -1.3799
23538SOL    HW276451   0.395   7.557   1.526 -0.3876 -0.3799  0.3508
23539SOL     OW76452   9.666   6.725   8.620 -0.3210 -0.6850 -0.4836
23539SOL    HW176453   9.602   6.683   8.561 -1.3110 -1.4070  1.0399
23539SOL    HW276454   9.741   6.666   8.619 -0.0993 -0.4036 -1.4324
23540SOL     OW76455   7.658   1.003   1.823 -0.1950 -0.0481 -0.1228
23540SOL    HW176456   7.600   1.018   1.748  0.3142 -0.4322 -0.5973
23540SOL    HW276457   7.656   1.085   1.872 -1.9189 -0.3726  0.4119
23541SOL     OW76458   0.076   7.669   2.644 -0.8345 -0.1759  0.1800
23541SOL    HW176459   0.042   7.718   2.569  0.8121 -0.1670 -0.6136
23541SOL    HW276460   0.072   7.577   2.616  1.9068 -0.0446 -0.9305
23542SOL     OW76461   3.398   4.389   9.199  0.1096  0.3133  0.0697
23542SOL    HW176462   3.431   4.350   9.280 -1.1812 -0.7794  0.1027
23542SOL    HW276463   3.358   4.472   9.227 -0.8180 -0.3139  0.6510
23543SOL     OW76464   1.331  10.548   4.876  0.4511  0.0906 -0.6250
23543SOL    HW176465   1.242  10.529   4.906  0.3078  0.3271 -0.8873
23543SOL    HW276466   1.363  10.615   4.937  0.4271  0.0428 -0.5609
23544SOL     OW76467   6.298   4.817   3.434 -0.2003  0.3561  0.1323
23544SOL    HW176468   6.369   4.877   3.413  0.1046  0.0377  0.2564
23544SOL    HW276469   6.308   4.745   3.372 -0.5737  0.4337 -0.0254
23545SOL     OW76470   4.100   3.350   4.089  0.6132  0.5509  0.2071
23545SOL    HW176471   4.104   3.431   4.038  0.4064  0.4659  0.0546
23545SOL    HW276472   4.179   3.302   4.064 -0.4754 -0.3976 -1.5678
23546SOL     OW76473   0.334   6.032  10.413 -0.3427 -0.0135 -0.1990
23546SOL    HW176474   0.334   5.979  10.333  0.5469 -2.3388  1.2521
23546SOL    HW276475   0.292   6.114  10.387  0.8194 -0.2617 -3.2965
23547SOL     OW76476   3.118   4.231   8.537 -0.3673 -0.2205  0.2599
23547SOL    HW176477   3.191   4.230   8.599  0.8368  1.4179 -1.0303
23547SOL    HW276478   3.071   4.312   8.557 -0.4019 -0.0552 -0.4531
23548SOL     OW76479   0.332   0.899   3.160 -0.2800 -0.1620 -0.3694
23548SOL    HW176480   0.258   0.853   3.200  0.1788 -0.8602 -0.3109
23548SOL    HW276481   0.404   0.885   3.220 -0.1176  0.6022 -0.3803
23549SOL     OW76482   4.482   8.663   8.575 -0.5423 -0.5144  0.1842
23549SOL    HW176483   4.486   8.583   8.628 -1.8652 -1.1279 -0.5784
23549SOL    HW276484   4.472   8.733   8.639  0.8279 -0.9246  0.8754
23550SOL     OW76485   1.407   3.142   8.477  0.2309 -0.1608  0.2013
23550SOL    HW176486   1.476   3.179   8.531 -0.9227  0.4674  1.2955
23550SOL    HW276487   1.330   3.197   8.495 -0.2655 -0.0618 -1.8986
23551SOL     OW76488   5.671   0.271   5.673  0.4688 -0.3922 -0.0467
23551SOL    HW176489   5.606   0.273   5.602  0.4395 -1.2056 -0.0514
23551SOL    HW276490   5.745   0.223   5.636  1.7608  1.8633 -0.5893
23552SOL     OW76491   9.014   9.249  10.595 -0.0325  0.2859  0.0195
23552SOL    HW176492   9.006   9.218  10.505  0.4145 -1.1877  0.4539
23552SOL    HW276493   8.940   9.208  10.641  1.5034 -1.5543  0.9613
23553SOL     OW76494   5.012   5.847   5.500  0.6225 -0.1609 -0.1379
23553SOL    HW176495   4.919   5.853   5.524  0.5205  0.6114 -0.6792
23553SOL    HW276496   5.045   5.773   5.550 -0.1648 -0.1086  0.4829
23554SOL     OW76497   3.244   2.985   8.139 -0.4852 -0.0008 -0.2466
23554SOL    HW176498   3.290   2.932   8.074  0.6891  1.3911 -0.5920
23554SOL    HW276499   3.205   2.921   8.198  1.6874 -1.2710 -0.0803
23555SOL     OW76500   4.998   3.895   4.901 -0.4422  0.3471 -0.1943
23555SOL    HW176501   4.961   3.807   4.901 -0.4392  0.3031 -2.3521
23555SOL    HW276502   4.944   3.943   4.965 -0.7913 -1.0474  0.6041
23556SOL     OW76503   7.963  10.356   3.436  0.2027  0.6483 -0.0655
23556SOL    HW176504   7.909  10.435   3.440 -0.8624 -0.0366 -0.5470
23556SOL    HW276505   7.977  10.333   3.528  1.8824  2.2602  0.1444
23557SOL     OW76506   7.570   5.909   5.275 -0.1336  0.0048 -0.3926
23557SOL    HW176507   7.660   5.878   5.260 -0.5614 -1.0823 -0.8352
23557SOL    HW276508   7.556   5.898   5.369  0.2634  0.3820 -0.2858
23558SOL     OW76509   4.926   0.067   9.749  0.0523 -0.2999  0.0306
23558SOL    HW176510   4.860   0.135   9.730 -2.0438 -2.0375  0.6578
23558SOL    HW276511   4.986   0.108   9.810 -0.7182  1.2273 -0.1860
23559SOL     OW76512   8.152   9.195   5.655  0.1148 -0.5559  0.4610
23559SOL    HW176513   8.143   9.204   5.560 -0.8167 -0.8405  0.5088
23559SOL    HW276514   8.195   9.275   5.684  0.7021 -0.6109 -0.2379
23560SOL     OW76515  10.275   9.191   5.492 -0.3998 -0.3337  0.5875
23560SOL    HW176516  10.205   9.195   5.557  1.9207  0.5281  3.2122
23560SOL    HW276517  10.277   9.278   5.452 -0.2924 -0.1041  1.0946
23561SOL     OW76518   1.214   6.078   3.861 -0.2692  0.4797  0.2549
23561SOL    HW176519   1.123   6.085   3.833 -0.5508 -1.1283  0.6813
23561SOL    HW276520   1.209   6.039   3.948  0.8362  0.2664  0.2334
23562SOL     OW76521   6.497   1.395   1.698  0.1902 -0.3626  0.4577
23562SOL    HW176522   6.555   1.466   1.726 -1.0210 -0.0172  2.2913
23562SOL    HW276523   6.414   1.439   1.678 -0.1236 -1.0920  0.1451
23563SOL     OW76524   1.536   2.201   3.538  0.7451  0.2521  0.5921
23563SOL    HW176525   1.550   2.125   3.481  0.7304 -1.1501  2.3726
23563SOL    HW276526   1.608   2.197   3.601 -0.8149  0.0635  2.4316
23564SOL     OW76527  10.665   0.387   2.047  0.3222 -0.2780  0.3863
23564SOL    HW176528  10.679   0.299   2.080 -0.8626 -0.1455  1.2906
23564SOL    HW276529  10.729   0.396   1.976  2.7465 -0.6821  2.3695
23565SOL     OW76530  10.685  10.098   3.301 -0.3930 -0.2460  0.1074
23565SOL    HW176531  10.591  10.084   3.311 -0.6039  0.6528 -0.4872
23565SOL    HW276532  10.723  10.010   3.304 -1.2617 -0.6292  0.1873
23566SOL     OW76533   4.291   5.174   9.590  0.2166  0.4820  0.2937
23566SOL    HW176534   4.233   5.099   9.579 -1.5298  1.5586  1.6414
23566SOL    HW276535   4.295   5.214   9.503  0.3681 -0.5882 -0.2083
23567SOL     OW76536   6.283   4.158   0.621  0.4509  0.1592 -0.0073
23567SOL    HW176537   6.353   4.097   0.598  2.4228  1.3996  2.1533
23567SOL    HW276538   6.217   4.104   0.664  1.9382 -0.6243  1.4332
23568SOL     OW76539   9.922   0.402   4.662 -0.1214 -0.4052  0.8333
23568SOL    HW176540   9.995   0.457   4.690  0.2858  0.4665 -1.6574
23568SOL    HW276541   9.881   0.373   4.743  0.6446  2.2577  2.2894
23569SOL     OW76542   7.599   6.487   8.048 -0.7536  0.0051 -0.1289
23569SOL    HW176543   7.561   6.443   8.124  0.6571  1.7516  1.6901
23569SOL    HW276544   7.607   6.578   8.075  0.6249  0.5166 -2.0670
23570SOL     OW76545   2.717  10.443   6.488 -0.3657 -0.0924 -0.1637
23570SOL    HW176546   2.695  10.520   6.436 -0.0189  0.0356 -0.1225
23570SOL    HW276547   2.752  10.478   6.570 -0.3651 -0.2926 -0.0773
23571SOL     OW76548   2.857   8.485   0.278 -0.9847  0.0729  0.1447
23571SOL    HW176549   2.804   8.413   0.311 -0.5636  0.1271  0.9765
23571SOL    HW276550   2.931   8.442   0.235 -1.1159 -0.0007 -0.0039
23572SOL     OW76551   7.305   3.399  10.362 -0.4758 -0.4453  0.4408
23572SOL    HW176552   7.307   3.348  10.443 -1.2781  1.0041  1.4381
23572SOL    HW276553   7.391   3.386  10.323  0.7792  0.5452  2.6665
23573SOL     OW76554   9.050  10.091   6.137  0.1714 -0.4777 -0.1586
23573SOL    HW176555   9.100  10.075   6.217 -0.1599  0.8572  0.3441
23573SOL    HW276556   9.091  10.168   6.098 -0.2629 -0.5501 -0.7744
23574SOL     OW76557   2.443   9.759  10.277  0.3460  0.2090 -0.0625
23574SOL    HW176558   2.425   9.672  10.313  2.6495 -0.4541 -0.3255
23574SOL    HW276559   2.409   9.756  10.188  0.1143 -0.3099  0.0391
23575SOL     OW76560   9.541   1.262   5.922 -0.0802  0.2253 -0.2298
23575SOL    HW176561   9.605   1.192   5.931  0.1961  0.5758  0.6293
23575SOL    HW276562   9.586   1.340   5.956  0.0502  1.0911 -2.2583
23576SOL     OW76563   3.822   8.017   4.732  0.3887  0.1195 -0.1475
23576SOL    HW176564   3.851   7.943   4.678  1.4953 -1.2891  2.2400
23576SOL    HW276565   3.727   8.019   4.721  0.4628 -0.8396 -1.2158
23577SOL     OW76566   6.312   2.448   4.522  0.5633 -0.0045  0.2588
23577SOL    HW176567   6.338   2.535   4.554  1.8421  0.4339 -1.8357
23577SOL    HW276568   6.290   2.461   4.430  0.5206 -1.8785 -0.0387
23578SOL     OW76569   1.768   3.426   6.448  0.0302 -0.6543  0.3208
23578SOL    HW176570   1.745   3.414   6.356  1.7141  0.5098 -0.3207
23578SOL    HW276571   1.791   3.339   6.480 -0.7162 -1.0880 -0.3060
23579SOL     OW76572  10.098   4.088   7.150  0.2557  0.3147 -0.4978
23579SOL    HW176573  10.060   4.122   7.069 -2.5643  0.8920  0.9363
23579SOL    HW276574  10.126   4.165   7.199 -4.3766  0.8800  1.9022
23580SOL     OW76575   2.814   0.562   7.205  0.1421 -0.2529  0.1526
23580SOL    HW176576   2.856   0.639   7.244  0.6274 -0.1177 -0.6252
23580SOL    HW276577   2.739   0.545   7.263 -1.8184  2.6270 -1.2511
23581SOL     OW76578   6.465   4.562   0.457 -0.2910 -0.0041  0.2098
23581SOL    HW176579   6.455   4.655   0.473  1.6484 -0.0835  2.3546
23581SOL    HW276580   6.432   4.520   0.536  2.3022 -0.8842  0.9074
23582SOL     OW76581   5.766   7.024   2.227 -0.1566  0.6461  0.3129
23582SOL    HW176582   5.722   6.949   2.188 -1.6176  0.5681  2.0321
23582SOL    HW276583   5.775   7.086   2.154 -3.0731  0.6302 -0.1940
23583SOL     OW76584   3.413  10.099   1.216 -0.0060  0.2309 -0.0346
23583SOL    HW176585   3.477  10.075   1.283 -0.1473 -0.7740 -0.2499
23583SOL    HW276586   3.466  10.114   1.137 -0.1123 -1.8122 -0.5370
23584SOL     OW76587   3.463  10.182   7.013 -0.4559  0.0993  0.2141
23584SOL    HW176588   3.403  10.245   7.054 -0.1553 -0.1025  0.9691
23584SOL    HW276589   3.469  10.211   6.922  1.1107  2.2760  0.9338
23585SOL     OW76590   3.807   3.799  10.003  0.2607 -0.1926  0.5485
23585SOL    HW176591   3.861   3.876   9.988 -0.0926  0.1327  0.9178
23585SOL    HW276592   3.717   3.830   9.990  0.1889 -0.9498 -1.0415
23586SOL     OW76593   6.059   3.251   3.018 -0.4378  0.1756  0.3581
23586SOL    HW176594   6.025   3.163   3.032 -0.5675  0.0332 -0.7891
23586SOL    HW276595   6.065   3.288   3.106 -0.6284 -0.8796  0.8317
23587SOL     OW76596   3.286  10.163   9.216  0.3352 -0.7507  0.2770
23587SOL    HW176597   3.270  10.206   9.131  2.0362  1.5089  1.0113
23587SOL    HW276598   3.199  10.136   9.245 -0.3463 -1.2374 -1.9770
23588SOL     OW76599   7.080  10.489   9.349 -0.3809  0.0444  0.4292
23588SOL    HW176600   7.138  10.500   9.424  0.8671  2.1598 -0.7408
23588SOL    HW276601   7.138  10.496   9.272 -1.7300 -1.1312 -0.7572
23589SOL     OW76602   5.632   3.818   6.312  0.2721 -0.7771  0.3136
23589SOL    HW176603   5.672   3.770   6.384 -1.7173 -0.9861  1.3347
23589SOL    HW276604   5.541   3.787   6.309 -0.7261  1.9080  0.1513
23590SOL     OW76605   9.839   4.718   6.469  0.1939  0.1583  0.4551
23590SOL    HW176606   9.825   4.670   6.551  1.3731 -2.8422 -0.9683
23590SOL    HW276607   9.751   4.730   6.433 -0.1247 -1.6186  0.5555
23591SOL     OW76608   1.024   7.942   1.884 -0.1318  0.4362 -0.3070
23591SOL    HW176609   0.957   8.008   1.863 -0.0376  1.4335  2.1461
23591SOL    HW276610   0.984   7.890   1.954  0.4894 -0.9941 -0.9938
23592SOL     OW76611   3.452   1.000   0.742 -0.2617  0.4853 -0.2840
23592SOL    HW176612   3.387   0.931   0.728 -1.4793  1.0829  1.9257
23592SOL    HW276613   3.401   1.080   0.751  0.6935  0.9430  1.6645
23593SOL     OW76614   4.220   0.220   4.020  0.0178 -0.7782 -0.1475
23593SOL    HW176615   4.137   0.174   4.006 -0.4540  0.0999 -0.3554
23593SOL    HW276616   4.270   0.163   4.078  0.3903 -2.6466 -2.1888
23594SOL     OW76617   5.991   5.109   7.345 -0.0019  0.3841 -0.1434
23594SOL    HW176618   6.014   5.027   7.388  1.0700  1.0997  0.7096
23594SOL    HW276619   6.074   5.154   7.332 -0.4356  0.7576 -1.8480
23595SOL     OW76620   3.201   9.780   4.014  0.2934 -0.1372 -0.6609
23595SOL    HW176621   3.287   9.749   4.041 -0.2760 -0.0263  1.4193
23595SOL    HW276622   3.147   9.700   4.012 -0.1961  0.1437  0.7261
23596SOL     OW76623   7.791   3.667   6.488  0.3686 -0.2166 -0.4083
23596SOL    HW176624   7.841   3.613   6.428 -0.2837 -0.7046 -0.5280
23596SOL    HW276625   7.744   3.604   6.543  0.0113  0.2290 -0.1972
23597SOL     OW76626   2.869   4.070   8.565  0.0567 -0.0647 -0.1982
23597SOL    HW176627   2.833   4.085   8.652 -1.2790  0.3608 -0.8019
23597SOL    HW276628   2.951   4.120   8.564 -1.4818  2.6234 -0.2309
23598SOL     OW76629   1.378   1.742   8.961  0.3944  0.7846  0.1010
23598SOL    HW176630   1.302   1.762   8.907 -0.0410 -0.1646  0.3507
23598SOL    HW276631   1.419   1.667   8.918  0.5389  0.5749  0.5983
23599SOL     OW76632   8.910   5.030   3.060  0.3195  0.7742 -0.1193
23599SOL    HW176633   8.866   4.993   2.983  0.4222  0.5760 -0.0849
23599SOL    HW276634   8.947   5.112   3.029 -0.3635  1.1162 -0.0626
23600SOL     OW76635   4.080   2.051   6.011  0.0681 -0.2206  0.3743
23600SOL    HW176636   4.099   2.144   5.996  0.6752 -0.4077 -0.0490
23600SOL    HW276637   4.025   2.051   6.089  0.6596  0.4481  0.8100
23601SOL     OW76638   4.229   4.976   8.489 -0.4739  0.1649 -0.2597
23601SOL    HW176639   4.260   4.959   8.400 -1.3816 -1.3260 -0.3203
23601SOL    HW276640   4.133   4.973   8.482 -0.5471 -1.1003  0.9559
23602SOL     OW76641   2.162   1.271   0.038 -0.4544 -0.4205  0.1180
23602SOL    HW176642   2.138   1.358   0.069 -0.6167 -0.4930  0.1978
23602SOL    HW276643   2.099   1.251  -0.031 -0.5010 -0.5275  0.1900
23603SOL     OW76644   9.700   3.804   2.112  0.6870 -0.3762 -0.3476
23603SOL    HW176645   9.650   3.741   2.059 -0.8529 -1.6289  2.3763
23603SOL    HW276646   9.639   3.876   2.128  0.5198 -0.8147  1.0768
23604SOL     OW76647   8.476   5.312  10.286 -0.0444  0.1908  0.8820
23604SOL    HW176648   8.436   5.387  10.331 -1.8008 -0.0724 -0.1399
23604SOL    HW276649   8.424   5.237  10.316  0.3029 -0.3076  0.2445
23605SOL     OW76650   9.076   7.660   3.452  0.2594  0.1337  0.1792
23605SOL    HW176651   9.061   7.652   3.357  4.1685  0.4961 -0.6593
23605SOL    HW276652   9.060   7.573   3.487 -3.0489  0.3979 -0.3748
23606SOL     OW76653   0.727   9.381   2.564 -0.4689  0.8653 -0.1678
23606SOL    HW176654   0.643   9.386   2.610  0.3253  1.7627  1.2472
23606SOL    HW276655   0.757   9.292   2.578 -0.9859  0.6622 -0.3267
23607SOL     OW76656   3.925   0.611   0.448  0.4237  0.5183  0.1044
23607SOL    HW176657   3.907   0.677   0.382  0.3565  1.5954  1.1739
23607SOL    HW276658   3.841   0.597   0.492  0.2385 -0.9022 -0.6495
23608SOL     OW76659   4.727  10.196   0.114 -0.2092  0.1496 -0.1085
23608SOL    HW176660   4.737  10.117   0.062  0.8493  1.1267 -1.4658
23608SOL    HW276661   4.683  10.167   0.194 -1.8761 -1.4201 -1.4922
23609SOL     OW76662   4.803   7.828   0.471  0.1822 -0.3741  0.0968
23609SOL    HW176663   4.832   7.782   0.391  1.5631  0.7302 -0.0828
23609SOL    HW276664   4.708   7.832   0.463  0.3217  0.2667 -1.8223
23610SOL     OW76665   2.448  10.639  10.100 -0.2518 -0.0449 -0.1200
23610SOL    HW176666   2.541  10.665  10.103 -0.3577  0.5435 -1.2109
23610SOL    HW276667   2.420  10.640  10.192  0.8977 -0.5370  0.2592
23611SOL     OW76668   8.096   5.335   7.179  0.1680 -0.5506  0.0538
23611SOL    HW176669   8.187   5.315   7.157  0.0257 -1.2145  0.0406
23611SOL    HW276670   8.092   5.330   7.274  0.3018  0.1958  0.1047
23612SOL     OW76671  10.523   9.455   3.382  0.1958  0.3395  0.8474
23612SOL    HW176672  10.541   9.406   3.463  2.8099 -1.4250 -0.6793
23612SOL    HW276673  10.514   9.388   3.315  3.5826  1.7867 -1.3013
23613SOL     OW76674   7.357   0.434   6.615 -0.3651 -0.1343  0.3581
23613SOL    HW176675   7.426   0.466   6.557 -0.2445 -0.4849  0.3074
23613SOL    HW276676   7.280   0.428   6.558 -0.4360  0.2408  0.4108
23614SOL     OW76677   3.033   6.776   0.514  0.2799 -0.3378 -0.0629
23614SOL    HW176678   3.096   6.706   0.499 -0.7188 -0.9165 -1.7885
23614SOL    HW276679   2.950   6.742   0.479 -0.8594  0.6711  1.4913
23615SOL     OW76680  10.694   8.228   9.260 -0.7879 -0.2330 -0.2453
23615SOL    HW176681  10.616   8.177   9.239 -2.2791  1.9072 -0.3485
23615SOL    HW276682  10.671   8.318   9.234  1.6865  0.5027 -0.1511
23616SOL     OW76683  10.486   1.961   4.616  0.1273 -0.2521  0.5084
23616SOL    HW176684  10.574   1.924   4.622 -0.0116 -1.2225 -2.1784
23616SOL    HW276685  10.432   1.890   4.582 -0.8310  1.3865 -1.6586
23617SOL     OW76686   6.155   1.578   7.012  0.2346 -0.0448  0.0872
23617SOL    HW176687   6.215   1.647   7.041 -0.0786  0.7754 -1.1251
23617SOL    HW276688   6.209   1.499   7.009  1.4352  0.7677 -1.4480
23618SOL     OW76689   6.065   2.744   7.096  0.2965 -0.1358 -0.4714
23618SOL    HW176690   6.044   2.653   7.073  0.7428 -0.0990 -1.0696
23618SOL    HW276691   6.159   2.744   7.111  0.2180  0.1293  0.0443
23619SOL     OW76692   9.037   2.953   4.821 -0.1410 -0.2431 -0.0703
23619SOL    HW176693   9.007   3.010   4.750  0.9602  1.4921  0.7793
23619SOL    HW276694   9.123   2.989   4.845  0.1462 -1.6837  1.1792
23620SOL     OW76695   6.999   9.163   4.361  0.4825 -0.3528  0.3620
23620SOL    HW176696   6.938   9.171   4.435  0.9482  1.6145  0.5913
23620SOL    HW276697   7.082   9.136   4.402  0.4356 -0.4715  0.3813
23621SOL     OW76698   7.897   2.789   2.407  0.3280 -0.2161 -0.2007
23621SOL    HW176699   7.942   2.737   2.340  0.1523 -0.8914  0.1982
23621SOL    HW276700   7.944   2.872   2.408  1.8983 -1.0831  0.5593
23622SOL     OW76701   2.009   1.302  10.251 -0.2023 -1.3715 -0.6613
23622SOL    HW176702   2.102   1.286  10.267 -0.3111 -1.4813 -0.1366
23622SOL    HW276703   1.966   1.222  10.279 -0.5683 -0.8725  0.2176
23623SOL     OW76704   0.590   0.388   0.963  0.4877  0.0952 -0.8255
23623SOL    HW176705   0.583   0.399   1.058 -2.7716  3.2866 -1.2303
23623SOL    HW276706   0.561   0.298   0.948 -0.6946  0.0776  1.1394
23624SOL     OW76707   5.298  10.367   6.647 -0.7289 -0.1015  0.6045
23624SOL    HW176708   5.391  10.342   6.643 -0.6366  0.2348  0.6387
23624SOL    HW276709   5.298  10.452   6.690 -1.1602 -0.6929  1.8128
23625SOL     OW76710   7.463   9.620   7.816 -0.3459  0.3330 -0.2090
23625SOL    HW176711   7.422   9.706   7.811 -2.4015 -0.3920  2.1999
23625SOL    HW276712   7.529   9.629   7.885  0.2115  0.2131 -0.7094
23626SOL     OW76713   2.057   1.912  10.459 -0.2617 -0.4009  0.0059
23626SOL    HW176714   2.009   1.830  10.465  0.3879 -0.6948  1.9492
23626SOL    HW276715   2.002   1.976  10.503  0.7977 -0.6202  1.7451
23627SOL     OW76716   6.343  10.650   2.634 -0.2419 -0.3532 -0.2227
23627SOL    HW176717   6.435  10.670   2.614  0.2769 -1.7247  0.6508
23627SOL    HW276718   6.343  10.556   2.653 -1.9142 -0.4533 -0.6118
23628SOL     OW76719  10.545   1.552   7.573 -0.5867  0.2932  0.1153
23628SOL    HW176720  10.628   1.597   7.587 -0.9471  0.9177  0.2867
23628SOL    HW276721  10.563   1.490   7.503  0.7655 -1.5902  2.0299
23629SOL     OW76722   8.405   7.364   1.794 -0.2734  0.1644 -0.2244
23629SOL    HW176723   8.312   7.355   1.817 -0.3404 -0.6635 -0.7410
23629SOL    HW276724   8.444   7.410   1.867 -0.6766 -1.4103  1.0321
23630SOL     OW76725   8.885  10.353   5.981  0.3112  0.4150 -0.5573
23630SOL    HW176726   8.934  10.274   5.957 -0.0610  0.3822 -1.2487
23630SOL    HW276727   8.793  10.328   5.972  0.1787  0.7474 -0.1680
23631SOL     OW76728   7.663   9.545   3.585 -0.0109  0.8065  0.0030
23631SOL    HW176729   7.649   9.483   3.657 -0.8129  1.1179  0.1152
23631SOL    HW276730   7.580   9.547   3.538  1.0273 -0.8391 -2.1022
23632SOL     OW76731   0.304   2.793   9.604  0.7663  0.1549 -0.1926
23632SOL    HW176732   0.370   2.752   9.659  0.7139  2.1221  1.4248
23632SOL    HW276733   0.221   2.762   9.640  0.7311 -0.9045 -1.1086
23633SOL     OW76734   4.561   6.524   9.285 -0.2075  0.1875  0.1138
23633SOL    HW176735   4.608   6.599   9.249 -0.7278  0.5174  0.1220
23633SOL    HW276736   4.582   6.452   9.225  0.8892  0.1516  0.5181
23634SOL     OW76737   6.377   7.503   9.656  0.3366  0.1302  0.3512
23634SOL    HW176738   6.283   7.485   9.649  0.6180 -2.2652  1.5070
23634SOL    HW276739   6.385   7.559   9.733 -0.1826  0.9405 -0.1702
23635SOL     OW76740   3.896   9.729   6.922  0.1436 -0.0368 -0.0820
23635SOL    HW176741   3.945   9.807   6.947  1.2902 -0.5410 -0.6468
23635SOL    HW276742   3.929   9.661   6.981  0.5928 -0.5198 -0.8760
23636SOL     OW76743   1.850   3.215  10.542  0.2284  0.0130 -0.0751
23636SOL    HW176744   1.837   3.156  10.468  0.7887 -0.4357  0.1840
23636SOL    HW276745   1.881   3.297  10.503  3.5227 -1.1347 -0.1523
23637SOL     OW76746   3.559   1.304   9.370 -0.3256 -0.2893 -0.2548
23637SOL    HW176747   3.531   1.393   9.393  0.0407 -0.0563 -0.6984
23637SOL    HW276748   3.504   1.247   9.424  0.1971  0.2303  0.8459
23638SOL     OW76749  10.492   4.059  10.124 -0.3827  0.2737 -0.2906
23638SOL    HW176750  10.457   4.002  10.192  1.5497 -1.0301 -0.3260
23638SOL    HW276751  10.449   4.143  10.139 -2.0723 -0.7424  0.7802
23639SOL     OW76752   2.623   9.178   3.320  0.2952  0.3736 -0.4432
23639SOL    HW176753   2.718   9.170   3.314  0.6774  2.9427  0.7327
23639SOL    HW276754   2.602   9.256   3.268 -1.4492 -1.0800 -2.0854
23640SOL     OW76755   6.345   3.740   4.626  0.2655  0.5823  0.2022
23640SOL    HW176756   6.354   3.721   4.532 -0.3665  4.3868 -0.7995
23640SOL    HW276757   6.267   3.795   4.631 -0.1141 -0.0696  3.1397
23641SOL     OW76758   5.641  10.079   1.767  0.0191 -0.1795 -0.1286
23641SOL    HW176759   5.611  10.003   1.816 -0.3642 -0.6127 -1.0110
23641SOL    HW276760   5.729  10.055   1.737  0.4966  0.3204  0.8204
23642SOL     OW76761   4.145   3.960   3.125  0.2910  0.4778 -0.2370
23642SOL    HW176762   4.093   3.889   3.164  1.0292  0.8118  1.4733
23642SOL    HW276763   4.177   3.924   3.042 -0.8669 -0.5023 -0.2815
23643SOL     OW76764   0.180  10.423   6.915 -0.1076  0.0346  0.4148
23643SOL    HW176765   0.262  10.376   6.931 -0.1694  0.1507  1.0864
23643SOL    HW276766   0.207  10.509   6.884  0.0109 -0.2270 -0.2363
23644SOL     OW76767   4.796   0.566   4.129 -0.5747 -0.4480 -0.6340
23644SOL    HW176768   4.870   0.558   4.190  0.5780  0.5334 -1.8424
23644SOL    HW276769   4.742   0.490   4.149  0.2764 -0.7096  0.9158
23645SOL     OW76770   9.821   6.775   2.891  0.1269  0.3177 -0.7457
23645SOL    HW176771   9.755   6.725   2.939  1.4599 -0.2729  0.5318
23645SOL    HW276772   9.774   6.809   2.815 -1.5093 -0.5319 -0.1652
23646SOL     OW76773   5.486   0.914   8.746 -0.5003 -0.5575  0.1082
23646SOL    HW176774   5.535   0.883   8.670 -1.7332 -0.1208 -0.8948
23646SOL    HW276775   5.553   0.930   8.813  0.6503 -0.5997 -0.9971
23647SOL     OW76776   1.594   4.993  10.477 -0.2028  0.0835  0.0192
23647SOL    HW176777   1.560   4.913  10.438 -1.2770  0.6724 -0.2947
23647SOL    HW276778   1.580   4.982  10.571 -0.2552 -0.1481 -0.0159
23648SOL     OW76779   0.142   7.473  10.532  0.1006  0.7998 -0.4892
23648SOL    HW176780   0.056   7.466  10.490 -0.0079 -1.0606 -0.0486
23648SOL    HW276781   0.123   7.485  10.625  0.3397  2.3555 -0.6236
23649SOL     OW76782   6.947   6.979   5.016  0.4238  0.1682 -0.2235
23649SOL    HW176783   6.886   6.923   5.064 -0.4007 -0.5676 -2.0536
23649SOL    HW276784   7.018   6.920   4.991 -0.1313  0.0548 -1.6025
23650SOL     OW76785   6.850   6.739   5.367 -0.1109  0.1257 -0.3908
23650SOL    HW176786   6.784   6.716   5.301 -0.5691  0.4767 -0.0629
23650SOL    HW276787   6.827   6.828   5.393 -0.3615 -0.2484  0.7382
23651SOL     OW76788   2.691   8.073   5.767  0.1914  0.2003  1.2532
23651SOL    HW176789   2.753   8.139   5.799 -0.6967  0.8074  1.7745
23651SOL    HW276790   2.633   8.056   5.842 -0.7384  0.2079  0.5592
23652SOL     OW76791   9.814   8.645   2.381  0.2434 -0.0497 -0.3331
23652SOL    HW176792   9.814   8.720   2.440  1.5578 -0.7928  0.6598
23652SOL    HW276793   9.850   8.679   2.299 -1.3777  0.9318 -0.6703
23653SOL     OW76794   3.674   2.980   2.076 -0.4320  0.6960  0.7132
23653SOL    HW176795   3.592   2.968   2.124 -1.2124  0.0504 -0.7141
23653SOL    HW276796   3.648   2.981   1.984  0.9495  2.4306  0.2832
23654SOL     OW76797   8.209   6.909   8.807 -0.4507 -0.0277 -0.3288
23654SOL    HW176798   8.264   6.987   8.802  0.7859 -0.8776 -0.4362
23654SOL    HW276799   8.253   6.852   8.870 -1.2860 -0.6897 -0.3177
23655SOL     OW76800  10.427   4.778   5.411 -0.7316  0.5319  0.1791
23655SOL    HW176801  10.480   4.728   5.349 -1.1022  0.1123  0.1959
23655SOL    HW276802  10.491   4.820   5.470 -0.4016  0.4938 -0.1495
23656SOL     OW76803   3.830   0.062   1.042 -0.2960 -0.4268 -0.5953
23656SOL    HW176804   3.813   0.156   1.034  1.5842  0.0137 -0.0283
23656SOL    HW276805   3.760   0.021   0.992 -2.1233  1.1807  0.4760
23657SOL     OW76806   0.924   3.697   8.440 -0.1754  0.5158  0.2824
23657SOL    HW176807   0.953   3.608   8.460  0.9597  1.1333  1.5356
23657SOL    HW276808   0.866   3.687   8.364  0.9030 -1.1314 -0.3789
23658SOL     OW76809   2.553   1.409   7.464 -0.0407 -0.3892  0.1205
23658SOL    HW176810   2.582   1.361   7.386 -0.8262 -0.2914 -0.2406
23658SOL    HW276811   2.553   1.343   7.534 -1.8364 -1.1463 -0.5250
23659SOL     OW76812   9.481   2.144   9.341 -0.0823  0.5276 -0.5209
23659SOL    HW176813   9.405   2.087   9.329  0.7717 -0.5616 -0.9316
23659SOL    HW276814   9.550   2.104   9.288  0.8049  1.4392 -0.0929
23660SOL     OW76815   9.676   2.933   7.078  0.2673 -0.6432  0.2972
23660SOL    HW176816   9.758   2.978   7.058 -0.5197  0.6340 -0.2070
23660SOL    HW276817   9.700   2.840   7.085  1.8397 -0.2210  0.7851
23661SOL     OW76818   9.708   5.486   4.034  0.3596  0.5474  0.3735
23661SOL    HW176819   9.783   5.518   4.084  0.8474  0.4641 -0.2925
23661SOL    HW276820   9.740   5.407   3.991 -0.1049  0.5231  0.0677
23662SOL     OW76821   5.976   6.089   3.101  0.5450 -0.3877 -0.3490
23662SOL    HW176822   5.898   6.099   3.156  0.6958 -1.0287 -0.0220
23662SOL    HW276823   6.048   6.120   3.156  0.8972 -2.3617  0.3567
23663SOL     OW76824   8.892   7.055   8.786  0.7884 -0.1313  0.0460
23663SOL    HW176825   8.953   6.996   8.831  0.6535 -1.2478 -1.1797
23663SOL    HW276826   8.808   7.042   8.831  0.7952 -0.7701 -0.1224
23664SOL     OW76827   5.825   9.814   2.713  0.5940  0.0955 -0.0283
23664SOL    HW176828   5.756   9.862   2.667  1.6315 -1.1483 -3.1929
23664SOL    HW276829   5.906   9.860   2.690  1.2722 -1.2611 -0.4898
23665SOL     OW76830  10.362   3.240   3.816 -0.0350  0.1331  0.1521
23665SOL    HW176831  10.362   3.328   3.778 -0.5554  0.8968  1.8389
23665SOL    HW276832  10.299   3.191   3.762 -2.7870  1.9137  1.5204
23666SOL     OW76833   4.921   2.276   1.187  0.4845  0.2080 -0.4342
23666SOL    HW176834   4.959   2.344   1.242  0.5812  1.0427 -1.4843
23666SOL    HW276835   4.973   2.279   1.106  0.1907 -0.8003 -0.6806
23667SOL     OW76836   8.553   3.937   0.340  0.3201 -0.0070  0.6545
23667SOL    HW176837   8.588   3.850   0.324  1.5741  0.6047 -0.1279
23667SOL    HW276838   8.500   3.927   0.419  0.4220 -1.4717  0.5677
23668SOL     OW76839   4.157   2.330   5.930 -0.0672  0.1077 -0.5029
23668SOL    HW176840   4.233   2.283   5.896  0.9687  0.5136  1.1702
23668SOL    HW276841   4.179   2.422   5.920 -1.2587  0.2906 -1.9230
23669SOL     OW76842   8.372   9.008   1.341 -0.2318  0.1012  0.1343
23669SOL    HW176843   8.442   9.058   1.298 -0.0402  0.8226  1.2276
23669SOL    HW276844   8.291   9.041   1.303 -0.0302  0.1379 -0.2638
23670SOL     OW76845   9.147   1.593  10.636 -0.1076 -0.3052 -0.2650
23670SOL    HW176846   9.059   1.591  10.674  0.0218 -1.1766  0.0235
23670SOL    HW276847   9.190   1.516  10.672  1.6123  1.3808  1.5082
23671SOL     OW76848   5.380   3.748  10.572  0.2926  0.8238 -0.2701
23671SOL    HW176849   5.453   3.702  10.531  1.1004  1.6928  0.1469
23671SOL    HW276850   5.331   3.680  10.618  0.2403  0.0728 -1.3960
23672SOL     OW76851   6.943   7.345   7.341 -0.0887  0.1403  0.5411
23672SOL    HW176852   7.022   7.291   7.351 -0.0035  0.0911 -0.3430
23672SOL    HW276853   6.922   7.372   7.431  2.1665  1.9094  0.6442
23673SOL     OW76854   7.907   2.663   4.399  0.2603 -0.6281 -0.4781
23673SOL    HW176855   7.840   2.716   4.444  0.8737 -0.4576  0.2530
23673SOL    HW276856   7.959   2.626   4.470  1.0193 -0.6653 -1.0485
23674SOL     OW76857  10.571   7.241   6.808 -0.0431  0.0266  0.2057
23674SOL    HW176858  10.658   7.238   6.848  0.5638  1.4112 -0.9417
23674SOL    HW276859  10.585   7.212   6.718 -1.4282 -3.2620  0.9255
23675SOL     OW76860   5.269   3.854   5.046  0.1019 -0.8022 -0.1542
23675SOL    HW176861   5.240   3.868   4.956  0.0337  0.0770  0.0040
23675SOL    HW276862   5.280   3.942   5.082 -1.5215 -1.1309  1.2463
23676SOL     OW76863   4.363   2.163   1.989 -0.0133  0.4195  0.8503
23676SOL    HW176864   4.281   2.155   2.039  0.4912  2.5848  2.1372
23676SOL    HW276865   4.391   2.253   2.003  1.6002  0.3033 -1.1919
23677SOL     OW76866   9.355  10.396   5.682 -0.0610  0.0542 -0.2705
23677SOL    HW176867   9.385  10.414   5.593 -0.2849 -0.7271 -0.5118
23677SOL    HW276868   9.313  10.478   5.710  0.1859  0.3688 -0.8007
23678SOL     OW76869   3.133   1.475   2.622  0.2895 -0.2391 -0.2019
23678SOL    HW176870   3.096   1.561   2.606  1.4327  0.6707  1.6224
23678SOL    HW276871   3.059   1.415   2.617 -0.5112  0.8195 -1.5755
23679SOL     OW76872   1.758   6.757   9.747  0.2703  0.4554  0.3043
23679SOL    HW176873   1.791   6.726   9.662  0.2345  1.3172 -0.0326
23679SOL    HW276874   1.716   6.680   9.786  0.6295 -0.0516 -0.2835
23680SOL     OW76875  10.428   3.221   7.848 -0.2762 -0.4248 -0.1703
23680SOL    HW176876  10.437   3.192   7.938  2.7543 -1.3390 -0.6403
23680SOL    HW276877  10.452   3.145   7.796 -0.3254  0.5551 -1.6992
23681SOL     OW76878   1.809   3.043   4.735  0.0343  0.1727 -0.5517
23681SOL    HW176879   1.846   3.113   4.788 -0.9583 -0.5673  1.2024
23681SOL    HW276880   1.777   3.086   4.656  2.2554  1.1942 -0.9807
23682SOL     OW76881   5.420   2.233   8.020 -0.2196  0.1889  0.0807
23682SOL    HW176882   5.474   2.185   8.083  0.7178  1.5926  0.3836
23682SOL    HW276883   5.481   2.289   7.973 -0.8983 -0.8572 -2.1590
23683SOL     OW76884   0.044   0.880   9.162  0.7893  0.5543 -0.3564
23683SOL    HW176885   0.108   0.934   9.117  2.1382 -1.7575 -1.3697
23683SOL    HW276886   0.086   0.795   9.171 -2.0088 -0.9805 -0.7332
23684SOL     OW76887   1.809   4.563   7.684 -0.3852  0.0447  0.0062
23684SOL    HW176888   1.815   4.474   7.651 -1.5966  0.2069 -0.7114
23684SOL    HW276889   1.894   4.603   7.664 -0.3823 -0.4786 -1.0504
23685SOL     OW76890   2.968   5.230   5.720 -0.0150 -0.4932 -0.2064
23685SOL    HW176891   2.898   5.271   5.770 -1.0155 -0.3055 -1.7057
23685SOL    HW276892   2.929   5.151   5.682  0.6775 -0.5655 -0.8047
23686SOL     OW76893   6.654   5.314   8.588 -0.1873  0.1774  0.6200
23686SOL    HW176894   6.728   5.367   8.557 -0.4405  0.8710  1.1777
23686SOL    HW276895   6.687   5.224   8.587  0.1698  0.2990 -0.5836
23687SOL     OW76896   7.341   3.378   4.998  0.4248 -0.2879 -0.0041
23687SOL    HW176897   7.297   3.366   4.913  0.4008  1.2610 -0.2411
23687SOL    HW276898   7.412   3.438   4.980 -0.3289  1.0592  1.2877
23688SOL     OW76899   2.872   0.059   3.932 -0.1043  0.3762 -0.2239
23688SOL    HW176900   2.907   0.104   4.009  0.9371 -0.9711  0.1372
23688SOL    HW276901   2.779   0.049   3.950  0.0690  0.3616  0.7279
23689SOL     OW76902   8.741   4.828   4.861 -0.3689 -0.7926 -0.0919
23689SOL    HW176903   8.752   4.765   4.932  0.2612  1.1484  1.6278
23689SOL    HW276904   8.829   4.838   4.824 -0.3726 -0.5387 -0.0304
23690SOL     OW76905   1.226   1.089   2.719 -0.5072 -0.1819  0.2451
23690SOL    HW176906   1.195   0.999   2.712  0.3675 -0.4375 -0.5252
23690SOL    HW276907   1.201   1.130   2.636  0.1259 -0.0591  0.1060
23691SOL     OW76908   7.467   7.825   4.628 -0.2969 -0.1449  0.0407
23691SOL    HW176909   7.530   7.781   4.685  0.2878  0.0756 -0.4189
23691SOL    HW276910   7.432   7.896   4.681 -0.1337 -0.2533  0.2936
23692SOL     OW76911  10.267   4.506   2.759 -0.1100  0.1354  0.4971
23692SOL    HW176912  10.221   4.424   2.774 -0.5983  0.4849  0.9474
23692SOL    HW276913  10.351   4.480   2.721 -0.0431 -0.6036  1.1258
23693SOL     OW76914   7.851   9.981   8.943  0.3462  0.2982 -0.0247
23693SOL    HW176915   7.911  10.012   8.876 -0.1621  5.1921  1.4201
23693SOL    HW276916   7.764  10.003   8.910 -0.2660 -1.1696  0.4961
23694SOL     OW76917   7.999   3.276   3.644 -0.4099 -0.2559  0.2180
23694SOL    HW176918   8.019   3.226   3.723  1.5633  0.5098  0.2743
23694SOL    HW276919   8.016   3.215   3.572  0.8875 -0.0514  0.3215
23695SOL     OW76920   6.056   0.609   0.545  0.5227  0.1310 -0.1510
23695SOL    HW176921   6.143   0.596   0.507 -0.3304 -1.4181 -1.7694
23695SOL    HW276922   6.048   0.541   0.612  1.7530  2.4149  2.5256
23696SOL     OW76923   7.515   7.440   8.155 -0.5661 -0.5680  0.0991
23696SOL    HW176924   7.595   7.425   8.105 -1.4112 -0.7109 -1.2582
23696SOL    HW276925   7.482   7.351   8.174  0.3520 -0.5423  1.9487
23697SOL     OW76926   4.859   0.266   7.343 -0.4996 -0.1535 -0.0901
23697SOL    HW176927   4.874   0.316   7.263 -0.7012 -0.6638 -0.4532
23697SOL    HW276928   4.775   0.222   7.329  0.2237 -1.5331 -0.2887
23698SOL     OW76929   9.788   6.246   2.397 -0.1245  0.4479  0.2527
23698SOL    HW176930   9.831   6.196   2.327  0.7851  1.6879 -0.1012
23698SOL    HW276931   9.700   6.207   2.404 -0.0109 -0.1060 -1.1390
23699SOL     OW76932   5.480   1.018  10.049 -0.2000  0.0264 -0.8321
23699SOL    HW176933   5.534   0.940  10.035  0.9593  0.8525 -1.1489
23699SOL    HW276934   5.453   1.012  10.141  0.9026 -0.1455 -0.4990
23700SOL     OW76935   7.788   1.124   0.319 -0.3899  0.1048 -0.3586
23700SOL    HW176936   7.693   1.121   0.323 -0.5734  1.8000 -2.0376
23700SOL    HW276937   7.808   1.179   0.243  1.9255  1.2383  0.9484
23701SOL     OW76938   9.210   7.320   2.708 -0.2567  0.0435 -0.2037
23701SOL    HW176939   9.293   7.287   2.741 -0.5893 -0.0305  0.5866
23701SOL    HW276940   9.171   7.245   2.663 -0.1119 -0.0541 -0.1671
23702SOL     OW76941   9.999   2.128   9.210 -0.1223  0.6587  0.4088
23702SOL    HW176942   9.972   2.082   9.289  1.3800 -0.2428  0.4461
23702SOL    HW276943  10.092   2.105   9.199 -0.5079 -0.0377 -2.1225
23703SOL     OW76944   8.663   2.904  10.677  0.2924  0.3454 -0.6069
23703SOL    HW176945   8.573   2.928  10.698 -0.3426 -0.5597 -2.0792
23703SOL    HW276946   8.713   2.923  10.756 -0.8608  2.4983 -0.3334
23704SOL     OW76947   6.780   1.952   6.814  0.2027  0.0416  0.3187
23704SOL    HW176948   6.809   2.013   6.746  1.1560  0.8204  1.3829
23704SOL    HW276949   6.857   1.901   6.836  0.8056  1.8583  2.8959
23705SOL     OW76950   5.903   1.907   3.060  0.3216  0.3108  0.0869
23705SOL    HW176951   5.949   1.911   2.976  1.3777 -0.7682  0.5725
23705SOL    HW276952   5.952   1.841   3.110 -1.2499 -0.2330  0.9590
23706SOL     OW76953   1.591   3.079   2.492 -0.6682  0.5384 -0.0525
23706SOL    HW176954   1.674   3.115   2.462 -0.5737  0.6267  0.3188
23706SOL    HW276955   1.590   3.093   2.586 -1.3911  1.1531 -0.1342
23707SOL     OW76956   0.545   3.929   9.546 -0.3956 -0.0671 -0.2334
23707SOL    HW176957   0.608   4.000   9.529  1.3500 -1.4062  0.3234
23707SOL    HW276958   0.464   3.959   9.506  0.2261  2.3201  0.1296
23708SOL     OW76959   7.266   2.097   4.488  0.3052  0.0241 -0.1029
23708SOL    HW176960   7.325   2.171   4.496  1.9455 -1.0262 -1.5843
23708SOL    HW276961   7.199   2.126   4.426 -0.2089  0.8933  0.8344
23709SOL     OW76962   7.889   9.676   9.350  0.0853 -0.0093 -0.2717
23709SOL    HW176963   7.913   9.585   9.332  1.3948 -0.1700  1.9986
23709SOL    HW276964   7.869   9.712   9.263  0.5951 -2.1504 -1.3559
23710SOL     OW76965   8.592  10.528   6.726 -0.1259 -0.1164 -0.3318
23710SOL    HW176966   8.684  10.538   6.750 -0.4367 -0.3318  1.0528
23710SOL    HW276967   8.566  10.444   6.765 -1.4552  0.9363  1.1700
23711SOL     OW76968   4.213   3.958   2.167  0.3304 -0.1991  0.6521
23711SOL    HW176969   4.280   3.961   2.099  0.4420 -0.4371  0.7511
23711SOL    HW276970   4.131   3.978   2.122  0.4296 -0.1724  0.4837
23712SOL     OW76971   6.488   3.048   5.935 -0.3756  0.6760  0.1091
23712SOL    HW176972   6.487   3.026   5.842  0.2225 -0.5809  0.3836
23712SOL    HW276973   6.505   2.965   5.980  0.5668  1.4566  1.2797
23713SOL     OW76974   4.934   8.962   0.829  0.6850 -0.3796  0.0357
23713SOL    HW176975   4.870   8.988   0.762  1.6973  0.4808 -0.6243
23713SOL    HW276976   5.004   8.919   0.781  1.0010 -0.5651  0.6519
23714SOL     OW76977   5.489   4.516   7.322 -0.5191 -0.2016  0.1160
23714SOL    HW176978   5.455   4.579   7.386 -0.8751 -0.7551  0.4817
23714SOL    HW276979   5.422   4.448   7.318 -0.4627 -0.2138 -0.7982
23715SOL     OW76980   2.014   6.561   0.647  0.4747 -0.4195 -0.6371
23715SOL    HW176981   1.954   6.498   0.607 -1.3479 -0.3978  1.8429
23715SOL    HW276982   2.083   6.573   0.582 -1.0717 -2.1125 -2.7314
23716SOL     OW76983   1.702   1.277  10.622 -0.2231  0.0263  0.2433
23716SOL    HW176984   1.612   1.258  10.595  0.0655 -0.1788 -0.6423
23716SOL    HW276985   1.723   1.359  10.578 -0.2862  0.5660  1.2100
23717SOL     OW76986   4.102   5.954   4.757  0.1918  0.0979  0.3566
23717SOL    HW176987   4.155   5.890   4.710  0.3637 -0.3942  1.1827
23717SOL    HW276988   4.069   6.013   4.690  1.9740  0.5689 -0.1577
23718SOL     OW76989   3.560   6.412   6.844  0.0098  0.1749  0.0788
23718SOL    HW176990   3.610   6.465   6.781  0.8139 -1.2107 -0.5033
23718SOL    HW276991   3.624   6.391   6.913 -0.0128 -0.7958 -0.1771
23719SOL     OW76992   3.495   4.832   3.074  0.3144  0.0770  0.5943
23719SOL    HW176993   3.527   4.877   2.997  0.6328  0.1092  0.7454
23719SOL    HW276994   3.457   4.751   3.041 -0.9637  0.7965  0.2313
23720SOL     OW76995   1.012   1.492   6.055  0.0324  0.6833 -0.0585
23720SOL    HW176996   1.066   1.435   6.110  1.0572  3.1088  1.6280
23720SOL    HW276997   0.944   1.524   6.114 -0.6492  1.0124 -1.0156
23721SOL     OW76998   0.789  10.485   6.359  0.2814 -0.3505  0.4671
23721SOL    HW176999   0.858  10.443   6.308  0.4643 -0.0996  0.5026
23721SOL    HW277000   0.725  10.416   6.375 -1.2438  0.2031 -2.5844
23722SOL     OW77001   5.505   2.456   2.098  0.2515  0.2335 -0.0133
23722SOL    HW177002   5.487   2.538   2.052 -1.9508 -0.8648 -1.3039
23722SOL    HW277003   5.507   2.390   2.029  0.3582 -1.0125  1.1465
23723SOL     OW77004   8.730   2.319   7.826  0.1287  0.1550  0.1746
23723SOL    HW177005   8.720   2.413   7.844 -1.2260 -0.2506  1.6792
23723SOL    HW277006   8.789   2.288   7.894  0.2982 -0.1501 -0.1123
23724SOL     OW77007   7.221   4.002   5.348 -0.2297  0.0841 -0.1913
23724SOL    HW177008   7.180   3.966   5.269  0.5861  0.2731 -0.7128
23724SOL    HW277009   7.313   4.013   5.324 -0.1788  1.1657  0.4335
23725SOL     OW77010   4.917  10.349   3.223  0.1893  0.0319  0.4673
23725SOL    HW177011   4.874  10.338   3.138  1.6415 -0.1519 -0.2626
23725SOL    HW277012   4.860  10.410   3.270  0.1027  1.2934 -1.1738
23726SOL     OW77013   1.698   4.282   7.743 -0.1130  0.0267 -0.0486
23726SOL    HW177014   1.625   4.300   7.683 -0.1054 -0.6938 -0.2850
23726SOL    HW277015   1.668   4.314   7.828  0.1825  1.8031 -0.5655
23727SOL     OW77016   1.476  10.029   8.639 -0.2314 -0.4535 -0.5190
23727SOL    HW177017   1.555  10.079   8.617 -1.3954  0.6252 -2.5289
23727SOL    HW277018   1.489   9.944   8.597  0.8654 -1.1802  1.1953
23728SOL     OW77019   2.139   0.081   6.361 -0.3490  0.2202 -0.0464
23728SOL    HW177020   2.146   0.164   6.314  0.2426  0.4619  0.4570
23728SOL    HW277021   2.229   0.058   6.383 -0.6420  0.3170  1.3382
23729SOL     OW77022   6.241   5.446   7.518 -0.0383 -0.2955  0.1388
23729SOL    HW177023   6.272   5.531   7.485 -1.0597  0.3925  0.8855
23729SOL    HW277024   6.321   5.398   7.538  0.6208 -0.2927 -2.1384
23730SOL     OW77025   0.797   2.710   2.500 -0.2135 -0.1609 -0.2675
23730SOL    HW177026   0.712   2.667   2.498 -1.2926  1.8378  0.4952
23730SOL    HW277027   0.780   2.798   2.467  1.7411  0.0116 -0.9377
23731SOL     OW77028  10.703   4.330   9.403  0.0691 -0.7530 -0.0915
23731SOL    HW177029  10.777   4.307   9.459 -0.1507  1.7762  1.3566
23731SOL    HW277030  10.626   4.315   9.457 -0.2091  0.6097 -0.0748
23732SOL     OW77031   5.574   5.379   2.122  0.0714 -0.9866 -0.4866
23732SOL    HW177032   5.544   5.466   2.097  0.6179 -0.9388 -0.9896
23732SOL    HW277033   5.525   5.319   2.066  0.3449 -0.9540 -0.7591
23733SOL     OW77034   5.920   0.480   9.349  0.0874 -0.5691 -0.3359
23733SOL    HW177035   6.010   0.497   9.320  0.6375 -0.3099  1.4132
23733SOL    HW277036   5.895   0.401   9.301  1.6856 -1.3311 -0.0058
23734SOL     OW77037   9.388   4.665   1.423  0.0699 -0.2289  0.4110
23734SOL    HW177038   9.421   4.613   1.496 -2.3505  0.0611  1.8125
23734SOL    HW277039   9.434   4.749   1.431  0.7871 -0.6515  0.7940
23735SOL     OW77040   5.853   3.074   5.781  0.2848  0.1768 -0.2687
23735SOL    HW177041   5.924   3.012   5.765  1.2783  1.3284 -0.4344
23735SOL    HW277042   5.826   3.057   5.872 -1.8295 -2.8025 -1.2818
23736SOL     OW77043   4.293   8.395   1.833  0.3452  0.1162 -0.5375
23736SOL    HW177044   4.318   8.459   1.899  0.4590  0.1084 -0.5714
23736SOL    HW277045   4.376   8.357   1.804  0.1663 -1.5192  0.9250
23737SOL     OW77046   2.085   0.178  10.647 -0.5557 -0.6817  0.4959
23737SOL    HW177047   2.057   0.265  10.619 -0.9785 -1.0289 -0.1933
23737SOL    HW277048   2.180   0.186  10.657 -0.5690 -0.1800  0.2782
23738SOL     OW77049   9.673   4.748   2.480 -0.2385 -0.0768  0.0452
23738SOL    HW177050   9.584   4.713   2.490 -0.4412  0.6420  0.8867
23738SOL    HW277051   9.695   4.781   2.567  1.1750 -0.9703  0.0692
23739SOL     OW77052   5.872   0.767   5.693  0.0967  0.0308  0.1675
23739SOL    HW177053   5.841   0.856   5.679  0.3907  0.5658  2.5251
23739SOL    HW277054   5.794   0.712   5.681 -0.1985  0.6300 -0.7679
23740SOL     OW77055   8.682   1.698   6.337  0.0166 -0.1472  0.1833
23740SOL    HW177056   8.603   1.667   6.382 -1.4089 -0.4377 -2.3597
23740SOL    HW277057   8.655   1.780   6.294  1.0551 -0.2978 -0.8116
23741SOL     OW77058   9.148  10.530   1.187  0.5179 -0.0115 -0.0609
23741SOL    HW177059   9.198  10.482   1.254 -0.0888 -2.9112 -1.5398
23741SOL    HW277060   9.060  10.536   1.223  0.9026  1.3071  0.7202
23742SOL     OW77061   6.027   1.117  10.077  0.1598 -0.1210  0.7272
23742SOL    HW177062   5.970   1.155  10.010  1.4873  0.9328  0.1483
23742SOL    HW277063   6.060   1.037  10.036 -0.2790 -0.3185  0.7546
23743SOL     OW77064   7.080   8.967   1.157  0.3411  0.5168 -0.5428
23743SOL    HW177065   7.083   8.958   1.062  1.7948  1.1889 -0.6029
23743SOL    HW277066   7.095   9.061   1.172 -1.0111  0.6171  0.3271
23744SOL     OW77067   9.003   0.477   7.623  0.3173 -0.2382 -0.6416
23744SOL    HW177068   9.058   0.530   7.565 -0.1624  1.3065  0.2320
23744SOL    HW277069   9.035   0.497   7.711  1.5774 -3.1578 -0.3123
23745SOL     OW77070   6.316   7.807   6.130  0.1233  0.1280  0.4799
23745SOL    HW177071   6.360   7.860   6.063 -1.2466 -0.5187 -1.0170
23745SOL    HW277072   6.387   7.760   6.174  1.2532  2.2634  1.0402
23746SOL     OW77073   6.049   4.422   1.078  0.1335  0.4093  0.5913
23746SOL    HW177074   6.023   4.343   1.125 -2.6653  1.3890  0.8376
23746SOL    HW277075   6.109   4.391   1.010  0.5162 -1.6444  1.7720
23747SOL     OW77076   7.809   8.167   9.306 -0.4769  0.2965  0.3337
23747SOL    HW177077   7.742   8.214   9.356 -0.2747  1.8748 -0.8064
23747SOL    HW277078   7.772   8.079   9.294 -1.0003  0.1995  2.2632
23748SOL     OW77079   7.415   5.456   7.762  0.0667 -0.0162  0.4980
23748SOL    HW177080   7.443   5.431   7.850 -0.5580 -1.0580  0.4149
23748SOL    HW277081   7.453   5.390   7.705 -0.9280 -0.3301  0.1776
23749SOL     OW77082   8.025   0.509   7.231  0.2102 -0.2772 -0.2757
23749SOL    HW177083   7.931   0.521   7.245  0.1451 -0.4174 -0.5836
23749SOL    HW277084   8.031   0.461   7.148  0.5087 -1.6427  0.5201
23750SOL     OW77085  10.490   7.043   4.237  0.2940  0.0746 -0.4468
23750SOL    HW177086  10.420   7.004   4.290  0.0057 -0.0785 -0.9245
23750SOL    HW277087  10.521   7.117   4.289  1.8162 -1.5760  1.1257
23751SOL     OW77088   6.787   6.540   1.253 -0.4212  0.5354  0.4709
23751SOL    HW177089   6.832   6.473   1.202 -0.6213  0.0891  0.8761
23751SOL    HW277090   6.802   6.621   1.204 -0.5787  0.1222 -0.2757
23752SOL     OW77091   6.798   7.184   8.670  0.6960  0.1070 -0.3074
23752SOL    HW177092   6.788   7.135   8.752 -1.6590  0.5049 -0.2745
23752SOL    HW277093   6.831   7.120   8.608  3.2049 -0.0332  1.0640
23753SOL     OW77094   9.991   3.654  10.643  0.4018  0.0650 -0.0721
23753SOL    HW177095   9.899   3.667  10.665  1.0938  0.3430  3.1604
23753SOL    HW277096  10.039   3.693  10.716  3.0961 -0.5850 -1.3581
23754SOL     OW77097   2.523   2.271   1.169  0.1177  0.4472 -0.3763
23754SOL    HW177098   2.557   2.229   1.089  1.9377 -2.0003  1.5019
23754SOL    HW277099   2.528   2.365   1.150 -1.8125  0.0166 -3.9583
23755SOL     OW77100   3.433   0.653   5.316  0.1359  0.2807 -0.0422
23755SOL    HW177101   3.388   0.610   5.244 -0.5438 -1.0943  1.1384
23755SOL    HW277102   3.523   0.664   5.286 -0.6216  1.8601 -1.9384
23756SOL     OW77103   0.750  10.470   1.197  0.3288  0.7652 -0.6728
23756SOL    HW177104   0.773  10.471   1.290  0.7075 -1.1988 -0.7054
23756SOL    HW277105   0.825  10.510   1.154  1.0603 -0.1225 -0.2737
23757SOL     OW77106   7.368   5.047   7.741  0.3917  0.0764 -0.6668
23757SOL    HW177107   7.314   5.090   7.674 -0.6888 -0.5292 -0.2009
23757SOL    HW277108   7.333   4.959   7.747 -0.1229  0.3808  1.3392
23758SOL     OW77109   2.310   3.734   4.311 -0.0893  0.4177 -0.7138
23758SOL    HW177110   2.396   3.752   4.349  1.5986 -1.5874 -3.2392
23758SOL    HW277111   2.259   3.814   4.328  2.2175  1.6658  0.9104
23759SOL     OW77112   1.050   1.003   1.734 -0.2876  0.4401 -0.0301
23759SOL    HW177113   1.022   0.913   1.751 -0.4374  0.7793  1.6841
23759SOL    HW277114   0.996   1.056   1.792  0.3002  1.5729 -0.4979
23760SOL     OW77115   9.706   5.442   4.885  0.4974 -0.0994 -0.3351
23760SOL    HW177116   9.655   5.513   4.924 -0.1152 -1.4204  1.4182
23760SOL    HW277117   9.795   5.477   4.879  0.3863  0.5309  1.3026
23761SOL     OW77118   2.692   1.811   0.831 -0.2655  0.0132 -0.1559
23761SOL    HW177119   2.735   1.807   0.745  0.5997 -1.7788  0.3000
23761SOL    HW277120   2.734   1.885   0.875 -0.2564  0.5473 -1.0302
23762SOL     OW77121   3.603   2.298   6.172  0.8705  0.2739  0.1600
23762SOL    HW177122   3.648   2.256   6.098  1.8377  1.4288  0.0645
23762SOL    HW277123   3.605   2.391   6.151  1.3467  0.6482  1.7321
23763SOL     OW77124   8.655   5.148   0.701  0.0235 -0.3839 -0.3429
23763SOL    HW177125   8.672   5.071   0.755  0.1237  1.1773  1.9950
23763SOL    HW277126   8.712   5.137   0.625  0.3380 -2.3978  0.1340
23764SOL     OW77127   1.651   8.993   6.237 -0.3827  0.2651  0.1622
23764SOL    HW177128   1.737   8.961   6.213 -0.8182 -0.4711 -0.4535
23764SOL    HW277129   1.637   9.070   6.182 -0.5611 -0.2561 -0.5340
23765SOL     OW77130   1.499   7.434   7.401  0.4507  0.2981 -0.0764
23765SOL    HW177131   1.475   7.525   7.386 -0.7514 -0.0382 -0.2500
23765SOL    HW277132   1.417   7.390   7.422  1.0397 -0.7206  0.1657
23766SOL     OW77133   2.666  10.344  10.701  0.1216  0.0943  0.4128
23766SOL    HW177134   2.762  10.354  10.696  0.0068  0.6215 -1.4446
23766SOL    HW277135   2.636  10.426  10.742  0.4379 -0.0360  0.9221
23767SOL     OW77136   7.980   0.851   5.741 -0.4104 -0.0057  0.4824
23767SOL    HW177137   8.013   0.900   5.816  0.6514 -0.7393  0.5148
23767SOL    HW277138   7.952   0.767   5.777 -0.3603 -0.1715  0.1468
23768SOL     OW77139   4.177   7.602   5.275 -0.9139 -0.4153  0.2121
23768SOL    HW177140   4.265   7.624   5.305  0.2662 -1.3785 -2.1996
23768SOL    HW277141   4.148   7.680   5.228 -0.1723 -1.0063 -1.2894
23769SOL     OW77142   6.845   1.731   0.052  0.1871 -0.0309  0.1434
23769SOL    HW177143   6.937   1.716   0.075  0.0665 -0.0054  0.6497
23769SOL    HW277144   6.805   1.760   0.134 -0.2956 -0.1402 -0.0558
23770SOL     OW77145   9.774   9.920   9.045  0.8038 -0.6180  0.0120
23770SOL    HW177146   9.809   9.891   9.129  1.8994  1.8059  0.4635
23770SOL    HW277147   9.829   9.994   9.020 -2.2327  1.5997 -0.6692
23771SOL     OW77148   3.138   9.937   1.208  0.5612  0.4205 -0.5842
23771SOL    HW177149   3.100   9.859   1.169  1.1461  0.5055 -1.3393
23771SOL    HW277150   3.076   9.962   1.276  0.3392 -0.6593 -0.3734
23772SOL     OW77151   1.965   9.313  10.210  0.1045  0.0450  0.2953
23772SOL    HW177152   1.888   9.362  10.239 -0.1469 -1.5326  2.5462
23772SOL    HW277153   1.947   9.292  10.118 -1.4219  1.0008  0.3324
23773SOL     OW77154   7.681   0.070   7.205 -0.1504  0.2445 -0.2922
23773SOL    HW177155   7.744   0.113   7.263 -1.5514  0.6359  1.0345
23773SOL    HW277156   7.597   0.112   7.227 -1.5262 -2.7580  0.7292
23774SOL     OW77157   0.577   6.045   1.798 -0.2409  0.0765  0.0384
23774SOL    HW177158   0.638   6.090   1.740 -0.1729  1.0703  0.8543
23774SOL    HW277159   0.518   5.998   1.739 -0.0561  0.9072 -0.8272
23775SOL     OW77160   0.851   3.448  10.372  0.0701 -0.4012 -0.1740
23775SOL    HW177161   0.836   3.516  10.306  0.1715 -0.3273 -0.1222
23775SOL    HW277162   0.916   3.487  10.431  0.2242 -0.5923 -0.2186
23776SOL     OW77163   9.384   3.677   7.644 -0.6218  0.1809  0.0175
23776SOL    HW177164   9.423   3.592   7.667  0.2055  0.5516  0.0026
23776SOL    HW277165   9.314   3.655   7.582  0.5625 -0.3866 -1.1719
23777SOL     OW77166   6.434   7.446   1.136  0.1215 -0.3749 -0.5417
23777SOL    HW177167   6.445   7.392   1.214  1.7143 -1.1288 -1.2437
23777SOL    HW277168   6.366   7.401   1.085 -0.9535  0.1433  0.3924
23778SOL     OW77169  10.209   7.707   2.118  0.4800  0.0414  0.6847
23778SOL    HW177170  10.246   7.708   2.206 -0.0353  1.6022  0.9011
23778SOL    HW277171  10.203   7.799   2.093 -1.9748 -0.2032  0.1308
23779SOL     OW77172   2.958   5.531   2.523  0.5199 -0.5541 -0.1959
23779SOL    HW177173   3.006   5.516   2.441 -0.4514  0.3160 -0.9491
23779SOL    HW277174   2.971   5.450   2.573  2.6328 -0.4051 -0.4209
23780SOL     OW77175   0.620  10.282   6.430 -0.4526 -0.4651 -0.0681
23780SOL    HW177176   0.530  10.299   6.403  0.2640 -0.1278 -2.3830
23780SOL    HW277177   0.642  10.199   6.388  0.4471 -0.3507  0.1584
23781SOL     OW77178  10.390   5.237   4.238 -1.3437 -0.6059  0.7186
23781SOL    HW177179  10.339   5.235   4.319 -1.0082  0.8809  1.0089
23781SOL    HW277180  10.472   5.193   4.260 -0.8338  0.6943  1.5314
23782SOL     OW77181   5.787   5.032   2.672  0.2064 -0.4581 -0.3883
23782SOL    HW177182   5.712   5.075   2.630 -0.4737  0.4009  1.5622
23782SOL    HW277183   5.785   5.064   2.763  1.0023 -2.9455  0.5992
23783SOL     OW77184   6.090   8.715   3.997 -0.2483  0.0320  0.0985
23783SOL    HW177185   6.150   8.655   4.041  0.6044  0.3141 -0.6696
23783SOL    HW277186   6.145   8.783   3.959 -1.0378  0.2900 -0.6421
23784SOL     OW77187   7.560   9.752   9.842  0.3444  0.9369  0.1410
23784SOL    HW177188   7.496   9.796   9.898  0.0053  0.7537 -0.1028
23784SOL    HW277189   7.519   9.669   9.818  0.2888  1.2130 -0.7550
23785SOL     OW77190   8.797   9.345   4.732  0.0881  0.2857 -0.7111
23785SOL    HW177191   8.885   9.324   4.761  0.4947 -1.3383 -2.8828
23785SOL    HW277192   8.805   9.430   4.689  1.2598 -0.9839 -3.2259
23786SOL     OW77193  10.513   0.753   4.652 -0.4490  0.1856 -0.0650
23786SOL    HW177194  10.489   0.686   4.716  1.0850  0.0320  0.3925
23786SOL    HW277195  10.556   0.821   4.705  1.5412 -0.2930 -0.9836
23787SOL     OW77196   6.536   4.672   2.924  0.1011  0.1098  0.5093
23787SOL    HW177197   6.560   4.591   2.969 -0.2039  0.6189  1.6232
23787SOL    HW277198   6.447   4.691   2.953 -0.0976  0.4693 -0.3054
23788SOL     OW77199  10.529  10.017   1.747  0.2870 -0.1610 -0.1798
23788SOL    HW177200  10.501  10.087   1.806  0.5012  1.1678 -1.5844
23788SOL    HW277201  10.465   9.947   1.760 -0.3253  0.5554  0.7846
23789SOL     OW77202   5.416   4.705   2.261  0.3241 -0.2627  0.8707
23789SOL    HW177203   5.445   4.737   2.347  1.2237  0.4033  0.3271
23789SOL    HW277204   5.320   4.711   2.265  0.4377  2.1988  0.9109
23790SOL     OW77205   5.090   3.379   6.227  0.0600 -0.1010 -0.7553
23790SOL    HW177206   5.109   3.304   6.283  0.9843 -0.0228 -0.9466
23790SOL    HW277207   5.003   3.361   6.192  1.2513 -2.4175 -2.8408
23791SOL     OW77208   6.025   9.673   4.103  0.4721 -0.5799 -0.1912
23791SOL    HW177209   5.962   9.631   4.044  0.9251 -1.2184 -0.2273
23791SOL    HW277210   6.071   9.737   4.047 -0.7952  0.6006  0.0598
23792SOL     OW77211   5.561   0.011  10.018 -0.1183 -0.4105  0.1147
23792SOL    HW177212   5.560   0.013   9.922 -0.5175 -0.5820  0.1134
23792SOL    HW277213   5.476   0.047  10.043  0.4027  0.6628  0.4246
23793SOL     OW77214   1.237   9.187   5.011 -0.3606 -0.7135  0.3437
23793SOL    HW177215   1.224   9.272   4.969  0.7377 -0.8044 -0.2105
23793SOL    HW277216   1.330   9.185   5.033 -0.2482 -2.0113 -0.1842
23794SOL     OW77217   3.561   9.904   4.952  0.0817  0.1775  0.4755
23794SOL    HW177218   3.591   9.980   4.902  0.2682  1.2406  2.1206
23794SOL    HW277219   3.641   9.855   4.971 -0.0365 -0.4764 -0.5691
23795SOL     OW77220   9.031   1.722   6.145  0.0403 -0.0794  0.7883
23795SOL    HW177221   9.089   1.667   6.092  1.4953 -0.9670  3.1659
23795SOL    HW277222   8.973   1.659   6.189 -0.4205  0.5546  1.1070
23796SOL     OW77223   8.176   6.464   8.423 -0.2663 -0.0117 -0.1971
23796SOL    HW177224   8.225   6.437   8.500 -0.4197 -0.9376 -0.4100
23796SOL    HW277225   8.223   6.541   8.391  0.5743 -0.3949  0.0688
23797SOL     OW77226   3.673   3.264   4.223  0.3402  0.5233 -0.1398
23797SOL    HW177227   3.637   3.313   4.149  1.5258 -0.1404 -1.2047
23797SOL    HW277228   3.604   3.266   4.289 -1.1877  0.2562 -1.6523
23798SOL     OW77229   1.071   2.057   6.453  0.9488 -0.1017 -0.0000
23798SOL    HW177230   1.053   2.038   6.361  0.7027  0.5138 -0.0868
23798SOL    HW277231   1.139   1.994   6.478 -1.3933 -2.6610  0.3959
23799SOL     OW77232   4.048   2.590   2.211  0.2549  0.0807 -0.0953
23799SOL    HW177233   3.997   2.593   2.129 -1.2568  1.1605  0.8323
23799SOL    HW277234   4.021   2.509   2.253 -1.8692  1.2914  1.0419
23800SOL     OW77235   5.120   9.428   9.314 -0.4634 -0.0514 -0.4843
23800SOL    HW177236   5.029   9.434   9.343 -0.3158 -0.9453  0.2079
23800SOL    HW277237   5.132   9.336   9.293 -0.6455  0.5781 -3.8257
23801SOL     OW77238   6.306   1.234   3.602  0.0841  0.3390 -0.8730
23801SOL    HW177239   6.238   1.177   3.637  0.4247  0.1074 -0.5823
23801SOL    HW277240   6.387   1.201   3.640  0.2265  1.3540 -0.2533
23802SOL     OW77241   0.623   1.436   1.224 -0.6128  0.5665  0.0972
23802SOL    HW177242   0.648   1.396   1.307 -1.6988  0.3610  0.3487
23802SOL    HW277243   0.557   1.501   1.248 -1.4678  0.0085 -0.6645
23803SOL     OW77244   6.876  10.035   8.073  0.4691 -0.2868  0.4329
23803SOL    HW177245   6.834   9.951   8.092 -1.3103 -0.0356 -1.9475
23803SOL    HW277246   6.966  10.012   8.049  0.3980 -1.3527  1.1364
23804SOL     OW77247   3.006   0.793   7.491 -0.6986  0.1492  0.2074
23804SOL    HW177248   2.972   0.809   7.579  1.5417  1.5125  0.9062
23804SOL    HW277249   2.999   0.698   7.479 -0.9199 -0.0739  1.9153
23805SOL     OW77250   5.757   9.653   5.541 -0.6735 -0.2277  0.1377
23805SOL    HW177251   5.755   9.586   5.610  2.0828  0.3330  0.8884
23805SOL    HW277252   5.762   9.602   5.460 -1.2691 -0.9011  0.5056
23806SOL     OW77253   2.108   6.583   2.785 -0.3591  0.2165  0.4141
23806SOL    HW177254   2.114   6.525   2.861 -1.0439 -0.8189 -0.2842
23806SOL    HW277255   2.119   6.524   2.710  0.4575  1.2406 -0.2959
23807SOL     OW77256   2.636   8.055   0.179 -0.2456 -0.1504  0.2850
23807SOL    HW177257   2.699   8.023   0.243  0.0074 -1.0563 -0.3893
23807SOL    HW277258   2.625   7.982   0.117  0.2799  1.0155 -1.2603
23808SOL     OW77259   0.561   1.306   9.440 -0.2575  0.2570  0.0121
23808SOL    HW177260   0.524   1.392   9.461 -0.4267  0.3963 -0.8366
23808SOL    HW277261   0.647   1.306   9.481 -0.1011  0.9827 -0.3092
23809SOL     OW77262   1.878   0.681   1.292  0.6169  0.1757  0.4523
23809SOL    HW177263   1.942   0.741   1.329  1.5752  1.3433 -2.7658
23809SOL    HW277264   1.919   0.595   1.296  1.1531  0.4522  0.9930
23810SOL     OW77265   8.285   6.659   1.578  0.1538 -0.0103  0.0108
23810SOL    HW177266   8.318   6.570   1.567 -1.2803 -0.3955 -1.5710
23810SOL    HW277267   8.263   6.666   1.671  0.6752 -1.1469  0.2350
23811SOL     OW77268   6.868  10.379   5.508  0.2274  0.0914  0.4100
23811SOL    HW177269   6.838  10.445   5.444  0.7227 -1.1752 -1.1916
23811SOL    HW277270   6.807  10.389   5.582 -2.5716 -0.6308 -1.6102
23812SOL     OW77271   2.433   4.476   7.000  0.1632  0.2901  0.1530
23812SOL    HW177272   2.350   4.460   6.954 -0.2810  1.1181  0.6442
23812SOL    HW277273   2.409   4.477   7.093  0.7602  0.3613  0.3073
23813SOL     OW77274   7.125   6.362   6.921 -0.1895  0.1763  0.0377
23813SOL    HW177275   7.138   6.282   6.971  0.3342  0.6982  0.7659
23813SOL    HW277276   7.213   6.386   6.890 -0.5166 -0.1758 -1.2059
23814SOL     OW77277   1.527   8.180   4.482 -0.2053 -0.0816 -0.2284
23814SOL    HW177278   1.564   8.200   4.568 -2.3570 -0.7193  0.9154
23814SOL    HW277279   1.565   8.096   4.457  0.9006  0.4024 -0.2190
23815SOL     OW77280   6.671   8.415   1.608  0.1958  0.2047 -0.6404
23815SOL    HW177281   6.764   8.418   1.628  0.0906  0.8320 -0.2380
23815SOL    HW277282   6.637   8.500   1.634 -0.7921 -0.5747  0.7739
23816SOL     OW77283  10.681   3.770   4.656 -0.2334  0.5115  0.1929
23816SOL    HW177284  10.648   3.690   4.697  0.3305  0.4078  0.4435
23816SOL    HW277285  10.738   3.739   4.585  1.2838  0.6678  1.3037
23817SOL     OW77286   1.234   4.498   8.299 -0.1995  0.1453  0.0705
23817SOL    HW177287   1.264   4.480   8.388 -0.4171  1.7518  0.5074
23817SOL    HW277288   1.274   4.430   8.245  0.0260 -0.7899  1.3702
23818SOL     OW77289   0.962   9.783   6.228  0.0459 -0.2127 -0.2187
23818SOL    HW177290   1.023   9.800   6.300  0.8231  0.9207 -1.0973
23818SOL    HW277291   0.890   9.735   6.268  1.3584 -1.3320  0.9165
23819SOL     OW77292   7.298   6.397   4.784 -0.2297 -0.2518 -0.1228
23819SOL    HW177293   7.288   6.400   4.689 -0.5514 -1.3721 -0.1399
23819SOL    HW277294   7.293   6.304   4.806 -0.6320  0.0216  1.0385
23820SOL     OW77295   4.437   1.663   9.447 -0.3895 -0.5183  0.1888
23820SOL    HW177296   4.351   1.665   9.489  0.2913 -0.8750  1.6922
23820SOL    HW277297   4.489   1.727   9.497 -1.0385  3.5611 -3.7571
23821SOL     OW77298   4.535   2.957   3.154  0.5917  0.8467 -0.2614
23821SOL    HW177299   4.455   3.008   3.167  0.7870  1.2003 -0.4375
23821SOL    HW277300   4.508   2.883   3.100  0.3066  0.7677 -0.0097
23822SOL     OW77301   6.491   2.947   3.744  0.0690 -0.2169  0.0045
23822SOL    HW177302   6.417   2.924   3.687  0.5333 -2.2140  0.1307
23822SOL    HW277303   6.468   2.912   3.830 -0.0008  1.5405  0.7406
23823SOL     OW77304   5.900   1.654   0.777 -0.4445  0.1971 -0.0888
23823SOL    HW177305   5.904   1.708   0.856 -1.2936  0.0702  0.0498
23823SOL    HW277306   5.863   1.711   0.710  1.0170  0.5500 -0.6238
23824SOL     OW77307   9.613   5.064   8.921 -0.3450 -0.0336 -0.0145
23824SOL    HW177308   9.520   5.043   8.910 -0.2262 -0.0048 -1.2736
23824SOL    HW277309   9.658   5.002   8.863  0.4221 -0.0594  0.5953
23825SOL     OW77310   8.930   4.515   8.234 -0.4696  0.3482 -0.0190
23825SOL    HW177311   8.913   4.465   8.314 -0.9753  0.8138  0.1720
23825SOL    HW277312   8.882   4.597   8.246 -1.1517  0.1413 -1.0935
23826SOL     OW77313   6.636   0.762   0.915  0.0323  0.1018  0.1829
23826SOL    HW177314   6.687   0.798   0.843 -1.2715  1.1661 -0.2512
23826SOL    HW277315   6.549   0.800   0.903 -0.4786 -0.5421  1.7176
23827SOL     OW77316   8.397   4.670   4.111 -0.3994 -0.2666  0.1731
23827SOL    HW177317   8.383   4.764   4.121  0.4121 -0.2182  0.9087
23827SOL    HW277318   8.439   4.661   4.025 -0.0587  0.0884  0.3021
23828SOL     OW77319   8.177   2.819   0.606 -0.1221 -0.0375 -0.0688
23828SOL    HW177320   8.112   2.889   0.602 -1.3603 -1.2080 -1.8864
23828SOL    HW277321   8.256   2.861   0.640 -1.7382  1.4553  2.0985
23829SOL     OW77322   2.684   2.439   1.464 -0.6072  0.3517 -0.0167
23829SOL    HW177323   2.606   2.436   1.409  0.0518 -0.9751 -0.9363
23829SOL    HW277324   2.699   2.532   1.481 -2.0393  0.6494 -0.3016
23830SOL     OW77325   3.751   5.598   7.303  0.8006  0.2192  0.7856
23830SOL    HW177326   3.740   5.522   7.246  0.2723 -1.3784  2.8696
23830SOL    HW277327   3.842   5.626   7.289  0.6092  0.0232 -0.9494
23831SOL     OW77328  10.614   4.295   1.258  0.0302 -0.7446 -0.1817
23831SOL    HW177329  10.608   4.390   1.267  4.0195 -0.2409 -0.9533
23831SOL    HW277330  10.564   4.260   1.333  1.0934  2.0581  2.0050
23832SOL     OW77331   4.879   5.590   4.611 -0.4086  0.3615 -0.4936
23832SOL    HW177332   4.923   5.511   4.640  0.6895  1.2823  0.4378
23832SOL    HW277333   4.796   5.591   4.658 -0.0906  0.1597  0.0708
23833SOL     OW77334   3.249   5.010   2.304 -0.0099  0.1939 -0.1324
23833SOL    HW177335   3.252   4.987   2.211 -0.2812  1.3844 -0.4615
23833SOL    HW277336   3.266   4.928   2.350 -0.8678 -0.6320 -1.2145
23834SOL     OW77337   5.289   5.707   6.168  0.5353  0.2367  0.1849
23834SOL    HW177338   5.300   5.778   6.105  1.8783 -1.6969 -1.9198
23834SOL    HW277339   5.212   5.658   6.136  1.1847 -0.7246  0.0424
23835SOL     OW77340   6.567   2.430   2.938 -0.3114 -0.0642  0.5906
23835SOL    HW177341   6.654   2.439   2.899 -0.1048 -0.6595  0.9090
23835SOL    HW277342   6.563   2.501   3.002 -0.4005  0.5085 -0.0402
23836SOL     OW77343   2.175   3.739   8.225  0.4049 -0.8250  0.1553
23836SOL    HW177344   2.222   3.748   8.308  0.1322  4.0448  0.0867
23836SOL    HW277345   2.222   3.796   8.165 -2.1187 -0.4969 -1.6621
23837SOL     OW77346   4.967   2.024   6.379 -0.3573 -0.2577 -0.1996
23837SOL    HW177347   4.987   1.983   6.463 -0.1626 -1.1538 -0.6665
23837SOL    HW277348   4.985   2.117   6.393 -0.5537 -0.3557  0.8113
23838SOL     OW77349   8.325   5.785   0.773 -0.3863  0.2385  0.4832
23838SOL    HW177350   8.341   5.877   0.795 -0.7628  0.6203 -0.7733
23838SOL    HW277351   8.260   5.757   0.838  0.4336  0.5662  1.4724
23839SOL     OW77352   5.410   0.914  10.578  0.4084  0.2607  0.2069
23839SOL    HW177353   5.411   0.989  10.637  0.6812 -0.0844  0.6472
23839SOL    HW277354   5.381   0.950  10.494  1.1927  0.9953  0.2330
23840SOL     OW77355   9.860   3.030   1.309  0.5072 -0.3873 -0.0568
23840SOL    HW177356   9.799   2.970   1.265 -1.0642  1.7608 -0.9652
23840SOL    HW277357   9.851   3.112   1.261  1.8346  0.9026  1.7906
23841SOL     OW77358   2.099   7.229  10.366  0.4667  0.3416  0.3627
23841SOL    HW177359   2.155   7.306  10.360 -0.8104  1.2463 -0.2732
23841SOL    HW277360   2.012   7.260  10.343  0.0043 -1.3832 -0.3853
23842SOL     OW77361   7.562   0.548   9.662  0.4238  0.1504 -0.0842
23842SOL    HW177362   7.591   0.547   9.571 -0.1406 -0.2641 -0.2596
23842SOL    HW277363   7.489   0.610   9.663  2.1561  2.3062  0.6296
23843SOL     OW77364   9.891   1.957   9.701  0.5495  0.1890 -0.2469
23843SOL    HW177365   9.842   2.031   9.736 -1.1317 -0.7323 -0.5474
23843SOL    HW277366   9.953   1.934   9.770 -1.0990 -0.1077  1.2016
23844SOL     OW77367   1.468   1.704   8.494 -0.1836 -0.3635  0.4196
23844SOL    HW177368   1.414   1.677   8.420 -0.9673  0.6991  0.5776
23844SOL    HW277369   1.453   1.799   8.501  1.5312 -0.0710  0.6042
23845SOL     OW77370   4.404   5.326   2.798  0.3214 -0.5807  0.1838
23845SOL    HW177371   4.431   5.238   2.776  3.2526  0.2238  0.2186
23845SOL    HW277372   4.431   5.339   2.889 -2.8555 -0.5835  1.2672
23846SOL     OW77373   5.738   8.831   7.034 -0.3468  0.2383  0.1495
23846SOL    HW177374   5.744   8.832   7.130  0.5959 -2.2775  0.1690
23846SOL    HW277375   5.727   8.739   7.011  0.1637  0.7071 -2.2301
23847SOL     OW77376   5.382   8.853   5.128  0.0731 -0.3114 -0.1874
23847SOL    HW177377   5.474   8.837   5.107  0.2931  0.4257  0.1757
23847SOL    HW277378   5.349   8.902   5.052  0.7037  1.7937  0.8133
23848SOL     OW77379   5.110   8.859   9.802  0.2367  0.1321  0.5358
23848SOL    HW177380   5.126   8.824   9.890  2.3728 -0.9525 -0.1834
23848SOL    HW277381   5.065   8.788   9.756  0.0822  0.2806  0.4591
23849SOL     OW77382  10.399   8.822   9.774  0.1158  0.5120  0.4971
23849SOL    HW177383  10.408   8.865   9.860 -1.0306 -0.3090  1.0496
23849SOL    HW277384  10.488   8.818   9.740  0.7009  0.1495  2.0022
23850SOL     OW77385  10.299   0.544   2.424 -0.3072 -0.1059 -0.1763
23850SOL    HW177386  10.302   0.467   2.481  1.2671  1.4999  2.0731
23850SOL    HW277387  10.386   0.547   2.384 -0.9120 -0.3687 -1.5677
23851SOL     OW77388   9.084   5.458   0.448 -0.0549 -0.2599 -0.6621
23851SOL    HW177389   9.142   5.419   0.382  0.0834  0.0751 -0.7422
23851SOL    HW277390   9.105   5.412   0.529  0.4217 -0.0494 -0.6628
23852SOL     OW77391   0.182   4.191   7.777  0.2320  0.1911 -0.2626
23852SOL    HW177392   0.141   4.226   7.698  0.4445  0.3816 -0.2871
23852SOL    HW277393   0.144   4.242   7.849  1.0963  0.9852 -0.3579
23853SOL     OW77394   6.105   6.041   2.192  0.3460 -0.1237 -0.2041
23853SOL    HW177395   6.058   6.012   2.114  0.2948 -1.2310  0.2286
23853SOL    HW277396   6.074   6.131   2.206 -0.1546 -0.1501 -1.0581
23854SOL     OW77397   8.557   7.801   7.821  0.0239 -0.0150  0.1757
23854SOL    HW177398   8.518   7.726   7.867 -0.7313 -0.3775 -1.0029
23854SOL    HW277399   8.547   7.874   7.882 -4.4121  0.4190 -0.7088
23855SOL     OW77400   2.594   9.453   9.701  0.1131  0.5871  0.4989
23855SOL    HW177401   2.639   9.509   9.765  1.4693 -1.1930  1.1739
23855SOL    HW277402   2.656   9.383   9.682 -0.8243  0.2920 -1.7406
23856SOL     OW77403   4.475   3.267   8.776 -0.4956  0.2022  0.2128
23856SOL    HW177404   4.392   3.242   8.736  0.9013 -2.8693 -1.1428
23856SOL    HW277405   4.527   3.301   8.703  0.5637 -1.2139  0.2621
23857SOL     OW77406   1.960   1.844   0.912  0.1521  0.1642 -0.3114
23857SOL    HW177407   1.865   1.848   0.920 -0.1430 -0.7133 -2.6703
23857SOL    HW277408   1.987   1.935   0.898 -0.6349  0.2039 -1.8334
23858SOL     OW77409   6.140   7.849   8.356 -0.0933  0.3743  0.2919
23858SOL    HW177410   6.231   7.877   8.351  0.0792 -0.2939 -4.2665
23858SOL    HW277411   6.138   7.764   8.311 -2.8211 -0.1014  1.1258
23859SOL     OW77412   9.101   3.634   9.136  0.2046 -0.0194  0.9387
23859SOL    HW177413   9.165   3.678   9.080 -1.5471 -0.0388 -1.1844
23859SOL    HW277414   9.148   3.619   9.218  3.3213 -1.1481 -0.8816
23860SOL     OW77415   6.702   4.912   5.634  0.0262 -0.1185  0.0523
23860SOL    HW177416   6.652   4.899   5.553  0.6794 -0.4848 -0.3038
23860SOL    HW277417   6.711   4.824   5.671  1.1620 -0.1901 -0.3571
23861SOL     OW77418   9.098   5.670   1.877  0.5691 -0.3607 -0.0265
23861SOL    HW177419   9.114   5.593   1.931 -0.0633 -1.6606 -1.6246
23861SOL    HW277420   9.009   5.660   1.844  0.5379  0.9579 -0.4333
23862SOL     OW77421   5.564   3.341   4.759 -0.4406  0.1022  0.0973
23862SOL    HW177422   5.612   3.407   4.809  0.8865 -1.3064  0.7810
23862SOL    HW277423   5.521   3.288   4.825 -2.2102  0.7482 -0.4826
23863SOL     OW77424   2.922   5.496   5.852 -0.5037 -0.1096 -0.0748
23863SOL    HW177425   2.864   5.522   5.780  0.0229  0.8388 -0.1744
23863SOL    HW277426   2.969   5.576   5.875 -0.1571 -0.5657  0.8613
23864SOL     OW77427   7.898   7.203  10.071 -0.1213  0.4593  0.0387
23864SOL    HW177428   7.865   7.259  10.001 -1.3121 -1.6346 -1.1666
23864SOL    HW277429   7.819   7.176  10.120  0.3580 -0.4991  0.3139
23865SOL     OW77430   9.990   3.718   6.873  0.5942  0.1242  0.4373
23865SOL    HW177431   9.921   3.700   6.937  1.1200 -0.1236  0.9486
23865SOL    HW277432   9.971   3.660   6.799  1.0568 -1.0095  1.1740
23866SOL     OW77433   9.194   9.974   0.237  0.6011  0.0953  0.3154
23866SOL    HW177434   9.273  10.002   0.190  1.8105 -2.2315  0.8071
23866SOL    HW277435   9.146   9.921   0.175  1.9059 -2.4919  1.3770
23867SOL     OW77436   8.939   7.028   9.972 -0.3563  0.4213 -0.0441
23867SOL    HW177437   9.019   7.015   9.920  0.5720  0.8412  1.2381
23867SOL    HW277438   8.868   7.014   9.909  0.6900 -1.0010 -1.0002
23868SOL     OW77439   8.528   0.427   7.698  0.1262 -0.5322 -0.4329
23868SOL    HW177440   8.510   0.368   7.625 -1.4221 -1.2334  0.4676
23868SOL    HW277441   8.618   0.405   7.724 -0.1687 -2.0223 -0.5728
23869SOL     OW77442  10.232   3.383  10.559 -0.7193  0.1117  0.0188
23869SOL    HW177443  10.203   3.431  10.636  2.8088  1.4157  0.7581
23869SOL    HW277444  10.152   3.360  10.513 -2.9208  0.5765  3.2697
23870SOL     OW77445   3.791   2.707   7.751 -0.4392  0.4311 -0.0336
23870SOL    HW177446   3.724   2.768   7.781  0.3870  2.4415 -2.0114
23870SOL    HW277447   3.743   2.626   7.732 -1.6792  0.6389  1.9675
23871SOL     OW77448   3.718   9.158   6.608 -0.1420 -0.6338 -0.0154
23871SOL    HW177449   3.622   9.150   6.601  0.0408 -2.6338 -0.8342
23871SOL    HW277450   3.749   9.068   6.607  1.7987  0.0031 -0.0826
23872SOL     OW77451   3.352   5.544  10.686  0.0973 -0.1846 -0.3433
23872SOL    HW177452   3.367   5.622  10.633 -0.7708 -0.5951 -1.2199
23872SOL    HW277453   3.375   5.571  10.775  1.0896  0.6658 -0.8333
23873SOL     OW77454  10.492   3.041   7.652 -0.1420 -0.0587 -0.5759
23873SOL    HW177455  10.474   2.948   7.669  2.5304 -0.2262  2.5563
23873SOL    HW277456  10.430   3.066   7.585 -2.3667 -3.5963 -0.1074
23874SOL     OW77457   5.544   5.319   1.103  0.9996  0.8683 -0.0379
23874SOL    HW177458   5.486   5.324   1.028  0.6807 -1.0038  0.0427
23874SOL    HW277459   5.488   5.294   1.176  1.5095  1.4665  0.5796
23875SOL     OW77460   9.113   2.912   0.110 -0.4886 -0.1489  0.0909
23875SOL    HW177461   9.208   2.912   0.101 -0.3828 -0.0200  1.0803
23875SOL    HW277462   9.080   2.885   0.024  0.4631 -0.8614 -0.0611
23876SOL     OW77463   1.471   2.739  10.455 -0.2977  0.5970  0.6439
23876SOL    HW177464   1.525   2.665  10.481 -0.3374 -0.0775 -1.0557
23876SOL    HW277465   1.528   2.793  10.401 -0.6041  1.2161  0.9242
23877SOL     OW77466   5.693   2.984   3.022 -0.3664 -0.1556 -0.4238
23877SOL    HW177467   5.708   3.021   2.935  0.4713 -0.3648 -0.3786
23877SOL    HW277468   5.779   2.952   3.050 -0.8176 -0.9688  0.0761
23878SOL     OW77469   2.157   9.988   2.314 -0.3174  0.6264 -0.4888
23878SOL    HW177470   2.208   9.946   2.383 -0.4357 -1.4805 -1.6025
23878SOL    HW277471   2.215  10.055   2.279 -0.7503  2.7273  2.4700
23879SOL     OW77472   2.995   1.599   1.703 -0.3236 -0.0636 -0.1577
23879SOL    HW177473   3.031   1.643   1.779 -0.9132  0.3078 -0.0892
23879SOL    HW277474   2.990   1.507   1.729 -0.0726 -0.0118  0.0764
23880SOL     OW77475   0.632   1.426  10.563 -0.2484  0.1033 -0.1715
23880SOL    HW177476   0.603   1.516  10.581 -0.0936  0.3005 -0.9091
23880SOL    HW277477   0.726   1.433  10.548 -0.0075 -0.3649  0.9713
23881SOL     OW77478   9.138   8.102  10.174 -0.0149  0.4480  0.4960
23881SOL    HW177479   9.202   8.055  10.120  0.8724  1.0588  0.9782
23881SOL    HW277480   9.126   8.045  10.251 -0.5973  0.0027  0.0845
23882SOL     OW77481   1.655  10.223   3.416 -0.1307 -0.1578 -0.0146
23882SOL    HW177482   1.676  10.193   3.327  0.1708  1.0897 -0.3803
23882SOL    HW277483   1.573  10.178   3.438  1.0061 -2.3149  0.0217
23883SOL     OW77484   3.280   5.890   5.421 -0.0054  0.7851 -0.3836
23883SOL    HW177485   3.352   5.888   5.358 -0.0811 -0.3223 -0.4471
23883SOL    HW277486   3.249   5.800   5.426 -0.5872  1.0202  0.5761
23884SOL     OW77487   4.760   6.301   7.900  0.0539  0.2093 -0.0598
23884SOL    HW177488   4.719   6.351   7.970 -0.4669 -0.7161  0.3084
23884SOL    HW277489   4.719   6.334   7.820 -1.2905 -0.5395  0.2826
23885SOL     OW77490   1.168   0.474   2.220  0.6232  0.4738 -0.1666
23885SOL    HW177491   1.121   0.391   2.207 -0.1978  0.9542 -0.3562
23885SOL    HW277492   1.244   0.468   2.162 -0.2575  0.4797 -1.3675
23886SOL     OW77493   2.111   7.225   0.257 -0.3270 -0.0304 -0.2238
23886SOL    HW177494   2.135   7.226   0.349  2.9918  0.0736 -0.9624
23886SOL    HW277495   2.068   7.309   0.242 -0.9025 -0.0483  1.1615
23887SOL     OW77496   6.026   6.263   3.675 -0.5099  0.0461  0.8049
23887SOL    HW177497   5.953   6.325   3.666  1.6295  2.4211 -3.1055
23887SOL    HW277498   6.084   6.304   3.739 -0.8987 -0.0043  1.1991
23888SOL     OW77499   3.504   2.364   7.905 -0.2798  0.3677  0.5977
23888SOL    HW177500   3.546   2.432   7.958  0.0269  0.9612 -0.3740
23888SOL    HW277501   3.556   2.285   7.920  1.8178  1.2677 -1.2287
23889SOL     OW77502   9.468   3.042   1.445  0.3297  0.1987 -0.4833
23889SOL    HW177503   9.538   2.988   1.408  0.4407  1.4814 -2.2642
23889SOL    HW277504   9.388   2.994   1.426  0.4703  0.3709 -1.5611
23890SOL     OW77505   6.472   7.351   0.748  0.1061  0.0061 -0.4720
23890SOL    HW177506   6.387   7.328   0.710 -1.3050  1.0167  1.8461
23890SOL    HW277507   6.486   7.287   0.817  0.7708  0.4356 -0.1954
23891SOL     OW77508   2.071   4.591   3.149  0.0730 -0.3846 -0.2944
23891SOL    HW177509   1.999   4.633   3.102  0.5501 -1.1954 -1.8041
23891SOL    HW277510   2.141   4.583   3.084  0.2340 -2.8986  0.0824
23892SOL     OW77511   7.460   1.748   7.026 -0.3313  0.2707 -0.6790
23892SOL    HW177512   7.373   1.714   7.045 -0.0143  0.8169  2.1241
23892SOL    HW277513   7.519   1.679   7.057  0.2698  0.5632 -1.1571
23893SOL     OW77514   9.069   8.570   8.796 -0.2084 -0.2710  0.3733
23893SOL    HW177515   9.129   8.506   8.759 -2.2523 -3.2092  1.7324
23893SOL    HW277516   9.052   8.539   8.885 -1.7085  1.8883  0.9158
23894SOL     OW77517   3.403   4.043   4.150  0.2606  0.0153  0.3663
23894SOL    HW177518   3.417   4.113   4.214 -0.0482 -0.0244  0.4782
23894SOL    HW277519   3.398   4.088   4.066 -4.3307  0.7259  0.7724
23895SOL     OW77520   8.673   7.573   2.659  0.0146  0.7696 -0.8366
23895SOL    HW177521   8.762   7.606   2.648  0.9743 -0.8220  1.4201
23895SOL    HW277522   8.684   7.483   2.691 -2.3512  0.9988  0.9536
23896SOL     OW77523   6.789   3.015   3.903  0.5476 -0.1851 -0.3693
23896SOL    HW177524   6.853   3.086   3.909  0.1310  0.4741 -2.6914
23896SOL    HW277525   6.711   3.056   3.867 -1.2792 -0.9818  2.4421
23897SOL     OW77526   2.667   0.880   9.156 -0.1910 -0.4513 -0.1090
23897SOL    HW177527   2.663   0.788   9.128 -2.5296 -0.3191 -0.4084
23897SOL    HW277528   2.624   0.881   9.241  0.4175  0.2890  0.2020
23898SOL     OW77529   2.025   9.933   4.945  0.3413  0.3694 -0.2170
23898SOL    HW177530   2.016   9.966   4.856  0.4564  1.1202  0.0373
23898SOL    HW277531   2.014   9.838   4.938  1.7154  0.2676 -1.2093
23899SOL     OW77532   1.085   4.664   1.440  0.9240 -0.1611  0.4353
23899SOL    HW177533   1.138   4.739   1.465 -0.0822  0.4562  0.7926
23899SOL    HW277534   1.040   4.693   1.360 -1.6837  0.7846  2.0976
23900SOL     OW77535   9.920   2.783   4.732  0.1027  0.2542 -0.3633
23900SOL    HW177536   9.879   2.839   4.798  0.6292  1.0858 -0.7304
23900SOL    HW277537   9.897   2.824   4.648 -0.6183 -0.8284 -0.7136
23901SOL     OW77538   0.037   4.503   2.585  0.2089 -1.0201 -0.0177
23901SOL    HW177539   0.014   4.419   2.625 -0.4689 -0.8479 -0.0348
23901SOL    HW277540   0.132   4.509   2.595  0.4250 -2.2964 -0.9734
23902SOL     OW77541   8.603   7.503   6.918 -0.1604  0.1913  0.0904
23902SOL    HW177542   8.527   7.538   6.964  0.1095 -1.5503  2.0124
23902SOL    HW277543   8.570   7.428   6.869  0.2021 -0.2028  0.4399
23903SOL     OW77544   5.502   9.429  10.547 -0.3262  0.3876  0.2364
23903SOL    HW177545   5.563   9.355  10.556  1.4234  1.6741 -0.5483
23903SOL    HW277546   5.458   9.433  10.632  0.6454 -0.6133  0.8199
23904SOL     OW77547  10.036   4.393   8.549  0.3319  0.0875 -0.0983
23904SOL    HW177548  10.108   4.441   8.590 -0.5563  1.0301  0.3980
23904SOL    HW277549   9.957   4.431   8.587 -0.4760 -0.0441 -1.5836
23905SOL     OW77550   3.486   6.630   5.123  0.2449 -0.4062 -0.3278
23905SOL    HW177551   3.570   6.674   5.137 -0.6782  1.0467  0.9264
23905SOL    HW277552   3.448   6.673   5.047  0.6180 -1.1017 -0.9301
23906SOL     OW77553   0.966  10.436   9.410  0.0078 -0.4113 -0.5446
23906SOL    HW177554   1.024  10.506   9.439  0.5149 -0.0364 -2.3786
23906SOL    HW277555   0.998  10.412   9.323 -2.2205 -0.6154 -1.3655
23907SOL     OW77556   8.445   2.664   0.086 -0.4611 -0.0518  0.2611
23907SOL    HW177557   8.459   2.624   0.000 -0.1240 -0.2537  0.4099
23907SOL    HW277558   8.350   2.662   0.098 -0.4258 -1.1199  0.4198
23908SOL     OW77559   3.219   0.216   8.486 -0.5428  0.1546 -0.2249
23908SOL    HW177560   3.219   0.152   8.415 -0.6941  0.3051 -0.3612
23908SOL    HW277561   3.279   0.179   8.551 -1.9526 -1.0103  0.4934
23909SOL     OW77562   6.702   8.860   7.732 -0.2339  0.2770  0.4137
23909SOL    HW177563   6.769   8.916   7.691 -0.0707  0.1016  0.4411
23909SOL    HW277564   6.714   8.874   7.826 -0.6111  0.6826  0.4080
23910SOL     OW77565   4.368   3.130   5.830  0.2934 -0.2530 -0.2862
23910SOL    HW177566   4.388   3.044   5.793  0.3115 -1.7958  2.9502
23910SOL    HW277567   4.289   3.115   5.882  0.2232  1.7516  0.2459
23911SOL     OW77568   6.496   1.638   0.929 -0.0338  0.4569  0.2658
23911SOL    HW177569   6.430   1.673   0.989  1.1651  4.2361 -0.2944
23911SOL    HW277570   6.577   1.639   0.981  0.6420  1.8842 -0.7291
23912SOL     OW77571   4.275   4.885   0.290  0.3082 -0.1108  0.2072
23912SOL    HW177572   4.289   4.976   0.262 -0.5683  0.6380  2.0251
23912SOL    HW277573   4.330   4.833   0.231 -0.9463  1.3495 -2.4507
23913SOL     OW77574   1.132  10.350   2.019  0.1491  0.6754 -0.0900
23913SOL    HW177575   1.055  10.392   2.056  1.3504  1.8066  1.2158
23913SOL    HW277576   1.148  10.396   1.936  0.5816  1.8254  0.6117
23914SOL     OW77577   4.390   4.003   6.497  0.0793 -0.3812 -0.3147
23914SOL    HW177578   4.479   4.011   6.531  0.0437  2.2600 -0.6293
23914SOL    HW277579   4.386   4.064   6.424 -1.6462 -1.4196 -1.1663
23915SOL     OW77580   9.794   4.099   1.728  0.0983  0.3488 -0.6061
23915SOL    HW177581   9.806   4.191   1.751  2.8154 -0.2860  0.9506
23915SOL    HW277582   9.702   4.092   1.703 -0.3263  3.3481 -0.2266
23916SOL     OW77583   4.000   5.781   0.157  0.7195 -0.3349  0.2582
23916SOL    HW177584   3.975   5.761   0.248  2.9541  0.3090  1.0790
23916SOL    HW277585   3.917   5.787   0.110 -0.5195 -0.3854  2.3187
23917SOL     OW77586  10.257   3.388   8.530  0.4767  0.2058 -0.2767
23917SOL    HW177587  10.323   3.400   8.461  0.0720 -0.9161 -0.8916
23917SOL    HW277588  10.178   3.431   8.495  0.8685  1.5792  0.4730
23918SOL     OW77589   1.661  10.678   2.120 -0.4451 -0.4102  0.0998
23918SOL    HW177590   1.618  10.606   2.166  0.2926 -0.2520  1.0948
23918SOL    HW277591   1.733  10.636   2.073 -0.5690 -0.4423 -0.0603
23919SOL     OW77592   4.286   2.179   5.752 -0.2155  0.5272  0.2465
23919SOL    HW177593   4.272   2.143   5.664  1.5951 -0.0449  0.1550
23919SOL    HW277594   4.356   2.126   5.789 -0.4196  1.2652  1.7576
23920SOL     OW77595   8.388   1.293  10.535 -0.4744 -0.5154  0.5878
23920SOL    HW177596   8.387   1.197  10.537  0.2952 -0.5183  1.4462
23920SOL    HW277597   8.402   1.319  10.627  0.4627  0.3862  0.2104
23921SOL     OW77598  10.262   7.718   0.539 -0.4887 -0.2356  0.1636
23921SOL    HW177599  10.353   7.694   0.521 -0.1464  1.2823 -0.3110
23921SOL    HW277600  10.217   7.635   0.552  0.9058 -1.0283  0.1186
23922SOL     OW77601   5.679   2.195   1.537  1.0986 -0.1293 -0.1134
23922SOL    HW177602   5.730   2.117   1.557  1.3104  0.2585  0.9438
23922SOL    HW277603   5.716   2.263   1.594  1.6116  1.0261 -1.7427
23923SOL     OW77604   3.449   0.665   0.180 -0.2385  0.0629  0.0424
23923SOL    HW177605   3.353   0.669   0.174 -0.2638  3.6384  0.9597
23923SOL    HW277606   3.465   0.607   0.255 -1.6168 -1.0913 -0.5019
23924SOL     OW77607   9.056   1.238   5.123 -0.0828  0.1534  0.1788
23924SOL    HW177608   9.098   1.263   5.206 -1.6090  1.8690  0.5064
23924SOL    HW277609   9.126   1.199   5.072  1.1743  0.0748  1.8533
23925SOL     OW77610   3.924   2.615   4.618 -0.6690 -0.0101  0.2947
23925SOL    HW177611   3.899   2.650   4.533  0.0810 -0.5523 -0.1659
23925SOL    HW277612   4.019   2.623   4.621 -0.7226  0.4440  1.2922
23926SOL     OW77613   8.495   8.634   9.151  0.3132  0.3089 -0.2026
23926SOL    HW177614   8.414   8.684   9.163 -0.7657 -1.2618 -0.5954
23926SOL    HW277615   8.471   8.564   9.090  2.0149 -0.1219 -0.4236
23927SOL     OW77616   3.947   1.973   1.935  0.5538 -0.4715 -0.2910
23927SOL    HW177617   3.966   1.929   1.852 -0.9785 -0.3178 -0.7670
23927SOL    HW277618   3.898   2.051   1.909 -0.0251 -0.4720  0.7609
23928SOL     OW77619   2.267   9.675   8.199  0.5745  0.6548 -0.0823
23928SOL    HW177620   2.258   9.595   8.146  0.9807  0.5164  0.0555
23928SOL    HW277621   2.254   9.646   8.289  0.2252  0.8341 -0.0705
23929SOL     OW77622   9.367   8.494  10.058  0.1989 -0.4416  0.0668
23929SOL    HW177623   9.421   8.540   9.993 -0.7840  0.5903 -0.0504
23929SOL    HW277624   9.431   8.460  10.121  0.9665  2.4150  1.0106
23930SOL     OW77625   8.120   8.016   4.339  0.3779 -0.0344  0.4997
23930SOL    HW177626   8.130   8.088   4.277  1.4769  0.3138  1.0644
23930SOL    HW277627   8.209   7.985   4.356  0.0408 -0.5905  1.3614
23931SOL     OW77628   8.825   7.223   2.770 -0.1642  0.1711 -0.0876
23931SOL    HW177629   8.882   7.263   2.835 -0.3903  1.0411 -0.4059
23931SOL    HW277630   8.833   7.280   2.693  0.1207 -0.8432 -0.8487
23932SOL     OW77631   5.855   7.169   3.305 -0.4929 -0.5551 -0.4450
23932SOL    HW177632   5.812   7.113   3.240  0.1011 -1.0101 -0.4536
23932SOL    HW277633   5.785   7.190   3.367 -1.0820 -0.0736 -1.2492
23933SOL     OW77634   3.948   8.033   8.483 -0.5817  0.4008  0.4873
23933SOL    HW177635   3.985   8.027   8.395 -1.0168 -0.3160  0.3421
23933SOL    HW277636   3.972   8.121   8.513 -0.4092  0.6466 -0.3324
23934SOL     OW77637   8.537   9.095   3.931  0.2306  0.1154  0.5770
23934SOL    HW177638   8.485   9.153   3.987 -0.8040 -1.3147  1.1454
23934SOL    HW277639   8.560   9.022   3.987 -0.6646 -1.2661 -0.7729
23935SOL     OW77640   8.142  10.191   8.988  0.9487  0.6091 -0.0109
23935SOL    HW177641   8.200  10.265   8.970 -0.6466  1.6802 -1.0505
23935SOL    HW277642   8.066  10.230   9.032 -1.1681  0.1767 -2.9392
23936SOL     OW77643   2.809   4.918   9.855  0.3354 -0.3796  0.1951
23936SOL    HW177644   2.890   4.967   9.842  0.0801  0.0067  0.0208
23936SOL    HW277645   2.833   4.827   9.839  0.3168 -0.0748 -1.8520
23937SOL     OW77646   0.558   1.189   6.333  0.4881 -0.3340  0.1210
23937SOL    HW177647   0.584   1.145   6.414  1.5047 -2.5770 -1.3131
23937SOL    HW277648   0.501   1.126   6.289  0.5936  0.4991 -1.2606
23938SOL     OW77649   9.072   8.980   7.336 -0.1311 -0.5495  0.7039
23938SOL    HW177650   9.028   9.046   7.390 -0.8904  0.2313 -0.7989
23938SOL    HW277651   9.023   8.900   7.351 -0.5670 -0.2497  0.8936
23939SOL     OW77652   2.212   7.991   2.819 -0.4578  0.0423 -0.1109
23939SOL    HW177653   2.275   7.932   2.861 -1.3208 -0.1144  0.9977
23939SOL    HW277654   2.163   7.936   2.759 -1.0175 -0.3126  0.6562
23940SOL     OW77655   1.704   5.445   4.179 -0.1922 -0.5614 -0.1014
23940SOL    HW177656   1.779   5.457   4.121  0.2904 -0.7868  0.4646
23940SOL    HW277657   1.651   5.378   4.136 -0.7272  0.4861 -1.1347
23941SOL     OW77658   2.911   6.526   9.913 -0.8857 -0.0465 -0.4838
23941SOL    HW177659   2.892   6.615   9.943 -1.3277  0.3348 -1.8528
23941SOL    HW277660   2.850   6.471   9.964 -1.5756  0.5780 -0.6155
23942SOL     OW77661   8.113   0.564   8.711  0.6437  0.7931 -0.0921
23942SOL    HW177662   8.134   0.645   8.666  1.0361  0.3972 -0.6303
23942SOL    HW277663   8.076   0.507   8.644  1.0272  0.2787  0.1240
23943SOL     OW77664   1.401   8.333   6.519 -0.7086 -0.4008 -0.3277
23943SOL    HW177665   1.346   8.300   6.590 -3.1850 -1.4211 -2.5507
23943SOL    HW277666   1.339   8.362   6.452  1.4892  0.7442 -1.9892
23944SOL     OW77667   9.711   7.893   0.306  0.0228 -0.0041  0.2034
23944SOL    HW177668   9.741   7.927   0.390  1.1018 -2.2839  0.8114
23944SOL    HW277669   9.790   7.859   0.264 -0.7919 -0.6390 -0.8617
23945SOL     OW77670   3.330   6.509   5.803  0.0417 -0.0628 -0.2037
23945SOL    HW177671   3.397   6.450   5.839  0.3467 -0.6167 -1.6122
23945SOL    HW277672   3.293   6.461   5.729 -1.7906  0.3253  0.4134
23946SOL     OW77673   9.167   4.905   1.320 -0.5461  0.2611 -0.0296
23946SOL    HW177674   9.261   4.908   1.335 -0.4325 -0.2827 -0.6053
23946SOL    HW277675   9.157   4.863   1.235 -1.2750  1.0024 -0.3304
23947SOL     OW77676   9.111   0.368   7.863 -0.2629 -0.0560 -0.0664
23947SOL    HW177677   9.119   0.275   7.843  0.4647  0.2352 -1.1884
23947SOL    HW277678   9.196   0.405   7.839 -0.5068  0.8869  0.4722
23948SOL     OW77679   2.893   8.346   3.114 -0.3530 -0.0734 -0.1200
23948SOL    HW177680   2.881   8.409   3.185 -0.1023  0.0350 -0.1736
23948SOL    HW277681   2.972   8.375   3.069  0.2968 -0.9539  0.4213
23949SOL     OW77682  10.272   7.191   1.671 -0.1189 -0.0058 -0.0822
23949SOL    HW177683  10.357   7.235   1.664 -0.4682  0.5616 -0.9107
23949SOL    HW277684  10.254   7.190   1.765  0.0355  1.3817 -0.0174
23950SOL     OW77685   3.176   6.561   7.940 -0.5347  0.1671  0.2779
23950SOL    HW177686   3.089   6.552   7.901 -0.0970 -1.1828 -0.4685
23950SOL    HW277687   3.229   6.495   7.894  1.4663  2.4648 -0.9178
23951SOL     OW77688   5.774   8.203   0.122  0.4668  0.7791 -0.5826
23951SOL    HW177689   5.854   8.186   0.072 -0.8705 -0.4692 -2.3973
23951SOL    HW277690   5.714   8.242   0.059 -0.5379  1.3058  0.6455
23952SOL     OW77691   0.815   4.834   7.015 -0.0246 -0.2149 -0.3487
23952SOL    HW177692   0.812   4.852   7.109  3.7724  0.5641 -0.2141
23952SOL    HW277693   0.800   4.920   6.974  1.3878  0.0598 -0.3146
23953SOL     OW77694   2.613   2.158   3.933  0.4601  0.0706  0.1125
23953SOL    HW177695   2.576   2.070   3.937  0.7852 -0.0445  0.9353
23953SOL    HW277696   2.708   2.144   3.934  0.5141  0.4197  0.1008
23954SOL     OW77697   1.746   0.500   8.082  0.3565  0.2128 -0.0009
23954SOL    HW177698   1.767   0.512   8.175  0.2342  2.4250 -0.2101
23954SOL    HW277699   1.829   0.518   8.037  0.5576 -1.4054 -0.3178
23955SOL     OW77700   7.088   2.865   2.962  0.2886  0.3589 -0.3590
23955SOL    HW177701   7.157   2.925   2.989 -0.2431  0.9467 -0.2785
23955SOL    HW277702   7.046   2.908   2.888 -0.7901  0.6048  0.3714
23956SOL     OW77703   7.010   2.818  10.084  0.1533 -0.5691  0.5492
23956SOL    HW177704   6.980   2.737  10.124 -2.1403 -0.3655 -0.5731
23956SOL    HW277705   6.990   2.886  10.149 -0.6305 -0.5929  0.3398
23957SOL     OW77706   6.722   0.042   7.517  0.2652 -0.4276 -0.6157
23957SOL    HW177707   6.698  -0.030   7.575 -0.4616  0.8628  0.7559
23957SOL    HW277708   6.689   0.015   7.431 -0.3569 -1.5537 -0.0471
23958SOL     OW77709   5.508   0.969   0.872  0.2912 -0.1875  0.1851
23958SOL    HW177710   5.453   0.968   0.793  0.4430 -0.2239  0.0786
23958SOL    HW277711   5.461   1.026   0.933  0.6314  0.6094 -0.2774
23959SOL     OW77712   1.862   2.096   0.498  0.5029  0.0130  0.1629
23959SOL    HW177713   1.830   2.021   0.548  0.0283  0.4852  0.5868
23959SOL    HW277714   1.782   2.139   0.466  0.7744  0.2559 -0.1909
23960SOL     OW77715   3.670   1.645   8.513 -0.2848  0.0401 -0.3249
23960SOL    HW177716   3.636   1.715   8.569 -2.4683 -0.5335 -0.8321
23960SOL    HW277717   3.599   1.580   8.509 -0.0197 -0.2337 -3.2113
23961SOL     OW77718   1.210   5.653   4.128 -0.4023  0.4907  0.0553
23961SOL    HW177719   1.229   5.742   4.158  0.6580  0.5758 -0.7894
23961SOL    HW277720   1.280   5.599   4.164  0.4810  0.4757 -1.5540
23962SOL     OW77721   0.199   1.148   2.779 -0.8922  0.6737 -0.1387
23962SOL    HW177722   0.260   1.097   2.725 -1.7123 -0.8071  0.2731
23962SOL    HW277723   0.254   1.181   2.850 -0.6844 -1.5892  0.8663
23963SOL     OW77724   1.206   4.523   9.831  0.4904  0.5581  0.1426
23963SOL    HW177725   1.177   4.601   9.878  0.8207  0.4610  0.5096
23963SOL    HW277726   1.292   4.503   9.869  2.3644  2.3982 -2.7017
23964SOL     OW77727   7.792  10.559   9.606 -0.3513 -0.2314  0.1575
23964SOL    HW177728   7.824  10.496   9.671  2.6258  0.2167 -0.7151
23964SOL    HW277729   7.816  10.644   9.642  1.7244  0.0127 -1.5886
23965SOL     OW77730   7.642   5.762   3.194 -0.2821 -0.5882  0.1487
23965SOL    HW177731   7.721   5.743   3.143 -1.6906 -0.1936 -2.3964
23965SOL    HW277732   7.660   5.845   3.237 -0.2754  1.0894 -2.8256
23966SOL     OW77733   6.240   4.064  10.550  0.0575 -0.2384  0.5216
23966SOL    HW177734   6.213   3.998  10.486 -1.6339  0.2414  0.6896
23966SOL    HW277735   6.335   4.070  10.539  0.1021 -1.8486 -0.2988
23967SOL     OW77736   0.945   1.291   2.730 -0.0401 -0.7399  0.2787
23967SOL    HW177737   0.920   1.252   2.646  0.2097  0.2501 -0.2825
23967SOL    HW277738   0.886   1.366   2.740  1.8713  1.0067 -0.5620
23968SOL     OW77739   5.920   6.119   5.933 -0.4319 -0.3683 -0.1464
23968SOL    HW177740   5.926   6.214   5.946  0.0222 -0.4277  0.1091
23968SOL    HW277741   5.827   6.099   5.944 -0.6516  0.1525 -0.9968
23969SOL     OW77742  10.533   4.188   8.509  0.2423 -0.3911  0.2672
23969SOL    HW177743  10.550   4.151   8.596  1.8746 -2.0715 -0.7039
23969SOL    HW277744  10.477   4.124   8.466  0.8914 -0.4515 -0.5158
23970SOL     OW77745   9.711   4.006   5.005 -0.3458  0.5687 -0.3703
23970SOL    HW177746   9.788   4.050   5.041 -0.7988  0.8991  0.2241
23970SOL    HW277747   9.746   3.931   4.957  0.3296  0.5971  0.0656
23971SOL     OW77748   0.199   0.165   4.593 -0.2198 -0.0785  0.0042
23971SOL    HW177749   0.264   0.215   4.543  2.1026 -1.2470  1.6862
23971SOL    HW277750   0.207   0.198   4.683 -2.8528  0.5447  0.1027
23972SOL     OW77751   1.638   7.034   0.624  0.2134 -0.2975 -0.3717
23972SOL    HW177752   1.724   7.042   0.584 -0.8794 -1.5339 -3.2334
23972SOL    HW277753   1.590   7.112   0.595  0.3607  0.4657  1.3350
23973SOL     OW77754   8.813   7.166   4.454 -0.2154 -0.2470  0.0515
23973SOL    HW177755   8.723   7.151   4.423 -1.2304  1.4857  1.8968
23973SOL    HW277756   8.807   7.246   4.506  2.4444 -0.0713  0.2111
23974SOL     OW77757   1.736   9.318   8.624  0.2739  0.7487  0.2053
23974SOL    HW177758   1.763   9.347   8.711  1.7380 -0.1180  0.0856
23974SOL    HW277759   1.817   9.319   8.573 -0.3324  0.0695 -0.7999
23975SOL     OW77760   3.683   6.929   2.895  0.0917 -0.4907 -0.4868
23975SOL    HW177761   3.599   6.947   2.936  1.5120  0.8071  2.1287
23975SOL    HW277762   3.703   6.839   2.919  0.2870 -0.1766  0.6060
23976SOL     OW77763   5.355  10.069   6.702  0.6433 -0.0258  0.0095
23976SOL    HW177764   5.368   9.997   6.763  0.2605  0.3347  0.5257
23976SOL    HW277765   5.260  10.081   6.699  0.6362 -0.2154 -0.8658
23977SOL     OW77766   9.673   0.282   3.234 -0.2562  0.2228  0.1487
23977SOL    HW177767   9.741   0.245   3.178  0.6291 -1.1364  2.0560
23977SOL    HW277768   9.631   0.207   3.275  0.1310  1.1848  2.4550
23978SOL     OW77769   2.759   3.436   3.980 -0.3445 -0.0777  0.5458
23978SOL    HW177770   2.852   3.431   3.958 -0.9669  1.4875 -3.2495
23978SOL    HW277771   2.734   3.345   3.997  1.6935 -0.6136  0.9432
23979SOL     OW77772   2.512   1.162   3.351  0.0235  0.3845 -0.3193
23979SOL    HW177773   2.504   1.190   3.443  1.6919 -0.4359  0.1003
23979SOL    HW277774   2.497   1.243   3.301 -4.1733  0.3187  0.4328
23980SOL     OW77775   0.547   1.315   0.998  0.0970 -0.5265  0.0387
23980SOL    HW177776   0.579   1.362   1.075 -0.3443  1.6295 -0.9983
23980SOL    HW277777   0.606   1.241   0.988  1.3630  0.2672  1.3067
23981SOL     OW77778   7.329   1.002   9.960  0.3333 -0.7348 -0.2519
23981SOL    HW177779   7.380   1.080   9.981  1.2478 -1.0647 -1.1230
23981SOL    HW277780   7.263   0.997  10.029  0.1118  0.9172 -0.3005
23982SOL     OW77781   4.877   2.635   7.188 -0.1369  0.0991  0.3375
23982SOL    HW177782   4.867   2.687   7.109  0.0203  0.8339  0.7880
23982SOL    HW277783   4.789   2.608   7.211 -0.3564  1.0554  0.6760
23983SOL     OW77784   3.184   6.208   1.158 -0.3679 -0.4205 -0.4332
23983SOL    HW177785   3.170   6.220   1.064 -0.2108 -1.1001 -0.5494
23983SOL    HW277786   3.250   6.273   1.181 -0.1541 -0.4792 -0.8640
23984SOL     OW77787   4.601   7.036   7.656  0.5343 -0.2718 -0.7025
23984SOL    HW177788   4.551   7.113   7.627  2.3558  0.6886 -1.4333
23984SOL    HW277789   4.680   7.037   7.602  0.7172 -2.5542 -0.5579
23985SOL     OW77790   9.936   1.784   5.140  0.0010 -0.1786  0.9532
23985SOL    HW177791  10.017   1.733   5.137  0.5466  0.6382  1.4910
23985SOL    HW277792   9.911   1.783   5.233  0.3719  1.0604  1.0835
23986SOL     OW77793  10.434   7.462   0.931  0.3801 -0.5038 -0.3309
23986SOL    HW177794  10.414   7.388   0.873 -0.0264 -1.2910  0.7826
23986SOL    HW277795  10.393   7.537   0.889 -0.3457 -1.1506 -0.8133
23987SOL     OW77796   8.539   2.619   5.978  0.2278  0.0373 -1.0091
23987SOL    HW177797   8.504   2.707   5.969 -1.9686 -0.3943  1.7162
23987SOL    HW277798   8.463   2.562   5.969  0.2627 -1.0773  3.4037
23988SOL     OW77799   8.610  10.437   2.080 -0.1849 -0.2467 -0.0365
23988SOL    HW177800   8.515  10.430   2.078 -0.2528  0.4078  0.3364
23988SOL    HW277801   8.642  10.352   2.051 -0.8840 -0.6728  0.4181
23989SOL     OW77802   4.365   8.209   9.803 -0.1983 -0.2048 -0.4387
23989SOL    HW177803   4.300   8.273   9.773  0.2656  0.2922 -0.4017
23989SOL    HW277804   4.365   8.142   9.735 -0.9296 -0.3451 -0.3142
23990SOL     OW77805  10.335   7.200   0.472 -0.0003  0.0033 -0.3733
23990SOL    HW177806  10.328   7.242   0.386 -5.1662 -1.7868 -1.2323
23990SOL    HW277807  10.339   7.107   0.453 -2.2446 -0.4992  1.1556
23991SOL     OW77808   6.543   7.511   9.440  0.1104 -0.3273  0.7050
23991SOL    HW177809   6.476   7.501   9.508  0.4764 -0.1788  1.0963
23991SOL    HW277810   6.579   7.598   9.455  0.3114 -0.3620  0.4279
23992SOL     OW77811   3.267   1.156   0.117 -0.1095  0.1303  0.3573
23992SOL    HW177812   3.320   1.211   0.174  0.9590 -0.2336 -0.2692
23992SOL    HW277813   3.329   1.096   0.075 -0.9889 -0.2348 -0.4820
23993SOL     OW77814   4.895   5.530   5.191  0.0709 -0.1394  0.3732
23993SOL    HW177815   4.920   5.462   5.253 -0.3149 -1.5451 -0.9748
23993SOL    HW277816   4.941   5.608   5.222  1.3815 -1.2485  1.3396
23994SOL     OW77817   0.314   0.555   4.167 -0.2928  0.3209  0.4596
23994SOL    HW177818   0.243   0.577   4.106  0.0371 -1.0822 -0.4898
23994SOL    HW277819   0.269   0.525   4.246 -0.7298  1.1443  0.5426
23995SOL     OW77820   7.837   5.216   5.652  0.7987 -0.0006 -0.2697
23995SOL    HW177821   7.758   5.201   5.601  1.9834 -1.4675 -1.8070
23995SOL    HW277822   7.896   5.145   5.627  3.5344  2.3459 -1.0857
23996SOL     OW77823   2.368   0.109   1.292  0.1860 -0.1616 -0.2847
23996SOL    HW177824   2.451   0.070   1.320  0.6250  0.6355 -0.4444
23996SOL    HW277825   2.305   0.038   1.299  0.7162 -0.5668  0.6361
23997SOL     OW77826   5.216   7.176   8.542 -0.6230 -0.2739 -0.4286
23997SOL    HW177827   5.165   7.254   8.563 -0.7251 -0.3386 -0.4376
23997SOL    HW277828   5.296   7.211   8.502 -1.0546 -0.1944 -1.2589
23998SOL     OW77829   2.573   5.606   7.709 -0.0283  1.1926 -0.0085
23998SOL    HW177830   2.653   5.620   7.659 -0.4890  2.3840 -0.4551
23998SOL    HW277831   2.570   5.680   7.770 -2.0031  2.5817 -1.6672
23999SOL     OW77832   4.385   9.481   0.495 -0.3827  0.4304 -0.2378
23999SOL    HW177833   4.444   9.534   0.549 -1.1341  1.3356 -0.2801
23999SOL    HW277834   4.384   9.395   0.538  1.5389  0.1361 -0.6653
24000SOL     OW77835   7.166   3.989   2.764 -0.1039  0.7346  0.5921
24000SOL    HW177836   7.096   4.015   2.704  0.4362  1.6539  0.3592
24000SOL    HW277837   7.138   4.022   2.849  0.0391  1.0897  0.5015
24001SOL     OW77838   7.686   2.156  10.253 -0.5671 -0.4799 -0.2851
24001SOL    HW177839   7.748   2.230  10.252  0.7601 -1.5198 -2.7815
24001SOL    HW277840   7.601   2.196  10.232 -0.3130  0.6096  0.6216
24002SOL     OW77841   6.030   2.197   3.111  0.0895 -1.2891 -0.6359
24002SOL    HW177842   6.126   2.195   3.117  0.0329 -2.8163 -0.0419
24002SOL    HW277843   6.006   2.109   3.084 -1.2816 -1.5385  1.2377
24003SOL     OW77844   6.731   2.073   6.324  0.2727 -0.0363 -0.5548
24003SOL    HW177845   6.661   2.064   6.389 -0.6605  0.7706 -1.4193
24003SOL    HW277846   6.750   1.984   6.296 -0.7919 -0.2273 -0.6951
24004SOL     OW77847  10.124   4.678   6.659 -0.2058  0.2186 -0.0187
24004SOL    HW177848  10.061   4.750   6.650 -0.9947 -0.2055  1.7408
24004SOL    HW277849  10.205   4.720   6.686 -0.6567  0.4561  0.9821
24005SOL     OW77850   5.658   9.196   8.942 -0.1169  0.8389  0.1908
24005SOL    HW177851   5.581   9.150   8.909  0.4008 -0.2841  0.5026
24005SOL    HW277852   5.622   9.266   8.997 -0.9311 -0.3526  1.2385
24006SOL     OW77853   9.274   3.791   6.002 -0.4687 -0.6104 -0.2117
24006SOL    HW177854   9.320   3.832   6.075 -0.9191 -0.8331  0.2050
24006SOL    HW277855   9.184   3.779   6.034 -0.1056 -2.9580  0.1266
24007SOL     OW77856   7.442  10.517   0.665 -0.4057 -0.1312  0.0495
24007SOL    HW177857   7.466  10.607   0.643 -0.3185 -0.0239  0.5648
24007SOL    HW277858   7.414  10.479   0.582 -1.9942  0.8494  0.0865
24008SOL     OW77859   6.322   9.360   4.889  0.1884 -0.5029  0.0243
24008SOL    HW177860   6.253   9.296   4.872 -1.4946  1.4290 -0.8527
24008SOL    HW277861   6.315   9.422   4.816  3.6765 -0.8448 -0.7568
24009SOL     OW77862   4.186   0.581  10.253  0.1587  0.1950 -0.7960
24009SOL    HW177863   4.262   0.525  10.269 -0.0134  0.2341  0.1678
24009SOL    HW277864   4.200   0.614  10.164  0.8572 -0.4413 -0.9338
24010SOL     OW77865   7.450   8.073   8.909  0.3507  0.3564  0.2656
24010SOL    HW177866   7.430   8.048   8.819  0.9171  0.1351  0.1987
24010SOL    HW277867   7.529   8.024   8.931  0.1286  0.2887  0.9375
24011SOL     OW77868   6.280   8.503   8.447 -0.4089  0.6323  0.1581
24011SOL    HW177869   6.341   8.572   8.422 -0.5214  0.8503  0.4757
24011SOL    HW277870   6.247   8.530   8.533 -1.0589  0.5884 -0.0709
24012SOL     OW77871   6.918   9.569   3.820  0.2714 -0.0117 -0.4212
24012SOL    HW177872   6.867   9.488   3.829  0.0116 -0.0180 -1.7252
24012SOL    HW277873   6.990   9.545   3.762 -0.1536  0.8328 -1.3172
24013SOL     OW77874   8.927   0.603   1.371  0.2753  0.1481  0.0160
24013SOL    HW177875   8.904   0.537   1.436 -0.7478 -0.4979 -0.9578
24013SOL    HW277876   8.905   0.562   1.287  1.4741  0.9881 -0.7350
24014SOL     OW77877   7.070   6.645   2.181  0.0499  0.2219  0.1819
24014SOL    HW177878   7.135   6.704   2.221 -1.1449  1.3475  0.5238
24014SOL    HW277879   6.994   6.651   2.238 -1.6723  1.7731 -2.0994
24015SOL     OW77880   1.275   1.161   1.651  0.2138  0.5366  0.2481
24015SOL    HW177881   1.248   1.236   1.599  0.1326  0.4674  0.1885
24015SOL    HW277882   1.193   1.115   1.671  0.1161  1.1698  1.3844
24016SOL     OW77883   6.644   9.962   6.647  0.1223  0.4405 -0.4794
24016SOL    HW177884   6.687   9.942   6.731  0.8767  2.2150 -0.3959
24016SOL    HW277885   6.551   9.971   6.669  0.4602  2.0594  0.4347
24017SOL     OW77886   0.540  10.635  10.052  0.1887 -0.3430 -0.5665
24017SOL    HW177887   0.493  10.690  10.115  1.8270 -0.1163  0.5092
24017SOL    HW277888   0.558  10.554  10.099  1.2840 -0.2378 -0.7794
24018SOL     OW77889   0.572   9.774   6.948  0.3397 -0.1883  0.1614
24018SOL    HW177890   0.520   9.853   6.965 -0.3548 -0.6127  0.0480
24018SOL    HW277891   0.554   9.717   7.023  0.9752 -0.1771  0.3303
24019SOL     OW77892   5.468   9.323   5.088  0.1398  0.2741  0.3789
24019SOL    HW177893   5.440   9.397   5.142  0.3716 -0.3238  1.3515
24019SOL    HW277894   5.473   9.249   5.149 -0.1283 -0.5569 -0.5790
24020SOL     OW77895   4.268   1.925   5.640  0.7073 -0.0573  0.2746
24020SOL    HW177896   4.258   1.830   5.630  0.5307 -0.0850  0.6903
24020SOL    HW277897   4.358   1.943   5.614  0.8596 -0.3918  0.5671
24021SOL     OW77898   9.277   7.892   2.373 -0.4873  0.2451 -0.3095
24021SOL    HW177899   9.339   7.826   2.343 -0.3577 -1.4102  3.1707
24021SOL    HW277900   9.329   7.972   2.380  1.2537 -0.9714  2.0082
24022SOL     OW77901   7.932   6.101   7.619  0.2081  0.2894  0.5700
24022SOL    HW177902   7.856   6.052   7.589 -0.0131  1.0556 -0.1397
24022SOL    HW277903   7.985   6.036   7.667 -0.8497 -0.2538  1.0222
24023SOL     OW77904   0.636   6.938  10.081 -0.1334 -0.5012  0.3751
24023SOL    HW177905   0.709   6.994  10.109  0.7195 -0.9822 -0.7733
24023SOL    HW277906   0.647   6.931   9.986 -1.2371 -1.2226  0.2831
24024SOL     OW77907  10.720   2.940   8.761 -0.5947  0.1933 -0.1318
24024SOL    HW177908  10.698   2.859   8.808  0.9245  0.9830  2.0849
24024SOL    HW277909  10.812   2.954   8.780 -0.2336  1.2996 -2.3728
24025SOL     OW77910   8.838   1.060   0.841  0.1971  0.0801 -0.3173
24025SOL    HW177911   8.836   1.131   0.776 -0.3428  0.0218 -0.3690
24025SOL    HW277912   8.794   1.097   0.918 -0.7026 -0.4169 -0.5772
24026SOL     OW77913   0.774   9.664   0.000  0.2926 -0.3591  0.3172
24026SOL    HW177914   0.801   9.572  -0.005  0.0167 -0.4143 -0.1496
24026SOL    HW277915   0.678   9.661   0.003  0.1972 -0.3543  4.7878
24027SOL     OW77916   3.722   2.892   5.809  0.1542  0.0842  0.4495
24027SOL    HW177917   3.646   2.846   5.843  1.1916 -1.5169  0.7159
24027SOL    HW277918   3.726   2.868   5.716  0.0175  0.6285  0.2979
24028SOL     OW77919   3.178   5.964   5.997  0.5530  0.2099 -0.2850
24028SOL    HW177920   3.130   6.037   5.959  0.2153  0.3847  0.4571
24028SOL    HW277921   3.253   6.004   6.040 -0.9533  0.4732  2.3311
24029SOL     OW77922   3.362   2.795   9.878 -0.3126  0.0276  0.3496
24029SOL    HW177923   3.458   2.799   9.879 -0.2376 -1.2446  0.1062
24029SOL    HW277924   3.335   2.829   9.963  0.3683  0.1497  0.5206
24030SOL     OW77925   4.329   2.037   9.617 -0.0927 -0.2605 -0.1134
24030SOL    HW177926   4.400   2.068   9.673  0.3869 -0.8948 -0.3658
24030SOL    HW277927   4.371   2.013   9.535 -0.6317 -0.4210 -0.3494
24031SOL     OW77928   2.666   5.885   5.827  0.0793 -0.0266 -0.7435
24031SOL    HW177929   2.743   5.860   5.878 -0.9796  0.5106  1.2225
24031SOL    HW277930   2.626   5.801   5.802 -0.3675 -0.3396  0.9248
24032SOL     OW77931   3.519   2.509   9.922 -0.3439  0.5411 -0.3452
24032SOL    HW177932   3.456   2.525   9.851 -0.7417 -0.8833 -0.3390
24032SOL    HW277933   3.604   2.513   9.879 -0.6281 -1.6531 -1.2271
24033SOL     OW77934   0.986   1.819   5.288 -0.4853  0.1110  0.3193
24033SOL    HW177935   1.038   1.830   5.367  1.0295 -1.9152 -0.2896
24033SOL    HW277936   0.906   1.775   5.317  0.4943 -1.5294  0.6513
24034SOL     OW77937   0.756   6.903   9.850  0.0452 -0.3912  0.0753
24034SOL    HW177938   0.726   6.820   9.815  1.0254 -0.0312 -1.7237
24034SOL    HW277939   0.852   6.898   9.847  0.1293  0.9532 -0.5234
24035SOL     OW77940   5.091   5.419   4.762  0.2538  0.2821  0.1968
24035SOL    HW177941   5.129   5.337   4.795 -1.8295 -0.9552 -0.2569
24035SOL    HW277942   5.029   5.445   4.830  0.8521  1.4677  0.3021
24036SOL     OW77943   1.600   0.486   4.565  0.3344  0.2599  0.3441
24036SOL    HW177944   1.636   0.546   4.630  0.2334 -0.8306  1.4254
24036SOL    HW277945   1.640   0.402   4.584 -0.5711 -0.3353 -0.2731
24037SOL     OW77946   2.220   2.807   2.562 -0.0977  0.4175 -0.2167
24037SOL    HW177947   2.241   2.715   2.546  2.0650  0.7985  0.1830
24037SOL    HW277948   2.232   2.850   2.478  0.2120  0.5491 -0.1072
24038SOL     OW77949   5.807   1.584   9.868 -0.5066 -0.0129 -0.4210
24038SOL    HW177950   5.820   1.564   9.775  2.6104 -0.3002 -0.0191
24038SOL    HW277951   5.774   1.674   9.869  1.5465  0.8293 -1.8025
24039SOL     OW77952   6.416   5.492   2.304  0.2199  0.0874 -0.2399
24039SOL    HW177953   6.497   5.491   2.252  1.6572  0.0114  1.8759
24039SOL    HW277954   6.392   5.400   2.313  0.8796 -0.0114  0.5544
24040SOL     OW77955   4.627   0.679   9.453  0.4458  0.4703  0.0611
24040SOL    HW177956   4.715   0.643   9.456  0.4561  0.2200 -1.7804
24040SOL    HW277957   4.630   0.743   9.382 -1.5958 -1.9238 -2.4571
24041SOL     OW77958   9.403   0.307   3.327 -0.4975  0.0042  0.3907
24041SOL    HW177959   9.312   0.337   3.338 -0.6681  0.3321 -1.5883
24041SOL    HW277960   9.400   0.248   3.252  1.2486  1.6448 -1.0451
24042SOL     OW77961   4.357  10.009   5.272  0.6201 -0.4894 -0.5889
24042SOL    HW177962   4.390  10.087   5.316 -0.6997  0.2081 -0.7976
24042SOL    HW277963   4.299   9.968   5.336  0.1927 -0.5084 -0.9801
24043SOL     OW77964   7.185   2.743   0.916  0.2437  0.7745  0.5770
24043SOL    HW177965   7.123   2.677   0.886  1.0776  0.3897 -0.3592
24043SOL    HW277966   7.142   2.826   0.896 -1.0937  0.5875  2.3480
24044SOL     OW77967   9.347   7.764  10.588 -0.0780  0.0294 -0.4913
24044SOL    HW177968   9.365   7.758  10.682  0.2772 -0.0946 -0.5677
24044SOL    HW277969   9.252   7.761  10.581 -0.1670  1.1819 -0.0442
24045SOL     OW77970   4.220   6.573   4.894  0.2253  0.2133 -0.3896
24045SOL    HW177971   4.167   6.546   4.819 -1.2677  0.4419  0.5404
24045SOL    HW277972   4.264   6.652   4.864 -1.5932  1.2170 -0.5416
24046SOL     OW77973   4.648   7.624   8.049 -0.1360 -0.3319  0.2540
24046SOL    HW177974   4.707   7.687   8.008  1.0624 -1.4367  0.2232
24046SOL    HW277975   4.567   7.631   7.999  0.6120 -0.1835 -0.9897
24047SOL     OW77976   2.364   5.721   4.877  0.1259 -0.0894  0.3747
24047SOL    HW177977   2.369   5.725   4.972  0.1464 -0.5431  0.3968
24047SOL    HW277978   2.420   5.792   4.846  2.9656 -2.0622  0.6575
24048SOL     OW77979   6.857   2.937  10.498  0.2045  0.6335  0.0777
24048SOL    HW177980   6.797   2.863  10.482  0.8500  0.4055 -1.4403
24048SOL    HW277981   6.799   3.013  10.503 -0.1653  0.7490 -3.6061
24049SOL     OW77982   3.573   4.914   1.328  0.3220 -0.1660  0.5998
24049SOL    HW177983   3.511   4.870   1.387 -0.7139  1.9093  1.1389
24049SOL    HW277984   3.571   4.861   1.248 -1.3821 -0.7178  0.9685
24050SOL     OW77985   4.391   7.217   7.621  0.1980  0.0603  0.1755
24050SOL    HW177986   4.340   7.234   7.700 -0.9628  2.8205 -1.0401
24050SOL    HW277987   4.325   7.203   7.553  1.1724 -1.9335 -0.4349
24051SOL     OW77988  10.623   4.727   8.779 -0.1350  0.4678  0.0654
24051SOL    HW177989  10.664   4.773   8.853 -0.4316  2.2033 -0.7812
24051SOL    HW277990  10.550   4.680   8.818 -0.6262  1.7945  0.8303
24052SOL     OW77991   5.270   5.224   6.989  0.0631 -0.1435 -0.4951
24052SOL    HW177992   5.269   5.250   6.897 -0.5470  0.5073 -0.3163
24052SOL    HW277993   5.358   5.191   7.004  0.6306  1.1347 -0.9317
24053SOL     OW77994   6.688   4.081   5.899  0.3138  0.3220  0.5144
24053SOL    HW177995   6.737   4.130   5.966 -1.3517  1.4771  0.9772
24053SOL    HW277996   6.754   4.052   5.836  1.5067  2.4933  0.6711
24054SOL     OW77997   0.723   0.888   9.707  0.2537  0.3755  0.2581
24054SOL    HW177998   0.647   0.944   9.720  0.7930  0.8795  1.3609
24054SOL    HW277999   0.717   0.859   9.616 -0.3106  1.8153 -0.1825
24055SOL     OW78000   5.083   5.617   3.736  0.0882  0.1007 -0.4556
24055SOL    HW178001   5.054   5.699   3.776  1.2464 -0.2361  1.2051
24055SOL    HW278002   5.002   5.568   3.721 -0.4190  0.2726  1.4889
24056SOL     OW78003   1.147   8.960   6.200  0.5682  0.0138  0.2539
24056SOL    HW178004   1.241   8.970   6.212  0.4460  3.3455 -0.4300
24056SOL    HW278005   1.111   8.957   6.289  1.2844 -1.4979  0.5184
24057SOL     OW78006   3.546   4.661   4.914 -0.3855 -0.0650 -0.3792
24057SOL    HW178007   3.595   4.737   4.882 -0.4909 -0.4940 -1.6002
24057SOL    HW278008   3.462   4.666   4.870 -2.2402  1.6074  2.9561
24058SOL     OW78009   6.760   6.853   9.542 -0.2215 -0.1670 -0.0090
24058SOL    HW178010   6.808   6.810   9.471 -0.8865  1.9353 -1.8653
24058SOL    HW278011   6.677   6.806   9.546  0.5428 -1.4908  0.6944
24059SOL     OW78012   9.073   9.279   4.792  0.7728  0.1911 -0.2692
24059SOL    HW178013   9.146   9.226   4.826 -0.1670 -0.5306  0.6685
24059SOL    HW278014   9.087   9.366   4.830  1.7236  0.3603 -0.9514
24060SOL     OW78015   4.898   1.128   1.080  0.5699 -0.1592 -0.5925
24060SOL    HW178016   4.840   1.195   1.046  1.2860  0.7110 -0.1450
24060SOL    HW278017   4.985   1.153   1.049  0.8471 -0.9141 -0.4644
24061SOL     OW78018   7.698   8.216   4.678  0.0205 -0.4801 -0.1319
24061SOL    HW178019   7.642   8.217   4.600  2.0943 -0.8755 -1.7496
24061SOL    HW278020   7.680   8.131   4.718  0.2887 -1.1322 -1.3190
24062SOL     OW78021   9.281   3.736   3.982 -0.2280 -0.3281 -0.1594
24062SOL    HW178022   9.300   3.822   3.944  2.1548 -1.2712 -1.3405
24062SOL    HW278023   9.352   3.722   4.046 -0.6270 -1.3725  0.0806
24063SOL     OW78024  10.301   8.721   6.059  0.6903  0.3144 -0.3738
24063SOL    HW178025  10.253   8.725   6.141  0.2912  4.2782 -0.5722
24063SOL    HW278026  10.239   8.685   5.996  0.9383 -2.5806  0.9065
24064SOL     OW78027   5.610   7.198   4.862  0.2109 -0.5320 -0.1670
24064SOL    HW178028   5.557   7.120   4.846 -0.3849  0.0334 -0.9615
24064SOL    HW278029   5.696   7.176   4.826  1.0664 -2.0484  2.4778
24065SOL     OW78030   6.854  10.229   9.880 -0.2578 -0.5333 -0.9801
24065SOL    HW178031   6.771  10.231   9.833  0.4931  0.7780 -2.3149
24065SOL    HW278032   6.912  10.288   9.831  1.2578 -0.8676  0.3070
24066SOL     OW78033   0.835   4.276   4.227  0.2712 -0.3183  0.3456
24066SOL    HW178034   0.914   4.323   4.255  0.1204 -0.8337  1.7231
24066SOL    HW278035   0.774   4.285   4.300 -0.1263 -1.7690  0.2345
24067SOL     OW78036   1.102   1.119   2.038 -0.3219  0.1576  0.4255
24067SOL    HW178037   1.034   1.155   1.980 -0.4545  1.1072  1.1596
24067SOL    HW278038   1.184   1.151   2.001 -0.1144 -2.0841 -1.2602
24068SOL     OW78039   3.456   0.316   7.801  0.1889 -0.6950 -0.4835
24068SOL    HW178040   3.381   0.361   7.841 -0.5649 -0.9255 -1.5893
24068SOL    HW278041   3.504   0.278   7.875 -0.7387 -0.4783  0.2472
24069SOL     OW78042   5.422   0.784   0.109  0.1014 -0.0239  0.1310
24069SOL    HW178043   5.332   0.786   0.142 -0.2315 -2.7176 -0.3910
24069SOL    HW278044   5.416   0.826   0.023 -1.0981 -1.7307 -0.6819
24070SOL     OW78045   0.403   1.491   0.381  0.1633 -0.1820 -0.4079
24070SOL    HW178046   0.439   1.403   0.366  0.2759 -0.6806  2.2269
24070SOL    HW278047   0.480   1.548   0.383  0.3700 -0.4766  0.4894
24071SOL     OW78048   8.001  10.350   7.624  0.6148 -0.4157 -0.3171
24071SOL    HW178049   8.092  10.331   7.645  1.0090 -0.4781 -1.9117
24071SOL    HW278050   8.004  10.390   7.537 -0.5644  2.8554  0.9718
24072SOL     OW78051   1.490   9.888   9.692 -0.0808 -0.3283  0.5152
24072SOL    HW178052   1.513   9.902   9.784  1.7936  0.8709 -0.0596
24072SOL    HW278053   1.543   9.814   9.664  0.7777  0.4532 -0.0197
24073SOL     OW78054   5.956   3.126   7.711  0.3496  0.5050  0.5395
24073SOL    HW178055   5.914   3.041   7.721  0.6109  0.4271  1.0311
24073SOL    HW278056   5.987   3.148   7.799  0.2443  1.1322  0.4263
24074SOL     OW78057   7.079   2.574   6.124  0.0363 -0.4257  0.4947
24074SOL    HW178058   7.012   2.536   6.068 -0.9219  0.2148  1.1792
24074SOL    HW278059   7.137   2.501   6.146  0.3459 -0.7184 -1.1803
24075SOL     OW78060   4.270   5.027   5.131 -0.4236  0.2518  0.1002
24075SOL    HW178061   4.271   5.085   5.055  0.6366 -1.9930 -1.7210
24075SOL    HW278062   4.360   5.029   5.163 -0.8715  1.1997  1.3651
24076SOL     OW78063   3.930   2.426   8.920  0.3537 -0.2473  0.3795
24076SOL    HW178064   3.937   2.512   8.962  0.0088 -0.2809  0.5045
24076SOL    HW278065   3.916   2.446   8.827  0.3952 -0.1701  0.3896
24077SOL     OW78066   6.690   2.513   8.664 -0.5965  0.6148 -0.1858
24077SOL    HW178067   6.725   2.428   8.692  0.3610  0.2994 -2.1643
24077SOL    HW278068   6.742   2.577   8.713 -0.2103  0.0843  0.1144
24078SOL     OW78069   0.088   0.051   8.274 -0.0056  0.1292  0.0672
24078SOL    HW178070   0.114   0.122   8.333 -1.1557 -0.5235  1.4320
24078SOL    HW278071   0.145  -0.022   8.297 -1.5065 -0.6388  1.5891
24079SOL     OW78072   1.453   3.834   7.514 -0.1417 -0.1020  0.4882
24079SOL    HW178073   1.435   3.812   7.422 -1.6295 -0.3526  0.8101
24079SOL    HW278074   1.497   3.756   7.549 -1.4460 -0.8763  0.4944
24080SOL     OW78075   6.398   4.753   2.255 -0.0985  0.4104 -0.5849
24080SOL    HW178076   6.362   4.721   2.172 -1.2992 -0.9174  0.4000
24080SOL    HW278077   6.370   4.844   2.259 -2.9170 -0.3656 -0.1927
24081SOL     OW78078   7.884  10.372   8.110  0.6689 -0.3609  0.0847
24081SOL    HW178079   7.852  10.423   8.184  0.2932  2.2139 -1.7038
24081SOL    HW278080   7.819  10.386   8.041  1.8105 -1.3073 -1.2570
24082SOL     OW78081   9.540   8.734   2.718  0.4152 -0.6087 -0.4787
24082SOL    HW178082   9.498   8.754   2.635  0.9503 -1.7129 -1.0449
24082SOL    HW278083   9.528   8.640   2.729  0.6667 -0.5362  0.5188
24083SOL     OW78084   8.102   3.242   0.542  0.0189  0.2586  0.2562
24083SOL    HW178085   8.038   3.246   0.471 -0.0925 -0.1390  0.3289
24083SOL    HW278086   8.063   3.181   0.605 -0.4417  1.4953  1.2223
24084SOL     OW78087   6.112   2.078   1.927  0.3225  0.5413  0.4233
24084SOL    HW178088   6.176   2.101   1.859  1.1176  1.8811  1.5804
24084SOL    HW278089   6.141   1.993   1.959  0.6531  0.4602 -0.0751
24085SOL     OW78090  10.449   0.739  10.701  0.0895 -0.0680  0.2040
24085SOL    HW178091  10.443   0.757  10.795 -0.2446 -0.8884  0.3542
24085SOL    HW278092  10.414   0.817  10.659  0.3954  0.3759  0.7534
24086SOL     OW78093   0.993   3.461   8.236 -0.4794 -0.1883  0.4785
24086SOL    HW178094   0.993   3.406   8.314 -0.8859  0.4985  0.9786
24086SOL    HW278095   0.915   3.434   8.187  0.0687 -0.9912  0.0281
24087SOL     OW78096   3.043   4.025   2.346 -0.1452  0.1040  0.6448
24087SOL    HW178097   2.994   3.990   2.272 -2.1493  1.8654  1.0167
24087SOL    HW278098   3.036   3.958   2.414  0.9759 -1.1519 -0.4381
24088SOL     OW78099   9.534   9.993   2.567  0.2507 -0.1825 -0.0485
24088SOL    HW178100   9.603   9.970   2.505  1.3256  1.4940  0.4739
24088SOL    HW278101   9.494  10.072   2.531 -1.5869 -1.2311 -0.4493
24089SOL     OW78102   5.912   6.881  10.212  0.0496  0.0277 -0.0470
24089SOL    HW178103   5.863   6.812  10.169  1.2444 -0.5733 -0.5028
24089SOL    HW278104   5.923   6.948  10.145  1.1554 -0.5242 -0.4466
24090SOL     OW78105   6.593   4.343   4.207 -0.2598 -0.1750 -0.0807
24090SOL    HW178106   6.682   4.311   4.218 -0.7000 -1.9919 -1.4656
24090SOL    HW278107   6.583   4.408   4.277  1.3410 -1.6528  1.6497
24091SOL     OW78108   1.371   7.875   0.255  0.6364  0.0003 -0.2900
24091SOL    HW178109   1.453   7.843   0.293  0.0359  0.6329  1.6322
24091SOL    HW278110   1.381   7.971   0.255 -0.3937  0.1314  0.7375
24092SOL     OW78111   7.934  10.411   9.806  0.2456 -0.0278 -0.2071
24092SOL    HW178112   8.017  10.449   9.777  0.0950  1.2562  0.9451
24092SOL    HW278113   7.930  10.326   9.761  1.7822  0.2344 -0.9212
24093SOL     OW78114   0.845   5.294   1.555 -0.5912 -0.2493 -0.2171
24093SOL    HW178115   0.901   5.300   1.478 -0.0870 -1.5156  0.0250
24093SOL    HW278116   0.811   5.204   1.553 -1.2906 -0.0099  0.5411
24094SOL     OW78117  10.322   4.852   6.306 -0.2886 -0.2065 -0.3903
24094SOL    HW178118  10.349   4.762   6.322  0.7231  0.0935 -0.3432
24094SOL    HW278119  10.230   4.855   6.333 -0.2754 -1.1665 -0.2060
24095SOL     OW78120  10.513   9.679   6.337 -0.9322  0.3907 -0.4492
24095SOL    HW178121  10.604   9.699   6.317 -0.6610  1.7742  1.8214
24095SOL    HW278122  10.471   9.672   6.251  1.2378 -0.1034 -1.5442
24096SOL     OW78123   3.974   1.092   9.635  0.0917 -0.2543  0.2491
24096SOL    HW178124   3.955   1.129   9.549  1.6873 -1.9958 -0.9350
24096SOL    HW278125   4.066   1.116   9.651  0.3263 -1.3724  0.6648
24097SOL     OW78126   4.546   6.060   4.259  0.3986  0.6011 -0.0211
24097SOL    HW178127   4.522   6.119   4.188 -0.7852  1.1576  0.7985
24097SOL    HW278128   4.539   5.972   4.222  0.7846  0.9185 -0.8571
24098SOL     OW78129   8.123   7.972   0.912  0.0411  0.2814  0.0732
24098SOL    HW178130   8.029   7.956   0.897 -0.3301  1.6944  0.7214
24098SOL    HW278131   8.167   7.922   0.844 -1.0764 -1.9337  0.8663
24099SOL     OW78132   7.310   1.634   6.596  0.2239 -0.4833 -0.1805
24099SOL    HW178133   7.343   1.654   6.508  0.5507  1.8717  0.4229
24099SOL    HW278134   7.367   1.563   6.626  1.0374 -0.3602 -1.3259
24100SOL     OW78135   1.560   9.320   5.724 -0.0718 -0.0227 -0.9857
24100SOL    HW178136   1.533   9.232   5.748 -0.4315 -0.4077 -2.6958
24100SOL    HW278137   1.650   9.327   5.755  0.6194 -1.6955 -2.4655
24101SOL     OW78138   8.336   8.187   6.838 -0.0103 -0.4237  0.1022
24101SOL    HW178139   8.333   8.148   6.750  1.6544  0.1503 -0.2285
24101SOL    HW278140   8.429   8.193   6.858 -0.3586 -1.9821  2.5715
24102SOL     OW78141   2.355   7.909  10.247 -0.0231 -0.1084 -0.0407
24102SOL    HW178142   2.329   7.882  10.159 -0.4583  0.4053 -0.0714
24102SOL    HW278143   2.292   7.976  10.272  0.1313 -0.2053  0.6421
24103SOL     OW78144   2.839   2.823   7.993 -0.1340  0.6486  0.3522
24103SOL    HW178145   2.858   2.831   8.086 -0.0339  3.2245  0.1731
24103SOL    HW278146   2.781   2.897   7.973 -0.9611 -0.4072 -1.4482
24104SOL     OW78147   8.717   4.868   4.115 -1.0059  0.1489  0.9223
24104SOL    HW178148   8.677   4.899   4.196  0.6849 -0.5590  2.0689
24104SOL    HW278149   8.771   4.793   4.141 -1.3273 -0.8612 -1.0390
24105SOL     OW78150   4.312   5.445   2.466 -1.0075 -0.2697 -0.0111
24105SOL    HW178151   4.396   5.458   2.422 -1.6809  2.0954 -0.7662
24105SOL    HW278152   4.334   5.400   2.547  1.4250  2.5751  1.0889
24106SOL     OW78153   5.382   0.017   5.438  0.1629 -0.2528 -0.4206
24106SOL    HW178154   5.417   0.030   5.350  1.6312  0.4263  0.2187
24106SOL    HW278155   5.454  -0.024   5.487 -1.3664 -2.6614 -0.0665
24107SOL     OW78156   6.177   4.932   1.384  0.2737  0.0274 -0.2983
24107SOL    HW178157   6.120   4.959   1.455  2.0310 -0.3270  1.3100
24107SOL    HW278158   6.117   4.907   1.313 -1.5767 -1.1098  1.5729
24108SOL     OW78159   1.476   6.942   9.233  0.4020 -0.0926  0.5814
24108SOL    HW178160   1.530   6.927   9.310 -0.1200 -0.0922  0.9501
24108SOL    HW278161   1.538   6.967   9.164  1.0194 -1.4097  0.6355
24109SOL     OW78162   2.780   8.887   5.718 -0.4608  0.1513 -0.4323
24109SOL    HW178163   2.864   8.875   5.761 -0.6082  0.8239  0.0551
24109SOL    HW278164   2.767   8.982   5.716 -0.1489  0.2013 -2.5600
24110SOL     OW78165   8.088   4.570   1.034 -0.8739 -0.0692  0.2134
24110SOL    HW178166   8.155   4.538   0.974  1.1476  2.3638  0.9682
24110SOL    HW278167   8.034   4.494   1.053  2.4791 -2.5852  0.5962
24111SOL     OW78168   8.826   0.058   7.036 -0.1989 -0.6946 -0.0761
24111SOL    HW178169   8.857   0.059   6.945 -0.0935 -0.7739 -0.0403
24111SOL    HW278170   8.737   0.023   7.030 -0.6464  0.4316 -0.2961
24112SOL     OW78171   9.208   4.693   7.428 -0.1598  0.1038 -0.0778
24112SOL    HW178172   9.268   4.751   7.476  1.7697  0.3474 -2.6005
24112SOL    HW278173   9.122   4.733   7.439 -0.2286 -0.7095  4.4222
24113SOL     OW78174   9.562   7.937   3.236  0.3030  0.3896  0.8128
24113SOL    HW178175   9.636   7.877   3.228  2.2304  2.4650  1.9432
24113SOL    HW278176   9.585   7.994   3.310 -2.5894  0.9346  1.4023
24114SOL     OW78177   6.320   7.705   3.218 -0.2294  0.0007 -0.0619
24114SOL    HW178178   6.367   7.637   3.171 -0.2965 -0.0407 -0.0683
24114SOL    HW278179   6.249   7.660   3.263  0.1445 -0.0407  0.5118
24115SOL     OW78180   7.259   6.414  10.712  0.0839 -0.2390 -0.4194
24115SOL    HW178181   7.244   6.454  10.798  2.1395  1.2164 -0.6746
24115SOL    HW278182   7.337   6.458  10.678  0.0131 -1.6133 -2.5422
24116SOL     OW78183   2.851   7.790   3.997 -0.1556 -0.3273 -0.5768
24116SOL    HW178184   2.927   7.756   3.950  0.1042 -0.0592 -0.3609
24116SOL    HW278185   2.802   7.712   4.023  0.9283 -0.6106  0.7417
24117SOL     OW78186   8.688   3.134   9.085 -0.1098 -0.1685 -0.3313
24117SOL    HW178187   8.778   3.101   9.087  0.7018  1.9231  0.6313
24117SOL    HW278188   8.696   3.226   9.110 -2.4383  0.2997 -1.0948
24118SOL     OW78189   4.707  10.193  10.426 -0.6586  0.5068  0.4467
24118SOL    HW178190   4.801  10.201  10.443 -0.2082  1.3056 -1.9122
24118SOL    HW278191   4.681  10.280  10.395 -1.6341 -0.2784 -1.0799
24119SOL     OW78192   9.302   0.673   8.870 -0.2894  0.1326  0.1643
24119SOL    HW178193   9.264   0.586   8.867 -0.1106  0.0620 -0.0342
24119SOL    HW278194   9.280   0.706   8.958 -0.5676 -0.0141  0.1504
24120SOL     OW78195   4.500   0.642   2.113  0.5966 -0.0141  0.3045
24120SOL    HW178196   4.481   0.709   2.047  0.5313 -0.6692 -0.3438
24120SOL    HW278197   4.490   0.559   2.067  0.3248 -0.4851  1.1989
24121SOL     OW78198   9.939   3.688   2.951 -0.5680 -0.2926  0.2118
24121SOL    HW178199  10.008   3.633   2.914 -1.2989 -1.0362 -0.0804
24121SOL    HW278200   9.875   3.698   2.880 -1.5686 -1.0147  0.9771
24122SOL     OW78201   5.046   9.072   7.539  0.1293 -0.3232 -0.4251
24122SOL    HW178202   5.116   9.007   7.537  0.3878 -0.0341 -0.9834
24122SOL    HW278203   5.064   9.125   7.617 -1.2630 -2.1869  1.2870
24123SOL     OW78204   5.721   2.799   4.875  0.0662 -0.5882  0.2816
24123SOL    HW178205   5.814   2.800   4.849 -0.4589  0.0628 -1.7512
24123SOL    HW278206   5.698   2.706   4.876  0.5138 -0.7088 -0.0828
24124SOL     OW78207   8.497   4.451   4.277 -0.5547 -0.5135  0.0761
24124SOL    HW178208   8.471   4.535   4.238  2.0529  1.0131  1.3347
24124SOL    HW278209   8.475   4.386   4.210  2.1047  1.7363 -3.3361
24125SOL     OW78210   6.610   7.998   9.350 -0.5594  0.6761  0.5093
24125SOL    HW178211   6.598   8.070   9.412 -2.0693  3.1832 -2.4266
24125SOL    HW278212   6.669   8.032   9.284 -0.8471 -0.9999 -0.6858
24126SOL     OW78213   2.969   1.734   8.002  0.0731 -0.1759  0.1462
24126SOL    HW178214   3.029   1.789   7.953  0.4613  0.1794  0.9961
24126SOL    HW278215   2.983   1.646   7.968 -0.8609  0.2679 -1.5403
24127SOL     OW78216   1.801   2.951   2.842  0.2354  0.5134 -0.2451
24127SOL    HW178217   1.850   2.963   2.761 -0.6111  2.6247 -0.5011
24127SOL    HW278218   1.863   2.976   2.911  1.0264 -1.4904 -0.1618
24128SOL     OW78219   3.946   4.594   9.461  0.3160  0.1443 -0.2376
24128SOL    HW178220   3.939   4.615   9.368 -0.7043 -1.4488 -0.5566
24128SOL    HW278221   3.970   4.677   9.503 -0.9453  1.3100 -1.7133
24129SOL     OW78222   4.161   0.423   1.732  0.3521  0.0850  0.0888
24129SOL    HW178223   4.131   0.431   1.823  1.7961  0.1616  0.5914
24129SOL    HW278224   4.145   0.332   1.708 -3.0290  0.7678 -0.7422
24130SOL     OW78225  10.139   3.789   2.285  0.6368 -0.5504 -0.4447
24130SOL    HW178226  10.075   3.757   2.223  1.9746 -0.6646 -1.8232
24130SOL    HW278227  10.178   3.710   2.323 -1.5452 -0.5385  2.1532
24131SOL     OW78228   2.044   6.975   2.921  0.8420 -0.2509 -0.5548
24131SOL    HW178229   2.051   6.962   3.016  2.3486  0.9829 -0.4510
24131SOL    HW278230   2.108   6.914   2.884  0.5791 -0.4080 -0.7534
24132SOL     OW78231   7.940   8.753   2.446  0.2003  0.2033 -0.1653
24132SOL    HW178232   7.910   8.830   2.494  1.6167  1.1417 -0.7254
24132SOL    HW278233   8.011   8.785   2.390  0.9736 -1.5488 -0.2638
24133SOL     OW78234   2.666   9.460   4.280 -0.5747  0.2319 -0.7852
24133SOL    HW178235   2.703   9.446   4.367  0.3588 -0.2538 -1.2430
24133SOL    HW278236   2.658   9.555   4.272  2.6678  0.6015 -1.4360
24134SOL     OW78237   5.576   1.901   4.307 -0.0869 -0.2611 -0.8923
24134SOL    HW178238   5.650   1.954   4.279 -0.6583 -0.0993 -2.1670
24134SOL    HW278239   5.524   1.958   4.363 -0.0899  0.1537 -1.3146
24135SOL     OW78240   0.169   8.229   1.825 -0.2660  0.8698 -0.5949
24135SOL    HW178241   0.096   8.270   1.778  1.4740  2.4526 -2.0774
24135SOL    HW278242   0.239   8.222   1.759  1.3218  0.5412  1.0465
24136SOL     OW78243   5.386   8.878   9.899 -0.5734  0.4161  0.5590
24136SOL    HW178244   5.461   8.820   9.912 -1.5967 -1.1954 -0.4130
24136SOL    HW278245   5.312   8.831   9.937 -1.5584  0.7173 -0.9090
24137SOL     OW78246   3.556  10.434   2.840  0.1980  0.5557 -0.8238
24137SOL    HW178247   3.462  10.454   2.835 -0.0934 -0.4223  0.3528
24137SOL    HW278248   3.593  10.505   2.892  0.0241  0.6857 -0.8767
24138SOL     OW78249   8.906   3.325   1.963  0.1681 -0.6927 -0.6004
24138SOL    HW178250   8.970   3.268   2.006 -0.8081 -1.2173  0.2072
24138SOL    HW278251   8.834   3.332   2.026 -0.7919 -0.5260 -1.6764
24139SOL     OW78252   5.228   5.711   4.046 -0.1726  0.2443 -0.3553
24139SOL    HW178253   5.296   5.675   3.989  0.6767  1.1362  0.0624
24139SOL    HW278254   5.259   5.692   4.135 -0.5687  0.4649 -0.1699
24140SOL     OW78255   2.829   9.342   0.186  0.2269  0.7927  0.5186
24140SOL    HW178256   2.860   9.329   0.275 -0.0541  1.2784  0.6910
24140SOL    HW278257   2.740   9.306   0.186  1.1874 -1.8329 -0.3194
24141SOL     OW78258   3.046   7.434   3.613  0.2155 -0.1500 -0.9092
24141SOL    HW178259   3.005   7.349   3.597 -0.8432  0.3678 -1.0001
24141SOL    HW278260   2.980   7.484   3.661  1.4769  0.0309  0.7405
24142SOL     OW78261   6.833   4.703   6.809  0.4284  0.2998 -0.0347
24142SOL    HW178262   6.862   4.791   6.789  1.2972 -0.0739 -0.4355
24142SOL    HW278263   6.872   4.648   6.742 -1.7184 -0.1611 -1.0050
24143SOL     OW78264   7.024   6.589   5.216  1.3599 -0.2256 -0.3084
24143SOL    HW178265   6.961   6.654   5.247  2.9091  0.9544  0.5341
24143SOL    HW278266   7.042   6.613   5.126  1.2339 -0.0554 -0.2873
24144SOL     OW78267   4.156   0.893   8.024  0.0624  0.3493  0.2873
24144SOL    HW178268   4.171   0.800   8.039  0.3674  0.3123 -0.2014
24144SOL    HW278269   4.148   0.900   7.928  0.2184  0.8500  0.3099
24145SOL     OW78270   7.707   1.955   0.276  0.4865 -0.0886  0.3581
24145SOL    HW178271   7.685   1.927   0.187 -0.0837  0.4339  0.3258
24145SOL    HW278272   7.759   2.035   0.264 -0.8021  0.8078  0.5021
24146SOL     OW78273   4.968   1.025   3.324  0.2907  0.0157 -0.3729
24146SOL    HW178274   4.928   0.939   3.336  1.6715 -1.0282 -2.5568
24146SOL    HW278275   5.019   1.039   3.404 -0.4985 -0.8471  0.3027
24147SOL     OW78276   6.813   7.177   5.271  0.3868 -0.3557 -0.7326
24147SOL    HW178277   6.767   7.115   5.214 -0.2190 -0.2619 -0.3490
24147SOL    HW278278   6.879   7.216   5.214 -1.3355  1.0196 -1.9021
24148SOL     OW78279   9.427   0.349   0.606 -0.1344  0.4328 -0.2952
24148SOL    HW178280   9.371   0.415   0.565 -2.0524  0.0396  1.5003
24148SOL    HW278281   9.379   0.267   0.593  0.6116 -0.1026  0.2820
24149SOL     OW78282   8.370   3.449   7.252 -0.0130 -0.0201  0.3810
24149SOL    HW178283   8.366   3.544   7.263  0.9398  0.0038  0.6822
24149SOL    HW278284   8.285   3.417   7.282 -0.2508  0.7152  0.5074
24150SOL     OW78285   9.910   4.358   0.430 -0.0634 -0.9204  0.1705
24150SOL    HW178286   9.866   4.319   0.506 -0.2372 -0.0320  0.5466
24150SOL    HW278287   9.994   4.389   0.464 -0.6021  0.5001  0.3066
24151SOL     OW78288   3.985   9.101   2.348  0.3476 -0.1317  0.1519
24151SOL    HW178289   3.964   9.050   2.270 -0.2509  0.2757  0.0388
24151SOL    HW278290   4.002   9.036   2.416  0.4059 -0.4855 -0.1985
24152SOL     OW78291   2.819   4.745   3.395  0.3360 -0.0446 -0.1293
24152SOL    HW178292   2.813   4.724   3.488  0.5705 -0.3157 -0.1751
24152SOL    HW278293   2.775   4.672   3.351  0.0629  0.1737 -0.2239
24153SOL     OW78294   8.291   5.477  10.426 -0.6609  0.7477  0.2252
24153SOL    HW178295   8.363   5.523  10.469 -0.8785  0.3341  1.0512
24153SOL    HW278296   8.212   5.509  10.470 -0.7419 -1.4293  1.8601
24154SOL     OW78297   7.729   6.174   2.976  0.5139  0.4274 -0.3494
24154SOL    HW178298   7.763   6.101   2.926  0.4839  0.1929 -0.0281
24154SOL    HW278299   7.733   6.249   2.916  1.5778  0.4037 -0.3182
24155SOL     OW78300   7.404   9.982   8.060 -0.6402  0.0812 -0.3604
24155SOL    HW178301   7.369  10.018   8.142  0.2986  0.7999 -0.2612
24155SOL    HW278302   7.477   9.926   8.088  0.3153  1.1071 -0.7521
24156SOL     OW78303   8.623  10.667   9.083 -0.1167 -0.1389 -0.5083
24156SOL    HW178304   8.651  10.713   9.004 -0.3792  0.2692 -0.3720
24156SOL    HW278305   8.542  10.622   9.058  0.3078 -0.7885 -0.7262
24157SOL     OW78306   5.786   3.154   7.509  0.6360  0.7601 -0.3096
24157SOL    HW178307   5.751   3.122   7.592 -1.9967  2.0663 -0.7956
24157SOL    HW278308   5.870   3.194   7.532  1.1679 -1.0988  1.2518
24158SOL     OW78309  10.679   9.095   8.894  0.3079  0.2306 -0.2767
24158SOL    HW178310  10.727   9.140   8.964 -2.1828  1.1470  0.9808
24158SOL    HW278311  10.694   9.149   8.816  2.0767 -0.0913 -0.2092
24159SOL     OW78312   2.989   8.132   3.479 -0.4810  0.5046 -0.0096
24159SOL    HW178313   3.023   8.063   3.537 -1.5346 -2.4399 -2.5717
24159SOL    HW278314   2.904   8.154   3.515 -0.9071 -0.9146 -0.0978
24160SOL     OW78315   5.051   5.394  10.138 -0.3055  0.1530 -0.0281
24160SOL    HW178316   5.011   5.479  10.117 -0.4907  0.6789  2.2369
24160SOL    HW278317   5.132   5.417  10.185 -0.0244 -0.9418  0.0422
24161SOL     OW78318   9.689   1.061   9.000  0.1874  0.0525 -0.6424
24161SOL    HW178319   9.710   0.968   9.001  0.8711  0.1918  1.3472
24161SOL    HW278320   9.769   1.105   9.029 -0.6656  1.1122  0.2245
24162SOL     OW78321   8.912   8.769   2.102  0.1068  0.6849  0.6027
24162SOL    HW178322   8.916   8.719   2.184 -2.2113  1.5342  1.3034
24162SOL    HW278323   8.839   8.730   2.054  0.4869  1.1763 -0.3916
24163SOL     OW78324   5.473   3.663   9.074  0.3339  0.2815 -0.2105
24163SOL    HW178325   5.390   3.625   9.106  0.3098  0.2863 -0.2670
24163SOL    HW278326   5.522   3.682   9.154  0.6394 -0.5260 -0.1972
24164SOL     OW78327   4.862   6.163   2.117 -0.2925 -0.0356 -0.1027
24164SOL    HW178328   4.929   6.221   2.082 -0.5345  0.5616  0.4231
24164SOL    HW278329   4.785   6.179   2.062  0.1730 -1.2511 -1.1858
24165SOL     OW78330   4.028   3.775   7.535 -0.0098  0.2013 -0.0596
24165SOL    HW178331   4.052   3.787   7.627  0.5835 -1.7930  0.0953
24165SOL    HW278332   3.973   3.851   7.514  1.1761  1.5539  1.4462
24166SOL     OW78333   2.763   0.628   6.933  0.2792 -0.1074  0.1617
24166SOL    HW178334   2.769   0.719   6.963  2.2453 -0.0080 -0.3560
24166SOL    HW278335   2.774   0.576   7.012 -0.1662  0.1047  0.3664
24167SOL     OW78336   8.647   1.887   6.760 -0.0808  0.6720 -0.4159
24167SOL    HW178337   8.596   1.911   6.838  1.5589  0.2501  0.8330
24167SOL    HW278338   8.628   1.794   6.747 -0.3689  0.7468 -0.5393
24168SOL     OW78339   1.158   9.116  10.379 -0.3217  0.0964  0.1322
24168SOL    HW178340   1.196   9.055  10.316  0.5184  1.6022 -0.8980
24168SOL    HW278341   1.208   9.197  10.367 -1.5462  1.0683  1.2672
24169SOL     OW78342   4.221   9.898   5.485 -0.1659  0.0451 -0.6141
24169SOL    HW178343   4.171   9.852   5.553 -0.1088 -0.8902 -1.1971
24169SOL    HW278344   4.303   9.922   5.528 -0.5324  0.3501 -0.0674
24170SOL     OW78345   1.819   2.235   1.420  0.2665  0.0873  0.1395
24170SOL    HW178346   1.764   2.226   1.342 -0.5754 -1.8601  0.8859
24170SOL    HW278347   1.825   2.329   1.435  0.1541  0.4859 -2.0434
24171SOL     OW78348   1.394   2.463   8.038  0.3118  0.6044 -0.2010
24171SOL    HW178349   1.472   2.418   8.069  0.5724  0.9570 -0.3329
24171SOL    HW278350   1.403   2.553   8.071 -0.3544  0.4824  0.3259
24172SOL     OW78351   4.117   8.242   6.094 -0.3438  0.2930  0.0667
24172SOL    HW178352   4.156   8.179   6.034 -1.8311 -0.6049  0.0011
24172SOL    HW278353   4.039   8.198   6.129  1.0324  0.2968  3.5459
24173SOL     OW78354   6.132   7.339   7.676 -0.5357 -0.0874  0.4162
24173SOL    HW178355   6.105   7.410   7.733 -0.9375 -0.9027  1.2668
24173SOL    HW278356   6.087   7.356   7.593 -0.7828  0.5409  0.6763
24174SOL     OW78357   0.797   1.169   7.976 -0.0629 -0.1606  0.4348
24174SOL    HW178358   0.813   1.179   7.882 -2.1077  1.8812  0.2322
24174SOL    HW278359   0.851   1.236   8.017  0.8667 -1.0829  0.7758
24175SOL     OW78360   0.407   2.194   7.031  0.0484 -0.0441  0.4552
24175SOL    HW178361   0.405   2.099   7.037  0.6912  0.0136  1.9914
24175SOL    HW278362   0.358   2.224   7.107 -0.0598  0.8691  0.0426
24176SOL     OW78363   6.751   2.716   1.134 -0.2079 -0.2432  0.2245
24176SOL    HW178364   6.716   2.730   1.047  1.4677 -0.2363 -0.4915
24176SOL    HW278365   6.676   2.725   1.193 -1.4642 -0.8015 -1.2497
24177SOL     OW78366   7.146   3.701   8.831  0.4400 -0.1372  0.2520
24177SOL    HW178367   7.136   3.777   8.774  1.8337 -0.9997 -1.2012
24177SOL    HW278368   7.132   3.626   8.774 -0.6093 -1.0073  1.5996
24178SOL     OW78369   7.656   0.619   5.773 -0.3720 -0.0051 -0.1070
24178SOL    HW178370   7.610   0.703   5.783 -3.1727 -1.0889 -2.5466
24178SOL    HW278371   7.729   0.639   5.715 -0.7968  0.8296 -0.3703
24179SOL     OW78372   2.847   3.509   5.494 -0.0197 -0.0129 -0.4502
24179SOL    HW178373   2.858   3.537   5.403 -1.6261  0.6214 -0.4731
24179SOL    HW278374   2.807   3.584   5.538  0.7103 -0.3191  0.7917
24180SOL     OW78375   1.093   6.938   1.688 -0.2974  0.1329  0.2545
24180SOL    HW178376   1.188   6.951   1.677  0.1399 -2.8784 -0.5401
24180SOL    HW278377   1.060   6.925   1.599 -1.5924  1.5598  0.4862
24181SOL     OW78378   9.098  10.300   4.717 -0.0249 -0.0020  0.0194
24181SOL    HW178379   9.098  10.205   4.725 -0.3418 -0.3192 -2.7150
24181SOL    HW278380   9.185  10.321   4.683 -0.6134  0.4215 -1.2948
24182SOL     OW78381   5.928   4.860   1.238  0.0677  0.5360 -0.3851
24182SOL    HW178382   5.988   4.859   1.164  0.5253 -0.4903 -0.0104
24182SOL    HW278383   5.895   4.770   1.244 -1.0380  0.9299 -0.2006
24183SOL     OW78384   0.938   2.100   5.904 -0.3234 -0.0744 -0.5109
24183SOL    HW178385   0.913   2.028   5.846 -0.1519 -1.6883  1.3070
24183SOL    HW278386   0.875   2.169   5.886 -0.6564 -0.7708 -2.1379
24184SOL     OW78387   3.394  10.474   3.938  0.1789 -0.1919  0.0156
24184SOL    HW178388   3.385  10.565   3.966 -1.6228 -0.1669 -0.5219
24184SOL    HW278389   3.311  10.433   3.961  0.6621 -1.5133 -0.4678
24185SOL     OW78390   9.085   4.956   8.851 -0.0578 -0.5275  0.5272
24185SOL    HW178391   9.158   4.966   8.789 -0.4081  1.9595  0.3953
24185SOL    HW278392   9.098   4.869   8.889  1.7768 -1.0026 -0.9905
24186SOL     OW78393   4.459   4.157   2.611 -0.0853 -0.6465 -0.3648
24186SOL    HW178394   4.386   4.128   2.557 -0.9938 -0.2301  0.5897
24186SOL    HW278395   4.423   4.229   2.663  1.3514  0.3706 -0.7250
24187SOL     OW78396   1.461  10.239   8.274 -0.2913  0.0241 -0.1805
24187SOL    HW178397   1.546  10.255   8.314 -0.1184 -1.9787  0.3428
24187SOL    HW278398   1.478  10.177   8.204 -1.4200 -1.0834  0.4832
24188SOL     OW78399   6.629   0.226   9.464 -0.0030  0.2843  0.6176
24188SOL    HW178400   6.643   0.195   9.553 -1.8039  0.2716  0.9441
24188SOL    HW278401   6.663   0.156   9.408  0.9781  0.2175  1.2842
24189SOL     OW78402   6.426   0.167   1.119 -0.4614  0.0583 -0.2758
24189SOL    HW178403   6.416   0.080   1.159 -1.9044  0.6216  0.6709
24189SOL    HW278404   6.341   0.209   1.132  0.4875  1.9701  0.1462
24190SOL     OW78405   9.270   5.638   3.853 -0.3331 -0.9578 -0.1172
24190SOL    HW178406   9.281   5.732   3.842 -3.0324 -0.7496 -2.3067
24190SOL    HW278407   9.252   5.625   3.946 -0.2909  0.7379  0.1475
24191SOL     OW78408   3.722   0.515   0.057  0.0959  0.1996  0.2257
24191SOL    HW178409   3.726   0.434   0.006  0.6107 -0.0005  0.5722
24191SOL    HW278410   3.651   0.565   0.017 -0.2121 -0.4133 -0.0048
24192SOL     OW78411  10.334   5.134   5.295  0.1929  0.5404 -0.0277
24192SOL    HW178412  10.345   5.137   5.390 -1.2179  2.2007  0.1255
24192SOL    HW278413  10.240   5.144   5.281 -0.0650 -2.7209 -1.5441
24193SOL     OW78414   4.180   2.033   3.242  0.4274 -0.1240 -0.0909
24193SOL    HW178415   4.212   1.948   3.214 -0.2915 -1.1841  2.1097
24193SOL    HW278416   4.112   2.055   3.178  0.2922 -1.4216 -0.4250
24194SOL     OW78417   9.909   4.183   8.906 -0.7941 -0.3748  0.5110
24194SOL    HW178418   9.858   4.246   8.855 -0.3804 -1.0974 -0.8530
24194SOL    HW278419   9.977   4.236   8.948 -1.2375  0.2670  0.4409
24195SOL     OW78420   4.681  10.346   9.970  0.8032 -1.0283  0.2196
24195SOL    HW178421   4.737  10.352  10.047  0.3218  1.3650  0.4423
24195SOL    HW278422   4.625  10.270   9.986  2.3600 -2.0464  1.0558
24196SOL     OW78423   6.506   5.512   2.903  0.1655 -0.4829  0.1730
24196SOL    HW178424   6.443   5.561   2.955  0.3197  0.6351 -0.6689
24196SOL    HW278425   6.453   5.465   2.838  0.1193 -0.4468  0.1851
24197SOL     OW78426   0.268   3.644   8.843 -0.2129 -0.3440  0.6076
24197SOL    HW178427   0.274   3.636   8.938 -0.1489  1.1091  0.7509
24197SOL    HW278428   0.346   3.695   8.819 -0.5530 -0.1683 -0.1341
24198SOL     OW78429   8.305   8.676   8.191  0.3043 -0.3360 -0.5227
24198SOL    HW178430   8.218   8.645   8.217  0.9009 -0.3564  1.7327
24198SOL    HW278431   8.290   8.765   8.159 -0.5155 -0.1024  0.4308
24199SOL     OW78432   1.721   4.132   4.037 -0.2457  0.0816 -0.0461
24199SOL    HW178433   1.679   4.159   4.119  0.6818 -1.5966  1.0289
24199SOL    HW278434   1.806   4.175   4.038 -0.2783  0.1516 -0.2002
24200SOL     OW78435   0.833   3.832   2.354 -0.0778  0.0277 -0.6538
24200SOL    HW178436   0.747   3.796   2.373 -0.0438 -0.0898 -0.7225
24200SOL    HW278437   0.866   3.861   2.439 -0.8358  1.5243 -0.8430
24201SOL     OW78438   3.005   2.192   9.553  0.3373  0.1254  0.6134
24201SOL    HW178439   3.026   2.157   9.640  0.6298 -0.2377  0.3999
24201SOL    HW278440   3.015   2.118   9.494  0.7499  0.5144  0.1842
24202SOL     OW78441   8.301   6.374  10.558 -0.3788 -0.1242 -0.1276
24202SOL    HW178442   8.338   6.292  10.526  0.0315 -0.1676  0.4352
24202SOL    HW278443   8.377   6.430  10.574 -0.6526  0.3500 -0.4517
24203SOL     OW78444   9.224   7.349   7.451 -0.3437 -0.3506 -0.3024
24203SOL    HW178445   9.190   7.428   7.491  0.6117  0.3536 -0.8401
24203SOL    HW278446   9.154   7.318   7.394 -0.6075  0.2818 -0.3231
24204SOL     OW78447   9.541   7.914   0.540 -0.1011 -0.0428  0.6871
24204SOL    HW178448   9.500   7.893   0.624 -0.0559  0.1156  0.7508
24204SOL    HW278449   9.495   7.860   0.476  0.5342 -0.9152  0.9423
24205SOL     OW78450   3.847   4.282   7.479  0.4458 -0.2797 -0.3938
24205SOL    HW178451   3.914   4.276   7.411  1.3721 -0.9265  0.5410
24205SOL    HW278452   3.764   4.274   7.432  1.0170  0.5197 -1.5696
24206SOL     OW78453  10.174   0.403   8.843 -0.0139 -0.3297 -0.7023
24206SOL    HW178454  10.244   0.368   8.788  0.2739 -1.3450  0.2807
24206SOL    HW278455  10.195   0.496   8.850  0.2841 -0.2934 -1.7925
24207SOL     OW78456   2.258   1.598   9.093  0.4257  0.0321  0.3630
24207SOL    HW178457   2.181   1.653   9.079  0.8922  0.6974  0.3088
24207SOL    HW278458   2.332   1.658   9.079  0.9502 -0.6310  0.2508
24208SOL     OW78459   5.227   1.020   4.644 -0.5280  0.4884 -0.2510
24208SOL    HW178460   5.212   0.935   4.686  0.6451  1.3881  2.1978
24208SOL    HW278461   5.264   0.998   4.559 -0.5263 -1.4635  0.2030
24209SOL     OW78462   3.152   6.798   5.002 -0.0901 -0.0573 -0.7059
24209SOL    HW178463   3.088   6.733   5.031 -1.2335  0.3398 -2.1956
24209SOL    HW278464   3.220   6.748   4.958  0.3278 -0.4341  0.3460
24210SOL     OW78465   4.744   2.351   7.534  0.3004 -0.3199 -0.3854
24210SOL    HW178466   4.835   2.336   7.509  1.0917  0.4029  1.7846
24210SOL    HW278467   4.749   2.385   7.624 -2.1832 -1.5309  0.3104
24211SOL     OW78468   5.589   1.289   7.243  0.2484  0.6422  0.3491
24211SOL    HW178469   5.615   1.303   7.334  0.9718  0.6011  0.1534
24211SOL    HW278470   5.548   1.371   7.217  0.7350  0.9296  0.4793
24212SOL     OW78471   5.238   7.880   4.674  0.3597 -0.3603 -0.6077
24212SOL    HW178472   5.300   7.952   4.662  0.6700 -0.1395  1.7832
24212SOL    HW278473   5.288   7.812   4.718 -1.0562 -0.1218  1.5409
24213SOL     OW78474  10.566   1.194   5.644 -0.7887  0.1694  0.1003
24213SOL    HW178475  10.510   1.176   5.720 -0.9901  0.7155  0.0887
24213SOL    HW278476  10.504   1.216   5.575 -0.6611 -1.2836 -0.5138
24214SOL     OW78477   3.822   0.766   4.325  0.1332  0.5272 -0.6601
24214SOL    HW178478   3.810   0.830   4.254 -2.2145  0.2984 -0.5586
24214SOL    HW278479   3.802   0.815   4.405 -1.7350 -0.2731 -0.5819
24215SOL     OW78480   1.289   9.510   3.198 -0.2347 -0.2479 -0.1568
24215SOL    HW178481   1.290   9.590   3.145 -0.9410  0.6601  1.1319
24215SOL    HW278482   1.240   9.534   3.277  0.8529 -1.5199  0.9639
24216SOL     OW78483   4.319   1.857   0.572  0.1931  0.3170 -0.0721
24216SOL    HW178484   4.385   1.825   0.510  0.8159 -0.5843  1.0308
24216SOL    HW278485   4.241   1.805   0.553  0.2521  0.3350 -0.3710
24217SOL     OW78486   3.208   0.349   9.513 -0.2737 -0.3302  0.8268
24217SOL    HW178487   3.259   0.301   9.578  0.1463  0.4746  1.1055
24217SOL    HW278488   3.273   0.390   9.456 -0.6251 -1.8225 -0.7497
24218SOL     OW78489   6.768  10.160  10.500  0.3716  0.4450  0.0451
24218SOL    HW178490   6.752  10.236  10.556 -0.4034  0.7820 -0.6129
24218SOL    HW278491   6.844  10.185  10.447  0.0882  0.8046 -0.2075
24219SOL     OW78492   2.421   4.722   0.574 -0.3244 -1.0080 -0.1494
24219SOL    HW178493   2.367   4.646   0.591 -0.0451 -1.1835 -0.0369
24219SOL    HW278494   2.470   4.700   0.494 -0.1948 -0.9730 -0.0802
24220SOL     OW78495   7.253   6.070   8.399  0.6675 -0.2578  0.6777
24220SOL    HW178496   7.225   6.060   8.308 -0.4072  1.7555  0.7285
24220SOL    HW278497   7.197   6.010   8.448 -1.2917  1.2330  0.3761
24221SOL     OW78498   4.182   9.862  10.518  0.4369 -0.1612 -0.3153
24221SOL    HW178499   4.186   9.776  10.476  0.6888 -0.0340 -0.5463
24221SOL    HW278500   4.179   9.842  10.612 -0.5517 -0.4609 -0.3943
24222SOL     OW78501   8.141   1.880   8.405 -0.3348 -0.4111  0.1440
24222SOL    HW178502   8.084   1.919   8.339 -0.8778 -0.9836  0.2531
24222SOL    HW278503   8.089   1.884   8.486 -0.5568 -1.6279  0.0921
24223SOL     OW78504   7.132   2.202   3.794  0.6820 -0.0021 -0.1869
24223SOL    HW178505   7.066   2.136   3.774 -0.8995  1.7226 -0.9532
24223SOL    HW278506   7.104   2.242   3.876  0.3604  1.1883 -0.8487
24224SOL     OW78507  10.270   8.965   6.247 -0.4358 -0.6979 -0.2934
24224SOL    HW178508  10.179   8.947   6.221 -1.5115  2.1192  1.0291
24224SOL    HW278509  10.315   8.983   6.164 -1.2143 -1.5989 -0.9319
24225SOL     OW78510   0.462   2.665   3.270  0.2778 -0.8234 -0.3747
24225SOL    HW178511   0.490   2.685   3.181 -1.1045  0.4867 -0.5501
24225SOL    HW278512   0.370   2.640   3.262 -0.3878  0.9928  0.8111
24226SOL     OW78513   9.425  10.025   0.111  0.1892 -0.0772 -0.2716
24226SOL    HW178514   9.443  10.103   0.059 -1.1525  1.1631  1.0352
24226SOL    HW278515   9.426   9.954   0.047  0.9813  1.0454 -1.5757
24227SOL     OW78516   9.498   0.665   7.065 -1.0397  0.1872 -0.6763
24227SOL    HW178517   9.548   0.675   7.146  0.8102 -0.4762 -1.6872
24227SOL    HW278518   9.427   0.604   7.088 -1.4583  1.1926  0.7966
24228SOL     OW78519   6.415   1.828   9.467 -0.3046  0.1269  0.0987
24228SOL    HW178520   6.476   1.880   9.415  0.1596  0.4707  0.9643
24228SOL    HW278521   6.463   1.806   9.546 -0.3136 -2.0593 -0.4358
24229SOL     OW78522   1.623   1.734   3.857  0.1865 -0.0098  0.5997
24229SOL    HW178523   1.570   1.773   3.787  2.9085 -0.1848 -1.7301
24229SOL    HW278524   1.657   1.653   3.820  1.8403 -0.0484  2.0618
24230SOL     OW78525   5.398   6.321  10.471 -0.0965  0.3783 -0.3828
24230SOL    HW178526   5.364   6.240  10.510 -2.4583  1.0253 -0.8844
24230SOL    HW278527   5.477   6.294  10.425 -0.1861 -1.4184  0.4091
24231SOL     OW78528   5.058   0.487   1.175  0.0647 -0.4031  0.6434
24231SOL    HW178529   5.050   0.432   1.097  1.0321 -0.9024  0.8778
24231SOL    HW278530   5.113   0.436   1.234  0.5452  0.5905  1.0729
24232SOL     OW78531   3.401  10.081   2.654  0.0376 -0.5866 -0.3226
24232SOL    HW178532   3.396  10.176   2.643 -0.4743 -0.6070 -0.2629
24232SOL    HW278533   3.447  10.069   2.737 -1.6068 -0.3574  0.6659
24233SOL     OW78534   0.631   9.176   9.182 -1.0500 -0.5944  0.0580
24233SOL    HW178535   0.649   9.258   9.137 -1.9906 -0.2609  0.2539
24233SOL    HW278536   0.581   9.124   9.118 -0.5233 -0.9977 -0.0394
24234SOL     OW78537   9.974   9.163  10.130  0.1460  0.1751 -0.1047
24234SOL    HW178538   9.915   9.162  10.055 -0.9697 -0.3237  0.7632
24234SOL    HW278539  10.059   9.139  10.093 -0.4535 -0.4013 -1.1642
24235SOL     OW78540   1.504   1.973   7.401 -1.0188  1.0227  0.6348
24235SOL    HW178541   1.501   2.027   7.322 -1.1417 -0.1716 -0.1960
24235SOL    HW278542   1.573   2.013   7.454  0.9749  0.3173 -1.2650
24236SOL     OW78543   2.121   2.979   7.342  0.4782  0.2489 -0.0771
24236SOL    HW178544   2.164   2.926   7.275  1.5148  2.7426 -1.5394
24236SOL    HW278545   2.193   3.030   7.381 -0.5467  1.0813  0.7717
24237SOL     OW78546   2.588   2.954   7.650 -0.4314  0.2317  0.0759
24237SOL    HW178547   2.547   2.907   7.577 -0.9031  2.7593 -1.4138
24237SOL    HW278548   2.681   2.932   7.644 -0.3085  1.1248 -1.9341
24238SOL     OW78549  10.218   7.819   6.288 -0.0626  0.1194  0.1148
24238SOL    HW178550  10.225   7.753   6.219  0.4820  1.8384 -1.5535
24238SOL    HW278551  10.214   7.768   6.369  2.0037 -1.9382 -0.9391
24239SOL     OW78552   2.467   3.953   2.971  0.1998  0.7763  0.0447
24239SOL    HW178553   2.516   4.017   2.919  0.9372 -0.2198 -0.5157
24239SOL    HW278554   2.376   3.970   2.950  0.4854  0.2944 -1.7378
24240SOL     OW78555   1.311   0.372   7.584  0.3615 -0.5429 -0.5976
24240SOL    HW178556   1.308   0.435   7.512  2.4430 -0.1199 -0.3950
24240SOL    HW278557   1.243   0.401   7.644 -0.2451  0.1379 -1.5871
24241SOL     OW78558   2.304   1.223   6.076  0.4688 -0.0905 -0.2049
24241SOL    HW178559   2.233   1.173   6.116 -0.2543  0.0612 -1.2514
24241SOL    HW278560   2.383   1.193   6.120 -0.0617 -1.4653 -0.1589
24242SOL     OW78561   5.398   0.295   3.679 -0.0829  0.3178  0.3912
24242SOL    HW178562   5.332   0.300   3.610 -0.1707  2.0837  0.5657
24242SOL    HW278563   5.376   0.366   3.738  0.9187 -0.2061  1.4257
24243SOL     OW78564   4.982   1.320   1.867  0.2070 -0.3160 -0.3704
24243SOL    HW178565   5.064   1.365   1.849 -0.7373  1.4047 -0.5749
24243SOL    HW278566   4.944   1.366   1.942  0.0487 -1.9635  0.6197
24244SOL     OW78567   3.237   3.840   4.160 -0.0147 -0.4319  0.0866
24244SOL    HW178568   3.294   3.917   4.155  1.0223 -1.2506 -1.2076
24244SOL    HW278569   3.149   3.874   4.145  0.3421  0.5962  0.2477
24245SOL     OW78570   7.893   8.131   3.776 -0.7928 -0.7946  0.8187
24245SOL    HW178571   7.878   8.197   3.709  0.3423 -1.1876  0.1654
24245SOL    HW278572   7.819   8.071   3.767 -0.7855 -0.7020  0.0946
24246SOL     OW78573   8.623   8.308   6.248  0.3062  0.0669  0.8227
24246SOL    HW178574   8.615   8.283   6.341  0.9383 -1.7428  0.4239
24246SOL    HW278575   8.715   8.294   6.227  0.2377  0.7791 -0.0171
24247SOL     OW78576   1.519   3.246   9.187 -0.2793 -0.1937  0.3531
24247SOL    HW178577   1.569   3.164   9.179  0.4618  0.3547 -1.1133
24247SOL    HW278578   1.534   3.274   9.277  1.9659 -0.1540  0.0283
24248SOL     OW78579   5.815   5.397   8.388  0.5153 -1.1030  0.0544
24248SOL    HW178580   5.747   5.390   8.320 -1.1889 -1.9714  1.7423
24248SOL    HW278581   5.838   5.489   8.390 -1.7727 -0.4773  0.4322
24249SOL     OW78582   0.462   9.314   4.078  0.3005  0.2649  0.0441
24249SOL    HW178583   0.423   9.401   4.072  1.4522  0.6760 -2.7605
24249SOL    HW278584   0.556   9.329   4.070  0.4714 -1.2547 -1.3975
24250SOL     OW78585   6.402   6.745   9.170 -0.8218  0.4730 -0.2938
24250SOL    HW178586   6.318   6.762   9.128 -0.6324  0.3767 -0.7272
24250SOL    HW278587   6.382   6.731   9.262 -1.1018  2.1255 -0.0593
24251SOL     OW78588   7.221   2.887   0.620 -0.2749 -0.1169  0.1905
24251SOL    HW178589   7.190   2.978   0.615 -1.9285 -0.6842 -0.5359
24251SOL    HW278590   7.147   2.839   0.658  0.9566 -1.0097  1.5361
24252SOL     OW78591   2.302   8.556   8.663 -0.0254 -0.5744  0.8238
24252SOL    HW178592   2.318   8.481   8.607  1.3226 -0.9333  1.6369
24252SOL    HW278593   2.323   8.526   8.751 -1.4323  0.1753  1.4596
24253SOL     OW78594   3.238   3.194   2.910  0.0919 -0.3937 -0.2216
24253SOL    HW178595   3.271   3.137   2.841  1.0216  1.1921 -1.1637
24253SOL    HW278596   3.298   3.269   2.909 -0.9142  0.4721  1.1314
24254SOL     OW78597   6.263   1.259   5.140 -0.4022  0.0679 -0.1828
24254SOL    HW178598   6.322   1.184   5.148  0.2467  0.5729 -0.1524
24254SOL    HW278599   6.181   1.222   5.108 -0.5252 -0.8443  1.1271
24255SOL     OW78600   6.211   2.116  10.256  0.6601  0.3789  0.2998
24255SOL    HW178601   6.158   2.050  10.300  1.2206 -0.5867 -0.4417
24255SOL    HW278602   6.233   2.179  10.326 -1.1811  0.6651  0.6838
24256SOL     OW78603   4.365   3.653   8.235 -0.1607 -0.4254  0.1327
24256SOL    HW178604   4.435   3.626   8.176  1.6813 -0.5520  2.2493
24256SOL    HW278605   4.360   3.582   8.300 -1.7374 -0.0433  0.4754
24257SOL     OW78606   2.904   2.597  10.447 -0.6322  0.3263 -0.3815
24257SOL    HW178607   2.932   2.687  10.463 -1.5125  0.4330  0.6964
24257SOL    HW278608   2.984   2.549  10.429  0.1317  0.8529  1.4063
24258SOL     OW78609   9.659   0.145   0.593 -0.7699 -0.2527  0.0759
24258SOL    HW178610   9.631   0.233   0.618  0.5597 -0.2411  1.6802
24258SOL    HW278611   9.582   0.090   0.608 -1.1425  0.3891  0.5467
24259SOL     OW78612  10.176   1.572   9.590  0.7913  0.3686  0.0029
24259SOL    HW178613  10.232   1.500   9.621  0.7954  0.0794 -0.6753
24259SOL    HW278614  10.238   1.638   9.559  0.8055  0.9203  1.1586
24260SOL     OW78615   8.541   8.353   7.889 -0.1830 -0.1860 -0.1394
24260SOL    HW178616   8.472   8.401   7.934  0.6382  0.7719  0.1387
24260SOL    HW278617   8.608   8.339   7.956 -0.2316 -1.3680 -0.3276
24261SOL     OW78618   0.544  10.505   3.974 -0.2272 -0.4383 -0.2557
24261SOL    HW178619   0.451  10.523   3.958  0.1336  2.0053 -0.0702
24261SOL    HW278620   0.549  10.493   4.069 -0.3001 -0.0451 -0.1979
24262SOL     OW78621  10.660   4.688   0.348 -0.2413 -0.0717  0.1487
24262SOL    HW178622  10.638   4.595   0.351 -0.1160 -0.1023  0.1115
24262SOL    HW278623  10.693   4.709   0.435 -0.7031  0.0453  0.3005
24263SOL     OW78624   3.846   4.378   1.497 -0.3794  0.6179 -0.4426
24263SOL    HW178625   3.886   4.386   1.584 -0.8067 -0.1888 -0.1564
24263SOL    HW278626   3.893   4.305   1.456 -1.6111 -0.4330 -0.0496
24264SOL     OW78627   6.423   6.555   8.682  0.1718  0.0992 -0.0622
24264SOL    HW178628   6.501   6.589   8.638 -0.0367  0.4269 -0.1834
24264SOL    HW278629   6.373   6.512   8.613 -0.6119  1.4200 -0.3564
24265SOL     OW78630   8.473   4.523   3.015  0.0415 -0.0590 -0.2573
24265SOL    HW178631   8.414   4.509   2.941 -0.2781  0.4842 -0.1043
24265SOL    HW278632   8.525   4.600   2.990 -1.2459  1.1995  0.8100
24266SOL     OW78633   1.928   4.339   7.124  0.1151  0.7345  0.2855
24266SOL    HW178634   1.834   4.342   7.110  0.1595  0.5916 -0.0462
24266SOL    HW278635   1.946   4.248   7.150  0.1952  0.6960  0.0973
24267SOL     OW78636   4.581   4.939   5.621 -0.1273 -0.2538  0.0327
24267SOL    HW178637   4.619   4.866   5.669 -0.4210 -0.8979 -0.6887
24267SOL    HW278638   4.593   4.916   5.529 -0.4171  0.5084 -0.2044
24268SOL     OW78639   5.725   7.716   9.460  0.5023 -0.1817  0.5370
24268SOL    HW178640   5.712   7.793   9.405  1.2654  0.5874  1.3936
24268SOL    HW278641   5.767   7.652   9.402  1.2909  0.6103  0.2038
24269SOL     OW78642   8.279   5.868   9.615 -0.2802 -0.3164  0.1666
24269SOL    HW178643   8.286   5.947   9.561 -0.7748  0.5914  1.4010
24269SOL    HW278644   8.330   5.887   9.693 -1.8879 -0.4783  1.3093
24270SOL     OW78645   7.326   0.069   9.094 -0.1053  0.3142  0.0768
24270SOL    HW178646   7.337   0.133   9.163  1.2513 -0.7072  0.8584
24270SOL    HW278647   7.372  -0.009   9.126 -0.7994 -0.6982 -1.2875
24271SOL     OW78648   1.385   9.502   3.563 -0.0896  0.1452  0.3851
24271SOL    HW178649   1.378   9.408   3.580 -1.2923  0.0494 -0.4936
24271SOL    HW278650   1.453   9.510   3.496  0.6754  0.0117  1.1218
24272SOL     OW78651   7.375   7.946   4.328 -0.7904  0.2962 -0.0480
24272SOL    HW178652   7.428   7.866   4.323 -1.6880 -0.3822  0.8660
24272SOL    HW278653   7.361   7.971   4.237 -1.3434 -1.1838 -0.4049
24273SOL     OW78654   5.904   0.946   6.542 -0.5128  0.3700  0.3852
24273SOL    HW178655   5.816   0.924   6.573 -0.3034 -1.7189 -0.3700
24273SOL    HW278656   5.905   0.917   6.451  1.0132  0.2041  0.4359
24274SOL     OW78657   4.867   2.627   4.825  0.1255 -0.3985  0.9009
24274SOL    HW178658   4.873   2.721   4.838  0.2963 -0.1093 -0.9709
24274SOL    HW278659   4.779   2.604   4.854 -0.0733  0.4128  0.9477
24275SOL     OW78660   2.099   5.758   8.937  0.0371 -0.2643 -0.2386
24275SOL    HW178661   2.102   5.797   8.849 -1.7263 -1.9304 -1.1260
24275SOL    HW278662   2.006   5.749   8.956  0.3665 -2.0147  0.8131
24276SOL     OW78663  10.645   0.812   9.518  0.1418  0.2125 -0.6894
24276SOL    HW178664  10.615   0.875   9.452 -0.9177  1.0677  0.5536
24276SOL    HW278665  10.740   0.824   9.520  0.1865  0.2244 -1.9823
24277SOL     OW78666   6.409   6.100   8.524 -0.0306  0.0194  0.0100
24277SOL    HW178667   6.438   6.167   8.586 -1.6819  1.0989 -0.3354
24277SOL    HW278668   6.349   6.145   8.465  2.0185 -0.7593 -2.9167
24278SOL     OW78669   6.830   4.610  10.634  0.3623  0.0099  0.1681
24278SOL    HW178670   6.926   4.606  10.632  0.6813  3.7990  0.5199
24278SOL    HW278671   6.810   4.676  10.701 -2.4434  0.3319 -0.8395
24279SOL     OW78672   3.514   9.237   7.174  0.2857 -0.3378 -0.7864
24279SOL    HW178673   3.591   9.294   7.186  0.2083 -0.0180 -1.7569
24279SOL    HW278674   3.455   9.287   7.118 -0.5892 -0.6366 -0.1546
24280SOL     OW78675   0.261   8.820   2.853 -0.3987 -0.6048  0.6251
24280SOL    HW178676   0.249   8.855   2.941 -0.4816 -1.5532  1.0002
24280SOL    HW278677   0.238   8.893   2.795 -0.3505  0.0244  1.3769
24281SOL     OW78678   2.138   5.344   7.395 -0.4286  0.7478  0.0281
24281SOL    HW178679   2.208   5.387   7.344  0.4289 -0.9784 -0.3140
24281SOL    HW278680   2.169   5.349   7.485  0.4157 -0.4410 -0.1709
24282SOL     OW78681   8.186   4.494   4.151  0.0819  0.2702 -0.2723
24282SOL    HW178682   8.174   4.495   4.246  1.0005 -2.4270 -0.0726
24282SOL    HW278683   8.268   4.542   4.137 -0.0009  0.5913  0.2775
24283SOL     OW78684   2.487   6.134   6.536  0.2937 -0.4172  0.1722
24283SOL    HW178685   2.438   6.126   6.618  0.1944 -2.8113 -0.0630
24283SOL    HW278686   2.512   6.227   6.532 -1.0735  0.0900  2.0923
24284SOL     OW78687   7.091   9.897   0.902  0.3268 -0.5456 -0.0021
24284SOL    HW178688   7.034   9.934   0.834  1.2259  1.3838  0.2207
24284SOL    HW278689   7.083   9.803   0.891 -1.4735 -0.3092 -1.1595
24285SOL     OW78690   1.303   0.717   8.871 -0.1522  0.8398 -0.5126
24285SOL    HW178691   1.312   0.623   8.852  1.1132  1.1152 -1.3987
24285SOL    HW278692   1.322   0.724   8.964  1.1387  0.3656 -0.7216
24286SOL     OW78693   0.404   2.681   7.822  0.3931 -0.3849 -0.2707
24286SOL    HW178694   0.400   2.776   7.827  1.8242  0.2139 -5.1896
24286SOL    HW278695   0.346   2.659   7.749  1.0310 -3.1621 -0.0429
24287SOL     OW78696   1.274   6.193   1.964 -0.2546 -0.3916 -0.2469
24287SOL    HW178697   1.308   6.103   1.973  1.0456 -0.2106 -2.4928
24287SOL    HW278698   1.330   6.245   2.022  1.4145 -0.5684 -1.5909
24288SOL     OW78699   6.093   1.879   5.383 -0.1888 -0.1804  0.4862
24288SOL    HW178700   6.021   1.821   5.360  0.0389  0.0983 -1.0551
24288SOL    HW278701   6.172   1.828   5.367 -0.0153  0.0948  0.4474
24289SOL     OW78702   5.286   3.490  10.017  1.2739 -0.1651 -0.4391
24289SOL    HW178703   5.348   3.476  10.089  0.5638 -0.0921  0.1955
24289SOL    HW278704   5.322   3.438   9.945  2.4563  0.4400 -0.3086
24290SOL     OW78705   7.788   4.073   5.608  0.4632  0.2032  0.1771
24290SOL    HW178706   7.763   4.015   5.680 -0.3072 -0.3279 -0.4901
24290SOL    HW278707   7.775   4.161   5.643 -0.9154 -0.0472  0.3708
24291SOL     OW78708   5.628   0.873   7.442 -0.6787 -0.2063 -0.0922
24291SOL    HW178709   5.602   0.948   7.388 -2.6950  0.3752  1.5735
24291SOL    HW278710   5.722   0.886   7.457 -0.8327  1.6024 -0.4428
24292SOL     OW78711   9.267   0.852   5.114 -0.0869 -0.5402 -0.8503
24292SOL    HW178712   9.300   0.770   5.152  1.0533 -0.8959 -2.4873
24292SOL    HW278713   9.312   0.921   5.163 -1.6546 -0.8138  1.0812
24293SOL     OW78714   8.739   2.292  10.476 -0.1005 -0.1935 -0.2514
24293SOL    HW178715   8.769   2.299  10.567  0.4850  2.6996 -0.5559
24293SOL    HW278716   8.716   2.382  10.452 -0.1552 -0.8637 -3.0061
24294SOL     OW78717  10.103   1.218   3.327  0.4135 -0.0167  0.1844
24294SOL    HW178718  10.033   1.168   3.369 -0.3255  0.6043 -0.2769
24294SOL    HW278719  10.172   1.154   3.310 -0.1534 -0.6974  0.3892
24295SOL     OW78720   3.362   5.440   8.915 -0.0327  0.0828  0.0034
24295SOL    HW178721   3.363   5.525   8.960  0.2395 -0.2517  0.6258
24295SOL    HW278722   3.269   5.420   8.904 -0.1245 -0.3653  1.4258
24296SOL     OW78723   5.946   6.706   2.798  0.2957 -0.2365 -0.0547
24296SOL    HW178724   5.984   6.698   2.710  0.2608 -0.6860 -0.0304
24296SOL    HW278725   5.989   6.637   2.848  1.4928  1.0134  0.7088
24297SOL     OW78726  10.505   9.995   4.703  0.3997  0.5857 -0.0667
24297SOL    HW178727  10.593  10.033   4.696  0.9996 -0.4356  1.4915
24297SOL    HW278728  10.500   9.934   4.629  1.5328 -0.3092  0.5558
24298SOL     OW78729   7.411   4.290   8.137 -0.6607 -0.2147 -0.2306
24298SOL    HW178730   7.470   4.330   8.073 -0.3783  0.3578  0.3737
24298SOL    HW278731   7.324   4.321   8.113 -0.4292  0.9307  0.3275
24299SOL     OW78732   7.735   5.154  10.306 -0.3896  0.1685  0.0153
24299SOL    HW178733   7.741   5.065  10.272  1.3717  0.1107  0.3438
24299SOL    HW278734   7.745   5.144  10.401  0.8362  0.7582 -0.0273
24300SOL     OW78735   4.825   5.919   9.794 -0.1498 -0.4141 -0.6088
24300SOL    HW178736   4.887   5.849   9.776  1.2554  0.8322 -0.8183
24300SOL    HW278737   4.869   5.973   9.861 -2.5153 -1.4156  1.9518
24301SOL     OW78738   6.453   0.671   9.223  0.1812  0.2502  0.1359
24301SOL    HW178739   6.412   0.665   9.136  1.1051  1.8687 -0.4617
24301SOL    HW278740   6.463   0.580   9.251 -0.1383 -0.3185 -1.4674
24302SOL     OW78741   9.848  10.531   1.456 -0.0601 -0.6828  0.0990
24302SOL    HW178742   9.872  10.595   1.390  0.6281 -0.4375  0.5843
24302SOL    HW278743   9.879  10.447   1.421 -0.6629 -0.7175 -0.3779
24303SOL     OW78744   6.344   8.689   1.245  0.1174  0.3015 -0.0029
24303SOL    HW178745   6.321   8.655   1.159  2.7342 -1.0110 -0.2761
24303SOL    HW278746   6.364   8.781   1.230 -0.5658  0.3674 -0.5586
24304SOL     OW78747   6.114   7.865   6.409 -0.3055 -0.5830  0.8767
24304SOL    HW178748   6.170   7.916   6.351  0.2882 -1.0516  1.0179
24304SOL    HW278749   6.175   7.808   6.457 -0.4889  1.2857  3.5679
24305SOL     OW78750   1.122   0.310   3.059 -0.3963  0.3282  0.4551
24305SOL    HW178751   1.078   0.226   3.073 -0.5685 -0.1836 -2.5744
24305SOL    HW278752   1.213   0.294   3.086 -0.8579 -0.1687  1.8158
24306SOL     OW78753   5.867  10.536   0.663  0.0464  0.0901 -0.6628
24306SOL    HW178754   5.958  10.562   0.674  0.1078 -0.7380  1.0541
24306SOL    HW278755   5.826  10.555   0.748 -1.8039  1.9864 -1.8661
24307SOL     OW78756   9.506   1.063   2.314  0.0330  0.4547 -0.1507
24307SOL    HW178757   9.478   1.012   2.390 -0.5024 -0.1225 -0.7142
24307SOL    HW278758   9.578   1.117   2.345  0.5104 -0.5348  0.5125
24308SOL     OW78759   4.489   6.536   4.212 -0.1917  0.1527  0.1576
24308SOL    HW178760   4.555   6.467   4.209 -0.5881 -0.2088 -0.4803
24308SOL    HW278761   4.514   6.597   4.143 -0.3848  0.1466  0.0809
24309SOL     OW78762   0.964   8.646   0.973 -0.4348 -0.0695 -0.0893
24309SOL    HW178763   0.987   8.583   1.042 -0.1687 -1.0664 -1.0486
24309SOL    HW278764   1.012   8.614   0.896 -0.6061  1.1044 -0.6962
24310SOL     OW78765  10.036   4.092   2.679 -0.0868  0.3349  0.5162
24310SOL    HW178766   9.971   4.162   2.683 -0.9738 -0.4304 -0.2426
24310SOL    HW278767  10.033   4.062   2.588  1.4684  0.4005  0.4046
24311SOL     OW78768   5.282   4.031   6.275 -0.3748 -0.3185  0.2488
24311SOL    HW178769   5.313   3.956   6.225  2.1495  0.8014 -0.0259
24311SOL    HW278770   5.307   4.012   6.365 -1.4556 -0.6118  0.5066
24312SOL     OW78771  10.333   9.854   5.248 -0.3440 -0.4517  0.0913
24312SOL    HW178772  10.378   9.899   5.178 -1.5055  1.0429  0.2606
24312SOL    HW278773  10.304   9.923   5.307 -1.5388 -1.4657  0.7549
24313SOL     OW78774   3.499   1.309   7.611 -0.2173  0.1626 -0.4716
24313SOL    HW178775   3.438   1.274   7.546 -0.7214 -0.0900  0.1337
24313SOL    HW278776   3.582   1.316   7.564 -1.3126  3.4265 -2.2700
24314SOL     OW78777   1.831   6.472   3.732 -0.1168  0.3137 -0.1091
24314SOL    HW178778   1.756   6.439   3.683 -2.8654  1.3205  3.0299
24314SOL    HW278779   1.828   6.567   3.718  1.5050  0.2697 -1.0207
24315SOL     OW78780   5.515   4.706   4.070  0.1881  0.9073  0.5981
24315SOL    HW178781   5.469   4.772   4.019 -1.6958 -0.8398 -0.1092
24315SOL    HW278782   5.470   4.705   4.154 -1.7153 -1.3024 -0.3345
24316SOL     OW78783  10.281   9.446   9.076  0.1808  0.5192 -0.0462
24316SOL    HW178784  10.309   9.466   9.166  0.1138 -0.9816  0.3220
24316SOL    HW278785  10.188   9.468   9.075 -0.6148 -2.4097  1.2231
24317SOL     OW78786   6.797   8.437   7.652 -0.3003 -0.5354  0.1901
24317SOL    HW178787   6.790   8.349   7.613 -2.7568 -0.2361 -0.1779
24317SOL    HW278788   6.822   8.493   7.579  1.3873 -0.9039  0.4482
24318SOL     OW78789   8.245   0.054   6.618  0.2472  0.4049  0.2311
24318SOL    HW178790   8.215   0.143   6.638 -2.1649 -0.3815  0.3746
24318SOL    HW278791   8.195  -0.003   6.676 -0.1216 -1.2220 -1.5534
24319SOL     OW78792   6.101   0.092   0.888 -0.1879  0.0002 -0.2975
24319SOL    HW178793   6.139   0.125   0.807  0.9690 -1.4416 -0.3824
24319SOL    HW278794   6.098  -0.003   0.877  1.4070 -0.3848  1.8932
24320SOL     OW78795   9.412   7.685   1.551  0.0178  0.2671  0.0562
24320SOL    HW178796   9.465   7.664   1.628  0.9083  0.6814 -0.4180
24320SOL    HW278797   9.473   7.674   1.477 -0.7808 -0.0019 -0.5764
24321SOL     OW78798   9.024   3.877   7.924 -0.1779  0.3059 -0.3368
24321SOL    HW178799   8.961   3.949   7.924  0.3400  0.7664 -0.3504
24321SOL    HW278800   8.974   3.801   7.894 -0.2894  1.0449 -2.1628
24322SOL     OW78801   5.192   1.547   3.846  0.1148 -0.0072 -0.0343
24322SOL    HW178802   5.127   1.498   3.897  0.8185 -0.7762  0.1363
24322SOL    HW278803   5.181   1.513   3.757 -1.5239  1.7516 -0.5810
24323SOL     OW78804   0.149   0.739   8.526 -0.5877 -0.0835 -0.0792
24323SOL    HW178805   0.072   0.746   8.583 -0.6651 -0.5269 -0.1261
24323SOL    HW278806   0.137   0.808   8.461  0.7098  2.1097  1.8507
24324SOL     OW78807   3.712   2.565   1.184 -0.3810 -0.2842 -0.5240
24324SOL    HW178808   3.752   2.586   1.100 -2.2144 -0.5609 -1.5075
24324SOL    HW278809   3.650   2.636   1.200 -0.6010 -0.6317  0.2312
24325SOL     OW78810   6.491   1.456   8.019  0.2815  0.3215  0.0542
24325SOL    HW178811   6.458   1.407   8.094  0.5670  0.8181  0.5175
24325SOL    HW278812   6.531   1.390   7.962  0.8154  0.0289  0.7502
24326SOL     OW78813   7.860  10.518   9.336  0.5446  0.4528  0.1500
24326SOL    HW178814   7.806  10.456   9.288  0.8793  1.7232 -1.9648
24326SOL    HW278815   7.819  10.522   9.423 -1.1983 -0.5405 -0.5739
24327SOL     OW78816   3.433   7.202   3.649  0.4710  0.7858 -0.5473
24327SOL    HW178817   3.469   7.197   3.737 -1.8911 -0.9166  0.4397
24327SOL    HW278818   3.477   7.132   3.601 -1.2061 -1.1714  0.5981
24328SOL     OW78819   6.964   1.457   7.033  0.1260  0.0886  0.5863
24328SOL    HW178820   6.945   1.474   7.125 -0.4450 -0.2855  0.5391
24328SOL    HW278821   7.060   1.462   7.027  0.1537  0.2608  1.1685
24329SOL     OW78822   7.924   1.373   4.477  0.4008  0.2664 -0.0419
24329SOL    HW178823   7.999   1.313   4.479  0.2085 -0.0056  2.5017
24329SOL    HW278824   7.848   1.316   4.491  0.2002  0.9832  2.2628
24330SOL     OW78825   7.292   5.455   3.713 -0.1904 -0.2691 -0.3603
24330SOL    HW178826   7.289   5.551   3.705  1.3843 -0.0106  1.5264
24330SOL    HW278827   7.382   5.432   3.689 -0.0812 -1.0848  0.7992
24331SOL     OW78828   9.183   3.113   5.977  0.0524  0.2025 -0.3887
24331SOL    HW178829   9.116   3.045   5.981  0.7341 -0.7361 -3.0729
24331SOL    HW278830   9.253   3.081   6.033 -0.4478 -0.3319 -0.0617
24332SOL     OW78831   4.838   3.676   6.274 -0.3722  0.0518  0.0844
24332SOL    HW178832   4.886   3.755   6.252  0.6192 -1.0836 -2.2511
24332SOL    HW278833   4.761   3.677   6.216 -0.7904 -0.2810  0.6218
24333SOL     OW78834   4.562   6.956   0.711 -0.0323  0.3928  0.3984
24333SOL    HW178835   4.534   6.998   0.630 -0.0129 -0.4785 -0.0698
24333SOL    HW278836   4.612   6.879   0.683 -0.2271 -0.0501  1.2290
24334SOL     OW78837   9.646   0.774   6.880 -0.3031 -0.1188  0.0852
24334SOL    HW178838   9.577   0.838   6.863 -0.5093 -0.3595  0.0184
24334SOL    HW278839   9.612   0.721   6.952  0.8965  1.4423  1.9556
24335SOL     OW78840   2.411   9.246   7.263 -0.0833  0.3523  0.1388
24335SOL    HW178841   2.350   9.177   7.237 -0.7611  1.3123 -0.9220
24335SOL    HW278842   2.456   9.211   7.339 -0.5286 -1.1902 -0.2749
24336SOL     OW78843   9.296   2.008   0.485  0.0424  0.3319 -0.7310
24336SOL    HW178844   9.297   1.967   0.398 -0.6264 -0.0158 -0.5761
24336SOL    HW278845   9.214   2.058   0.487  0.3164  0.7821 -0.4978
24337SOL     OW78846   3.656   2.264   7.137 -0.6592 -0.5756  0.0589
24337SOL    HW178847   3.734   2.286   7.188 -1.7646  0.2736  1.4567
24337SOL    HW278848   3.596   2.225   7.201 -2.1711  0.6953 -0.5324
24338SOL     OW78849   8.896   8.053   9.076  0.2075  0.7609 -0.1813
24338SOL    HW178850   8.826   8.017   9.022  0.3921 -1.1012  0.7367
24338SOL    HW278851   8.975   8.043   9.023  0.4312 -1.3131  0.4475
24339SOL     OW78852  10.500   0.964   5.396  0.4777  0.1619 -0.2782
24339SOL    HW178853  10.584   1.010   5.392  0.0292  0.9809 -0.3650
24339SOL    HW278854  10.462   0.976   5.309 -0.2521  0.7978  0.1177
24340SOL     OW78855   5.361   8.536   9.581  0.6739 -0.1167  0.4894
24340SOL    HW178856   5.393   8.538   9.491  1.8583  1.1488  0.9102
24340SOL    HW278857   5.420   8.477   9.627  0.8771  0.2658  0.7224
24341SOL     OW78858   1.044  10.034   6.738  0.1547  0.3543  0.1238
24341SOL    HW178859   1.130  10.036   6.694 -0.1167  1.6584 -0.3755
24341SOL    HW278860   1.006   9.950   6.711  0.5695  0.5201 -1.0530
24342SOL     OW78861   3.193   8.447   7.468 -0.0944 -0.1221 -0.2568
24342SOL    HW178862   3.250   8.509   7.514 -0.8039  0.7665 -0.5327
24342SOL    HW278863   3.120   8.433   7.528 -0.5315  0.2641 -0.6857
24343SOL     OW78864   2.701   0.241   5.424 -0.2320 -0.1143  0.0402
24343SOL    HW178865   2.659   0.251   5.509  0.6825  2.4379  0.2706
24343SOL    HW278866   2.788   0.280   5.435  0.2275 -0.4976 -1.8456
24344SOL     OW78867   9.267   2.234  10.496  0.3047 -0.2420  0.0625
24344SOL    HW178868   9.293   2.186  10.574  0.7094 -0.5018 -0.2275
24344SOL    HW278869   9.175   2.256  10.510  0.6318  0.6029  1.0624
24345SOL     OW78870   4.809   9.712   2.398 -0.1105 -0.0664 -0.0258
24345SOL    HW178871   4.805   9.724   2.493  0.3213  0.3170 -0.0491
24345SOL    HW278872   4.723   9.678   2.374 -1.4100  2.8410  0.1059
24346SOL     OW78873   9.510  10.093  10.557  0.6584  0.0698  0.1331
24346SOL    HW178874   9.437  10.038  10.526  1.1537 -1.2707  1.2790
24346SOL    HW278875   9.517  10.162  10.490  0.3890 -1.5729 -1.6864
24347SOL     OW78876   3.189   9.179   3.511 -0.3111 -0.3221 -0.4106
24347SOL    HW178877   3.280   9.200   3.532 -0.3275 -0.1102 -0.5524
24347SOL    HW278878   3.152   9.261   3.478 -1.0594  0.0866  1.3108
24348SOL     OW78879   9.128  10.455  10.415  0.6261 -0.0269 -0.2393
24348SOL    HW178880   9.146  10.399  10.490  0.9730  2.4810  1.6867
24348SOL    HW278881   9.032  10.462  10.413  0.5986 -0.4282 -0.2808
24349SOL     OW78882   5.411   2.156   7.221  0.7048 -0.3375 -0.0710
24349SOL    HW178883   5.370   2.069   7.221 -0.6118  0.2426  1.0944
24349SOL    HW278884   5.484   2.148   7.282  0.6784 -0.6705 -0.0823
24350SOL     OW78885   6.445   1.244   7.368 -0.9989 -0.3470 -0.2406
24350SOL    HW178886   6.531   1.288   7.368 -1.2642  0.2412  1.4666
24350SOL    HW278887   6.465   1.151   7.364 -0.3309 -0.1916 -0.8242
24351SOL     OW78888   7.558   2.664   1.225 -0.7939 -0.3398  0.2499
24351SOL    HW178889   7.483   2.679   1.168  0.0360 -0.7633 -1.0095
24351SOL    HW278890   7.537   2.584   1.273 -1.3063 -0.2427  0.1887
24352SOL     OW78891  10.008   5.156   9.688 -0.1179  0.0367  0.7217
24352SOL    HW178892  10.102   5.164   9.673 -0.0639 -1.3594  0.0946
24352SOL    HW278893   9.991   5.062   9.680 -1.6733  0.3388  0.1194
24353SOL     OW78894   3.417   6.925   5.224 -0.1582 -0.2836  0.5599
24353SOL    HW178895   3.339   6.971   5.254  0.0713  0.8527 -0.5370
24353SOL    HW278896   3.429   6.952   5.133 -0.0920 -2.6459 -0.2017
24354SOL     OW78897   3.109   4.882   9.119 -0.0429  0.0629 -0.2613
24354SOL    HW178898   3.121   4.952   9.055 -2.1436  0.0178 -0.8012
24354SOL    HW278899   3.085   4.928   9.200 -0.6328  0.0107 -0.4025
24355SOL     OW78900   4.192   2.949   9.734 -0.0512 -0.0971 -0.4248
24355SOL    HW178901   4.152   2.968   9.819  1.6062  1.6578  0.0296
24355SOL    HW278902   4.261   2.887   9.754 -0.4436 -0.6339 -0.7069
24356SOL     OW78903   8.377   7.613   6.203  0.5132 -0.3352  0.1468
24356SOL    HW178904   8.287   7.646   6.201 -0.1137 -2.0092 -1.1025
24356SOL    HW278905   8.374   7.539   6.264  1.2778  0.1698  0.8238
24357SOL     OW78906   3.955  10.252   1.717  0.0139 -0.4502 -0.0859
24357SOL    HW178907   3.946  10.262   1.622 -0.6759 -0.6028 -0.0402
24357SOL    HW278908   4.045  10.222   1.729  1.1705  2.5968 -0.4535
24358SOL     OW78909   4.076   7.234   2.046  0.0124 -1.1679  0.1358
24358SOL    HW178910   4.039   7.199   2.128  0.6822 -1.2117  0.4228
24358SOL    HW278911   4.119   7.158   2.006 -1.7505 -1.5780 -1.1148
24359SOL     OW78912   0.855   8.703   2.645  0.3481 -0.3718 -0.5971
24359SOL    HW178913   0.834   8.652   2.723 -1.2017 -0.0145 -0.7456
24359SOL    HW278914   0.771   8.739   2.616  0.9357 -0.2092 -2.2344
24360SOL     OW78915   8.488   7.746   3.285  0.4170 -0.3740  0.2210
24360SOL    HW178916   8.584   7.741   3.283  0.4871  0.5194  0.4923
24360SOL    HW278917   8.464   7.768   3.195  0.3601 -1.8335 -0.1421
24361SOL     OW78918   5.324   0.129   4.287  0.5194 -0.0544  0.4175
24361SOL    HW178919   5.377   0.207   4.302  1.0070 -0.2197 -0.3692
24361SOL    HW278920   5.279   0.113   4.370  1.3934  0.3235  0.9754
24362SOL     OW78921   4.166   1.649   4.991  0.5151 -0.1525 -0.1425
24362SOL    HW178922   4.170   1.660   5.086 -0.5641  1.2635 -0.2254
24362SOL    HW278923   4.073   1.640   4.972  0.7214 -0.4093 -1.0751
24363SOL     OW78924   4.787   8.827   2.311 -0.1308  0.2064  0.6237
24363SOL    HW178925   4.787   8.732   2.321 -1.1268 -0.0747 -1.4975
24363SOL    HW278926   4.746   8.860   2.391  1.3157 -1.0137  1.9344
24364SOL     OW78927   7.046   9.000   7.119 -0.2667  0.0959 -0.1976
24364SOL    HW178928   7.015   9.042   7.200 -0.5379 -1.5609  0.6164
24364SOL    HW278929   6.982   9.025   7.053  0.2593  1.9256 -0.0517
24365SOL     OW78930   2.055   3.897   5.856  0.0737  0.2850  0.1710
24365SOL    HW178931   2.124   3.912   5.791 -0.0710  0.3121  0.0233
24365SOL    HW278932   1.980   3.866   5.805  0.1914 -0.4050  0.4108
24366SOL     OW78933   2.296   9.738   9.931  0.1627 -0.4798 -0.0392
24366SOL    HW178934   2.320   9.647   9.918 -1.0318 -0.9538  0.8911
24366SOL    HW278935   2.225   9.735   9.995  0.9274  1.1916  0.9462
24367SOL     OW78936   4.234   5.580   3.415 -0.1044  0.2239 -0.0195
24367SOL    HW178937   4.251   5.560   3.323  0.5286 -1.5670  0.4441
24367SOL    HW278938   4.140   5.571   3.425 -0.0033 -1.1023 -0.1736
24368SOL     OW78939   0.322   0.306   3.558 -0.2183  0.3422  0.5862
24368SOL    HW178940   0.237   0.314   3.602 -0.8319 -1.3192 -0.2043
24368SOL    HW278941   0.386   0.315   3.628 -1.0380  1.4310  1.2376
24369SOL     OW78942   1.325   7.615   4.679  0.2774  0.0546 -0.8712
24369SOL    HW178943   1.301   7.600   4.771  0.3183  0.7809 -0.7363
24369SOL    HW278944   1.413   7.577   4.671  0.5770  0.6333 -0.4150
24370SOL     OW78945   4.747  10.582   3.887  0.7016  0.0325 -0.2798
24370SOL    HW178946   4.697  10.509   3.923  0.9228 -1.4175 -2.7492
24370SOL    HW278947   4.812  10.602   3.955 -0.0718 -1.3043  0.9047
24371SOL     OW78948   1.048   3.319   1.393 -0.0807  0.3590 -0.6000
24371SOL    HW178949   0.975   3.342   1.336 -0.0670  0.0154 -0.7607
24371SOL    HW278950   1.007   3.283   1.471 -0.1596  2.3114  0.3150
24372SOL     OW78951  10.287   3.149   0.340  0.6912  0.2079 -0.4483
24372SOL    HW178952  10.248   3.185   0.260 -0.4004  1.0028  0.4091
24372SOL    HW278953  10.359   3.209   0.360  1.5663 -0.5166 -1.3123
24373SOL     OW78954   5.983   1.560   2.268 -0.2221 -0.4072  0.2339
24373SOL    HW178955   6.059   1.522   2.311  0.4268  0.4768 -0.0902
24373SOL    HW278956   5.989   1.529   2.177 -0.5595 -0.7876  0.3423
24374SOL     OW78957   7.512   9.505   9.814  0.1898  0.4154 -0.5682
24374SOL    HW178958   7.566   9.468   9.884 -1.7552  1.1008  1.3941
24374SOL    HW278959   7.536   9.455   9.736  2.7606 -0.0794  0.4447
24375SOL     OW78960   9.545   8.417   8.993 -0.1789  0.0909 -0.3266
24375SOL    HW178961   9.632   8.411   9.032 -0.2122  0.7758 -0.1320
24375SOL    HW278962   9.557   8.389   8.903  0.3609  0.6955 -0.4536
24376SOL     OW78963   6.667   0.834   8.432  0.2223 -0.0481  0.0679
24376SOL    HW178964   6.691   0.925   8.452  1.3551 -0.5181  0.9738
24376SOL    HW278965   6.576   0.839   8.403  0.9214  1.6711 -2.1835
24377SOL     OW78966   1.427   3.914   1.409 -0.0587  0.1096  0.2934
24377SOL    HW178967   1.446   3.878   1.496  0.3033 -0.7012 -0.1134
24377SOL    HW278968   1.343   3.958   1.420  0.0921  0.2254  1.1124
24378SOL     OW78969   9.139   1.284   6.497  0.2872  0.2302  0.0867
24378SOL    HW178970   9.193   1.274   6.576 -0.6729 -2.2330  0.5052
24378SOL    HW278971   9.150   1.201   6.450  0.4874  1.4819 -2.1915
24379SOL     OW78972   6.131   3.690  10.557  0.0808 -0.2428 -0.7294
24379SOL    HW178973   6.136   3.774  10.604 -2.9608  0.0029 -0.6806
24379SOL    HW278974   6.120   3.714  10.465  0.4125 -0.6286 -0.8734
24380SOL     OW78975   1.284   8.536   9.285 -0.0710  0.1640  0.1514
24380SOL    HW178976   1.197   8.527   9.247 -0.7232  2.0422  1.0992
24380SOL    HW278977   1.282   8.480   9.362 -0.7546  0.8947  0.6705
24381SOL     OW78978   5.705   6.282   2.757 -0.1438 -0.5187  0.0426
24381SOL    HW178979   5.672   6.318   2.839 -0.3067 -0.6359  0.0293
24381SOL    HW278980   5.778   6.226   2.783  0.4658  0.2543  0.0131
24382SOL     OW78981   2.326   2.239   3.721 -0.0629 -0.2396  0.0138
24382SOL    HW178982   2.365   2.241   3.634  1.9659 -2.4311  0.7562
24382SOL    HW278983   2.371   2.309   3.769 -1.6242  1.3819 -0.7975
24383SOL     OW78984   3.865   8.834   8.186  0.0821  0.1491 -0.0706
24383SOL    HW178985   3.860   8.927   8.164  0.6012 -0.3008 -2.3281
24383SOL    HW278986   3.774   8.804   8.186  0.0386  0.2327 -1.4931
24384SOL     OW78987   6.740   5.275   2.199 -0.0783 -0.3987 -0.2093
24384SOL    HW178988   6.659   5.239   2.163 -0.4425  0.0600  0.1336
24384SOL    HW278989   6.779   5.204   2.249 -1.5605  0.0652  1.7569
24385SOL     OW78990  10.243   6.885   9.429 -0.1243 -0.6082  0.5781
24385SOL    HW178991  10.207   6.954   9.485  0.1755 -0.6853  0.8646
24385SOL    HW278992  10.254   6.810   9.487 -1.0511 -1.1029  0.1268
24386SOL     OW78993   9.159   7.701   1.742 -0.2163  0.2112  0.5238
24386SOL    HW178994   9.066   7.689   1.727  0.0802 -0.8731 -0.5503
24386SOL    HW278995   9.198   7.705   1.654  0.5970  2.1446  0.9028
24387SOL     OW78996   8.703   7.966   8.911  0.1170  0.2205 -0.2445
24387SOL    HW178997   8.618   8.003   8.885 -0.7083 -2.3233 -1.5225
24387SOL    HW278998   8.680   7.896   8.973  1.2691 -0.4355 -0.5363
24388SOL     OW78999   2.480   8.693   4.556  0.0898 -0.6241  0.7148
24388SOL    HW179000   2.420   8.764   4.531  1.3799  0.7261  1.2756
24388SOL    HW279001   2.562   8.738   4.577  0.9562 -2.3104  1.0765
24389SOL     OW79002   1.816   9.136   7.175  0.0009  0.2258  0.3027
24389SOL    HW179003   1.809   9.066   7.240  0.2507  0.2948  0.4064
24389SOL    HW279004   1.794   9.216   7.223 -2.1428  0.0248 -0.2508
24390SOL     OW79005   0.177   9.518   9.693  0.2528  0.1830  0.1799
24390SOL    HW179006   0.152   9.609   9.713 -1.2299  0.2874 -1.8567
24390SOL    HW279007   0.111   9.465   9.739 -0.1972  0.2321 -0.4021
24391SOL     OW79008   2.133   4.634   1.022  0.5743 -0.3663 -0.3782
24391SOL    HW179009   2.114   4.549   0.983  0.3566 -0.4356 -0.1229
24391SOL    HW279010   2.088   4.632   1.107  1.1711 -0.2760 -0.0549
24392SOL     OW79011   4.710   5.435   6.516 -0.3410 -0.0250 -0.0342
24392SOL    HW179012   4.802   5.406   6.522  0.8439  3.2036 -0.6344
24392SOL    HW279013   4.698   5.491   6.593 -1.9075 -0.5517  0.1301
24393SOL     OW79014   5.935   5.165   8.400  0.4001 -0.3958  0.1057
24393SOL    HW179015   5.868   5.105   8.368 -0.0037  0.3163 -0.4405
24393SOL    HW279016   5.897   5.252   8.386  1.3012  0.0073  0.1095
24394SOL     OW79017   9.910   0.020   9.588 -0.0445  0.0913  0.3090
24394SOL    HW179018   9.887   0.101   9.542 -1.3944 -1.1186 -1.3211
24394SOL    HW279019   9.825  -0.023   9.602  0.6335 -0.9621  1.3222
24395SOL     OW79020  10.494   4.365   7.430 -0.2685 -0.1946 -0.2745
24395SOL    HW179021  10.464   4.446   7.389 -0.2894  0.0439  0.2085
24395SOL    HW279022  10.446   4.360   7.512 -0.6665 -0.9736 -0.5469
24396SOL     OW79023   1.889   0.830   8.321 -0.1609 -0.3279 -0.2800
24396SOL    HW179024   1.815   0.841   8.380 -1.4125 -2.2134 -1.3746
24396SOL    HW279025   1.947   0.769   8.367  0.8516  1.2427  0.6301
24397SOL     OW79026   3.538   9.223   3.147 -0.3426  0.7884  0.4587
24397SOL    HW179027   3.507   9.313   3.160 -1.4242  0.4749  0.1653
24397SOL    HW279028   3.624   9.222   3.188  0.1665  2.2608 -0.4724
24398SOL     OW79029   6.771   1.426   5.790  0.1740 -0.3493  0.5909
24398SOL    HW179030   6.725   1.369   5.728  0.5894  0.1240 -0.1694
24398SOL    HW279031   6.709   1.439   5.862 -0.0033 -1.5743  0.6684
24399SOL     OW79032   2.284   7.808   7.455 -0.5869  0.4140  0.1182
24399SOL    HW179033   2.259   7.722   7.491  2.0221 -0.6016 -0.2941
24399SOL    HW279034   2.278   7.797   7.360  0.9385  0.2401  0.0172
24400SOL     OW79035   6.094   0.166  10.566 -0.3955 -0.6048 -0.0622
24400SOL    HW179036   6.010   0.123  10.580 -0.4069 -0.3797  0.6061
24400SOL    HW279037   6.073   0.246  10.519 -0.6174 -0.3214  0.5051
24401SOL     OW79038   3.724   0.739   9.124 -0.1911  0.3137 -0.1103
24401SOL    HW179039   3.631   0.763   9.125  0.1621  1.8867 -0.8403
24401SOL    HW279040   3.763   0.794   9.192  0.1912 -0.4731  0.3154
24402SOL     OW79041   4.417   0.154   6.725 -0.1597 -0.2144 -0.0956
24402SOL    HW179042   4.439   0.221   6.790 -1.8422 -0.6578  0.9944
24402SOL    HW279043   4.339   0.188   6.682  0.7109 -0.1125 -1.6605
24403SOL     OW79044   6.146  10.234   2.558  0.0801 -0.0231  0.1609
24403SOL    HW179045   6.204  10.287   2.612 -0.8651  2.4174 -1.0577
24403SOL    HW279046   6.177  10.248   2.469 -1.4467  0.1421 -0.3783
24404SOL     OW79047   3.979   9.580   8.268  0.3049  0.1193 -0.0237
24404SOL    HW179048   3.998   9.633   8.347  0.3806  1.1432 -0.7039
24404SOL    HW279049   3.935   9.502   8.302 -1.6400  1.5159  0.8852
24405SOL     OW79050   2.520  10.020   8.835 -0.0962  0.0099  0.3864
24405SOL    HW179051   2.561   9.955   8.892 -0.4079  0.0927  0.7120
24405SOL    HW279052   2.530   9.985   8.747 -0.5489 -0.6379  0.5826
24406SOL     OW79053   7.620   7.696   7.805  0.2561  0.2132 -0.5065
24406SOL    HW179054   7.711   7.716   7.829 -0.0646  1.8556 -0.5225
24406SOL    HW279055   7.569   7.722   7.881 -0.2521 -0.2944 -0.6711
24407SOL     OW79056   8.223   3.530   8.937 -0.7491  0.3231 -0.0795
24407SOL    HW179057   8.233   3.588   8.861  0.1580  0.0074 -0.2124
24407SOL    HW279058   8.145   3.479   8.918  0.4814 -1.0619 -1.7027
24408SOL     OW79059   0.379   3.610   3.589 -0.1680 -0.0474 -0.8024
24408SOL    HW179060   0.473   3.592   3.597 -0.5674 -1.9588  0.0236
24408SOL    HW279061   0.352   3.636   3.677 -0.6983 -1.0121 -0.6726
24409SOL     OW79062   1.544   8.341   3.940  0.1561  0.6391  0.8557
24409SOL    HW179063   1.518   8.306   3.855  1.1254  1.3763  0.2324
24409SOL    HW279064   1.620   8.288   3.965  1.1139  1.6988  0.2965
24410SOL     OW79065   6.200   0.067   7.857  0.2019  0.0680 -0.4785
24410SOL    HW179066   6.180  -0.017   7.897 -0.0210 -0.2097 -1.1699
24410SOL    HW279067   6.281   0.095   7.900  0.0800 -0.3228  0.0103
24411SOL     OW79068   2.993   3.213   4.203  0.0127  0.3985  0.2027
24411SOL    HW179069   2.930   3.143   4.219  0.5007  0.0912  0.8553
24411SOL    HW279070   3.015   3.206   4.110 -0.0776 -0.2027  0.2251
24412SOL     OW79071  10.703   2.594   4.437 -0.1596 -0.2569 -0.2513
24412SOL    HW179072  10.624   2.572   4.387 -0.5003  1.8934 -0.7590
24412SOL    HW279073  10.767   2.527   4.412 -1.9985 -2.5418  0.7780
24413SOL     OW79074  10.635   1.544   9.366  0.3447 -0.2444 -0.5706
24413SOL    HW179075  10.581   1.619   9.342 -2.3737 -2.0578 -0.5854
24413SOL    HW279076  10.688   1.526   9.288 -0.4730  0.4273 -1.2995
24414SOL     OW79077  10.700  10.670   4.896  0.2777  0.3592 -0.0510
24414SOL    HW179078  10.714  10.693   4.804 -0.6772 -0.1330 -0.3346
24414SOL    HW279079  10.725  10.578   4.902  0.8022  0.5186  0.3006
24415SOL     OW79080   7.448   3.905   7.607 -0.2625 -0.2380 -0.5638
24415SOL    HW179081   7.542   3.886   7.608 -0.1917  0.0390  0.7631
24415SOL    HW279082   7.406   3.820   7.624 -0.0836  0.0664  1.8855
24416SOL     OW79083   1.850   7.473   8.978 -0.4018  0.4389 -0.2301
24416SOL    HW179084   1.826   7.522   8.899 -2.1884 -2.0081 -1.3683
24416SOL    HW279085   1.934   7.432   8.956 -0.3659  0.6207 -0.4391
24417SOL     OW79086   1.953   4.533   7.328  0.2460 -0.5711 -0.2351
24417SOL    HW179087   1.970   4.479   7.251  0.1778 -0.6125 -0.2207
24417SOL    HW279088   1.900   4.478   7.386 -1.7668  0.2705 -1.1766
24418SOL     OW79089   5.045   1.560  10.428 -0.3317  0.1387 -0.2687
24418SOL    HW179090   5.135   1.583  10.454  0.2853 -0.4749 -1.7301
24418SOL    HW279091   5.023   1.484  10.481 -0.1235  0.4950  0.3385
24419SOL     OW79092   5.220  10.296   7.035  0.6290  0.0503  0.3800
24419SOL    HW179093   5.202  10.275   6.944 -0.9608  0.5195  0.5456
24419SOL    HW279094   5.245  10.213   7.075 -1.9808 -0.9075  0.2383
24420SOL     OW79095  10.048   5.974   1.696 -0.4306 -0.0199  0.0134
24420SOL    HW179096  10.106   6.050   1.703  0.8555 -0.7736 -1.6687
24420SOL    HW279097  10.055   5.932   1.782 -0.7340  1.4416  0.7814
24421SOL     OW79098   5.251   5.791   4.338 -0.5208  0.3506  0.3505
24421SOL    HW179099   5.305   5.762   4.412 -0.1141  0.0996 -0.0385
24421SOL    HW279100   5.179   5.840   4.378 -0.9262 -0.7376  0.9775
24422SOL     OW79101   5.299   9.824   9.141 -0.0132  0.5856  0.1008
24422SOL    HW179102   5.260   9.862   9.220  0.2542  1.4068 -0.1531
24422SOL    HW279103   5.266   9.878   9.069 -1.2787 -0.9484 -0.5071
24423SOL     OW79104   8.994   8.590   2.348  0.2925 -0.1068  0.4369
24423SOL    HW179105   9.042   8.540   2.281 -1.9352 -1.7474 -0.0593
24423SOL    HW279106   9.061   8.616   2.411  2.0337 -0.9906 -0.9443
24424SOL     OW79107   9.773   0.423  10.356  0.0613  0.3540  0.3392
24424SOL    HW179108   9.798   0.515  10.349 -0.3174  0.5355  1.2650
24424SOL    HW279109   9.764   0.394  10.265 -2.4741  1.9921 -0.0398
24425SOL     OW79110   8.204   7.176   9.966  0.0766 -0.8525 -0.5814
24425SOL    HW179111   8.185   7.083   9.953 -0.3673 -0.9362  0.5746
24425SOL    HW279112   8.167   7.196  10.052  0.1802  0.3932 -0.8178
24426SOL     OW79113   0.201   2.458   4.310 -0.0097  0.5587 -0.3614
24426SOL    HW179114   0.202   2.465   4.406 -0.4707  1.7037 -0.4299
24426SOL    HW279115   0.210   2.364   4.293  0.8257  0.4148  0.7835
24427SOL     OW79116   1.168   2.366  10.488 -0.3084 -0.3197 -0.8163
24427SOL    HW179117   1.249   2.392  10.444  0.5156 -0.3783  0.5846
24427SOL    HW279118   1.100   2.378  10.423  0.6266  1.1875 -1.5726
24428SOL     OW79119   2.861   3.252   6.283  0.1522 -0.1578 -0.1692
24428SOL    HW179120   2.881   3.280   6.372  1.3170 -0.0499 -0.4542
24428SOL    HW279121   2.775   3.210   6.290  0.1426  0.0177  0.9584
24429SOL     OW79122   5.240   6.386   5.691  0.1219 -0.2812  0.0237
24429SOL    HW179123   5.245   6.419   5.780  2.0220 -1.2856  0.3258
24429SOL    HW279124   5.241   6.465   5.636 -0.8120  0.3284  0.8488
24430SOL     OW79125   1.093   7.940   0.745  0.3486  0.4898 -0.7537
24430SOL    HW179126   1.118   7.850   0.766  2.8313  1.3868  0.6159
24430SOL    HW279127   1.065   7.976   0.829 -1.6189  0.7700 -1.4847
24431SOL     OW79128   2.710   1.511  10.618 -0.2033  0.0271 -0.0308
24431SOL    HW179129   2.744   1.432  10.661 -2.2290 -0.2533  1.1843
24431SOL    HW279130   2.691   1.483  10.528  2.5841  0.1837 -0.7462
24432SOL     OW79131  10.403   0.581   5.815  0.4924 -0.0359  0.4352
24432SOL    HW179132  10.349   0.646   5.769 -0.6858 -0.9229  0.5294
24432SOL    HW279133  10.426   0.623   5.898  0.6360  0.6611  0.0531
24433SOL     OW79134   5.515   0.697   0.555  0.3807  0.1414  0.4605
24433SOL    HW179135   5.555   0.611   0.569  0.2302 -0.0956 -0.4670
24433SOL    HW279136   5.525   0.713   0.461  0.2220  1.0485  0.5848
24434SOL     OW79137   7.023   3.843   1.391 -0.2209 -0.2368 -0.0224
24434SOL    HW179138   6.949   3.901   1.406  0.2644  0.6733 -0.9877
24434SOL    HW279139   7.096   3.902   1.373  0.0558 -1.1383 -2.1464
24435SOL     OW79140  10.394   0.518   6.086 -0.1662 -0.1586 -0.5453
24435SOL    HW179141  10.302   0.527   6.110  0.4937 -1.7490  3.1588
24435SOL    HW279142  10.402   0.430   6.049  0.0071 -0.4138  0.0854
24436SOL     OW79143   3.743   1.323   7.461  0.3561 -0.2736 -0.0837
24436SOL    HW179144   3.823   1.365   7.493  0.9120  0.4148 -2.1895
24436SOL    HW279145   3.758   1.311   7.367 -2.2334  0.4599 -0.6924
24437SOL     OW79146  10.147   0.090   3.179  0.4308 -0.3867  0.1753
24437SOL    HW179147  10.059   0.098   3.216  0.5684 -0.1930  0.4630
24437SOL    HW279148  10.196   0.161   3.219  0.7551 -0.5715  0.1079
24438SOL     OW79149   9.237   1.185   9.736 -0.0573  0.1932  0.4220
24438SOL    HW179150   9.180   1.231   9.797  0.5531  2.7138 -0.7455
24438SOL    HW279151   9.202   1.208   9.650  2.4948  1.6651 -0.3223
24439SOL     OW79152   4.507   1.941   8.932 -0.1438  0.4967  0.6928
24439SOL    HW179153   4.432   1.904   8.886  0.2636  0.0061  0.4038
24439SOL    HW279154   4.487   1.930   9.025 -0.2425 -0.0151  0.6124
24440SOL     OW79155   2.542   8.888   3.213  0.6804 -0.2599  0.1063
24440SOL    HW179156   2.524   8.978   3.240  0.1006 -0.4719  0.4500
24440SOL    HW279157   2.537   8.890   3.117  0.0717 -0.0437  0.1395
24441SOL     OW79158   6.972   5.363  10.043 -0.2460 -0.1979 -0.1617
24441SOL    HW179159   6.952   5.303  10.115 -0.9599  1.7736  1.4026
24441SOL    HW279160   7.049   5.412  10.074  1.9655 -1.9325 -2.4998
24442SOL     OW79161   5.841   7.992   5.571  0.1081  0.0155 -0.4496
24442SOL    HW179162   5.748   8.015   5.570  0.0301 -0.2744 -1.8447
24442SOL    HW279163   5.844   7.903   5.536  0.6639 -1.1622  2.3267
24443SOL     OW79164   5.732   3.112   2.763  0.2221 -0.1090 -0.2660
24443SOL    HW179165   5.812   3.064   2.740  0.2653 -0.8153  1.2253
24443SOL    HW279166   5.751   3.202   2.739  0.9306 -0.4836 -1.2034
24444SOL     OW79167   8.375   7.859   3.042 -0.4025 -0.0696 -0.5925
24444SOL    HW179168   8.377   7.955   3.034 -0.4219  0.0820  0.9184
24444SOL    HW279169   8.405   7.827   2.957  0.4951  1.2892 -0.8127
24445SOL     OW79170   8.246   2.650   7.572 -0.1508  0.1274 -0.0641
24445SOL    HW179171   8.287   2.706   7.505  0.5326 -0.7848 -0.4395
24445SOL    HW279172   8.298   2.570   7.570 -0.5913 -0.1988  1.0558
24446SOL     OW79173   7.972   9.644   5.526 -0.8437  0.3822 -0.3262
24446SOL    HW179174   8.046   9.681   5.574 -0.7009  1.4421 -1.3417
24446SOL    HW279175   8.010   9.609   5.446 -1.4522  1.1181 -0.9559
24447SOL     OW79176   4.825   1.343   7.202 -0.5625 -0.0995  0.7558
24447SOL    HW179177   4.908   1.297   7.191  0.2881  1.0497  1.8928
24447SOL    HW279178   4.784   1.342   7.116  1.8982  1.5964 -0.5589
24448SOL     OW79179   0.220  10.443   2.374 -0.1364  0.3035 -1.0261
24448SOL    HW179180   0.189  10.533   2.386  0.7178  0.4685  0.1042
24448SOL    HW279181   0.145  10.389   2.397 -1.2482  0.6909 -3.4368
24449SOL     OW79182  10.328   2.263   9.350 -0.5641 -0.5781 -0.4867
24449SOL    HW179183  10.263   2.253   9.420 -0.3096  0.3677 -0.0954
24449SOL    HW279184  10.281   2.306   9.279 -0.0732  1.3459  0.2982
24450SOL     OW79185   5.557   0.339  10.710 -0.2473 -0.4868  0.3210
24450SOL    HW179186   5.509   0.384  10.641  0.7273  0.2508  0.0974
24450SOL    HW279187   5.643   0.382  10.712 -0.0884 -0.8078  1.6761
24451SOL     OW79188   3.281   3.503   1.216  0.0587 -0.2766  0.2340
24451SOL    HW179189   3.215   3.495   1.147 -1.5659  0.2011  1.6678
24451SOL    HW279190   3.312   3.413   1.229  2.2118 -0.1134 -2.7039
24452SOL     OW79191   5.563   2.660   4.335 -0.1092 -0.3776 -0.3437
24452SOL    HW179192   5.523   2.718   4.269  3.3376 -0.4207 -2.7621
24452SOL    HW279193   5.510   2.580   4.332 -2.5225  1.0834  0.0972
24453SOL     OW79194   3.303   7.777   8.039  0.7649 -0.0278  0.2928
24453SOL    HW179195   3.316   7.835   7.964  1.3049  1.7097  1.6509
24453SOL    HW279196   3.274   7.694   8.001  0.9024  0.8256 -1.8041
24454SOL     OW79197   5.501   7.144   3.187  0.2295  0.1838  0.1298
24454SOL    HW179198   5.555   7.079   3.142  0.9316 -0.1954  1.4636
24454SOL    HW279199   5.423   7.152   3.133  0.5413 -1.0805 -0.5478
24455SOL     OW79200   9.987   2.305   7.897 -0.0037 -0.2155 -0.0934
24455SOL    HW179201  10.023   2.312   7.808 -0.8617 -0.3452 -0.4603
24455SOL    HW279202  10.063   2.310   7.954  0.4566  1.1286 -0.7802
24456SOL     OW79203  10.632   2.034   7.926 -0.4906 -0.3466 -0.1737
24456SOL    HW179204  10.689   2.102   7.892 -0.0982  0.2056  1.5122
24456SOL    HW279205  10.683   1.990   7.994 -1.4839 -0.9337  0.2257
24457SOL     OW79206  10.529   7.038   3.978 -0.0658  0.0870 -0.3590
24457SOL    HW179207  10.611   6.993   3.959  0.6222  1.5321 -0.9563
24457SOL    HW279208  10.525   7.042   4.074  0.0974 -0.8031 -0.3141
24458SOL     OW79209   4.566   4.001   3.216  0.1420  0.3993 -0.5412
24458SOL    HW179210   4.608   3.915   3.215 -1.9282 -0.6993  0.2039
24458SOL    HW279211   4.634   4.062   3.188  1.9886 -1.3357 -0.0422
24459SOL     OW79212   8.355   8.559   6.383 -0.2165  0.5697  0.3208
24459SOL    HW179213   8.267   8.597   6.380 -0.2049  0.6178  0.5559
24459SOL    HW279214   8.408   8.616   6.326 -0.7673 -0.6174 -1.4549
24460SOL     OW79215   5.422   2.535   8.534  0.1201 -0.1461  0.0518
24460SOL    HW179216   5.443   2.451   8.574  0.7170  0.2934  0.6764
24460SOL    HW279217   5.332   2.553   8.560 -0.2581 -0.9223 -0.6791
24461SOL     OW79218   2.769   0.803   8.520 -0.0729  0.2015  0.5712
24461SOL    HW179219   2.790   0.721   8.477 -0.3884  0.0478  0.7096
24461SOL    HW279220   2.852   0.832   8.558  0.4406  0.8302 -0.9349
24462SOL     OW79221   3.873  10.623   6.161  0.2196  0.1523 -0.0207
24462SOL    HW179222   3.907  10.688   6.223  0.9059 -1.5620  1.5127
24462SOL    HW279223   3.948  10.599   6.107  0.2630 -0.1646  0.1749
24463SOL     OW79224  10.038   4.681   3.544  0.3704  0.5913 -0.4207
24463SOL    HW179225  10.108   4.729   3.500  1.0376  0.5754  0.5850
24463SOL    HW279226  10.015   4.611   3.483  1.1875  0.6368 -0.8005
24464SOL     OW79227   7.108   9.223   1.217  0.5413  0.4412 -0.3371
24464SOL    HW179228   7.080   9.315   1.214  1.2556  0.6801  0.0369
24464SOL    HW279229   7.190   9.225   1.266 -0.8854 -0.7557  2.2764
24465SOL     OW79230   1.108   6.649   1.576 -0.3853 -0.1000  0.4704
24465SOL    HW179231   1.161   6.723   1.547 -2.5007  2.0856  1.9058
24465SOL    HW279232   1.170   6.576   1.579  1.8242  1.5913 -0.8537
24466SOL     OW79233   3.792   0.514   8.969 -0.3370 -0.3195  0.0420
24466SOL    HW179234   3.764   0.589   9.022 -0.5847 -0.7519  0.5258
24466SOL    HW279235   3.815   0.553   8.884 -0.3921  0.3146  0.3098
24467SOL     OW79236  10.383   3.506   7.802 -0.0209 -0.2861 -0.0504
24467SOL    HW179237  10.399   3.412   7.800  1.4775 -0.0979  1.1115
24467SOL    HW279238  10.394   3.535   7.711  2.0430 -0.8889 -0.0512
24468SOL     OW79239   4.088   9.449   7.250  0.1074 -0.6927 -0.2265
24468SOL    HW179240   4.172   9.406   7.264  1.4862  1.1919 -2.1025
24468SOL    HW279241   4.104   9.541   7.267 -0.8810  0.0713 -2.8614
24469SOL     OW79242   8.732   7.060   2.983  0.0014 -0.3488 -0.0866
24469SOL    HW179243   8.730   7.109   2.901 -1.6728 -1.9703 -1.0965
24469SOL    HW279244   8.702   7.122   3.049  1.9839  1.1842 -0.5115
24470SOL     OW79245   0.341   6.481   1.983 -0.1916 -0.0838 -0.5757
24470SOL    HW179246   0.337   6.397   1.938 -1.7815 -0.6473  0.4998
24470SOL    HW279247   0.252   6.494   2.016  0.5588  0.9424  1.1694
24471SOL     OW79248  10.298  10.134   9.213 -0.5892 -0.5808 -0.1039
24471SOL    HW179249  10.286  10.118   9.306 -1.3047  0.5352  0.0165
24471SOL    HW279250  10.262  10.056   9.170 -1.3908 -0.5696  0.5249
24472SOL     OW79251   8.991   2.897   7.366  0.0037  0.1748 -0.2527
24472SOL    HW179252   8.907   2.909   7.410  0.8499 -0.9510  1.8144
24472SOL    HW279253   9.037   2.980   7.378 -0.1132  0.1687  0.2406
24473SOL     OW79254   9.430   1.687   7.334 -0.0510  0.9138  0.4402
24473SOL    HW179255   9.475   1.743   7.397 -0.9700  2.4585 -0.2201
24473SOL    HW279256   9.411   1.744   7.259  1.0451 -0.8536 -1.3009
24474SOL     OW79257   7.897   9.593   0.853 -0.1497 -0.4367 -0.1198
24474SOL    HW179258   7.925   9.650   0.781  0.2391 -1.0887 -0.4873
24474SOL    HW279259   7.812   9.560   0.826  0.0718 -0.8152 -0.3634
24475SOL     OW79260   2.142   1.859   8.239  0.1565 -0.1220  0.1327
24475SOL    HW179261   2.149   1.949   8.271 -0.1425  0.5036 -1.4647
24475SOL    HW279262   2.196   1.858   8.159 -1.6932 -0.6805 -1.1763
24476SOL     OW79263   4.306   8.940   6.340  0.1835 -0.4689  0.0972
24476SOL    HW179264   4.235   8.997   6.312  2.2433  2.1838 -0.0792
24476SOL    HW279265   4.362   8.995   6.395  1.5748 -2.7300  1.1136
24477SOL     OW79266   3.380   1.546   6.479  0.0276  0.8834  0.3958
24477SOL    HW179267   3.427   1.537   6.396  0.7363  0.8707  0.7852
24477SOL    HW279268   3.435   1.501   6.543 -0.1563  1.4802  0.9960
24478SOL     OW79269   6.971   8.681   6.751 -0.4775 -0.1046  0.2738
24478SOL    HW179270   7.023   8.646   6.679 -0.1215  2.2647 -0.6880
24478SOL    HW279271   6.881   8.680   6.719 -0.1560  2.3621 -0.8924
24479SOL     OW79272   3.288   0.742   8.509 -0.5991 -0.1502  0.0027
24479SOL    HW179273   3.351   0.737   8.437 -0.9338  0.9370 -0.3972
24479SOL    HW279274   3.312   0.823   8.555  1.3968 -2.1422  2.8753
24480SOL     OW79275   3.139   0.295   4.394 -0.6061  0.1072 -0.0263
24480SOL    HW179276   3.104   0.303   4.305  0.6448  2.9140 -0.3486
24480SOL    HW279277   3.232   0.279   4.383 -0.6511 -0.8790  0.8232
24481SOL     OW79278   3.091   6.072   5.547 -0.3046 -0.4255 -0.1522
24481SOL    HW179279   3.103   6.131   5.473 -2.9655  0.4714  0.0397
24481SOL    HW279280   3.160   6.006   5.536  0.7955  0.9423 -2.1141
24482SOL     OW79281   6.127   0.599   2.033 -0.7411 -0.7757  0.0128
24482SOL    HW179282   6.174   0.648   2.101  0.8160 -0.5605 -1.1665
24482SOL    HW279283   6.106   0.665   1.967 -0.0994 -1.4080 -0.8283
24483SOL     OW79284   4.528   6.814   1.955 -0.2696 -0.1720  0.2991
24483SOL    HW179285   4.604   6.872   1.956  0.2310 -0.7822 -0.9338
24483SOL    HW279286   4.563   6.729   1.927 -1.4132 -0.4383 -0.3733
24484SOL     OW79287   3.778   1.290   1.117 -0.3822  0.6079 -0.7174
24484SOL    HW179288   3.689   1.269   1.090  0.0001  1.6985 -3.0808
24484SOL    HW279289   3.781   1.386   1.115  0.1843  0.7073  1.8047
24485SOL     OW79290   0.287   8.638   7.951  0.1868 -0.6089  0.5628
24485SOL    HW179291   0.227   8.564   7.937  2.8655 -2.6079 -1.2737
24485SOL    HW279292   0.315   8.628   8.042 -0.2977 -1.2055  0.6543
24486SOL     OW79293   6.810   2.677   8.876  0.4203 -0.0644 -0.2626
24486SOL    HW179294   6.756   2.659   8.953  1.1770 -0.6234  0.1516
24486SOL    HW279295   6.899   2.654   8.903  0.9745  1.4169 -0.7294
24487SOL     OW79296   8.392   5.138  10.485  0.4847 -0.1595 -0.0581
24487SOL    HW179297   8.317   5.117  10.429  2.4851  3.3938 -4.7414
24487SOL    HW279298   8.362   5.213  10.537 -0.1518 -0.8851  0.6517
24488SOL     OW79299   7.082   3.148   2.215  0.1683  0.0352  0.0880
24488SOL    HW179300   7.173   3.134   2.240  0.2578  0.4137 -0.0214
24488SOL    HW279301   7.079   3.239   2.186  0.2416 -0.5817 -2.0153
24489SOL     OW79302   7.059   1.754   2.244 -0.3775  0.0207 -0.5810
24489SOL    HW179303   7.119   1.812   2.290  0.3007  0.1541 -1.5887
24489SOL    HW279304   6.978   1.804   2.238 -0.1055  0.4712 -0.5708
24490SOL     OW79305   2.870   7.663   2.422  0.3605 -0.1246  0.0458
24490SOL    HW179306   2.958   7.697   2.401  0.6622  0.2930  1.8764
24490SOL    HW279307   2.852   7.695   2.510 -1.6444 -0.2352 -0.2771
24491SOL     OW79308   0.837   4.761  10.254  0.0916  0.6759 -0.2294
24491SOL    HW179309   0.921   4.717  10.262  0.1084  0.9168  1.1573
24491SOL    HW279310   0.773   4.690  10.247  0.2772  0.4508  0.2960
24492SOL     OW79311   1.171  10.644   2.782  0.0972 -0.0134 -0.9623
24492SOL    HW179312   1.119  10.723   2.765 -2.2106 -1.4558 -1.1088
24492SOL    HW279313   1.182  10.604   2.695  0.0043 -0.5477 -0.7317
24493SOL     OW79314   1.097   2.978   0.673 -0.0848  0.4962  0.4810
24493SOL    HW179315   1.056   3.001   0.590 -1.6675  1.5073  1.4919
24493SOL    HW279316   1.040   2.911   0.710  1.0339 -0.5118  0.4301
24494SOL     OW79317   3.583   4.973   9.400 -0.2416  0.1727  0.2927
24494SOL    HW179318   3.567   4.946   9.309 -0.1424  0.8199  0.0751
24494SOL    HW279319   3.524   4.919   9.452 -0.2408 -0.2645 -0.1508
24495SOL     OW79320  10.594   6.350   1.179 -0.0380 -0.7541  0.3957
24495SOL    HW179321  10.617   6.300   1.100 -0.2289 -1.1610  0.5951
24495SOL    HW279322  10.675   6.352   1.230  0.6992  1.2802 -0.7263
24496SOL     OW79323   1.668   7.037   9.055  0.6809 -0.5430 -0.1361
24496SOL    HW179324   1.702   7.077   9.135  1.1761  1.0797 -1.1046
24496SOL    HW279325   1.740   6.982   9.023  0.6927 -0.7393  0.2247
24497SOL     OW79326   8.334   6.855   4.949  0.0605 -0.5422 -0.2119
24497SOL    HW179327   8.388   6.924   4.986  0.3884 -1.1627  0.4991
24497SOL    HW279328   8.377   6.773   4.976 -1.0032 -1.0413  0.0381
24498SOL     OW79329   8.852  10.620   3.709 -0.0203  0.4247  0.2145
24498SOL    HW179330   8.880  10.685   3.645 -0.6806 -0.1316 -0.6612
24498SOL    HW279331   8.879  10.536   3.672 -0.5348  0.0890  0.5805
24499SOL     OW79332   9.037   8.671   7.374  0.2415 -0.0348  0.0466
24499SOL    HW179333   9.098   8.672   7.448  1.6783 -1.4784 -1.0461
24499SOL    HW279334   8.971   8.607   7.398 -0.5575  1.0801  0.9648
24500SOL     OW79335   7.278  10.514   3.430 -0.4093  0.0672 -0.0942
24500SOL    HW179336   7.340  10.442   3.420  0.4407  0.5205  1.6145
24500SOL    HW279337   7.193  10.472   3.435 -0.0283 -0.7289 -0.1497
24501SOL     OW79338   7.803   8.033   5.575 -0.1103 -0.3033 -0.1954
24501SOL    HW179339   7.766   8.011   5.661  0.6128 -0.1412  0.1650
24501SOL    HW279340   7.774   7.962   5.518 -1.8154  0.3320 -0.1686
24502SOL     OW79341   7.090   2.649   3.580 -0.0141  0.0962  0.1814
24502SOL    HW179342   7.044   2.620   3.501  1.0659 -0.1381 -0.3733
24502SOL    HW279343   7.138   2.571   3.609  0.1465  0.3800  0.6785
24503SOL     OW79344   2.141  10.074  10.333 -0.3578  0.3752 -0.4693
24503SOL    HW179345   2.215  10.078  10.273 -0.5574  2.3574 -0.6443
24503SOL    HW279346   2.162  10.137  10.401 -1.8689  0.9893 -0.5296
24504SOL     OW79347   9.430   8.927   1.916 -0.2933 -0.5590 -0.1947
24504SOL    HW179348   9.395   9.007   1.956 -0.7801 -0.6446 -0.4346
24504SOL    HW279349   9.487   8.889   1.983  1.0697  0.7184 -0.5997
24505SOL     OW79350   5.541  10.423  10.003  0.4152 -0.3312  1.1543
24505SOL    HW179351   5.566  10.515   9.996  0.9720 -0.4967  0.9857
24505SOL    HW279352   5.450  10.421   9.973  0.9092 -0.0896 -0.3944
24506SOL     OW79353   5.114   3.748   1.357 -0.6052 -0.1243 -0.3572
24506SOL    HW179354   5.040   3.723   1.301  0.8130 -1.1179 -1.8660
24506SOL    HW279355   5.074   3.764   1.443 -2.6462 -0.0501 -1.2490
24507SOL     OW79356  10.668   4.171   5.972  0.3045  0.4371  0.5694
24507SOL    HW179357  10.720   4.112   6.027  2.0151  2.1684  0.9283
24507SOL    HW279358  10.732   4.215   5.917 -0.9135  1.8135  0.1913
24508SOL     OW79359   7.365   1.798   4.382  0.4450  0.2654 -0.4009
24508SOL    HW179360   7.354   1.861   4.311  1.5977  0.6809 -0.2228
24508SOL    HW279361   7.374   1.713   4.338 -0.2621  0.3279 -0.6761
24509SOL     OW79362   3.568   5.504   8.185 -0.0832  0.0267 -0.4767
24509SOL    HW179363   3.569   5.506   8.281 -0.9424 -0.8224 -0.4246
24509SOL    HW279364   3.647   5.456   8.161  0.5007  0.8468 -0.2337
24510SOL     OW79365   1.343   9.486   7.975  0.3039  0.2286  0.3818
24510SOL    HW179366   1.300   9.426   8.036 -0.2824  0.7886  0.5315
24510SOL    HW279367   1.376   9.429   7.905 -0.6093 -0.2327  0.3035
24511SOL     OW79368   7.484   9.258   7.534 -0.1794  0.5297  0.2890
24511SOL    HW179369   7.446   9.342   7.560 -1.7517  0.2674 -1.0252
24511SOL    HW279370   7.452   9.244   7.444  0.5763 -1.1722  0.2543
24512SOL     OW79371   7.053   1.286   0.916  0.0590 -0.6636  0.1243
24512SOL    HW179372   7.021   1.369   0.950  2.0526  0.4660 -0.5923
24512SOL    HW279373   6.974   1.236   0.895 -1.1758  1.1285  0.3350
24513SOL     OW79374   0.746   0.032   8.537  0.2799  0.1709 -0.0739
24513SOL    HW179375   0.774   0.122   8.552  0.5405  0.2863 -1.2016
24513SOL    HW279376   0.699   0.008   8.617 -2.0579  2.1646 -0.7330
24514SOL     OW79377   1.574   9.096   8.582 -0.6148  0.0426 -0.3998
24514SOL    HW179378   1.627   9.174   8.599  0.2224 -0.7543  0.7770
24514SOL    HW279379   1.494   9.110   8.633  0.0085 -0.3461  0.7218
24515SOL     OW79380   6.919   6.292   2.727  0.5932  0.3225  0.0011
24515SOL    HW179381   6.849   6.257   2.782 -0.3556  2.8695  0.5504
24515SOL    HW279382   6.953   6.367   2.776  4.4555 -1.3547  0.2218
24516SOL     OW79383   3.334   2.404   1.504  0.5397  0.6722  0.5119
24516SOL    HW179384   3.268   2.441   1.563  0.0033 -0.8141  0.9018
24516SOL    HW279385   3.314   2.441   1.418 -1.7077 -0.7287  0.3293
24517SOL     OW79386   9.855   9.826   6.207 -0.2985  0.2223  0.6160
24517SOL    HW179387   9.776   9.777   6.183 -0.6132 -0.7205  3.2299
24517SOL    HW279388   9.888   9.860   6.125 -0.8329 -3.2730 -1.2356
24518SOL     OW79389   3.830   2.874   5.330  0.1261 -0.1214 -0.4141
24518SOL    HW179390   3.739   2.859   5.306  0.2951  0.5694 -1.5805
24518SOL    HW279391   3.839   2.969   5.330  0.0388 -0.0081  2.9719
24519SOL     OW79392   3.135   6.937   6.130  0.6868  0.1185  0.0604
24519SOL    HW179393   3.209   6.972   6.080  0.8406 -0.9235 -0.4694
24519SOL    HW279394   3.118   6.851   6.090 -0.1305 -0.1005  0.8594
24520SOL     OW79395   6.877   7.026   7.305  0.6504  0.1955 -0.6607
24520SOL    HW179396   6.781   7.035   7.303  0.3703 -1.8747  0.4301
24520SOL    HW279397   6.910   7.114   7.289 -1.4505  1.2600  0.5115
24521SOL     OW79398   8.702   0.437   4.622  0.2294 -0.3639  0.6042
24521SOL    HW179399   8.656   0.503   4.571  0.2810  0.3680  1.4700
24521SOL    HW279400   8.775   0.410   4.567 -0.3350 -0.3922 -0.1456
24522SOL     OW79401   4.807   1.435   7.457 -0.3298 -0.5559  0.0436
24522SOL    HW179402   4.829   1.409   7.367  1.1902  1.2142 -0.1583
24522SOL    HW279403   4.714   1.455   7.454 -0.1758  0.0747 -1.3180
24523SOL     OW79404   0.011  10.355   4.942 -0.6119  0.2648 -0.7354
24523SOL    HW179405  -0.020  10.329   5.029  1.4260 -0.8584 -0.3012
24523SOL    HW279406  -0.065  10.342   4.885 -1.4763 -0.6339  0.5695
24524SOL     OW79407   8.366   9.813   8.553  0.1497  0.3044 -0.1229
24524SOL    HW179408   8.298   9.847   8.494  0.2174  0.5370 -0.0695
24524SOL    HW279409   8.377   9.721   8.528  0.6655  0.5764 -0.9396
24525SOL     OW79410   3.414   0.863   5.504  0.2789 -0.3133  0.1690
24525SOL    HW179411   3.508   0.850   5.521  0.8118 -0.0996 -2.1528
24525SOL    HW279412   3.396   0.807   5.428 -0.9513  1.2635 -0.7512
24526SOL     OW79413   0.027  10.160   7.213  0.1765  0.1567  0.2145
24526SOL    HW179414   0.070  10.198   7.290 -1.8933 -0.0132  1.5203
24526SOL    HW279415   0.048  10.067   7.218  1.9388  0.4575 -0.7607
24527SOL     OW79416   2.367   7.490   0.285 -0.3394  0.0048 -0.6790
24527SOL    HW179417   2.395   7.559   0.225 -2.8165  2.3089  0.6065
24527SOL    HW279418   2.320   7.428   0.230  0.7505  0.0049 -1.6549
24528SOL     OW79419   6.579   6.373   5.596 -0.3146  0.4632 -1.0081
24528SOL    HW179420   6.522   6.395   5.522 -1.5380 -0.2852 -0.3200
24528SOL    HW279421   6.594   6.456   5.641 -4.7476  0.2321  1.4922
24529SOL     OW79422   0.262  10.689   3.431 -0.2991 -0.1220  0.2104
24529SOL    HW179423   0.270  10.736   3.349 -0.7221  1.2223  0.9074
24529SOL    HW279424   0.299  10.748   3.497  0.8982 -1.5409  0.8874
24530SOL     OW79425   8.313  10.040   6.897  0.2826 -0.4341 -0.0594
24530SOL    HW179426   8.401  10.062   6.926 -0.2493  1.8135  0.0174
24530SOL    HW279427   8.268  10.010   6.976  0.7784 -1.0015  0.0173
24531SOL     OW79428   9.395   5.210   5.698 -0.4467  0.0193  0.1684
24531SOL    HW179429   9.374   5.186   5.789 -0.9964 -0.0331  0.0342
24531SOL    HW279430   9.490   5.202   5.692 -0.5241 -1.2619  0.3815
24532SOL     OW79431   0.507   8.989   3.072  0.0045  0.6859 -0.2375
24532SOL    HW179432   0.431   9.008   3.017  0.7696  3.3782 -0.5474
24532SOL    HW279433   0.473   8.986   3.161 -0.5133  1.8346 -0.3764
24533SOL     OW79434   8.186   6.426   7.380 -0.1859  0.6499  0.2213
24533SOL    HW179435   8.098   6.463   7.381 -0.3903  0.1686  2.0555
24533SOL    HW279436   8.176   6.336   7.411  0.9708  0.6383  0.6249
24534SOL     OW79437   2.881  10.714   4.394 -0.1262 -0.0294  0.4890
24534SOL    HW179438   2.888  10.763   4.313 -0.0154  0.5949  0.8648
24534SOL    HW279439   2.791  10.680   4.395  0.3603 -1.4399 -0.6543
24535SOL     OW79440   3.320   2.179   6.207  0.2296 -0.1034 -0.6041
24535SOL    HW179441   3.359   2.250   6.256  1.6591  0.1249 -1.9844
24535SOL    HW279442   3.389   2.113   6.201 -1.5889 -2.4909  2.1418
24536SOL     OW79443   3.164   2.286   7.731  0.5383 -0.1737  0.0195
24536SOL    HW179444   3.201   2.346   7.796  1.8120 -0.2694 -0.6077
24536SOL    HW279445   3.146   2.206   7.781  0.6346  0.0667  0.4506
24537SOL     OW79446   5.835   8.773   0.431  0.2034  0.1920  0.1114
24537SOL    HW179447   5.830   8.853   0.484 -0.5367 -0.0184  0.3656
24537SOL    HW279448   5.835   8.805   0.341  2.4556  0.6134  0.1962
24538SOL     OW79449   0.229   0.583   9.807  0.1608  0.0978 -1.1610
24538SOL    HW179450   0.267   0.662   9.846  1.1228 -1.0052  0.2464
24538SOL    HW279451   0.249   0.590   9.714  0.5756  1.3240 -0.9981
24539SOL     OW79452   8.361   5.868   8.649  0.3535 -0.1358  0.2380
24539SOL    HW179453   8.436   5.809   8.654  0.0365 -0.5161  0.6026
24539SOL    HW279454   8.375   5.919   8.569  1.4757  0.4518  0.7839
24540SOL     OW79455   4.405   9.023  10.722 -0.6303 -0.3923 -0.4381
24540SOL    HW179456   4.432   9.008  10.631  1.1297  0.5074 -0.1117
24540SOL    HW279457   4.475   8.983  10.773 -1.9032 -1.4247  0.5684
24541SOL     OW79458   2.833   5.934   6.599 -0.4244  0.2303 -0.4090
24541SOL    HW179459   2.871   6.017   6.629  0.0462 -0.1493  0.0667
24541SOL    HW279460   2.794   5.896   6.678  3.0599 -2.0099  0.4152
24542SOL     OW79461  10.350   3.921   4.452 -0.6824 -0.0350  0.4852
24542SOL    HW179462  10.272   3.961   4.414 -1.0089 -0.9361  0.1794
24542SOL    HW279463  10.422   3.955   4.400 -0.6424  2.2549  1.9252
24543SOL     OW79464   1.198   2.473   5.480 -0.0837 -0.5903 -0.0123
24543SOL    HW179465   1.124   2.523   5.515 -0.0572 -0.5081 -0.0769
24543SOL    HW279466   1.269   2.487   5.544  1.2449  2.7094 -1.9991
24544SOL     OW79467   9.267  10.505   7.545  0.2537  0.1592  0.7542
24544SOL    HW179468   9.225  10.467   7.622  0.5221 -0.8535  0.4148
24544SOL    HW279469   9.360  10.508   7.568  0.7498 -2.5798 -0.4187
24545SOL     OW79470   1.463  10.052   5.912  0.3120  0.6129 -0.2135
24545SOL    HW179471   1.424   9.968   5.935 -0.8563  0.7202 -1.6529
24545SOL    HW279472   1.558  10.037   5.918  0.1088 -0.5095  0.4837
24546SOL     OW79473   0.484  10.125   2.670 -0.8508  0.1398 -0.0040
24546SOL    HW179474   0.506  10.217   2.659  0.7729 -0.1172  0.8010
24546SOL    HW279475   0.402  10.126   2.720 -0.2140  1.1586  1.0773
24547SOL     OW79476   5.839   4.783   1.972 -0.5966 -0.0320  0.1219
24547SOL    HW179477   5.748   4.761   1.994 -0.7317 -0.1044 -0.4907
24547SOL    HW279478   5.859   4.859   2.027 -0.6870 -0.6252  1.0053
24548SOL     OW79479   8.366   2.362   7.622  0.2315 -0.1832 -0.0824
24548SOL    HW179480   8.425   2.287   7.611  1.1194  0.3279  0.9904
24548SOL    HW279481   8.423   2.433   7.652 -0.7081  0.7351 -0.4167
24549SOL     OW79482   0.854   7.448   3.188  0.7411  0.0416  0.2931
24549SOL    HW179483   0.912   7.403   3.250 -0.0082  0.3085  1.2038
24549SOL    HW279484   0.791   7.494   3.243  1.1991  1.8516 -0.6008
24550SOL     OW79485   8.641  10.337   0.744  0.2071 -0.1071  0.0930
24550SOL    HW179486   8.657  10.424   0.708 -0.5723  0.3519  0.7999
24550SOL    HW279487   8.726  10.293   0.740  0.7641  0.9164  0.3105
24551SOL     OW79488   6.683   4.423   3.006  0.8530  0.2543  0.1515
24551SOL    HW179489   6.689   4.330   2.985  0.8255  0.4478 -0.7588
24551SOL    HW279490   6.723   4.431   3.092 -0.0941 -0.7602  0.7146
24552SOL     OW79491   8.721   8.071   5.023 -0.2413  0.6078 -0.2597
24552SOL    HW179492   8.720   8.162   4.993 -0.3364  0.2445 -1.4084
24552SOL    HW279493   8.812   8.057   5.050 -0.0682  0.8434 -0.7126
24553SOL     OW79494   4.354   7.175   6.371  0.1208 -0.5632 -0.4401
24553SOL    HW179495   4.384   7.256   6.413  1.1226 -1.3972  0.4986
24553SOL    HW279496   4.259   7.184   6.369  0.2564  1.1379 -1.4236
24554SOL     OW79497   6.522   0.681   4.817 -0.2970 -0.7106 -0.4983
24554SOL    HW179498   6.528   0.675   4.721 -0.2770  2.2175 -0.7654
24554SOL    HW279499   6.613   0.671   4.846 -0.3876 -2.3657 -0.6602
24555SOL     OW79500   6.196   3.652   0.743 -0.5652  0.9286 -0.1910
24555SOL    HW179501   6.114   3.684   0.705 -1.0931  0.7373  0.7781
24555SOL    HW279502   6.224   3.583   0.682 -1.4632  0.5473 -0.1925
24556SOL     OW79503   0.370  10.150   4.471 -1.0209  0.3732  0.5109
24556SOL    HW179504   0.408  10.178   4.555 -0.7706  1.8124 -0.0499
24556SOL    HW279505   0.403  10.062   4.458 -0.5338  0.3757  1.6187
24557SOL     OW79506   5.381   3.645   5.213 -0.3307  0.2041  0.2341
24557SOL    HW179507   5.347   3.710   5.152  0.5928  1.1110  0.6629
24557SOL    HW279508   5.473   3.669   5.225  0.0884 -1.3188  0.2316
24558SOL     OW79509   6.324   8.471   0.773  0.0723 -0.0282  0.0251
24558SOL    HW179510   6.276   8.532   0.716  1.1991  0.3427 -0.5577
24558SOL    HW279511   6.406   8.455   0.727  1.0221  0.2866  1.5413
24559SOL     OW79512   4.900   1.391   6.347 -0.2223 -0.4903  0.9453
24559SOL    HW179513   4.828   1.401   6.410  0.5691  0.7380  1.7044
24559SOL    HW279514   4.935   1.480   6.338 -0.0917 -0.6989 -0.9883
24560SOL     OW79515   0.460   2.742   2.476  0.1759  0.1792 -0.4366
24560SOL    HW179516   0.461   2.663   2.421 -1.2247 -0.6919  0.7135
24560SOL    HW279517   0.417   2.808   2.421  2.9256  0.7639 -2.0858
24561SOL     OW79518   7.693  10.603   4.431 -0.6274 -0.2742  0.4358
24561SOL    HW179519   7.719  10.605   4.339  0.1805 -1.4098  0.6247
24561SOL    HW279520   7.611  10.653   4.434  0.1277  1.0951 -0.6326
24562SOL     OW79521   1.483   5.073   5.006 -0.3061 -0.1817  0.3199
24562SOL    HW179522   1.426   5.036   5.074  0.2810 -1.5154  0.1061
24562SOL    HW279523   1.552   5.118   5.054 -0.0829 -0.8287  0.6089
24563SOL     OW79524   3.793   9.016   5.256 -0.0486  0.7365 -0.1419
24563SOL    HW179525   3.859   8.975   5.312 -1.4195 -0.5264  0.6137
24563SOL    HW279526   3.815   8.987   5.167 -1.1668 -2.0385  0.3913
24564SOL     OW79527   5.410   0.448   4.291 -0.1338  0.1335  0.0876
24564SOL    HW179528   5.348   0.520   4.305  1.6518  2.1074 -1.3636
24564SOL    HW279529   5.418   0.442   4.195  0.8523 -1.0200  0.2187
24565SOL     OW79530   5.110   4.889   7.809  0.1168 -0.1282  1.0618
24565SOL    HW179531   5.160   4.827   7.862  0.2793 -0.3417  0.6547
24565SOL    HW279532   5.162   4.969   7.809  0.6217 -0.4569  0.3538
24566SOL     OW79533  10.204   5.588   1.134  0.3460  0.0839  0.3538
24566SOL    HW179534  10.219   5.625   1.047  0.8224 -0.4477  0.2089
24566SOL    HW279535  10.147   5.652   1.177 -2.0101 -0.8268 -1.2165
24567SOL     OW79536   0.798   9.533   2.018  0.0707 -0.0605  0.0316
24567SOL    HW179537   0.755   9.608   1.977 -0.1704 -0.9194 -1.3320
24567SOL    HW279538   0.892   9.552   2.008  0.0211  0.4932  0.5348
24568SOL     OW79539   3.090   9.044   3.150  0.1193  0.7266  0.4465
24568SOL    HW179540   3.074   9.104   3.077  1.4778  2.6847  1.6514
24568SOL    HW279541   3.056   8.959   3.120  0.4460  1.4948 -2.3494
24569SOL     OW79542   7.042   4.649   9.161  0.0604 -0.4361  0.2367
24569SOL    HW179543   6.960   4.699   9.161  0.5159  0.3358 -0.3154
24569SOL    HW279544   7.070   4.650   9.253 -1.1285 -1.7338  0.6636
24570SOL     OW79545   9.108   9.369   4.159  0.6256  0.8100  0.4970
24570SOL    HW179546   9.122   9.442   4.220  0.2395  0.5569  0.8894
24570SOL    HW279547   9.196   9.334   4.144  0.9436  1.9087 -0.4002
24571SOL     OW79548   2.439   1.865   3.686 -0.0500  0.1295 -0.5715
24571SOL    HW179549   2.481   1.909   3.611  0.5809  0.5109 -0.0089
24571SOL    HW279550   2.406   1.783   3.650  1.2872 -0.2436 -1.0335
24572SOL     OW79551   6.908   9.109   3.581  0.3756 -0.3538 -0.3830
24572SOL    HW179552   6.824   9.155   3.574  1.3916  1.6236 -0.2798
24572SOL    HW279553   6.893   9.025   3.537 -1.5553  0.0711 -0.6249
24573SOL     OW79554   0.148   1.509   1.456 -0.0995  0.1088 -0.5814
24573SOL    HW179555   0.100   1.427   1.445 -0.8127  0.6308 -1.4475
24573SOL    HW279556   0.207   1.512   1.381 -0.2055  0.4728 -0.6503
24574SOL     OW79557   4.442   8.879   9.616 -0.5888 -0.3994  0.1678
24574SOL    HW179558   4.389   8.917   9.546 -1.7287  0.4102  1.4157
24574SOL    HW279559   4.426   8.785   9.612 -0.5145 -0.3809 -0.7318
24575SOL     OW79560   0.206  10.208   3.360 -0.7527  0.2633  0.4001
24575SOL    HW179561   0.197  10.259   3.440  1.3175 -0.7247  1.3436
24575SOL    HW279562   0.125  10.159   3.353 -1.5693  1.4845  1.0494
24576SOL     OW79563   5.852   1.356   7.314 -0.5859  0.3021 -0.1136
24576SOL    HW179564   5.811   1.310   7.240 -1.5585 -0.2357  0.7288
24576SOL    HW279565   5.898   1.288   7.362  1.1617  0.8679 -0.9124
24577SOL     OW79566   4.959   4.461   1.387  0.5141  0.5534  0.9102
24577SOL    HW179567   4.890   4.525   1.401  0.2271  0.3644  0.3676
24577SOL    HW279568   4.927   4.406   1.317  0.6576 -0.3388  1.5322
24578SOL     OW79569   4.995   8.391   5.220 -0.6778 -0.0904 -0.7240
24578SOL    HW179570   4.966   8.328   5.285  1.3752  2.0888  2.5972
24578SOL    HW279571   4.989   8.476   5.264  2.0174  1.3907 -2.8784
24579SOL     OW79572   7.806   3.242  10.325 -0.1934  0.0165 -0.0310
24579SOL    HW179573   7.758   3.295  10.388  0.1515 -1.6247  1.6914
24579SOL    HW279574   7.816   3.299  10.249 -3.5861  0.9084  0.0352
24580SOL     OW79575   5.854   8.255   6.538 -0.2020  0.0446  0.7826
24580SOL    HW179576   5.767   8.295   6.536 -0.4066 -0.3765  1.0302
24580SOL    HW279577   5.901   8.295   6.465 -0.6487  0.1706  0.5609
24581SOL     OW79578   9.665   9.701   5.749  0.3746 -0.8111 -0.3856
24581SOL    HW179579   9.652   9.795   5.763 -0.8417 -0.5567 -2.7314
24581SOL    HW279580   9.599   9.659   5.805  0.1405 -0.2127 -0.2040
24582SOL     OW79581   3.245   0.853   9.871 -0.4100 -0.0824  0.6152
24582SOL    HW179582   3.161   0.846   9.826 -0.9502  0.8325  1.4268
24582SOL    HW279583   3.281   0.936   9.839  0.9401 -1.1783 -0.8996
24583SOL     OW79584   5.153   6.924   7.806  0.0322  0.0952 -0.2379
24583SOL    HW179585   5.180   6.923   7.898  0.3536 -0.1243 -0.3342
24583SOL    HW279586   5.210   6.989   7.765 -0.0616  0.1401 -0.2976
24584SOL     OW79587   5.231   8.850   2.338 -0.1533  0.2572  0.0499
24584SOL    HW179588   5.235   8.881   2.247 -0.6877  1.6481  0.4708
24584SOL    HW279589   5.207   8.758   2.331 -1.0249  0.5528 -1.1960
24585SOL     OW79590   6.304  10.199   1.169 -0.4004 -0.1025  0.6054
24585SOL    HW179591   6.263  10.127   1.218 -0.9668  0.7216  1.3639
24585SOL    HW279592   6.356  10.246   1.234  0.2971 -0.0556  0.0263
24586SOL     OW79593   0.900   5.925   9.005  0.0558  0.3364 -0.5689
24586SOL    HW179594   0.875   6.013   8.976 -0.2491  1.4419  2.6403
24586SOL    HW279595   0.845   5.909   9.082  0.0714 -2.7362 -1.0730
24587SOL     OW79596   3.468  10.409   8.382  0.4829  0.5468  0.1061
24587SOL    HW179597   3.381  10.445   8.402 -0.1635 -0.8835 -0.0031
24587SOL    HW279598   3.526  10.448   8.448 -0.5033  0.4829  1.0442
24588SOL     OW79599   3.701   6.168   7.728 -0.2177 -0.3109 -0.3026
24588SOL    HW179600   3.769   6.129   7.783  1.7206  1.4517 -1.3293
24588SOL    HW279601   3.722   6.140   7.639 -1.0448 -0.0067 -0.6073
24589SOL     OW79602   8.986   6.535   5.774 -0.2169 -0.2391 -0.1419
24589SOL    HW179603   9.048   6.514   5.844 -0.3235  1.0760  0.3739
24589SOL    HW279604   8.921   6.466   5.778 -0.2034 -0.1955  1.0521
24590SOL     OW79605   6.696   5.766   0.460  0.0735  0.7761  0.1191
24590SOL    HW179606   6.779   5.810   0.443  0.4538 -0.3657 -1.1670
24590SOL    HW279607   6.666   5.738   0.374 -0.0953 -1.5040  0.8468
24591SOL     OW79608   8.455   9.062   7.101  0.2040 -0.0631 -0.1463
24591SOL    HW179609   8.511   9.138   7.083  0.3650  0.2389  1.4939
24591SOL    HW279610   8.459   9.051   7.196 -1.6213 -0.7278 -0.1013
24592SOL     OW79611   4.319   5.399   7.146 -0.4715  0.1235 -0.4566
24592SOL    HW179612   4.399   5.379   7.196 -0.1484  0.0145 -1.0047
24592SOL    HW279613   4.248   5.382   7.207 -0.0823  0.0116 -0.0241
24593SOL     OW79614  10.396   5.544   9.284  0.2330  0.3896 -0.0486
24593SOL    HW179615  10.345   5.625   9.273  1.8998  1.3309 -1.4435
24593SOL    HW279616  10.406   5.511   9.195  2.3975  0.5006  0.1100
24594SOL     OW79617   6.386   8.882   7.019  0.0963  0.1601  0.2908
24594SOL    HW179618   6.364   8.791   7.041  0.4564  0.3888  1.6711
24594SOL    HW279619   6.351   8.894   6.931  0.3731 -1.4349 -0.0659
24595SOL     OW79620   5.457   8.613  10.146  0.0566 -0.0652  0.8736
24595SOL    HW179621   5.473   8.519  10.139 -1.9436 -0.3288 -2.1052
24595SOL    HW279622   5.396   8.622  10.219 -0.3329 -1.1813  0.7047
24596SOL     OW79623   9.475   5.066   4.900 -0.3537  0.0636 -0.5055
24596SOL    HW179624   9.485   4.980   4.942 -1.2657  0.9816  1.7318
24596SOL    HW279625   9.534   5.123   4.949  1.1342  0.5643 -2.7106
24597SOL     OW79626   8.964   1.176   3.904 -0.6659 -0.4100  0.0767
24597SOL    HW179627   8.959   1.271   3.911  0.6703 -0.4257  2.1215
24597SOL    HW279628   9.057   1.156   3.900 -0.8621 -1.6557  0.8841
24598SOL     OW79629   0.871   3.321   5.092 -0.1753 -0.2547 -0.0950
24598SOL    HW179630   0.933   3.253   5.067 -0.6780 -0.6185 -0.3489
24598SOL    HW279631   0.790   3.274   5.111  0.5213 -0.2379  3.7240
24599SOL     OW79632   6.303   3.654   2.940  0.2212  0.1302 -0.1130
24599SOL    HW179633   6.222   3.637   2.893 -0.0499  0.1512  0.3477
24599SOL    HW279634   6.320   3.747   2.925  0.6645 -0.0770 -0.9902
24600SOL     OW79635   8.480   6.279   1.843 -0.1177  0.3631 -0.6195
24600SOL    HW179636   8.487   6.224   1.765  0.8915 -0.6922  0.1711
24600SOL    HW279637   8.564   6.323   1.849 -0.1750  0.4162 -0.1214
24601SOL     OW79638   1.460   9.266   2.239 -0.3034  0.1364 -0.2176
24601SOL    HW179639   1.503   9.333   2.292  0.4566  0.3125 -1.0394
24601SOL    HW279640   1.519   9.191   2.243 -0.7735 -0.2212  0.0619
24602SOL     OW79641   0.162  10.356   0.369 -0.3489  0.0221  0.0021
24602SOL    HW179642   0.126  10.327   0.453  0.0666  0.4645  0.3381
24602SOL    HW279643   0.224  10.425   0.392 -1.7912  1.6705 -0.7980
24603SOL     OW79644   4.407   4.418   4.628  0.6636 -0.5848  0.0187
24603SOL    HW179645   4.455   4.497   4.652  1.5440 -1.5240  1.5257
24603SOL    HW279646   4.473   4.349   4.628 -0.5811 -1.8849  1.9909
24604SOL     OW79647   1.336   0.188   6.287 -0.2051 -0.4909  0.4369
24604SOL    HW179648   1.306   0.135   6.361 -3.5116  0.9236  0.2543
24604SOL    HW279649   1.339   0.126   6.214 -2.7745 -0.8162  0.5005
24605SOL     OW79650   5.800  10.624   2.368  0.0028  0.1057 -0.2853
24605SOL    HW179651   5.726  10.662   2.416 -0.2720  1.3812 -1.6428
24605SOL    HW279652   5.846  10.571   2.433 -0.9786  0.8723  1.0916
24606SOL     OW79653  10.663   3.040   2.357 -0.4161 -0.3734  0.0298
24606SOL    HW179654  10.639   3.133   2.356 -1.1221 -0.5520 -0.2919
24606SOL    HW279655  10.733   3.033   2.292 -1.3321 -0.3044 -0.9851
24607SOL     OW79656   2.072   0.403   3.307  0.1001  0.2767  0.1035
24607SOL    HW179657   2.153   0.352   3.301 -0.0917  0.1132 -1.8321
24607SOL    HW279658   2.041   0.408   3.217 -2.3437 -0.1066  0.8533
24608SOL     OW79659   0.159   7.316   0.779 -0.8002  0.0685  0.3670
24608SOL    HW179660   0.246   7.323   0.817 -0.3694  2.4252 -0.9119
24608SOL    HW279661   0.167   7.251   0.710  0.0137  0.4309  0.1129
24609SOL     OW79662   3.909   4.397   7.715  0.3100 -0.1695  0.3212
24609SOL    HW179663   3.906   4.348   7.633  0.8151 -1.0920  0.8453
24609SOL    HW279664   4.000   4.426   7.722  0.4689 -0.8192  0.9734
24610SOL     OW79665   1.680   8.442   8.167  0.6528 -0.2379 -0.6933
24610SOL    HW179666   1.685   8.537   8.185 -0.4138  0.1943 -2.4934
24610SOL    HW279667   1.670   8.403   8.254  0.8019  1.3156  0.0740
24611SOL     OW79668   8.055   2.261   1.753  0.1864 -0.3062 -0.2865
24611SOL    HW179669   8.128   2.237   1.696 -0.8750 -2.0920 -0.9698
24611SOL    HW279670   7.983   2.204   1.726 -1.7675  1.9322 -0.1965
24612SOL     OW79671   6.548   2.493   8.181  0.6316 -0.0089  0.0348
24612SOL    HW179672   6.551   2.398   8.172 -0.5919 -0.0462 -0.1582
24612SOL    HW279673   6.527   2.525   8.093  0.3054  0.3897  0.2529
24613SOL     OW79674   0.537   2.119   2.591 -0.2030  0.3124 -0.7749
24613SOL    HW179675   0.458   2.078   2.556  0.4233 -0.1837 -1.6474
24613SOL    HW279676   0.609   2.074   2.546  0.7206 -1.1036  1.8880
24614SOL     OW79677   1.372   8.440   3.421 -0.1352 -0.2746  0.1153
24614SOL    HW179678   1.385   8.519   3.368 -0.4104 -0.6535 -0.5305
24614SOL    HW279679   1.279   8.420   3.410  0.2889 -1.7363 -1.2449
24615SOL     OW79680   6.660   8.774   0.822 -0.6923  0.3586 -0.3534
24615SOL    HW179681   6.680   8.712   0.892 -1.9864  1.1948  0.8228
24615SOL    HW279682   6.697   8.735   0.743  1.4790 -0.2776  0.8951
24616SOL     OW79683   2.995   7.467   3.034 -0.2195 -0.1657  0.1037
24616SOL    HW179684   3.080   7.510   3.043 -0.4109  0.0125  1.3345
24616SOL    HW279685   2.978   7.467   2.940  1.1831 -0.3087 -0.1788
24617SOL     OW79686   4.545   5.210   8.322  0.2946 -0.3088  0.7488
24617SOL    HW179687   4.499   5.164   8.252  1.5389  1.5681 -1.4649
24617SOL    HW279688   4.515   5.301   8.316  1.1475  0.1066  2.0276
24618SOL     OW79689   9.116   8.772   4.025  0.7384  0.3397 -0.3763
24618SOL    HW179690   9.106   8.845   3.963  0.7817  1.8053  1.2754
24618SOL    HW279691   9.135   8.814   4.109  0.6468 -1.5909  0.6668
24619SOL     OW79692   3.535   2.033   4.358  0.0234  0.2316 -0.1634
24619SOL    HW179693   3.499   1.981   4.286 -0.1490  0.9896 -0.6396
24619SOL    HW279694   3.592   2.097   4.315  0.8111 -0.0367  0.4706
24620SOL     OW79695   4.403   4.563  10.440  0.1536 -0.4185  0.5227
24620SOL    HW179696   4.386   4.470  10.458  0.5671 -0.2580  1.8104
24620SOL    HW279697   4.462   4.591  10.510  0.9819  0.5273 -0.5068
24621SOL     OW79698   5.017   9.228   8.709 -0.6245  0.7157 -0.2108
24621SOL    HW179699   5.016   9.211   8.803 -0.8251 -0.7274 -0.4491
24621SOL    HW279700   5.069   9.156   8.672 -0.0216  1.6059 -1.1457
24622SOL     OW79701   2.066   8.032   8.434  0.3981 -0.1272 -0.5354
24622SOL    HW179702   2.114   7.996   8.508  0.0864  0.1342 -0.2071
24622SOL    HW279703   1.974   8.030   8.461  0.2860 -0.0005 -0.9005
24623SOL     OW79704  10.362  10.345   6.392  0.5540  0.2570  0.1291
24623SOL    HW179705  10.357  10.260   6.347  0.7431  0.0311  0.5247
24623SOL    HW279706  10.374  10.322   6.484 -1.0974  0.7009  0.4864
24624SOL     OW79707   5.515  10.341   0.178 -0.1212 -0.4310 -0.2738
24624SOL    HW179708   5.437  10.379   0.219  2.0264  1.6927  2.2221
24624SOL    HW279709   5.557  10.292   0.249  1.5662 -0.2250 -1.0901
24625SOL     OW79710   4.796  10.413   7.583  0.2282 -0.7141  0.0510
24625SOL    HW179711   4.771  10.320   7.590 -1.4466 -0.2287  1.1329
24625SOL    HW279712   4.812  10.439   7.674  3.9306 -0.6930 -0.4399
24626SOL     OW79713   9.608   9.263   5.568 -0.4587 -0.1139  0.4102
24626SOL    HW179714   9.539   9.313   5.525  0.5187  1.4846  0.6186
24626SOL    HW279715   9.587   9.171   5.549 -3.1032  0.2440  1.1965
24627SOL     OW79716   1.391   1.469   5.391 -0.1557  0.0229  0.3333
24627SOL    HW179717   1.386   1.472   5.295  1.9932  0.0562  0.1775
24627SOL    HW279718   1.330   1.537   5.420 -0.8003  0.0454 -0.9996
24628SOL     OW79719   5.859   8.893   3.964 -0.5590 -0.2232 -0.8842
24628SOL    HW179720   5.850   8.929   3.876 -0.7324  0.7042 -0.4987
24628SOL    HW279721   5.953   8.898   3.982 -0.7214  1.3120 -0.3288
24629SOL     OW79722   4.609   8.846   6.820 -0.0544  0.1517  0.2617
24629SOL    HW179723   4.531   8.886   6.781 -0.8855  0.1734  1.8752
24629SOL    HW279724   4.627   8.769   6.766 -0.5036  0.7676 -0.7983
24630SOL     OW79725   8.165   3.044   1.601 -0.0154  0.2676 -0.2030
24630SOL    HW179726   8.183   2.992   1.679  0.5640  0.0866 -0.4477
24630SOL    HW279727   8.085   3.093   1.622 -0.1653 -0.1818  0.2954
24631SOL     OW79728   3.638   7.672   9.673  0.3506  0.7406 -0.4538
24631SOL    HW179729   3.662   7.582   9.652  0.4770  0.2709  1.4864
24631SOL    HW279730   3.547   7.680   9.644 -0.4675 -0.8146  1.4447
24632SOL     OW79731   8.437   3.912   5.696  0.1309  0.4206 -0.0885
24632SOL    HW179732   8.445   3.817   5.688 -0.0156  0.3504  0.5288
24632SOL    HW279733   8.390   3.938   5.616  3.9645  0.5592 -2.5368
24633SOL     OW79734   5.621   9.418   9.138  0.0741 -0.3293  0.2243
24633SOL    HW179735   5.630   9.375   9.223  0.5986 -0.6356  0.0224
24633SOL    HW279736   5.535   9.458   9.141 -1.0229 -2.4937 -0.0650
24634SOL     OW79737   4.909   1.541   2.061  0.4352 -0.2965  0.0528
24634SOL    HW179738   4.930   1.597   1.987  0.2227 -0.7536 -0.3618
24634SOL    HW279739   4.884   1.601   2.131  0.1959  0.1180 -0.3879
24635SOL     OW79740   2.076   8.125   1.229 -0.3051  0.2699  0.6485
24635SOL    HW179741   2.142   8.094   1.168 -0.6905 -1.4255  1.0259
24635SOL    HW279742   1.993   8.114   1.183 -0.5039  0.1492  1.0273
24636SOL     OW79743   3.259   8.503   7.087  0.3146 -0.2954  0.0000
24636SOL    HW179744   3.272   8.552   7.168  1.6435 -1.8297  0.7661
24636SOL    HW279745   3.172   8.530   7.057 -1.4886 -1.6933  3.4061
24637SOL     OW79746   1.235   2.519   5.169  0.0734  0.1052 -0.7013
24637SOL    HW179747   1.144   2.490   5.161 -0.4607  1.5785 -0.3260
24637SOL    HW279748   1.276   2.456   5.227 -0.9953  0.0114 -0.0331
24638SOL     OW79749   9.162   9.003  10.194  0.1032  0.3934  0.2590
24638SOL    HW179750   9.255   9.019  10.210  0.1743  1.9464 -1.3176
24638SOL    HW279751   9.155   8.909  10.180  1.7382  0.4430 -1.1564
24639SOL     OW79752   5.995   8.842   9.454 -0.8128  0.2639 -0.1402
24639SOL    HW179753   5.938   8.900   9.505 -0.2564  1.6070 -0.9769
24639SOL    HW279754   6.083   8.859   9.488 -0.6216  0.0560 -0.5227
24640SOL     OW79755   3.030   3.719  10.311  0.2996 -0.7604 -0.1489
24640SOL    HW179756   3.123   3.721  10.337 -0.0019 -1.3234  1.0377
24640SOL    HW279757   2.987   3.670  10.381 -0.8839 -0.6059 -0.7529
24641SOL     OW79758   2.601   8.558   4.317 -0.4002  0.0017 -0.2923
24641SOL    HW179759   2.670   8.492   4.326  0.4149  0.7450 -0.9353
24641SOL    HW279760   2.580   8.582   4.407  1.8058  1.4001 -0.0615
24642SOL     OW79761   7.971   8.483   7.844  0.3650 -0.2105  0.7815
24642SOL    HW179762   7.889   8.478   7.794  1.1625  2.7442 -1.1484
24642SOL    HW279763   7.947   8.531   7.923  0.0437 -0.1680  0.6641
24643SOL     OW79764   6.240   2.100   6.632 -0.2181 -0.4867  0.3188
24643SOL    HW179765   6.314   2.158   6.648 -1.0044  0.4224  0.7582
24643SOL    HW279766   6.210   2.122   6.544 -1.2360  0.6431  0.9107
24644SOL     OW79767   6.468   6.492   2.421 -0.1188  0.1424 -0.0312
24644SOL    HW179768   6.464   6.528   2.333  0.1695 -0.1696 -0.1724
24644SOL    HW279769   6.381   6.455   2.436  0.1167 -0.6311 -0.5371
24645SOL     OW79770   6.499   8.270   4.691  0.0539  0.7254  0.8520
24645SOL    HW179771   6.442   8.335   4.734 -0.1474  0.7505  0.5475
24645SOL    HW279772   6.438   8.206   4.655  0.1286  1.4734 -0.6781
24646SOL     OW79773   0.632   2.996   5.671  0.2768  0.2256  0.1714
24646SOL    HW179774   0.538   2.999   5.688  0.5494 -1.8521  2.6616
24646SOL    HW279775   0.640   2.944   5.591 -0.6716 -0.1623  0.3184
24647SOL     OW79776   6.658   4.061   9.107 -0.1534 -0.4169  0.0089
24647SOL    HW179777   6.682   4.139   9.157 -1.0644 -1.4267  2.1356
24647SOL    HW279778   6.742   4.017   9.090  0.1186 -0.5291  1.5073
24648SOL     OW79779   3.406   6.397   6.488 -0.5146  0.6165 -0.4270
24648SOL    HW179780   3.356   6.398   6.570 -0.3412  0.0803 -0.3080
24648SOL    HW279781   3.367   6.466   6.435 -0.6737  0.9295  0.0821
24649SOL     OW79782   7.588   3.202  10.084  0.6482  0.0923 -0.1978
24649SOL    HW179783   7.575   3.127  10.141  0.5229  0.8873  0.8574
24649SOL    HW279784   7.577   3.168   9.995 -1.5965 -0.7049  0.3257
24650SOL     OW79785  10.395   9.211   1.893  0.4340 -0.1918  0.4961
24650SOL    HW179786  10.312   9.171   1.919 -0.1564 -0.1101 -1.1463
24650SOL    HW279787  10.457   9.185   1.961 -0.9780 -0.0305  1.9105
24651SOL     OW79788   5.429   7.154   0.779 -0.9230  0.3674  0.5151
24651SOL    HW179789   5.385   7.194   0.704 -1.1742  0.9671  0.9714
24651SOL    HW279790   5.497   7.099   0.740 -0.3039  1.5421 -0.1441
24652SOL     OW79791   2.302  10.282   1.576  0.2298  0.0650 -0.3710
24652SOL    HW179792   2.323  10.275   1.669 -1.5892 -1.3300 -0.0104
24652SOL    HW279793   2.217  10.326   1.573 -0.2093 -0.7880 -1.2928
24653SOL     OW79794   6.328   7.791   1.328 -0.0915 -0.7043  0.1271
24653SOL    HW179795   6.292   7.879   1.332  0.6333 -0.4396  2.6912
24653SOL    HW279796   6.318   7.757   1.417  1.1169 -2.6081 -0.4010
24654SOL     OW79797   4.236   9.118   0.179  0.3990  0.2062  0.1652
24654SOL    HW179798   4.240   9.213   0.179 -1.5620  0.3435  1.2616
24654SOL    HW279799   4.293   9.091   0.107  0.0783  2.2365 -0.9119
24655SOL     OW79800   6.104   3.493   3.900 -0.0816  0.0281  0.0083
24655SOL    HW179801   6.171   3.558   3.920  1.1769 -0.7642 -1.4730
24655SOL    HW279802   6.145   3.409   3.920 -1.1108 -0.4200  0.3121
24656SOL     OW79803   6.344   4.359   1.660 -0.3758 -0.3142  0.2685
24656SOL    HW179804   6.314   4.275   1.695 -0.7650  0.0033  0.7105
24656SOL    HW279805   6.383   4.404   1.734 -0.2216 -0.0769  0.0463
24657SOL     OW79806   9.444   4.498  10.062  0.1725  0.5397  0.1161
24657SOL    HW179807   9.511   4.497  10.130  1.0879 -0.4945 -0.7566
24657SOL    HW279808   9.374   4.442  10.096  0.6446 -0.0125  0.1962
24658SOL     OW79809   3.586   8.317   4.265 -0.3407 -0.2894 -0.2221
24658SOL    HW179810   3.648   8.353   4.328 -0.5280 -0.3637  0.0046
24658SOL    HW279811   3.553   8.237   4.306  0.5056 -1.0478 -0.9598
24659SOL     OW79812   3.408   0.148   2.607 -0.6038 -0.2110  0.2856
24659SOL    HW179813   3.476   0.122   2.669  0.0277  0.1346 -0.2523
24659SOL    HW279814   3.439   0.115   2.522  0.2102  2.2139 -0.4240
24660SOL     OW79815   5.984   9.197   6.996  0.1009  0.3788 -0.0647
24660SOL    HW179816   5.960   9.109   6.967  1.8378 -0.5437  1.0609
24660SOL    HW279817   5.917   9.221   7.060 -0.9403  0.3140 -1.1125
24661SOL     OW79818   9.267   2.245   5.839 -0.2397  0.1632  0.1899
24661SOL    HW179819   9.258   2.340   5.838  0.0667  0.2030 -1.3218
24661SOL    HW279820   9.255   2.219   5.748  0.1726 -1.2000  0.5020
24662SOL     OW79821   4.922   1.441   4.780  0.0563  0.4552 -0.4981
24662SOL    HW179822   4.951   1.349   4.778 -2.0740 -0.2653 -0.6809
24662SOL    HW279823   4.957   1.478   4.699  0.5274 -0.3233 -0.6659
24663SOL     OW79824   4.627   8.816   1.500 -0.2749 -0.2798 -0.0229
24663SOL    HW179825   4.563   8.887   1.502  0.8186  0.7294  0.3675
24663SOL    HW279826   4.581   8.741   1.537 -1.5721  0.1086 -0.8044
24664SOL     OW79827   5.260   2.517   6.343  0.7919 -0.0014 -0.0783
24664SOL    HW179828   5.250   2.612   6.353 -0.4217 -0.1772  0.5690
24664SOL    HW279829   5.322   2.491   6.410  1.9738  0.4661 -0.9582
24665SOL     OW79830   1.914   1.271   5.561 -0.0739 -0.1518 -0.4409
24665SOL    HW179831   1.876   1.309   5.640  0.4396  0.1954 -0.3563
24665SOL    HW279832   1.861   1.193   5.543 -0.4850  0.0330 -0.0263
24666SOL     OW79833   8.471   6.659   0.077  0.1080 -0.1587  0.3836
24666SOL    HW179834   8.420   6.734   0.048  0.6396  0.1805  0.3306
24666SOL    HW279835   8.527   6.637   0.003  1.0665  0.3598  0.9368
24667SOL     OW79836   4.368   0.092   7.223 -0.1708 -0.0755  0.0249
24667SOL    HW179837   4.304   0.072   7.291  1.6925  0.8215  2.1596
24667SOL    HW279838   4.421   0.012   7.216  0.4999  0.3038  0.6632
24668SOL     OW79839   6.362   1.111   0.175  0.6313 -0.5089 -0.0444
24668SOL    HW179840   6.330   1.031   0.133  1.2569 -0.8517  0.1300
24668SOL    HW279841   6.427   1.146   0.114 -0.0435  0.1764 -0.3865
24669SOL     OW79842   4.625   4.160   9.234  0.1516 -0.0146  0.0459
24669SOL    HW179843   4.716   4.138   9.218 -0.0475 -1.3021  0.5353
24669SOL    HW279844   4.577   4.080   9.212 -0.9419  0.8982 -0.9687
24670SOL     OW79845   5.662   6.775   1.200 -0.0519  0.0272 -0.1947
24670SOL    HW179846   5.571   6.805   1.205  0.2058  0.6588  1.3247
24670SOL    HW279847   5.705   6.840   1.144 -0.2516  0.5345  0.2265
24671SOL     OW79848   3.119   5.527   2.280 -0.2917 -0.6837  0.4547
24671SOL    HW179849   3.123   5.449   2.225  0.5432 -0.5527  0.3204
24671SOL    HW279850   3.104   5.599   2.219  1.6652 -0.4057  0.2478
24672SOL     OW79851   7.021   1.988  10.116  0.4526 -0.7438 -1.0004
24672SOL    HW179852   6.939   1.940  10.125  1.1928 -1.9269 -0.3616
24672SOL    HW279853   6.996   2.080  10.128 -0.7328 -1.1096 -0.5074
24673SOL     OW79854   4.251  10.444   9.845  0.3671  0.4681  0.3867
24673SOL    HW179855   4.338  10.477   9.822 -0.1513  1.8361  0.2544
24673SOL    HW279856   4.191  10.494   9.789 -0.4390 -1.3594 -0.4385
24674SOL     OW79857   5.005   1.964   6.703 -0.2095 -0.2473 -0.4927
24674SOL    HW179858   4.990   2.056   6.725  3.2918  0.3035  0.0883
24674SOL    HW279859   4.975   1.916   6.780 -2.0762  0.3365 -0.8006
24675SOL     OW79860   3.991   4.476   7.194  0.2259 -0.2134 -0.1575
24675SOL    HW179861   4.073   4.518   7.220 -0.1040  0.5630 -0.3436
24675SOL    HW279862   4.018   4.409   7.130  0.7157  0.0337 -0.2194
24676SOL     OW79863   3.643   5.238   3.178  0.4116  0.2767  0.7012
24676SOL    HW179864   3.704   5.180   3.224  0.8324  1.1491  1.2667
24676SOL    HW279865   3.632   5.313   3.236  0.9018  1.3808 -0.5807
24677SOL     OW79866   9.950  10.125   5.227 -0.6818  0.4386  0.0854
24677SOL    HW179867   9.939  10.043   5.179  0.2033  1.2955 -1.6654
24677SOL    HW279868   9.861  10.157   5.240 -0.9616 -0.0548 -0.5530
24678SOL     OW79869   2.300   3.349   9.113  0.2736 -0.4011  0.0893
24678SOL    HW179870   2.208   3.334   9.090  0.1940  0.7842 -0.4069
24678SOL    HW279871   2.297   3.407   9.189  0.6166 -0.8502  0.4576
24679SOL     OW79872   6.994   2.283   4.389 -0.3237  0.0866 -0.2659
24679SOL    HW179873   6.983   2.272   4.484  1.0132 -1.1773 -0.2352
24679SOL    HW279874   6.915   2.244   4.351 -1.7199  2.1245  0.3281
24680SOL     OW79875   7.865   4.047   1.110 -0.1016 -0.6596  0.1032
24680SOL    HW179876   7.879   4.014   1.022  0.4085  1.6892 -0.7853
24680SOL    HW279877   7.775   4.022   1.132 -0.4571 -0.7227 -1.3508
24681SOL     OW79878   3.615   1.086   6.715 -0.2379 -0.2407  0.4253
24681SOL    HW179879   3.548   1.017   6.714  1.1114 -1.6921  2.2065
24681SOL    HW279880   3.697   1.039   6.701  0.5148  1.4084 -1.0341
24682SOL     OW79881   7.890   0.718   1.730  0.4525  0.3491  0.3990
24682SOL    HW179882   7.978   0.707   1.692  1.1092  1.2195  1.5935
24682SOL    HW279883   7.831   0.680   1.665  1.3380  3.2094 -2.3915
24683SOL     OW79884  10.613   5.407   0.298 -0.6631 -0.0769 -0.3463
24683SOL    HW179885  10.663   5.330   0.326 -2.1117 -1.0697 -0.3599
24683SOL    HW279886  10.617   5.468   0.372 -0.0467 -0.4405 -0.0754
24684SOL     OW79887   2.443  10.257   6.546 -0.4437  0.1130  0.0629
24684SOL    HW179888   2.372  10.223   6.600 -0.6104 -1.7469 -1.2154
24684SOL    HW279889   2.399  10.289   6.467  0.1446 -2.5260 -1.4580
24685SOL     OW79890   8.396   9.781   2.903  0.5084 -0.0795  0.1876
24685SOL    HW179891   8.405   9.693   2.866  0.8944 -0.1934  0.5445
24685SOL    HW279892   8.414   9.840   2.830 -1.8344 -0.2500 -0.6098
24686SOL     OW79893   0.047   3.492   6.897 -0.1012  0.4783 -0.6299
24686SOL    HW179894   0.112   3.465   6.832  1.1176  0.4660  0.5230
24686SOL    HW279895   0.051   3.423   6.964  0.7500  1.8484  0.8166
24687SOL     OW79896   9.730   1.930   1.246 -0.4847  0.1532 -0.4985
24687SOL    HW179897   9.716   2.020   1.274 -1.3492 -0.3179  0.6624
24687SOL    HW279898   9.660   1.880   1.288  1.3035 -1.4287  0.7840
24688SOL     OW79899   3.462   0.760   9.998 -0.2251 -0.2200  0.1072
24688SOL    HW179900   3.385   0.765   9.943 -0.2504 -1.1678  0.0385
24688SOL    HW279901   3.430   0.721  10.080  0.1405 -0.4747  0.1326
24689SOL     OW79902  10.410   9.953   3.068 -0.3717  0.2502 -0.1927
24689SOL    HW179903  10.390   9.860   3.062  0.3345  0.1777 -2.1214
24689SOL    HW279904  10.330   9.997   3.039 -0.9450  0.3040  1.3784
24690SOL     OW79905   0.134  10.475   6.283  0.0587 -0.0735 -0.0110
24690SOL    HW179906   0.164  10.538   6.218 -2.3204  2.4257  1.1071
24690SOL    HW279907   0.048  10.448   6.253 -1.4548  1.7456  2.3277
24691SOL     OW79908   0.519   6.290  10.264  0.4470 -0.8450 -0.4412
24691SOL    HW179909   0.440   6.248  10.297 -1.0242  2.0865  0.0605
24691SOL    HW279910   0.591   6.241  10.305 -1.1888 -0.9983  2.5424
24692SOL     OW79911   8.690   6.863   3.902  0.2084 -0.2318  0.6313
24692SOL    HW179912   8.654   6.810   3.831  1.7254  0.4218 -0.6748
24692SOL    HW279913   8.705   6.800   3.973  1.3717 -1.4909 -0.6551
24693SOL     OW79914   7.470   0.663   7.522  0.5249  0.2566 -0.0689
24693SOL    HW179915   7.495   0.755   7.527  0.0261  0.4363 -0.8274
24693SOL    HW279916   7.392   0.657   7.577  0.6724  0.2405  0.1410
24694SOL     OW79917   7.372   1.525   6.051 -0.0870  0.6904  0.3766
24694SOL    HW179918   7.449   1.579   6.071  0.7832 -0.8072  1.2760
24694SOL    HW279919   7.367   1.463   6.123  0.2693 -1.8469 -1.6554
24695SOL     OW79920   5.463   4.323   5.521 -0.2388 -0.2138 -0.2034
24695SOL    HW179921   5.393   4.388   5.526  0.1341  0.1620  0.3091
24695SOL    HW279922   5.488   4.308   5.613  0.0816 -0.6357 -0.3569
24696SOL     OW79923   4.570   8.930   5.878  0.0241  0.7588 -0.2711
24696SOL    HW179924   4.521   9.000   5.835  1.6713  0.8898 -2.0738
24696SOL    HW279925   4.662   8.957   5.871  0.5221 -0.3377  1.3767
24697SOL     OW79926   0.305   0.519   2.424  0.5892  0.3800 -0.3054
24697SOL    HW179927   0.322   0.478   2.508  0.6137 -0.5307 -0.7469
24697SOL    HW279928   0.303   0.613   2.443 -0.5958  0.1381  0.9193
24698SOL     OW79929   2.491   2.129   9.590 -0.0337  0.4112  0.2653
24698SOL    HW179930   2.452   2.054   9.546  0.4876  0.8705 -1.0196
24698SOL    HW279931   2.428   2.200   9.578  0.6136  0.8304 -0.7412
24699SOL     OW79932   6.037   3.646   3.245 -0.7423  0.7840  0.3620
24699SOL    HW179933   5.980   3.711   3.287 -0.2768  1.1646  0.4038
24699SOL    HW279934   6.070   3.690   3.167  0.2576  0.9029  0.8419
24700SOL     OW79935   3.935   6.788   1.671  0.2717 -0.5867 -0.0862
24700SOL    HW179936   3.958   6.825   1.586  0.8445  2.4267  1.2552
24700SOL    HW279937   3.988   6.836   1.734  1.1853 -3.9132  1.9399
24701SOL     OW79938   8.190   9.823   9.229 -0.1520  0.2059 -0.0877
24701SOL    HW179939   8.104   9.806   9.267  0.3193 -0.2482  0.7948
24701SOL    HW279940   8.244   9.750   9.258  0.0315 -0.6355 -2.3360
24702SOL     OW79941   6.977   2.915   9.788  0.0708 -0.3961 -0.9421
24702SOL    HW179942   7.060   2.868   9.794 -0.2975 -1.0407 -0.8062
24702SOL    HW279943   6.937   2.903   9.874  0.3495  0.8975 -0.6072
24703SOL     OW79944   8.384   3.181   8.989 -0.2958  0.2599  0.4988
24703SOL    HW179945   8.361   3.240   8.918  0.1834 -0.5237 -0.3163
24703SOL    HW279946   8.418   3.239   9.058  0.2576  0.9306 -0.3199
24704SOL     OW79947   4.507   7.861   6.537 -0.0731 -0.2339  0.0659
24704SOL    HW179948   4.452   7.808   6.479  0.7442 -0.2689 -0.7151
24704SOL    HW279949   4.479   7.951   6.522  0.0634 -0.2525 -0.3282
24705SOL     OW79950   8.788   3.819   9.880 -0.5937  0.4952  0.1809
24705SOL    HW179951   8.880   3.809   9.904 -0.2914  1.5135 -0.4965
24705SOL    HW279952   8.742   3.757   9.937  0.5989 -0.8159 -0.2286
24706SOL     OW79953   9.320   1.468   5.310  0.0797  0.0904  0.6952
24706SOL    HW179954   9.334   1.542   5.369  0.2180  0.4605  0.2094
24706SOL    HW279955   9.356   1.497   5.226 -0.6467 -0.1870  0.2689
24707SOL     OW79956   4.175  10.714   2.348 -0.1806  0.0055  0.0386
24707SOL    HW179957   4.158  10.641   2.407  0.6069 -0.0753  0.1727
24707SOL    HW279958   4.095  10.767   2.351 -0.2684 -0.1708  0.9315
24708SOL     OW79959   3.477   3.098   9.709 -0.0244 -0.0316  0.3195
24708SOL    HW179960   3.467   3.056   9.624  0.3603  1.9256 -0.7465
24708SOL    HW279961   3.551   3.053   9.750 -0.9443 -1.7655  0.1396
24709SOL     OW79962   9.153   8.759   1.833  0.0839  0.1871 -0.0392
24709SOL    HW179963   9.211   8.824   1.793 -0.8296  1.7311  1.0034
24709SOL    HW279964   9.194   8.741   1.918 -0.6590  0.8854  0.4783
24710SOL     OW79965   6.598   0.770   2.429  1.0355  0.6624  0.2955
24710SOL    HW179966   6.561   0.706   2.490  1.1743  1.2835  1.0483
24710SOL    HW279967   6.596   0.853   2.477  0.8574  1.2278 -0.6705
24711SOL     OW79968   8.722   6.003   3.002 -0.3886 -0.3342  0.1337
24711SOL    HW179969   8.642   5.951   3.007 -0.4199 -0.4558 -1.2239
24711SOL    HW279970   8.749   5.998   2.910 -0.7330  2.5095 -0.2378
24712SOL     OW79971   2.957   4.407   3.107 -0.5247 -0.0248 -0.1202
24712SOL    HW179972   2.966   4.350   3.031 -0.1811 -0.6639  0.3856
24712SOL    HW279973   2.999   4.489   3.080 -2.4522  0.5840 -1.4243
24713SOL     OW79974   2.013   4.678   9.579 -0.1091  0.2545 -0.0481
24713SOL    HW179975   1.967   4.599   9.605  0.8916 -1.2242 -2.4890
24713SOL    HW279976   2.061   4.654   9.500  0.1969  3.3191 -0.9429
24714SOL     OW79977   4.462   5.515   8.834 -0.0159 -0.0386  0.0724
24714SOL    HW179978   4.371   5.541   8.849 -0.3213 -0.8897 -0.2473
24714SOL    HW279979   4.465   5.490   8.741  0.2209 -1.2661  0.3973
24715SOL     OW79980   9.948   3.326   4.390 -0.3173  0.3151 -0.2274
24715SOL    HW179981   9.992   3.259   4.441 -0.1764 -0.2266 -1.0433
24715SOL    HW279982   9.989   3.321   4.303  0.0319  1.7738 -0.1748
24716SOL     OW79983   3.532   8.184   4.911 -0.1151  0.1283 -0.2057
24716SOL    HW179984   3.469   8.255   4.899 -0.6140 -0.3190 -0.2820
24716SOL    HW279985   3.515   8.124   4.837 -0.7794 -0.8541  0.7035
24717SOL     OW79986   2.594   2.545   0.493  0.0146 -0.2543  0.0997
24717SOL    HW179987   2.575   2.455   0.466  0.8567 -0.1448 -0.9108
24717SOL    HW279988   2.508   2.584   0.505 -0.3827 -0.8048 -0.8116
24718SOL     OW79989   6.363   3.440   7.104  0.0154  0.4451  0.3212
24718SOL    HW179990   6.439   3.428   7.161  1.5973  0.4488 -1.6622
24718SOL    HW279991   6.385   3.516   7.050 -1.6447  0.7756  0.0343
24719SOL     OW79992   3.621   9.995   0.672  0.0651 -0.3045 -0.1180
24719SOL    HW179993   3.624  10.090   0.665  1.5500 -0.4266 -1.9432
24719SOL    HW279994   3.548   9.969   0.616  0.7930 -0.3221 -1.0700
24720SOL     OW79995   3.349   2.892  10.174  0.2996 -0.1403  0.3619
24720SOL    HW179996   3.430   2.842  10.182  0.5833  0.2263 -0.1966
24720SOL    HW279997   3.280   2.826  10.173  0.4466 -0.4021  2.4753
24721SOL     OW79998   1.123   3.772   0.329 -0.3579 -0.7839 -0.7220
24721SOL    HW179999   1.163   3.702   0.381  1.9017  0.7166 -0.2761
24721SOL    HW280000   1.119   3.736   0.240  0.9200 -1.4576 -0.5395
24722SOL     OW80001   4.126   0.676   3.713  0.0281 -0.6369  0.0822
24722SOL    HW180002   4.140   0.741   3.782 -1.0273 -0.7922  0.4499
24722SOL    HW280003   4.046   0.705   3.668  0.6172 -0.6147 -0.9990
24723SOL     OW80004   6.448   1.148  10.565  0.0702  0.1469 -0.1913
24723SOL    HW180005   6.418   1.059  10.587 -1.9739  1.3498  2.4459
24723SOL    HW280006   6.537   1.151  10.598  0.3745 -1.0694 -0.8200
24724SOL     OW80007   9.002   8.676   5.269 -0.2223  0.3932 -0.1219
24724SOL    HW180008   9.012   8.593   5.315 -0.4602  1.5511  2.1860
24724SOL    HW280009   8.908   8.685   5.256 -0.4013  1.1862  1.4954
24725SOL     OW80010   9.539   3.433   5.677 -0.1453  0.0388 -0.5832
24725SOL    HW180011   9.472   3.491   5.712 -2.5280 -1.6023 -2.1368
24725SOL    HW280012   9.530   3.352   5.727 -1.0475 -1.0309 -2.3868
24726SOL     OW80013   2.001   1.265   5.173 -0.1226  0.1765  0.3484
24726SOL    HW180014   1.940   1.192   5.176  0.6057 -0.4330  0.5380
24726SOL    HW280015   2.049   1.253   5.091  0.4282  0.0784  0.6776
24727SOL     OW80016   5.345   0.442  10.022  0.1784  0.1201 -0.0703
24727SOL    HW180017   5.320   0.520  10.070 -1.0082  0.4999 -1.2623
24727SOL    HW280018   5.268   0.418   9.971  0.9664 -1.0053 -0.8035
24728SOL     OW80019   8.751   5.279  10.231 -0.3952 -0.2319  0.4627
24728SOL    HW180020   8.779   5.198  10.190  0.7515 -0.4173  1.5458
24728SOL    HW280021   8.655   5.278  10.225 -0.3061 -0.1414 -2.3080
24729SOL     OW80022   8.001   3.504   1.078 -0.2577  0.0863 -0.0390
24729SOL    HW180023   7.916   3.533   1.111  0.5627  0.4086  1.9405
24729SOL    HW280024   8.065   3.545   1.136  1.2537 -0.4941 -1.2057
24730SOL     OW80025   3.014   0.713   9.404  0.5430  0.1762  0.5166
24730SOL    HW180026   2.956   0.657   9.352  3.0485 -0.5806 -1.6825
24730SOL    HW280027   3.013   0.797   9.359 -1.9037  1.5748  2.8644
24731SOL     OW80028   7.257   6.865   3.801  1.0156  0.3638  0.2993
24731SOL    HW180029   7.178   6.912   3.777  0.8352 -0.0771  0.0183
24731SOL    HW280030   7.242   6.835   3.890  0.4460 -0.5691 -0.0893
24732SOL     OW80031   4.746   6.033   9.194 -0.1536 -0.1877 -0.2024
24732SOL    HW180032   4.841   6.024   9.205 -0.1134 -0.9365 -1.0913
24732SOL    HW280033   4.712   5.945   9.210 -0.5296 -0.2900 -1.5097
24733SOL     OW80034   3.393   5.497   1.594  0.0147 -0.4744 -0.3207
24733SOL    HW180035   3.483   5.471   1.575  0.1185 -0.1545 -0.2758
24733SOL    HW280036   3.342   5.416   1.585  0.5166 -0.9815  1.1432
24734SOL     OW80037   3.449   0.717   9.162 -0.2832  0.0487  0.1018
24734SOL    HW180038   3.393   0.776   9.112 -1.2691 -1.2946 -0.4490
24734SOL    HW280039   3.392   0.685   9.232 -0.4219 -1.7514 -0.7739
24735SOL     OW80040  10.039   9.775   7.922 -0.4614 -0.2359 -0.3545
24735SOL    HW180041  10.109   9.724   7.962  0.2823  0.0411 -1.2610
24735SOL    HW280042  10.014   9.839   7.989  1.1249  0.5664 -0.4656
24736SOL     OW80043   6.803   9.730   0.929  0.1078  0.4994  0.0957
24736SOL    HW180044   6.855   9.668   0.877 -0.7146 -0.0051 -0.1387
24736SOL    HW280045   6.864   9.761   0.996  0.5680 -0.4771  0.1511
24737SOL     OW80046   2.034   0.011   7.664 -0.7246 -0.0460 -0.0235
24737SOL    HW180047   1.993   0.033   7.581  0.8903  0.1704 -0.8174
24737SOL    HW280048   2.010   0.082   7.723  0.0396  1.0814 -1.0188
24738SOL     OW80049   8.304   3.478   1.457 -0.3734 -0.5124  0.1151
24738SOL    HW180050   8.211   3.489   1.434  0.0880  2.8042 -0.5480
24738SOL    HW280051   8.320   3.543   1.525  1.9478  0.6140 -1.3801
24739SOL     OW80052   9.547   0.881   4.197  0.6997  0.5602  0.6015
24739SOL    HW180053   9.602   0.923   4.264 -0.3336  0.3633  1.5987
24739SOL    HW280054   9.510   0.805   4.241 -0.3685  0.6834 -0.0588
24740SOL     OW80055   3.418   0.584   6.497  0.0879 -0.0727 -0.1564
24740SOL    HW180056   3.403   0.490   6.493 -0.8688  0.0721 -0.0757
24740SOL    HW280057   3.369   0.620   6.423  1.0298  0.3032 -0.6267
24741SOL     OW80058   5.672   2.646  10.399 -0.6742 -0.6391 -0.0535
24741SOL    HW180059   5.687   2.575  10.336 -1.4340 -1.6844  0.8945
24741SOL    HW280060   5.756   2.692  10.404  0.0582 -1.9060 -0.1722
24742SOL     OW80061   5.196   9.570   4.434  0.5150 -0.3222  0.0459
24742SOL    HW180062   5.214   9.584   4.341  1.7578  1.0079  0.4746
24742SOL    HW280063   5.213   9.654   4.476 -1.0405 -0.5982  1.3638
24743SOL     OW80064   2.768   5.081   2.761  0.0062 -0.2057 -0.6262
24743SOL    HW180065   2.805   5.143   2.823  0.9865  0.5110 -1.8762
24743SOL    HW280066   2.842   5.027   2.733 -0.7224 -1.5564 -0.0170
24744SOL     OW80067   4.729   2.186   8.623  0.2983 -0.2691  0.0856
24744SOL    HW180068   4.717   2.101   8.666 -0.6134 -0.0539  0.2955
24744SOL    HW280069   4.818   2.183   8.588 -0.4868 -2.2804 -2.0508
24745SOL     OW80070   4.323   9.348   4.010  0.1699 -0.3332  0.4865
24745SOL    HW180071   4.272   9.349   4.091  0.2825 -0.9524  0.5700
24745SOL    HW280072   4.414   9.341   4.040  0.2688  0.1924  0.3223
24746SOL     OW80073   3.808   6.193   6.886 -0.5401 -0.0425 -0.2640
24746SOL    HW180074   3.720   6.196   6.923 -0.8341  1.8206 -1.0409
24746SOL    HW280075   3.865   6.185   6.963 -1.3300 -0.6294  0.2886
24747SOL     OW80076   8.075   0.623   2.446 -0.3871 -0.0144  0.4843
24747SOL    HW180077   8.073   0.716   2.466 -0.0893 -0.0800  0.8342
24747SOL    HW280078   7.983   0.597   2.442 -0.4645  0.2351  0.6584
24748SOL     OW80079   3.104   0.274   6.295  0.4929  0.2331 -0.1203
24748SOL    HW180080   3.100   0.281   6.390 -0.5098  1.3861 -0.2210
24748SOL    HW280081   3.018   0.240   6.270 -0.1755  2.2079 -0.7407
24749SOL     OW80082   4.869  10.328   3.534 -0.1737 -0.1994 -0.3554
24749SOL    HW180083   4.875  10.407   3.481 -1.2453 -0.3651 -0.7504
24749SOL    HW280084   4.950  10.327   3.585 -0.1470  1.1631 -0.3290
24750SOL     OW80085   3.233   7.897   6.145 -0.2894  0.0985 -0.5424
24750SOL    HW180086   3.190   7.909   6.229 -2.5702  0.5851 -1.6962
24750SOL    HW280087   3.324   7.924   6.160 -1.0773  1.9291  1.2897
24751SOL     OW80088   6.479   1.317   4.556  0.1694  0.7193 -0.3657
24751SOL    HW180089   6.462   1.312   4.462 -0.5664 -0.1893 -0.1884
24751SOL    HW280090   6.396   1.347   4.594  0.1695  0.1440  0.0936
24752SOL     OW80091   4.801   6.159   5.655  0.0309 -0.0796 -0.0680
24752SOL    HW180092   4.810   6.127   5.565 -0.0993  0.2440 -0.1972
24752SOL    HW280093   4.852   6.240   5.657  0.6480 -0.4730  0.3526
24753SOL     OW80094  10.525   1.160   8.011 -0.6082 -0.0271  0.0353
24753SOL    HW180095  10.577   1.225   7.964 -2.4588  2.1021  0.7770
24753SOL    HW280096  10.583   1.129   8.081 -0.0702  1.7968  0.4539
24754SOL     OW80097   8.815   3.886   5.333  0.0410 -0.4185 -0.0971
24754SOL    HW180098   8.753   3.900   5.261  0.2231  2.6355  0.2011
24754SOL    HW280099   8.774   3.819   5.388 -1.4791 -0.7124 -1.5119
24755SOL     OW80100   2.816   9.880   1.234 -0.4213  0.2551  0.0356
24755SOL    HW180101   2.781   9.883   1.145 -3.9562 -0.2043  1.2334
24755SOL    HW280102   2.818   9.787   1.256 -0.0027  0.3843  0.5563
24756SOL     OW80103   5.013   1.925   9.501  0.3266 -0.3986 -0.3437
24756SOL    HW180104   5.056   1.898   9.419  0.4638 -0.4783 -0.2454
24756SOL    HW280105   4.920   1.934   9.477  0.6095  1.3123 -0.9541
24757SOL     OW80106   0.577   4.448   8.647  0.7186 -0.2735 -0.0422
24757SOL    HW180107   0.529   4.531   8.639 -1.3681 -1.3594  0.6693
24757SOL    HW280108   0.639   4.463   8.719 -0.2081  0.4168  0.6344
24758SOL     OW80109   0.263   8.074   3.547  0.0298  0.6240  0.2213
24758SOL    HW180110   0.299   8.135   3.483  1.8646  0.5705  1.1619
24758SOL    HW280111   0.339   8.038   3.592 -1.0725 -1.3281  0.6455
24759SOL     OW80112   3.436   9.235   1.205  0.2710  0.8063 -0.1824
24759SOL    HW180113   3.459   9.225   1.297 -0.3740  1.0016  0.0073
24759SOL    HW280114   3.363   9.175   1.192  2.5698 -1.9808 -1.4703
24760SOL     OW80115   3.536   9.335   4.231 -0.1834  0.4123 -0.2122
24760SOL    HW180116   3.595   9.305   4.162 -0.5764 -0.7749 -0.0604
24760SOL    HW280117   3.514   9.425   4.207  1.2407  0.6910 -0.5599
24761SOL     OW80118   6.164   9.413   7.241 -0.4405 -0.0495 -0.0192
24761SOL    HW180119   6.131   9.488   7.191  0.8707  0.3704 -0.3125
24761SOL    HW280120   6.219   9.365   7.179 -0.2611 -0.5487  0.5131
24762SOL     OW80121   2.347   2.009   6.958 -0.1485  0.0631 -0.0200
24762SOL    HW180122   2.300   2.092   6.965  0.5263  0.4913 -0.4741
24762SOL    HW280123   2.385   2.010   6.870 -2.6624 -2.1071 -1.2736
24763SOL     OW80124   6.576   0.713   8.650  0.1679 -0.1201  0.3655
24763SOL    HW180125   6.601   0.621   8.641 -0.4477 -0.1941 -0.6804
24763SOL    HW280126   6.619   0.757   8.577  0.0517  0.3447  0.5697
24764SOL     OW80127   4.486   5.090   1.328 -0.3885  0.4791  0.0837
24764SOL    HW180128   4.513   5.175   1.294 -0.8074  0.1962 -0.9979
24764SOL    HW280129   4.491   5.031   1.253 -3.1432  0.2087  0.0010
24765SOL     OW80130   3.545   3.881   2.474  0.0250  0.3344 -0.1368
24765SOL    HW180131   3.608   3.889   2.403  1.4952  1.8751  1.2407
24765SOL    HW280132   3.592   3.911   2.552 -2.3660  1.4720  0.9930
24766SOL     OW80133   6.755  10.494   6.630  0.1213 -1.1818  0.1515
24766SOL    HW180134   6.777  10.476   6.538 -0.9682 -0.6624 -0.2309
24766SOL    HW280135   6.816  10.563   6.656  1.2116 -2.1432  0.1869
24767SOL     OW80136   4.082   2.725   6.314  0.3272  0.0432  0.4646
24767SOL    HW180137   4.008   2.712   6.254  0.9902 -0.2923 -0.3138
24767SOL    HW280138   4.042   2.749   6.397 -0.6082  1.0829 -0.2515
24768SOL     OW80139   5.765  10.603   0.912 -0.1095  0.4429  0.1188
24768SOL    HW180140   5.783  10.553   0.992  0.2456  0.7291  0.2167
24768SOL    HW280141   5.707  10.673   0.940 -0.2927  0.3177  0.0536
24769SOL     OW80142   7.182   4.388   3.418 -0.0779  0.5445  0.9408
24769SOL    HW180143   7.150   4.447   3.351 -1.5298  1.9935  2.8041
24769SOL    HW280144   7.107   4.373   3.476  0.5370 -2.2832  1.1791
24770SOL     OW80145  10.357   6.433   2.834  0.5996  0.2138  0.1494
24770SOL    HW180146  10.404   6.371   2.890  0.9694  0.0225 -0.3660
24770SOL    HW280147  10.378   6.519   2.870  1.9054  0.1813 -0.4676
24771SOL     OW80148   0.971   1.445   4.104 -0.0870 -0.1764  0.2793
24771SOL    HW180149   1.021   1.372   4.140 -1.2542 -1.3291 -0.3257
24771SOL    HW280150   1.037   1.505   4.069  0.8810 -1.3250  0.0688
24772SOL     OW80151   9.857  10.259   0.451 -0.0707  0.2058  0.5008
24772SOL    HW180152   9.808  10.185   0.413 -0.1769  0.3935  0.2730
24772SOL    HW280153   9.882  10.312   0.376 -0.1349  0.4887  0.6798
24773SOL     OW80154   3.072   7.564   7.551  0.8396 -0.0221 -0.5366
24773SOL    HW180155   3.070   7.563   7.455  0.0768 -1.9790 -0.5473
24773SOL    HW280156   3.002   7.505   7.577  1.8238 -0.4880  1.2104
24774SOL     OW80157   8.595   4.314   2.526  0.2155 -0.7309  0.3704
24774SOL    HW180158   8.666   4.363   2.568  0.0519  0.0283 -0.2253
24774SOL    HW280159   8.634   4.229   2.505  0.6120 -0.7288  1.0602
24775SOL     OW80160   5.951   7.059   5.331 -0.3931 -0.4367 -0.2107
24775SOL    HW180161   5.885   6.998   5.298 -0.4537 -0.1517 -0.6266
24775SOL    HW280162   5.906   7.143   5.335 -0.2723 -0.3916  0.2344
24776SOL     OW80163  10.642   3.760  10.047 -0.1604  0.7450 -0.0488
24776SOL    HW180164  10.688   3.676  10.041  1.0735  1.4073 -0.2353
24776SOL    HW280165  10.593   3.766   9.965 -0.0381  0.3158 -0.1544
24777SOL     OW80166   5.088   4.494   5.784 -0.0055  0.1686 -0.1551
24777SOL    HW180167   5.003   4.480   5.742  0.2723  0.4848 -0.8341
24777SOL    HW280168   5.099   4.418   5.841 -0.7683  0.1510 -0.0102
24778SOL     OW80169   0.639   1.422   5.874  0.0902 -0.1963  0.3751
24778SOL    HW180170   0.701   1.372   5.928 -1.9046 -1.9558  1.1705
24778SOL    HW280171   0.671   1.410   5.785  0.9091 -1.0340  0.7589
24779SOL     OW80172   9.234   2.562   3.108  0.2800  0.3724 -0.3883
24779SOL    HW180173   9.160   2.588   3.053 -0.3597 -2.2308 -0.8759
24779SOL    HW280174   9.301   2.533   3.046  0.3195 -0.6877  0.1337
24780SOL     OW80175   8.573   0.079   7.350 -0.0463  0.2161  0.3482
24780SOL    HW180176   8.581   0.156   7.406 -1.0311 -1.7025  3.4036
24780SOL    HW280177   8.658   0.036   7.354  0.0107  0.2963  0.0169
24781SOL     OW80178   3.051   2.580   9.723  0.0594 -0.0405 -0.0785
24781SOL    HW180179   3.075   2.668   9.695  0.0291 -0.1760 -0.5298
24781SOL    HW280180   3.135   2.540   9.749 -0.0145  0.3531  0.8045
24782SOL     OW80181   6.591   2.470   7.922  0.4247  0.1424 -0.6394
24782SOL    HW180182   6.537   2.477   7.843 -0.1948 -1.3292 -0.3633
24782SOL    HW280183   6.658   2.405   7.900  1.8202  1.5598 -0.7912
24783SOL     OW80184   2.676   3.420   7.197 -0.1111 -0.2807  0.0351
24783SOL    HW180185   2.615   3.350   7.172 -0.5345  0.6622 -1.7732
24783SOL    HW280186   2.732   3.381   7.264 -2.0029 -1.5192  0.9842
24784SOL     OW80187   8.643   9.477   1.622  0.2236  0.5621 -0.4036
24784SOL    HW180188   8.584   9.475   1.697 -0.2910  1.0345 -0.7821
24784SOL    HW280189   8.654   9.385   1.598 -0.7465  0.4819 -0.6107
24785SOL     OW80190   6.292   8.799   2.151  0.6151  0.1674  0.6921
24785SOL    HW180191   6.311   8.852   2.074  0.3725 -0.0757  0.4644
24785SOL    HW280192   6.196   8.788   2.150  0.7184 -0.7677  0.4158
24786SOL     OW80193  10.522   6.520   6.494  0.8152  0.0585 -0.3797
24786SOL    HW180194  10.513   6.523   6.398  0.8394 -0.0542 -0.3853
24786SOL    HW280195  10.503   6.609   6.522  0.9807  0.1329 -0.5041
24787SOL     OW80196   3.780   1.601   5.643  1.0929 -0.1269 -0.1541
24787SOL    HW180197   3.864   1.585   5.686  0.5384  1.0477  1.4542
24787SOL    HW280198   3.762   1.521   5.594  1.6374 -1.6551  2.0392
24788SOL     OW80199   3.232   0.868   4.966 -0.3569  0.1336  0.0688
24788SOL    HW180200   3.185   0.839   5.043  0.7879  0.4418  0.9037
24788SOL    HW280201   3.216   0.800   4.900 -2.1928  0.3796  0.2088
24789SOL     OW80202   1.080  10.139   7.426  0.1292  0.0443 -0.0845
24789SOL    HW180203   1.071  10.124   7.520  0.3362  0.5982  0.0293
24789SOL    HW280204   1.099  10.053   7.389  2.6964  0.2008  0.7047
24790SOL     OW80205   4.496   2.308   0.781 -0.2741  0.4789 -0.0010
24790SOL    HW180206   4.416   2.311   0.834  0.0513  0.1724  0.5074
24790SOL    HW280207   4.500   2.217   0.750  0.3271  0.2698  0.6735
24791SOL     OW80208   2.933   8.432  10.382 -0.1873  0.3108  0.0515
24791SOL    HW180209   2.949   8.397  10.295 -1.4080 -0.5701  0.1592
24791SOL    HW280210   2.891   8.517  10.366  2.2476  1.5699 -0.2003
24792SOL     OW80211   5.393   9.064   4.262 -0.3975 -0.6514 -0.2363
24792SOL    HW180212   5.449   8.990   4.283 -0.6359 -0.6372  0.4601
24792SOL    HW280213   5.366   9.048   4.171  0.1085 -1.0546 -0.3182
24793SOL     OW80214   6.207   1.941   1.251  0.7895  0.0331 -0.2039
24793SOL    HW180215   6.228   1.893   1.331  0.6769 -1.5738 -1.1020
24793SOL    HW280216   6.248   1.890   1.181 -1.4559 -0.1790 -1.4538
24794SOL     OW80217   9.772   9.609   7.700 -0.6240 -0.1441  0.3314
24794SOL    HW180218   9.864   9.627   7.684 -0.5892 -0.8450 -0.3419
24794SOL    HW280219   9.758   9.631   7.792  0.7780 -2.1434  1.1077
24795SOL     OW80220   7.859   9.592   1.873  0.0321  0.4444  0.1938
24795SOL    HW180221   7.805   9.546   1.937 -0.8510  0.7873 -0.2904
24795SOL    HW280222   7.827   9.682   1.875  0.0105  0.4647 -0.7040
24796SOL     OW80223   9.023   5.568   2.276 -0.3586  0.5358 -0.8669
24796SOL    HW180224   9.090   5.536   2.217  0.9103  0.4986  0.5408
24796SOL    HW280225   9.000   5.493   2.330 -1.7098  0.4936 -1.4622
24797SOL     OW80226   2.550   2.839   5.122 -0.4157 -0.4493 -0.1717
24797SOL    HW180227   2.568   2.932   5.109  0.7045 -0.8272 -1.6549
24797SOL    HW280228   2.459   2.828   5.096 -0.0511 -0.0355 -1.7500
24798SOL     OW80229   0.660   7.918   9.375 -0.3941  0.3985  0.4200
24798SOL    HW180230   0.626   7.934   9.287  0.2946  1.1295  0.2770
24798SOL    HW280231   0.739   7.866   9.361 -0.1643  0.6991  0.5867
24799SOL     OW80232   4.296   7.948   0.455  0.2291  0.2881 -0.1144
24799SOL    HW180233   4.219   7.945   0.398 -0.4021  0.6600  0.7019
24799SOL    HW280234   4.356   8.010   0.411 -0.2174  0.5205 -0.4031
24800SOL     OW80235   3.763   8.921   4.989 -0.1805  0.3124 -0.5106
24800SOL    HW180236   3.852   8.951   4.971 -0.2282  1.2561  0.7043
24800SOL    HW280237   3.707   8.985   4.946 -0.2650  0.5934  0.0030
24801SOL     OW80238   8.092   2.731   6.160  0.1735 -0.0584  0.0326
24801SOL    HW180239   8.135   2.765   6.238  0.8049 -1.6566  0.4226
24801SOL    HW280240   7.998   2.740   6.178  0.3099  1.1918  0.2108
24802SOL     OW80241   8.834   7.730   2.885  0.3084 -0.0342  0.0279
24802SOL    HW180242   8.876   7.716   2.800 -0.4113  0.8408 -0.4928
24802SOL    HW280243   8.773   7.802   2.870 -0.7165 -0.6667  0.9928
24803SOL     OW80244   3.959   6.599   9.049 -0.1999 -0.4378  0.5071
24803SOL    HW180245   4.022   6.529   9.033 -0.8310 -0.8255 -0.3669
24803SOL    HW280246   3.928   6.583   9.138  0.5232 -0.5702  0.7420
24804SOL     OW80247   9.206   5.539   8.323  0.1864  0.3557 -0.3701
24804SOL    HW180248   9.248   5.620   8.293  3.5328 -0.7223  0.9109
24804SOL    HW280249   9.189   5.489   8.243 -0.8340  1.7825 -1.0851
24805SOL     OW80250   2.531   0.049   2.342  0.1060 -0.2027  0.4437
24805SOL    HW180251   2.514   0.104   2.418  0.7055 -0.7888  1.0152
24805SOL    HW280252   2.622   0.020   2.353 -0.5303 -2.2200  0.7709
24806SOL     OW80253   6.564   7.015   3.611  0.7569 -0.1952 -0.6111
24806SOL    HW180254   6.585   6.924   3.635  2.6979 -0.3939 -2.7394
24806SOL    HW280255   6.649   7.055   3.594 -0.2132  1.2285 -2.4026
24807SOL     OW80256   5.852   9.309   3.287 -0.0070  0.1512 -0.5024
24807SOL    HW180257   5.893   9.238   3.237 -0.6858 -0.1044 -0.7041
24807SOL    HW280258   5.796   9.354   3.223 -0.5034  0.1218 -0.0903
24808SOL     OW80259   1.943   9.316   6.844 -0.5184 -0.1624  0.1020
24808SOL    HW180260   2.032   9.282   6.834 -1.2765 -1.8733 -1.3902
24808SOL    HW280261   1.945   9.402   6.802  0.5981  0.1991  0.8256
24809SOL     OW80262   2.001   0.535   9.778  0.0808 -0.3518 -0.4576
24809SOL    HW180263   2.030   0.460   9.726  0.0823 -0.9634  0.4055
24809SOL    HW280264   2.038   0.520   9.865  0.0290  0.6257 -0.2542
24810SOL     OW80265   7.938   3.478   3.157 -0.4432 -0.1663  0.0993
24810SOL    HW180266   7.947   3.417   3.083 -0.5135  0.2340 -0.2411
24810SOL    HW280267   7.844   3.485   3.172 -0.4249 -0.3156  0.2845
24811SOL     OW80268   1.720   2.906   9.729  0.0147  0.3580 -0.3574
24811SOL    HW180269   1.627   2.916   9.750  0.3525  1.3184  0.7420
24811SOL    HW280270   1.721   2.838   9.661 -1.5478  0.8664 -0.9495
24812SOL     OW80271  10.100   1.665   1.702 -0.3021  0.2488 -0.2209
24812SOL    HW180272  10.063   1.745   1.666 -1.3032 -0.4675 -0.8399
24812SOL    HW280273  10.066   1.595   1.646  0.4652 -0.6185  0.3617
24813SOL     OW80274   3.288   9.149   8.421  0.5465 -0.0593 -0.1229
24813SOL    HW180275   3.253   9.180   8.338 -0.2163 -1.0735 -0.2107
24813SOL    HW280276   3.220   9.170   8.485  1.3354  1.1547  0.3560
24814SOL     OW80277   0.577   0.767  10.417  0.3960 -0.2710  0.7666
24814SOL    HW180278   0.591   0.799  10.327 -1.0240  1.0712  0.9710
24814SOL    HW280279   0.496   0.715  10.411 -0.1952  0.5516  1.4030
24815SOL     OW80280   3.771  10.420   7.893  0.4211 -0.8872  0.0429
24815SOL    HW180281   3.731  10.422   7.980 -2.6349 -1.7654 -1.2287
24815SOL    HW280282   3.755  10.508   7.858  0.3100 -0.9897 -0.1672
24816SOL     OW80283   7.690   2.078   2.600 -0.0257  0.2988 -0.3487
24816SOL    HW180284   7.671   2.135   2.674 -4.2291 -1.0341 -0.1633
24816SOL    HW280285   7.710   1.994   2.640  0.8915  0.3365 -0.7152
24817SOL     OW80286   6.999   9.479   6.629 -0.5707  0.6412  0.3360
24817SOL    HW180287   7.078   9.510   6.672  0.1343  0.6049 -0.8815
24817SOL    HW280288   6.979   9.547   6.564  0.5368 -0.9419 -1.8113
24818SOL     OW80289  10.352   4.990   0.849  0.9813  0.2005 -0.5423
24818SOL    HW180290  10.361   4.923   0.916  0.5931  0.4101 -0.2813
24818SOL    HW280291  10.303   5.060   0.891  2.2291  1.0858 -0.5011
24819SOL     OW80292   3.255   1.764   6.790  0.4454  0.0708  0.0580
24819SOL    HW180293   3.191   1.833   6.808  0.6847  0.4078 -0.3647
24819SOL    HW280294   3.231   1.729   6.705 -0.0248 -0.7793  0.5273
24820SOL     OW80295   7.152   1.971   2.398  0.2227  0.2100  0.4927
24820SOL    HW180296   7.145   2.062   2.369 -0.2301 -0.2050 -0.7831
24820SOL    HW280297   7.173   1.977   2.492  2.3399  1.6263  0.0097
24821SOL     OW80298   1.906   5.917   4.966  0.7890 -0.3138 -0.0276
24821SOL    HW180299   1.988   5.880   5.001  0.9239 -0.1172 -0.1330
24821SOL    HW280300   1.928   6.008   4.947  0.8307 -0.5217 -1.0067
24822SOL     OW80301   7.993   1.781   7.533 -0.2844  0.2198  0.8480
24822SOL    HW180302   8.082   1.814   7.551 -0.0759 -0.0143  0.2496
24822SOL    HW280303   7.962   1.752   7.619  0.4568 -0.2688  0.9647
24823SOL     OW80304   0.009   9.354   9.051 -0.8442  0.7583  0.2690
24823SOL    HW180305   0.069   9.330   9.122 -1.2160  0.7513  0.5913
24823SOL    HW280306   0.050   9.429   9.009 -0.4108  0.5014  0.2234
24824SOL     OW80307   7.941   7.791   4.034 -0.3705 -0.3951 -0.1454
24824SOL    HW180308   7.939   7.804   4.129  2.6185 -1.4627  0.1776
24824SOL    HW280309   7.957   7.698   4.023 -0.5121 -0.2587 -1.7148
24825SOL     OW80310   9.836   2.194   5.773  0.6093 -0.0637  0.1830
24825SOL    HW180311   9.930   2.178   5.781  0.4501 -2.1182 -1.2168
24825SOL    HW280312   9.795   2.122   5.822 -0.2155  0.0135 -0.3659
24826SOL     OW80313   4.269   2.082   0.109  0.2450 -0.1667 -0.3856
24826SOL    HW180314   4.228   1.996   0.118  1.3450 -0.7365 -0.7112
24826SOL    HW280315   4.232   2.117   0.027  1.2501 -1.1718 -1.3002
24827SOL     OW80316   9.064   1.057   2.414  0.7563  0.3518 -0.2771
24827SOL    HW180317   9.042   0.965   2.432 -0.2445  0.6059 -0.1480
24827SOL    HW280318   9.022   1.106   2.485  2.1858  0.8452  0.2798
24828SOL     OW80319   6.267   6.397   4.233  0.3367  0.3132  0.7733
24828SOL    HW180320   6.203   6.347   4.183  1.5533 -1.1310  0.5743
24828SOL    HW280321   6.243   6.381   4.325  0.3505 -0.1634  0.6972
24829SOL     OW80322   7.889   2.364   9.426  0.1215 -0.4836 -0.3837
24829SOL    HW180323   7.981   2.344   9.445 -0.0403 -1.1412 -0.2500
24829SOL    HW280324   7.892   2.446   9.377  0.6394  0.5545  1.2918
24830SOL     OW80325   2.454   8.776   7.408 -0.3503 -0.0394  0.3629
24830SOL    HW180326   2.403   8.730   7.475  0.9329 -0.8197  0.8446
24830SOL    HW280327   2.492   8.850   7.454  0.1170 -0.2852  0.3775
24831SOL     OW80328   4.049   8.115   4.351 -0.0389 -0.7220  0.7305
24831SOL    HW180329   4.119   8.077   4.403  0.6577 -0.0876  0.2747
24831SOL    HW280330   4.053   8.069   4.268  0.4349 -0.0636  0.3823
24832SOL     OW80331   9.660   3.944   4.533 -0.1379 -0.3115 -0.2657
24832SOL    HW180332   9.655   3.855   4.567 -0.6646 -0.4873 -0.7824
24832SOL    HW280333   9.639   3.935   4.440 -1.8657  0.5479  0.0047
24833SOL     OW80334   1.181   9.372   5.606 -0.3291  0.1320  0.1970
24833SOL    HW180335   1.228   9.291   5.584 -2.3538 -0.7519 -1.0931
24833SOL    HW280336   1.215   9.396   5.692 -0.9036 -3.0549  1.4221
24834SOL     OW80337  10.349   3.671   1.457 -0.2725  0.0294 -0.0184
24834SOL    HW180338  10.323   3.762   1.440 -2.4986 -0.7351 -1.1352
24834SOL    HW280339  10.267   3.627   1.479  0.4839 -2.0561 -1.1664
24835SOL     OW80340   8.219   6.467   8.975 -0.4401 -0.2062 -0.5085
24835SOL    HW180341   8.282   6.423   8.917  0.4358 -0.0095  0.2733
24835SOL    HW280342   8.271   6.497   9.049 -1.5595 -0.5467  0.4435
24836SOL     OW80343   4.051   6.620   6.170 -0.1011 -0.0313 -0.0445
24836SOL    HW180344   4.085   6.662   6.249 -0.1924 -0.3171  0.1449
24836SOL    HW280345   3.969   6.578   6.198  0.9039 -1.9199  0.2044
24837SOL     OW80346   3.342   0.305   3.815  0.1420  0.1463  0.5658
24837SOL    HW180347   3.273   0.270   3.759 -0.2371  0.5152  0.7996
24837SOL    HW280348   3.422   0.266   3.780 -0.2421 -0.7685  0.6712
24838SOL     OW80349   1.109   1.532   5.059 -0.0497  0.5669 -0.2555
24838SOL    HW180350   1.177   1.578   5.011 -2.7267  2.9904 -2.0609
24838SOL    HW280351   1.083   1.460   5.002  0.4469  0.1016  0.0946
24839SOL     OW80352   8.344   2.402   8.231  0.5337  0.4565  0.8208
24839SOL    HW180353   8.438   2.384   8.231  0.6950  1.1764  2.1301
24839SOL    HW280354   8.338   2.497   8.222 -0.0408  0.4743  1.2900
24840SOL     OW80355   6.899   2.508   2.207 -1.0248 -0.0818 -0.0236
24840SOL    HW180356   6.843   2.527   2.283 -2.1133 -0.5512 -0.6813
24840SOL    HW280357   6.841   2.461   2.147 -1.1093  2.8763 -2.4633
24841SOL     OW80358   4.299   8.817   4.372 -0.2045 -0.6013  0.5327
24841SOL    HW180359   4.363   8.884   4.351 -0.6676 -0.5192 -0.7044
24841SOL    HW280360   4.333   8.737   4.332 -0.5590 -0.6979  0.4171
24842SOL     OW80361   5.737   8.765   6.093 -0.5610  0.3543  0.4438
24842SOL    HW180362   5.681   8.725   6.026  0.5433 -1.6282  0.6216
24842SOL    HW280363   5.710   8.857   6.095 -1.3411  0.2509 -1.9749
24843SOL     OW80364   4.976   4.508   0.440 -0.5061 -0.0321 -0.6844
24843SOL    HW180365   5.007   4.598   0.446  2.0503 -0.7609 -1.5682
24843SOL    HW280366   4.936   4.491   0.525  0.7394  1.3473  0.2352
24844SOL     OW80367   2.385   9.881   4.285  0.8729 -0.6372 -0.3359
24844SOL    HW180368   2.456   9.821   4.264  0.2491 -1.0231 -1.4012
24844SOL    HW280369   2.343   9.842   4.362  1.4371 -0.7114 -0.0578
24845SOL     OW80370   6.163   3.391   5.746 -0.3131 -0.5388 -0.2898
24845SOL    HW180371   6.091   3.343   5.705 -0.2185 -0.2192 -0.8447
24845SOL    HW280372   6.241   3.339   5.727 -0.2264 -0.2394 -0.7952
24846SOL     OW80373   4.291   2.413   2.180  0.0302 -0.1456 -0.1461
24846SOL    HW180374   4.345   2.417   2.259 -0.8140  0.7089  0.4010
24846SOL    HW280375   4.223   2.350   2.200  0.7826 -1.1964 -0.8246
24847SOL     OW80376   4.004   6.647   2.989 -0.4623 -0.2838 -0.3344
24847SOL    HW180377   4.058   6.680   3.060  0.1927 -0.0540 -0.9280
24847SOL    HW280378   3.917   6.637   3.027  0.3134 -2.1866  1.0862
24848SOL     OW80379   3.327   1.124   7.491 -0.5655  0.2674 -0.3762
24848SOL    HW180380   3.331   1.032   7.518  2.0514  0.4019 -0.0188
24848SOL    HW280381   3.359   1.124   7.400 -0.2364  0.8528 -0.2662
24849SOL     OW80382   5.225   6.467   4.150 -0.1392  0.3746  0.1946
24849SOL    HW180383   5.271   6.536   4.198  0.7271 -1.1042  1.5793
24849SOL    HW280384   5.155   6.439   4.209 -0.0928 -0.3554 -0.0958
24850SOL     OW80385   0.815   0.498   2.649  0.3267 -0.5287  0.0239
24850SOL    HW180386   0.910   0.506   2.637  0.1246 -0.8350 -2.3409
24850SOL    HW280387   0.805   0.439   2.724  1.9863  0.0503  0.7366
24851SOL     OW80388   3.323   2.594   1.738 -0.1970 -0.2786  0.0995
24851SOL    HW180389   3.379   2.555   1.806  0.4260 -0.0644 -0.2881
24851SOL    HW280390   3.258   2.644   1.788 -0.4873 -1.1001  0.5757
24852SOL     OW80391   2.404   9.759   5.821  0.0015 -0.4125  0.1013
24852SOL    HW180392   2.445   9.738   5.738  1.2759 -1.9940  1.0596
24852SOL    HW280393   2.422   9.852   5.834  2.2016 -0.7446 -0.1440
24853SOL     OW80394   6.005   8.518   8.365  0.6622  0.4106 -0.5584
24853SOL    HW180395   6.099   8.536   8.370  0.6401  0.1661  1.6317
24853SOL    HW280396   5.963   8.595   8.402  0.0256  0.2115 -0.8450
24854SOL     OW80397   6.595  10.277   5.361  0.4734 -0.9302  0.5236
24854SOL    HW180398   6.525  10.212   5.363  0.4060 -0.8540  0.5923
24854SOL    HW280399   6.571  10.341   5.428 -0.1010 -0.1610 -0.4045
24855SOL     OW80400   2.952   8.439   9.361  0.5318 -0.3736  0.1378
24855SOL    HW180401   2.984   8.373   9.422 -0.0324  0.8085  1.7881
24855SOL    HW280402   3.029   8.491   9.339  0.4964  0.0648  1.0047
24856SOL     OW80403   8.387   2.102   6.215 -0.4031 -0.5295 -0.1434
24856SOL    HW180404   8.339   2.139   6.141 -0.7002 -0.1036  0.2566
24856SOL    HW280405   8.403   2.177   6.273  0.7021 -0.6649 -0.2495
24857SOL     OW80406   5.024   9.619   5.853  0.3044  0.3372  1.1686
24857SOL    HW180407   4.985   9.536   5.883 -2.8828  1.4633  0.6074
24857SOL    HW280408   4.963   9.686   5.884  1.8180  2.3212  0.0651
24858SOL     OW80409  10.445   4.566   0.766 -0.5589 -0.9429 -0.2828
24858SOL    HW180410  10.369   4.621   0.751  0.9962  1.5627  0.3727
24858SOL    HW280411  10.464   4.575   0.859  1.5100  0.0057 -0.7237
24859SOL     OW80412   7.987   9.766   1.596  0.2146  0.1370  0.1997
24859SOL    HW180413   7.983   9.675   1.564  0.7915 -0.4549  1.7377
24859SOL    HW280414   7.948   9.817   1.525 -1.2040 -1.4323 -0.2299
24860SOL     OW80415   6.021   3.463   4.616 -1.0612  0.0576  0.1972
24860SOL    HW180416   6.040   3.385   4.668  0.5167  0.6994  0.6659
24860SOL    HW280417   6.047   3.440   4.527  1.3006  0.6156  0.6715
24861SOL     OW80418  10.402   4.476   3.319 -0.4452 -0.5773  0.3705
24861SOL    HW180419  10.480   4.529   3.302 -2.4754  2.3243 -0.5362
24861SOL    HW280420  10.425   4.389   3.287  1.8982  0.5376 -1.2297
24862SOL     OW80421   0.084   0.261   0.629  0.7384 -0.5694 -0.2109
24862SOL    HW180422   0.006   0.312   0.651 -0.3852 -2.2247 -0.1688
24862SOL    HW280423   0.156   0.311   0.667 -0.4882  0.0200  1.4849
24863SOL     OW80424   3.236   5.437   6.791  0.5456  0.1699 -0.4879
24863SOL    HW180425   3.255   5.488   6.869 -0.1390  0.6448 -0.6220
24863SOL    HW280426   3.143   5.454   6.773  0.8420  0.5639 -1.7663
24864SOL     OW80427   5.744   3.620   6.893  0.3222 -0.1204 -0.0165
24864SOL    HW180428   5.708   3.615   6.804 -0.2847 -0.5341  0.2469
24864SOL    HW280429   5.667   3.623   6.950  0.6994  0.7669  0.4720
24865SOL     OW80430   1.374   5.926   3.645 -0.5777 -0.3233 -0.1260
24865SOL    HW180431   1.364   6.014   3.681 -1.3165  0.2025 -1.5227
24865SOL    HW280432   1.297   5.878   3.676 -0.0710 -0.5528  0.8037
24866SOL     OW80433   9.688   6.762   3.870 -0.8690  0.6819 -0.1568
24866SOL    HW180434   9.611   6.709   3.888 -1.8899  2.4142  0.8205
24866SOL    HW280435   9.683   6.781   3.776  0.6562 -2.5600 -1.0221
24867SOL     OW80436   1.735   5.527   9.164 -0.3028 -0.2740 -0.1488
24867SOL    HW180437   1.822   5.512   9.127  0.4693  0.0311  1.4647
24867SOL    HW280438   1.734   5.476   9.245 -0.6642  1.7294  1.1701
24868SOL     OW80439   0.967   4.294   1.315 -0.2435  0.2578  0.2302
24868SOL    HW180440   1.035   4.334   1.370 -1.2154  1.3188  0.6915
24868SOL    HW280441   0.904   4.258   1.378 -0.3691 -0.2663 -0.1955
24869SOL     OW80442   3.944   7.309   5.748 -0.1448 -0.4170  0.2405
24869SOL    HW180443   3.944   7.258   5.829 -0.7748 -1.8982 -0.6372
24869SOL    HW280444   4.013   7.268   5.694  0.5190  0.7803  0.1509
24870SOL     OW80445   6.156   0.759   1.807 -0.7622  0.2232  0.5396
24870SOL    HW180446   6.110   0.703   1.744 -0.3937  0.3360  0.1652
24870SOL    HW280447   6.130   0.848   1.782  0.9525  0.4162 -0.7637
24871SOL     OW80448   7.185   8.990   2.361  0.8167 -0.1295 -0.1605
24871SOL    HW180449   7.178   8.896   2.381  0.6315 -0.3104 -1.0358
24871SOL    HW280450   7.279   9.005   2.352  1.1369  0.4680  3.0981
24872SOL     OW80451   1.587   2.591   5.533  0.0359  0.1131  0.2365
24872SOL    HW180452   1.661   2.532   5.522 -0.0558  0.2038 -0.9992
24872SOL    HW280453   1.603   2.661   5.469 -1.0155  0.2370  0.1000
24873SOL     OW80454   0.755   9.283   1.161  0.1575 -0.9484  0.0660
24873SOL    HW180455   0.776   9.271   1.254 -1.0434  0.3875  0.5468
24873SOL    HW280456   0.832   9.325   1.124  0.1300 -0.2417  0.7814
24874SOL     OW80457   4.386   3.014   7.749  0.9690 -0.3471 -0.4778
24874SOL    HW180458   4.472   2.973   7.754  0.5533 -1.1444  0.5430
24874SOL    HW280459   4.396   3.096   7.797  1.0951 -0.5872 -0.0837
24875SOL     OW80460   4.469   6.425   3.651  0.4367 -0.9274  0.0192
24875SOL    HW180461   4.516   6.392   3.727 -0.6944 -1.7651  0.3871
24875SOL    HW280462   4.467   6.351   3.590 -0.1189 -0.8149 -0.1085
24876SOL     OW80463   8.830   4.620   3.919 -0.3323  0.8415 -0.1228
24876SOL    HW180464   8.922   4.645   3.906  0.3652 -1.2312  0.4106
24876SOL    HW280465   8.795   4.686   3.978  0.9731  1.3968  0.0632
24877SOL     OW80466   1.913   8.278   1.591  0.1467 -0.3846  0.2332
24877SOL    HW180467   1.965   8.199   1.578 -0.8001 -1.4088  2.1806
24877SOL    HW280468   1.975   8.350   1.580  1.4778 -1.4710  0.3721
24878SOL     OW80469   5.230   9.086   5.930 -0.3306  0.0384  0.0896
24878SOL    HW180470   5.279   9.006   5.912 -1.3069 -0.1951 -1.7507
24878SOL    HW280471   5.285   9.134   5.992  1.5984 -0.7826 -0.8955
24879SOL     OW80472   2.045   4.634   7.567 -0.1163 -0.0735  0.3105
24879SOL    HW180473   1.990   4.618   7.490 -0.0024 -0.1096  0.2364
24879SOL    HW280474   2.123   4.579   7.553 -0.6350 -1.0262  1.0392
24880SOL     OW80475   4.575   6.882   3.615  0.3570 -0.5128 -0.7293
24880SOL    HW180476   4.598   6.930   3.535 -1.9961 -1.5824 -2.1578
24880SOL    HW280477   4.639   6.911   3.680  1.4978  1.4635 -2.6118
24881SOL     OW80478  10.178   6.785   2.438  0.2658  0.1478 -0.6227
24881SOL    HW180479  10.217   6.794   2.525 -1.8464  2.6744  0.1898
24881SOL    HW280480  10.179   6.873   2.402 -0.4756 -0.5448 -2.4547
24882SOL     OW80481   8.254   0.580   9.224  0.1209 -0.2167  0.1369
24882SOL    HW180482   8.250   0.603   9.131 -0.3107 -1.2806 -0.1284
24882SOL    HW280483   8.253   0.484   9.224  1.3347 -0.2437  1.1968
24883SOL     OW80484   8.798   4.702   2.533 -0.2463 -0.1765 -0.0821
24883SOL    HW180485   8.752   4.766   2.479 -0.8022 -0.8017 -0.3706
24883SOL    HW280486   8.765   4.718   2.622  0.4130  0.6256  0.0319
24884SOL     OW80487   1.750   4.810   4.970  0.0752  0.3395 -0.5491
24884SOL    HW180488   1.778   4.853   5.051  0.3222  1.7042 -1.3242
24884SOL    HW280489   1.663   4.774   4.991  0.4374  0.0634  0.5172
24885SOL     OW80490   4.181   4.516   9.825  0.1543 -0.0373 -1.0081
24885SOL    HW180491   4.222   4.573   9.760  0.6041  1.5274  0.5656
24885SOL    HW280492   4.164   4.573   9.899 -0.6111 -1.6962  0.1516
24886SOL     OW80493  10.088   2.016   8.527 -0.2548 -0.1090  0.0610
24886SOL    HW180494  10.161   2.031   8.587 -0.6018 -2.0965  1.0616
24886SOL    HW280495  10.075   1.921   8.527 -2.5438  0.1293 -0.4303
24887SOL     OW80496   9.254   8.821   5.289 -0.0619 -0.4848  0.0820
24887SOL    HW180497   9.177   8.764   5.294  1.5179 -2.6021  2.1427
24887SOL    HW280498   9.302   8.804   5.370  3.1192 -0.0511 -1.5570
24888SOL     OW80499  10.370   9.106   8.975  0.5283 -0.0578 -0.2008
24888SOL    HW180500  10.404   9.031   8.926 -2.5576 -1.5862 -0.2406
24888SOL    HW280501  10.420   9.106   9.056  0.6002 -2.2102 -0.1852
24889SOL     OW80502   3.100   8.635   8.361 -0.1572  0.4580  0.1266
24889SOL    HW180503   3.114   8.550   8.318 -2.2960  0.7619 -1.2943
24889SOL    HW280504   3.135   8.622   8.449 -0.4190 -1.9257 -0.0399
24890SOL     OW80505  10.090   9.527   7.140  0.3944 -0.1026  0.0544
24890SOL    HW180506  10.038   9.601   7.171  0.1224 -0.1546 -0.2685
24890SOL    HW280507  10.132   9.559   7.061  0.7175 -0.1180  0.2200
24891SOL     OW80508   9.126  10.543   7.939  0.0885  0.4513 -0.2425
24891SOL    HW180509   9.075  10.474   7.896 -0.9710  0.2377  1.2585
24891SOL    HW280510   9.191  10.569   7.875  0.1507 -1.5691 -1.0603
24892SOL     OW80511   8.211  10.283   2.804 -0.1372 -0.1471  0.3112
24892SOL    HW180512   8.294  10.329   2.794 -0.6511  1.0002  1.0718
24892SOL    HW280513   8.206  10.263   2.898 -0.4913 -0.6302  0.1899
24893SOL     OW80514   6.973   1.299   1.511 -0.0772 -0.2961 -0.3285
24893SOL    HW180515   7.049   1.289   1.454 -0.1998  1.8182 -0.9458
24893SOL    HW280516   6.922   1.220   1.496  0.3438 -0.2329 -2.5004
24894SOL     OW80517   4.209   1.770   9.270 -0.6680  0.2390  0.3113
24894SOL    HW180518   4.283   1.765   9.209  2.0027  1.2260  3.1986
24894SOL    HW280519   4.169   1.855   9.252  0.0535  0.5071 -0.1019
24895SOL     OW80520   3.777   7.339   0.237  0.2182  0.0104  0.0269
24895SOL    HW180521   3.790   7.258   0.287  0.5192  0.6883  1.0779
24895SOL    HW280522   3.744   7.310   0.152 -1.3359 -1.1241  0.9735
24896SOL     OW80523   5.672   3.480   8.833 -0.3825  0.0042  0.4520
24896SOL    HW180524   5.704   3.459   8.745  0.9708 -0.1424  0.9451
24896SOL    HW280525   5.588   3.523   8.818  0.8467  2.0808 -1.0750
24897SOL     OW80526   2.242   3.574   1.560 -0.5167 -0.2527  0.7795
24897SOL    HW180527   2.186   3.506   1.598  0.9584 -1.4610  0.8978
24897SOL    HW280528   2.331   3.542   1.575  0.1858  0.0576 -2.1797
24898SOL     OW80529   4.042   3.781   0.925  0.4915 -0.7210 -0.2811
24898SOL    HW180530   3.949   3.801   0.914  0.5460  0.1270  0.6625
24898SOL    HW280531   4.062   3.809   1.014  2.5554  2.7912 -1.6324
24899SOL     OW80532   1.726   5.410   2.003 -0.1078  0.0644  0.7133
24899SOL    HW180533   1.704   5.423   1.911 -1.3272  2.6962  1.2775
24899SOL    HW280534   1.806   5.357   2.002 -1.5038 -2.2670 -1.7370
24900SOL     OW80535   7.100   9.741   7.101  0.3103  0.4707  0.4770
24900SOL    HW180536   7.020   9.688   7.098 -1.2585  2.6164  1.5417
24900SOL    HW280537   7.093   9.799   7.025  0.2530  1.4214  1.1826
24901SOL     OW80538   5.198   5.035   2.538  0.1486 -0.0138 -0.1427
24901SOL    HW180539   5.122   5.084   2.571  1.4933  1.5276  0.8583
24901SOL    HW280540   5.215   5.074   2.452 -0.2479 -0.4441 -0.4212
24902SOL     OW80541   9.802   1.831   0.998  0.1176  0.3400 -0.0837
24902SOL    HW180542   9.783   1.860   1.087 -0.1048 -0.9992  0.3211
24902SOL    HW280543   9.890   1.796   1.002 -0.5409 -1.4038  0.0699
24903SOL     OW80544   7.674   4.640   2.570  0.0025 -0.7294 -0.0365
24903SOL    HW180545   7.593   4.593   2.551 -0.8499  1.0552 -1.1361
24903SOL    HW280546   7.741   4.594   2.520 -0.2480 -2.3282  1.0173
24904SOL     OW80547   0.301   9.074   3.635 -0.0561 -0.5445  0.2021
24904SOL    HW180548   0.343   8.991   3.658 -0.0044 -1.2228 -2.1156
24904SOL    HW280549   0.372   9.138   3.635  0.3113 -0.9453 -0.0930
24905SOL     OW80550   5.920   8.918   6.845 -0.4686 -0.8239 -0.1914
24905SOL    HW180551   5.936   8.832   6.807 -1.6296 -1.3393  0.4580
24905SOL    HW280552   5.858   8.903   6.916  0.7392  0.2812  1.1804
24906SOL     OW80553   7.188   7.222   7.378  0.2493  0.2493 -0.1956
24906SOL    HW180554   7.233   7.204   7.295 -3.2229 -0.8148 -2.0499
24906SOL    HW280555   7.180   7.137   7.420  0.4155  0.5134  0.3786
24907SOL     OW80556   2.752   5.132   0.691 -0.2731 -0.4736 -0.4114
24907SOL    HW180557   2.730   5.106   0.602 -1.1268 -0.5613 -0.1905
24907SOL    HW280558   2.717   5.221   0.699 -1.6078 -1.0348  0.3105
24908SOL     OW80559   0.811   1.285   9.538  0.1024 -0.2237 -0.5527
24908SOL    HW180560   0.897   1.328   9.534 -0.4793  1.2216  1.2364
24908SOL    HW280561   0.817   1.226   9.613 -0.3499 -0.3827 -0.6387
24909SOL     OW80562  10.018   7.577   0.920 -0.0385 -0.0496  0.2173
24909SOL    HW180563  10.102   7.613   0.893 -0.4815  1.2256  0.4884
24909SOL    HW280564   9.958   7.651   0.919 -0.8373 -0.6476  1.4117
24910SOL     OW80565   1.927   9.441   0.753 -0.2047  0.4464 -0.1085
24910SOL    HW180566   1.994   9.446   0.684 -1.2357  0.1535 -1.1741
24910SOL    HW280567   1.850   9.483   0.714 -1.2654 -1.0251  0.2915
24911SOL     OW80568   1.347   9.873   8.166 -0.0193  0.6472  0.3678
24911SOL    HW180569   1.322   9.800   8.223  2.1264  0.4384  1.1486
24911SOL    HW280570   1.316   9.951   8.212 -0.8622  0.3208  0.3590
24912SOL     OW80571   7.322   5.783   8.331  0.0280  0.4536 -0.0424
24912SOL    HW180572   7.328   5.750   8.421  1.2995  0.2207 -0.1823
24912SOL    HW280573   7.409   5.820   8.314 -0.1903  0.4833 -1.1764
24913SOL     OW80574   2.796   8.547   8.296 -0.2578 -0.3717 -0.1251
24913SOL    HW180575   2.891   8.561   8.294 -0.4744  1.3278 -0.2019
24913SOL    HW280576   2.769   8.576   8.383 -0.4230 -3.3937  0.9569
24914SOL     OW80577   8.282   0.178   8.983  0.1278  0.1198  0.7803
24914SOL    HW180578   8.195   0.215   8.968  1.2770  2.4649 -0.7101
24914SOL    HW280579   8.316   0.226   9.058  0.3312 -0.4318  1.0430
24915SOL     OW80580   9.770   8.394   0.567  0.4763  0.3004  0.3016
24915SOL    HW180581   9.700   8.346   0.522  0.7922  0.6543 -0.6047
24915SOL    HW280582   9.725   8.454   0.625  0.0601 -0.4184  0.7402
24916SOL     OW80583   2.284   9.535   7.301  0.1104 -0.0486  0.3482
24916SOL    HW180584   2.358   9.480   7.327  0.9417  0.0941 -1.5141
24916SOL    HW280585   2.314   9.624   7.317  0.0860 -0.0223  0.2522
24917SOL     OW80586   5.999   0.104   9.428 -0.1807  0.1331 -0.1046
24917SOL    HW180587   6.016   0.116   9.335 -0.9862  1.0120 -0.1566
24917SOL    HW280588   6.047   0.025   9.451  0.8851  0.4821 -1.0253
24918SOL     OW80589   4.320   9.606   5.178  0.0401  0.0609 -0.5375
24918SOL    HW180590   4.302   9.543   5.108  0.1939 -0.1092 -0.4232
24918SOL    HW280591   4.405   9.643   5.156 -0.1564  0.4052 -0.7336
24919SOL     OW80592  10.268   4.033   2.325 -0.5907 -0.0201  0.1604
24919SOL    HW180593  10.362   4.018   2.316 -0.6200  0.6595 -1.9949
24919SOL    HW280594  10.229   3.945   2.319 -0.1676 -0.1587 -0.7387
24920SOL     OW80595   6.829  10.222   2.492 -0.2810  0.1020  0.1748
24920SOL    HW180596   6.778  10.303   2.486  1.0958  1.0091  0.2776
24920SOL    HW280597   6.854  10.216   2.584  0.4623  0.0989 -0.0219
24921SOL     OW80598   6.241   3.935  10.285  0.0550  0.3862  0.1622
24921SOL    HW180599   6.196   3.877  10.223  1.2483 -0.6049  0.2062
24921SOL    HW280600   6.334   3.918  10.272  0.4435  2.1725  0.3093
24922SOL     OW80601   8.203  10.606  10.506 -0.5289 -0.2167 -0.5755
24922SOL    HW180602   8.228  10.624  10.415  0.4077 -0.0085 -0.2936
24922SOL    HW280603   8.165  10.689  10.537  0.6676  0.2479 -0.2965
24923SOL     OW80604   2.495   3.014   1.275 -0.5475  0.4702  0.2968
24923SOL    HW180605   2.502   2.920   1.257 -1.1012  0.5354 -0.2883
24923SOL    HW280606   2.401   3.034   1.265 -0.3305  1.2314 -0.3548
24924SOL     OW80607   1.188   4.134   7.546 -0.5746 -0.1599 -1.2203
24924SOL    HW180608   1.107   4.084   7.541 -1.2993  0.5387  1.6385
24924SOL    HW280609   1.221   4.119   7.635  0.6433  2.1624 -1.1850
24925SOL     OW80610   4.476   9.491   4.852 -0.4194 -0.0385  0.1532
24925SOL    HW180611   4.529   9.419   4.816 -0.8997 -0.3432  0.0517
24925SOL    HW280612   4.522   9.515   4.933  1.0626  1.1096 -0.9619
24926SOL     OW80613   4.875   5.648   0.329  0.0775  0.0634 -0.3772
24926SOL    HW180614   4.797   5.671   0.380  0.6834  1.2715  0.0430
24926SOL    HW280615   4.845   5.580   0.269 -0.8159 -0.9345  1.1325
24927SOL     OW80616   2.717   9.731   4.264  0.0800  0.2692  0.7492
24927SOL    HW180617   2.694   9.799   4.328  0.1610  0.2096  0.8438
24927SOL    HW280618   2.812   9.740   4.253 -0.3143  2.6273 -2.0360
24928SOL     OW80619   7.208   8.918   1.585  0.0317 -0.2935 -0.5455
24928SOL    HW180620   7.246   8.841   1.545  1.9416  0.1551  0.3071
24928SOL    HW280621   7.145   8.951   1.520  0.8217 -1.2862 -1.8460
24929SOL     OW80622   4.669   2.315   4.544 -0.1647 -0.1573  0.0583
24929SOL    HW180623   4.599   2.358   4.594 -0.0498 -0.3476  0.3843
24929SOL    HW280624   4.660   2.222   4.567  0.8397 -0.0596  0.8897
24930SOL     OW80625   3.770   9.762   5.552  0.8040  0.3689  0.1099
24930SOL    HW180626   3.694   9.817   5.535  1.9743  1.3921 -2.3625
24930SOL    HW280627   3.843   9.809   5.511  3.1808  0.3446  3.8367
24931SOL     OW80628   5.257   5.545   0.927 -0.4947  0.1044 -0.1035
24931SOL    HW180629   5.175   5.546   0.976 -1.3001  2.2445 -1.3526
24931SOL    HW280630   5.300   5.627   0.950  0.8864 -0.5796 -0.1619
24932SOL     OW80631   1.437   6.544  10.116  0.0760  0.1458  0.2665
24932SOL    HW180632   1.495   6.560  10.041 -0.0306 -0.9814 -0.0821
24932SOL    HW280633   1.494   6.509  10.184  0.2261  1.4570  0.8487
24933SOL     OW80634   7.899   2.109   3.611  0.0671  0.0414 -0.1438
24933SOL    HW180635   7.892   2.164   3.689 -0.5014 -1.0975  0.6270
24933SOL    HW280636   7.918   2.171   3.540 -0.3963  1.2099  0.7226
24934SOL     OW80637   6.187   8.943   3.339 -0.1914  0.1784  0.0529
24934SOL    HW180638   6.167   8.851   3.357 -1.0306  0.6195  1.4919
24934SOL    HW280639   6.265   8.961   3.391 -1.4402  0.8995  1.7863
24935SOL     OW80640  10.331  10.022   1.072 -0.3812  0.1017  0.2944
24935SOL    HW180641  10.407  10.069   1.037 -0.8713 -0.9499 -2.4897
24935SOL    HW280642  10.362   9.983   1.153  2.1179 -0.3389 -0.7632
24936SOL     OW80643   3.711   4.817   1.071 -0.0061 -0.1046 -0.4856
24936SOL    HW180644   3.751   4.757   1.009  0.5324 -1.4715  1.1314
24936SOL    HW280645   3.781   4.878   1.095  0.5844 -1.2415  0.7909
24937SOL     OW80646   4.279   5.919   5.910  0.6552 -0.4550  0.7779
24937SOL    HW180647   4.297   5.825   5.917  0.8128 -0.3804  1.4948
24937SOL    HW280648   4.255   5.932   5.819 -0.4387 -1.3834  0.9098
24938SOL     OW80649   3.849   1.007   5.782 -0.0829  0.1064  0.5864
24938SOL    HW180650   3.812   1.069   5.719 -2.6834 -0.7066  1.1877
24938SOL    HW280651   3.909   0.953   5.731 -1.1654  0.2866 -0.9381
24939SOL     OW80652   6.993   2.836   4.237  0.1759 -0.3211 -0.1650
24939SOL    HW180653   7.053   2.875   4.174 -0.8929  0.3638 -0.7887
24939SOL    HW280654   7.019   2.744   4.242 -0.3161 -0.6303 -2.3382
24940SOL     OW80655   3.619   2.111   7.939  0.5320  0.3394 -0.3866
24940SOL    HW180656   3.694   2.123   7.997 -0.7326  1.0512  1.1797
24940SOL    HW280657   3.609   2.016   7.931 -0.3242  0.1580  2.0704
24941SOL     OW80658   7.660   6.676   0.275  0.0408 -0.0198  0.2430
24941SOL    HW180659   7.618   6.649   0.356 -1.8714  0.0647 -0.6528
24941SOL    HW280660   7.752   6.687   0.297 -0.6597  1.4772  2.7445
24942SOL     OW80661   5.142   8.602   8.652 -0.2869 -0.1764  0.3250
24942SOL    HW180662   5.197   8.638   8.721  1.2781  0.4468 -1.1507
24942SOL    HW280663   5.096   8.530   8.693  1.0738 -0.2427  1.8567
24943SOL     OW80664   8.890   7.058   6.093 -0.1239  0.1956 -0.6282
24943SOL    HW180665   8.946   6.983   6.072 -3.4602 -2.4161 -1.1076
24943SOL    HW280666   8.889   7.061   6.189 -0.2625 -0.6759 -0.5910
24944SOL     OW80667   6.029   1.244   0.998  0.2717 -0.1111 -0.2112
24944SOL    HW180668   5.980   1.171   1.036 -0.7237  1.3328  1.4252
24944SOL    HW280669   5.963   1.293   0.949 -0.2507  2.2236  2.5487
24945SOL     OW80670   1.692   8.960   9.527 -0.2001  0.4972  0.2079
24945SOL    HW180671   1.682   9.046   9.568  0.2730 -0.2272  1.9452
24945SOL    HW280672   1.785   8.941   9.534 -0.3744 -0.3666  0.3177
24946SOL     OW80673   9.407   1.288   0.306  0.5794  0.2896 -0.1427
24946SOL    HW180674   9.382   1.357   0.245 -0.0575 -0.1646 -0.4083
24946SOL    HW280675   9.501   1.301   0.320  0.6122  0.7605 -0.7577
24947SOL     OW80676   2.712   9.901   9.973  0.2569  0.4911 -0.2179
24947SOL    HW180677   2.705   9.823  10.028  0.8784  0.5623 -0.0309
24947SOL    HW280678   2.631   9.902   9.922  0.8736 -1.0682 -1.2919
24948SOL     OW80679   1.485  10.568   0.181 -0.3869  0.1391  0.0949
24948SOL    HW180680   1.468  10.499   0.246  0.1120 -0.7664 -0.7013
24948SOL    HW280681   1.400  10.589   0.144 -0.5127 -0.2401  0.1678
24949SOL     OW80682  10.284   2.786   5.245 -0.2962 -0.3154  0.1748
24949SOL    HW180683  10.361   2.825   5.287  0.0486  0.5821 -1.2181
24949SOL    HW280684  10.290   2.693   5.266  0.0878  0.0215  1.7136
24950SOL     OW80685   6.455  10.725   7.303  0.2623 -0.1984  0.3710
24950SOL    HW180686   6.377  10.709   7.250 -0.4380  1.8491  0.7064
24950SOL    HW280687   6.446  10.664   7.377 -1.0545  0.0188  0.4241
24951SOL     OW80688   1.086   4.094   3.339 -0.2761 -0.0795 -0.4937
24951SOL    HW180689   1.177   4.073   3.357 -0.8240 -0.7617  1.7741
24951SOL    HW280690   1.036   4.022   3.378 -1.9143  2.0323  1.5857
24952SOL     OW80691   8.632   5.433   6.340  0.1549 -0.2421  0.3238
24952SOL    HW180692   8.725   5.455   6.352  0.5857 -0.8137 -1.6182
24952SOL    HW280693   8.596   5.509   6.295  0.0608 -0.6791 -0.3444
24953SOL     OW80694   6.751   5.022   7.004 -0.8289  0.0087 -0.0595
24953SOL    HW180695   6.704   5.102   6.982 -0.6302  0.1984  0.2017
24953SOL    HW280696   6.800   5.000   6.925 -0.9207  0.1162 -0.1479
24954SOL     OW80697   9.325   8.471   8.699  0.1338 -0.3173 -0.8204
24954SOL    HW180698   9.305   8.465   8.605  2.0475  0.3155 -1.2957
24954SOL    HW280699   9.355   8.383   8.723 -0.6875 -0.5749 -0.6936
24955SOL     OW80700   5.589   8.687   8.233  0.2479  0.0169  0.1227
24955SOL    HW180701   5.497   8.688   8.204  0.4079  0.2135 -0.3951
24955SOL    HW280702   5.591   8.748   8.307  0.2126  1.0324 -0.6829
24956SOL     OW80703   1.222  10.102   8.983  0.1120 -0.1678 -0.0076
24956SOL    HW180704   1.218  10.154   9.063 -0.5165  0.1545 -0.2411
24956SOL    HW280705   1.271  10.023   9.007  1.0746  0.5261  0.3484
24957SOL     OW80706   5.395   9.172   9.372  0.4392  0.3299 -0.9107
24957SOL    HW180707   5.457   9.127   9.314  0.5723 -1.6448  0.6943
24957SOL    HW280708   5.311   9.165   9.327  0.8576  0.5154 -1.7502
24958SOL     OW80709  10.110   3.190   8.320 -0.4412 -0.2758  0.1346
24958SOL    HW180710  10.062   3.159   8.243 -1.7531 -0.4553  1.0073
24958SOL    HW280711  10.063   3.269   8.348  1.0848  0.8359 -0.2678
24959SOL     OW80712   6.056   6.790   7.467  0.5690 -0.3410 -0.5301
24959SOL    HW180713   6.035   6.861   7.408  1.7842  0.7818  0.3286
24959SOL    HW280714   6.087   6.719   7.410  1.9286  0.7900 -1.2332
24960SOL     OW80715  10.330   5.012   1.924  0.1033  0.3395  0.1487
24960SOL    HW180716  10.332   5.065   2.004  0.6141  1.9620 -0.8857
24960SOL    HW280717  10.245   4.968   1.926 -0.2608  1.0528  1.1626
24961SOL     OW80718   5.135   4.908   0.668 -0.5023 -0.2265  1.1433
24961SOL    HW180719   5.123   4.960   0.588 -2.6967  0.0132  1.5593
24961SOL    HW280720   5.135   4.973   0.739 -1.3020 -0.6092  1.5125
24962SOL     OW80721   2.723   2.886   5.962 -0.9416 -0.1139 -0.1026
24962SOL    HW180722   2.655   2.901   6.028 -0.3972  1.2494  0.1956
24962SOL    HW280723   2.794   2.844   6.010  0.5041  3.1445  0.9139
24963SOL     OW80724   7.442   3.265   7.063  0.0098 -0.0761 -0.1712
24963SOL    HW180725   7.397   3.200   7.117  0.5887 -0.2287  0.1361
24963SOL    HW280726   7.501   3.309   7.124  1.3000 -0.8294 -0.8288
24964SOL     OW80727   5.750   8.011   0.536 -0.1756  0.0044  0.4922
24964SOL    HW180728   5.688   8.045   0.470  0.4019 -0.0870 -0.1114
24964SOL    HW280729   5.699   7.947   0.586 -0.7923  0.5010  0.5229
24965SOL     OW80730   6.502   8.416   3.816 -0.7233 -0.0712  0.4815
24965SOL    HW180731   6.521   8.395   3.724  2.2499 -0.1361  1.0260
24965SOL    HW280732   6.407   8.408   3.822 -1.0744  0.2441 -2.6539
24966SOL     OW80733   2.741   9.315   8.248 -0.1349 -0.2681 -0.5796
24966SOL    HW180734   2.679   9.350   8.184 -0.3215 -0.8975 -0.7492
24966SOL    HW280735   2.745   9.382   8.317 -1.2334 -0.3613 -0.4151
24967SOL     OW80736   4.045   8.371   3.140 -0.1150  0.2071 -0.1045
24967SOL    HW180737   4.031   8.301   3.204  0.2420  0.1685 -0.0684
24967SOL    HW280738   3.981   8.353   3.071 -1.0162  0.6741  0.5852
24968SOL     OW80739   5.044   4.016   7.214 -0.4422  0.0000 -0.0838
24968SOL    HW180740   4.962   4.048   7.175 -0.0445 -0.4545 -1.3492
24968SOL    HW280741   5.109   4.030   7.145  0.0137 -2.2291 -0.1526
24969SOL     OW80742   6.673   5.592  10.491 -0.2507 -0.5344 -0.5443
24969SOL    HW180743   6.635   5.661  10.436  0.2563 -1.1787 -1.7297
24969SOL    HW280744   6.748   5.633  10.533 -0.8601  0.0712 -0.0114
24970SOL     OW80745   9.713   6.674  10.476  0.0690  0.3158 -0.0990
24970SOL    HW180746   9.698   6.768  10.485  0.6160  0.6405 -2.1105
24970SOL    HW280747   9.653   6.634  10.539 -0.2489  1.9959  0.7251
24971SOL     OW80748   5.949  10.684  10.701 -0.4937 -0.4789 -0.0891
24971SOL    HW180749   5.887  10.752  10.676  0.9492  0.2831 -1.8409
24971SOL    HW280750   5.926  10.609  10.645 -1.5622 -1.1924  1.2561
24972SOL     OW80751   5.412   8.494   0.457 -0.6776  0.0837 -0.5449
24972SOL    HW180752   5.391   8.423   0.396  2.0926 -1.0685 -0.3081
24972SOL    HW280753   5.382   8.462   0.542 -1.8590  0.4204 -0.8074
24973SOL     OW80754   3.379   0.307   6.501  0.4784 -0.0897 -0.1472
24973SOL    HW180755   3.414   0.274   6.584  0.1534  1.8107  0.8048
24973SOL    HW280756   3.284   0.301   6.511  0.3989  1.3095  0.1739
24974SOL     OW80757   6.047   2.710   4.550  0.5871  0.0959 -0.0107
24974SOL    HW180758   6.020   2.793   4.590 -0.3710 -0.4493  0.5171
24974SOL    HW280759   5.990   2.701   4.474 -0.7988 -1.0777  1.1235
24975SOL     OW80760   8.904   0.785   8.504 -0.0172 -0.2352  0.2468
24975SOL    HW180761   8.932   0.715   8.444  1.9874  0.0838  0.7478
24975SOL    HW280762   8.962   0.777   8.579 -0.2931  1.4790  0.6734
24976SOL     OW80763   7.146   6.395   7.948  0.4612 -0.9213  0.1869
24976SOL    HW180764   7.177   6.399   8.039 -0.1834  0.0630  0.3856
24976SOL    HW280765   7.055   6.426   7.952  0.2410 -1.3995 -0.7212
24977SOL     OW80766   1.370   2.110  10.139 -0.5137  0.4847  0.0664
24977SOL    HW180767   1.314   2.185  10.159 -4.3457 -2.4313  1.6353
24977SOL    HW280768   1.392   2.073  10.224  0.1332 -0.9258 -0.6746
24978SOL     OW80769   0.472   4.580   5.602 -0.7532  0.0532  0.3048
24978SOL    HW180770   0.503   4.630   5.526  2.0425 -1.6760  0.1648
24978SOL    HW280771   0.426   4.505   5.565  0.1651 -0.5216  0.3104
24979SOL     OW80772   7.184   4.818   2.919  0.2109 -0.1706 -0.2032
24979SOL    HW180773   7.144   4.764   2.851  0.7519 -1.5680  0.5459
24979SOL    HW280774   7.271   4.779   2.932  1.3330  1.9369 -0.8324
24980SOL     OW80775  10.020   4.078   8.100 -0.1076 -0.6510  0.5356
24980SOL    HW180776  10.000   4.083   8.007 -3.4541 -0.5458  1.1362
24980SOL    HW280777  10.037   3.985   8.116 -2.7112 -1.2595  0.2553
24981SOL     OW80778   6.327   8.429  10.353 -0.1401 -0.2283 -0.0041
24981SOL    HW180779   6.387   8.452  10.281  0.6543  0.0518  0.7255
24981SOL    HW280780   6.284   8.511  10.375  0.3880 -0.0822  0.5195
24982SOL     OW80781   5.444   3.575   9.656 -0.2671  0.0362  0.0735
24982SOL    HW180782   5.390   3.510   9.701  0.0970  0.4637  1.1399
24982SOL    HW280783   5.451   3.542   9.566 -2.0580 -0.1643 -0.0130
24983SOL     OW80784  10.667   8.162   9.976 -0.0315  0.3066 -0.1434
24983SOL    HW180785  10.613   8.208   9.911  1.2998  0.3572 -1.2580
24983SOL    HW280786  10.698   8.231  10.034 -0.7203  0.3447  0.1948
24984SOL     OW80787   8.778   6.651   2.284  0.3047 -0.2434  0.0073
24984SOL    HW180788   8.855   6.624   2.334 -0.3241 -0.5086  0.8620
24984SOL    HW280789   8.714   6.676   2.351 -0.2928  0.1373 -0.6946
24985SOL     OW80790   7.820   4.723   6.660  0.6479  0.3879 -0.0976
24985SOL    HW180791   7.748   4.777   6.692 -0.2584  0.4541 -2.0757
24985SOL    HW280792   7.856   4.682   6.738 -0.6032  1.4811  1.1082
24986SOL     OW80793   4.943  10.170   5.027 -0.2621  0.3971  0.1714
24986SOL    HW180794   4.917  10.079   5.047  2.2711 -0.7928 -1.4318
24986SOL    HW280795   4.878  10.200   4.964  0.4053 -1.3706 -1.4480
24987SOL     OW80796   5.698   1.684   3.448  0.1138 -0.2630 -0.5843
24987SOL    HW180797   5.762   1.628   3.405 -0.4387 -1.9667  0.7209
24987SOL    HW280798   5.616   1.636   3.441 -1.1994  2.0198 -2.5302
24988SOL     OW80799   5.181   3.100   0.162  0.4193 -0.3498  0.0833
24988SOL    HW180800   5.106   3.044   0.180  0.9275 -0.8812  0.5939
24988SOL    HW280801   5.241   3.043   0.112  0.7883 -0.1521  0.3008
24989SOL     OW80802   6.296   4.985   5.545 -0.1441  0.0972 -0.8384
24989SOL    HW180803   6.303   4.919   5.614 -1.6444  0.6476 -0.1097
24989SOL    HW280804   6.227   5.045   5.575 -0.1548  0.9170 -2.3546
24990SOL     OW80805   9.721   3.887   3.788  0.0265 -0.2240  0.2050
24990SOL    HW180806   9.798   3.933   3.821  0.0907 -0.0618 -0.1659
24990SOL    HW280807   9.676   3.953   3.735  0.6398 -0.8637 -1.1523
24991SOL     OW80808   1.016   7.401   9.997  0.0133 -0.2746  0.3350
24991SOL    HW180809   0.970   7.435   9.920  2.6128 -1.1546 -1.8003
24991SOL    HW280810   0.984   7.454  10.070 -2.9702  0.2657 -1.2233
24992SOL     OW80811   9.486   8.237   9.440 -0.4621  0.2578 -0.3103
24992SOL    HW180812   9.409   8.279   9.480  0.3186  2.0368 -0.6007
24992SOL    HW280813   9.469   8.241   9.346  0.3447  1.4587 -0.4264
24993SOL     OW80814   3.017   0.158   1.072  0.0156  0.2071  0.0085
24993SOL    HW180815   3.036   0.214   1.147  1.7965 -0.4747  0.1061
24993SOL    HW280816   3.008   0.219   0.998  3.6471  0.6510 -0.2400
24994SOL     OW80817   8.845   8.098   6.220  0.3595 -0.0075  0.1325
24994SOL    HW180818   8.756   8.065   6.234  0.0662  1.5163  2.3588
24994SOL    HW280819   8.899   8.019   6.222 -0.8046 -0.8381  0.2095
24995SOL     OW80820   6.871   3.406   4.943  0.4245  0.9360 -0.4281
24995SOL    HW180821   6.852   3.338   4.878  0.4434 -0.7115  1.1856
24995SOL    HW280822   6.837   3.487   4.905 -1.6005 -0.3525 -1.5166
24996SOL     OW80823   9.389  10.671   7.817 -0.3715 -0.0508  0.0212
24996SOL    HW180824   9.430  10.726   7.751 -0.1932  0.2987  0.4191
24996SOL    HW280825   9.462  10.641   7.872 -0.2235 -2.0702 -1.1763
24997SOL     OW80826   7.159   8.798   8.966 -0.1643 -0.2529  0.0399
24997SOL    HW180827   7.214   8.733   8.922  2.6084  1.5905  0.5471
24997SOL    HW280828   7.097   8.826   8.898  1.1977 -0.5665 -1.3932
24998SOL     OW80829   1.339   3.486   8.543  0.0130  0.8455  0.5203
24998SOL    HW180830   1.338   3.574   8.581 -0.0047  1.7068 -1.3699
24998SOL    HW280831   1.392   3.495   8.463 -0.8136 -0.6335 -0.2369
24999SOL     OW80832  10.058  10.346   8.061 -0.0683  0.2534  0.2656
24999SOL    HW180833   9.988  10.406   8.034 -0.7798 -0.0229  1.3938
24999SOL    HW280834  10.139  10.391   8.036 -0.6373  0.4395 -1.3551
25000SOL     OW80835   9.366   9.872   1.096 -0.1885 -0.5170  0.2393
25000SOL    HW180836   9.446   9.904   1.053 -0.7242  0.9836  0.3223
25000SOL    HW280837   9.304   9.861   1.024 -1.1131  2.0757  0.5647
25001SOL     OW80838   3.878   2.610   8.060  0.0547  0.4434 -0.2346
25001SOL    HW180839   3.945   2.566   8.112  1.1405 -0.0450 -1.9688
25001SOL    HW280840   3.885   2.571   7.973 -1.9520  0.9689 -0.6808
25002SOL     OW80841  10.492   9.222   6.094  0.6528  0.8603 -0.4288
25002SOL    HW180842  10.585   9.200   6.100  0.9006  1.2861 -2.1188
25002SOL    HW280843  10.449   9.139   6.070  1.1274  1.3519 -3.3013
25003SOL     OW80844   9.993   1.104   7.038 -0.0159 -0.1396  0.0293
25003SOL    HW180845   9.956   1.185   7.004  2.7210  0.4575 -1.7674
25003SOL    HW280846   9.940   1.035   6.999 -0.8899  0.7116 -0.3213
25004SOL     OW80847   5.959   1.431   8.256  0.9273  0.2520 -0.0020
25004SOL    HW180848   5.988   1.392   8.338  0.4264  0.8127  0.4454
25004SOL    HW280849   6.004   1.380   8.188 -0.9368 -2.2450  0.4629
25005SOL     OW80850   0.939   1.189   4.364 -0.0216  0.0742 -0.3931
25005SOL    HW180851   0.896   1.107   4.387 -0.4111  0.3991  0.0646
25005SOL    HW280852   0.886   1.225   4.293  0.2493 -0.1528 -0.7113
25006SOL     OW80853   4.319   1.580   1.122  0.5663 -0.2671 -0.6915
25006SOL    HW180854   4.355   1.641   1.058 -0.4874 -0.3119 -1.3596
25006SOL    HW280855   4.310   1.497   1.074  0.5963 -0.5464 -0.2247
25007SOL     OW80856   8.858   4.620   3.473  0.5227 -0.1470 -0.3003
25007SOL    HW180857   8.868   4.713   3.452  0.0672 -0.0312 -0.0185
25007SOL    HW280858   8.940   4.596   3.516 -0.5632  0.9458  2.6036
25008SOL     OW80859   2.088   7.581   4.034  0.0317 -0.2269  0.0147
25008SOL    HW180860   2.002   7.614   4.063  0.3646 -0.0858  0.8627
25008SOL    HW280861   2.098   7.617   3.946 -0.6725 -0.0385 -0.0015
25009SOL     OW80862   7.165   2.885   4.870 -0.3339 -0.1677  0.0211
25009SOL    HW180863   7.172   2.950   4.800  0.0916 -1.1382 -0.8727
25009SOL    HW280864   7.146   2.936   4.948  2.0165  1.2790 -0.2404
25010SOL     OW80865   9.491   5.500   9.990  0.0042  0.4575  0.3436
25010SOL    HW180866   9.408   5.453   9.991  0.7656 -1.0044  2.5170
25010SOL    HW280867   9.471   5.587  10.022 -0.7046  0.1454  0.7573
25011SOL     OW80868   5.190   4.899   7.509  0.3911 -0.0093  0.2418
25011SOL    HW180869   5.209   4.983   7.469  1.7046  0.6309  2.0561
25011SOL    HW280870   5.135   4.919   7.585 -2.2282 -1.2051 -1.1808
25012SOL     OW80871   9.680   8.289   8.807 -0.5636 -0.3006 -0.7812
25012SOL    HW180872   9.772   8.312   8.817 -1.0204  0.8085  1.2778
25012SOL    HW280873   9.680   8.193   8.797  0.7366 -0.5082  0.8625
25013SOL     OW80874   7.916   6.858   9.995 -0.4306 -0.0121 -0.7426
25013SOL    HW180875   7.954   6.937   9.957 -1.1536  0.2404 -0.9674
25013SOL    HW280876   7.821   6.871   9.986 -0.5672 -0.6734 -0.3126
25014SOL     OW80877   5.250   1.725   7.067 -0.4696  0.3079  0.2375
25014SOL    HW180878   5.208   1.727   7.153 -2.1317  0.1353 -0.5181
25014SOL    HW280879   5.197   1.664   7.016  1.5804 -1.0318 -0.4024
25015SOL     OW80880   5.913   8.240   6.099 -0.2633  0.0013 -0.0201
25015SOL    HW180881   5.995   8.290   6.096  1.0512 -2.0636 -1.6962
25015SOL    HW280882   5.858   8.282   6.033  0.4255 -0.0857 -0.6705
25016SOL     OW80883   0.806   1.148   3.596 -0.1118  0.1074 -0.1219
25016SOL    HW180884   0.874   1.095   3.639 -0.8912 -0.4472  0.4411
25016SOL    HW280885   0.739   1.160   3.663  0.0278  1.8039 -0.2339
25017SOL     OW80886   1.295   5.267   2.475 -0.0481  0.7626  0.3021
25017SOL    HW180887   1.272   5.358   2.454  0.0460  0.8789  0.6877
25017SOL    HW280888   1.254   5.215   2.405  0.6074  1.1674 -0.3959
25018SOL     OW80889  10.196   7.438   1.506  0.5978  0.1848  0.9027
25018SOL    HW180890  10.110   7.402   1.528  0.5005  0.1341  0.4523
25018SOL    HW280891  10.255   7.404   1.574  0.7599 -1.8605 -0.1490
25019SOL     OW80892   4.252   0.358   2.997  0.7885 -0.0924  0.3658
25019SOL    HW180893   4.305   0.411   2.938 -1.1284  1.6790  0.1117
25019SOL    HW280894   4.239   0.275   2.951  0.3085  0.8212 -1.2031
25020SOL     OW80895   4.216   1.099   8.630 -0.9708  0.3987 -0.1467
25020SOL    HW180896   4.199   1.015   8.671  0.8582 -0.6467 -1.3866
25020SOL    HW280897   4.157   1.102   8.555 -0.5789 -0.0911 -0.4790
25021SOL     OW80898   3.716   1.233  10.489 -0.5196 -0.3184  0.7804
25021SOL    HW180899   3.762   1.161  10.444  0.7886  0.8569  0.1426
25021SOL    HW280900   3.625   1.226  10.459 -0.2510 -1.2503  0.1378
25022SOL     OW80901   9.073   9.707   0.736 -0.5373  0.0040 -0.0938
25022SOL    HW180902   9.015   9.723   0.661 -0.6295  0.8591  0.1626
25022SOL    HW280903   9.032   9.634   0.783  0.0198 -1.2028 -1.3892
25023SOL     OW80904   3.553   8.128   7.779 -0.4466  1.0334 -0.4979
25023SOL    HW180905   3.621   8.092   7.835 -0.3189  1.5293 -0.3294
25023SOL    HW280906   3.473   8.083   7.807 -0.6661  2.3706  1.1505
25024SOL     OW80907   3.427   2.280   4.203 -0.2179  0.2586 -0.0086
25024SOL    HW180908   3.463   2.201   4.243  1.2296  0.7192 -0.3511
25024SOL    HW280909   3.501   2.319   4.154 -1.2578  1.0711 -1.0041
25025SOL     OW80910   8.829   9.479   2.552  0.2930 -0.5221  0.0139
25025SOL    HW180911   8.815   9.543   2.622 -0.5135  1.8406 -2.1186
25025SOL    HW280912   8.924   9.467   2.549  0.5191  0.9282  0.2652
25026SOL     OW80913   4.679   4.673   2.151  0.3256  0.2092  0.5436
25026SOL    HW180914   4.749   4.618   2.115  0.7480  1.0527  0.0486
25026SOL    HW280915   4.724   4.735   2.209 -0.0511  0.5266  0.5029
25027SOL     OW80916   2.929   9.205   5.459 -0.2636  0.0131  0.6801
25027SOL    HW180917   2.948   9.292   5.493  1.2119  0.5072 -1.2325
25027SOL    HW280918   2.870   9.221   5.385  0.0109 -0.6095  0.3175
25028SOL     OW80919   2.992   1.242   5.901  0.7339  0.4319 -0.6464
25028SOL    HW180920   3.061   1.287   5.950  0.4160 -1.1487  1.3603
25028SOL    HW280921   3.029   1.156   5.880 -1.4405 -1.6423  3.0604
25029SOL     OW80922   0.309   7.640   0.632  0.1859  0.0977  0.2055
25029SOL    HW180923   0.251   7.583   0.583  0.0608  0.4042 -0.0035
25029SOL    HW280924   0.296   7.614   0.723  0.7859 -0.8061  0.0418
25030SOL     OW80925   4.397   3.266   7.895  0.0300  0.0594  0.0536
25030SOL    HW180926   4.485   3.301   7.909  0.6467 -1.5273  0.3837
25030SOL    HW280927   4.346   3.341   7.866  1.2928  1.1945  0.6297
25031SOL     OW80928   6.833   3.615   1.677  0.2209  1.0314  0.7571
25031SOL    HW180929   6.913   3.608   1.626  0.7408 -0.0517  1.6837
25031SOL    HW280930   6.855   3.577   1.762 -1.8380 -1.2882  0.3760
25032SOL     OW80931   1.762   7.145   9.306 -0.9928 -0.3488 -0.2918
25032SOL    HW180932   1.735   7.095   9.383 -2.8027 -0.5847 -1.0074
25032SOL    HW280933   1.844   7.105   9.278 -1.0803 -1.2202  0.6565
25033SOL     OW80934   9.527   4.394   7.910  0.3872  0.2276 -0.8304
25033SOL    HW180935   9.435   4.371   7.927  0.5475 -0.1847 -0.5002
25033SOL    HW280936   9.544   4.361   7.822  0.5667 -0.8077 -0.4253
25034SOL     OW80937   4.423   5.526   1.175 -0.3685  0.1623 -0.5187
25034SOL    HW180938   4.447   5.614   1.145  1.3374  0.0950  0.4719
25034SOL    HW280939   4.356   5.541   1.242  1.1388  0.9052  0.9007
25035SOL     OW80940   1.288   3.979   0.468  0.1346  0.0276 -0.3497
25035SOL    HW180941   1.326   3.892   0.464 -0.0021 -0.0140 -0.8342
25035SOL    HW280942   1.256   3.995   0.379  2.0221  1.4092 -0.8448
25036SOL     OW80943   5.330   0.923  10.289  0.3911  0.1912  0.2496
25036SOL    HW180944   5.244   0.889  10.266  1.4324 -1.1615 -2.0280
25036SOL    HW280945   5.325   1.017  10.271 -0.7593  0.2238  0.7057
25037SOL     OW80946   3.750   2.261   9.599  0.0005 -1.1033  0.0264
25037SOL    HW180947   3.767   2.321   9.672  0.0942  1.1934 -1.7781
25037SOL    HW280948   3.785   2.177   9.628  3.1764  0.5270  1.3143
25038SOL     OW80949   4.859   6.775   6.118 -0.1987 -0.1909 -0.2917
25038SOL    HW180950   4.942   6.763   6.164  0.3743  1.5573 -0.7672
25038SOL    HW280951   4.876   6.743   6.030 -1.6291 -4.5960  0.7937
25039SOL     OW80952   5.689   3.509   8.284 -0.7924 -0.0193  0.0343
25039SOL    HW180953   5.618   3.570   8.265 -0.8125 -0.4249 -1.3465
25039SOL    HW280954   5.764   3.543   8.235 -0.9212 -1.3020 -1.0968
25040SOL     OW80955   1.156   1.949   2.688  0.6265  0.2057  0.2053
25040SOL    HW180956   1.115   2.035   2.696  1.3432  0.5497  0.2864
25040SOL    HW280957   1.168   1.919   2.778  1.9483  0.7990  0.2516
25041SOL     OW80958   4.350   6.004   5.346 -0.0482  0.3288 -0.3328
25041SOL    HW180959   4.415   6.066   5.312 -0.2873  1.6013  1.3947
25041SOL    HW280960   4.358   5.927   5.290  1.6783  1.1599 -1.2879
25042SOL     OW80961   7.773   4.264   5.227 -0.3253 -0.4325 -0.0677
25042SOL    HW180962   7.791   4.315   5.148  1.0421 -1.1516 -0.2523
25042SOL    HW280963   7.732   4.326   5.287  0.9163  0.7997 -0.4423
25043SOL     OW80964   9.431   7.162   0.167 -0.5229 -0.1135 -0.5381
25043SOL    HW180965   9.477   7.080   0.147 -1.9905 -0.8203 -1.1504
25043SOL    HW280966   9.414   7.200   0.081 -0.9845  0.1956 -0.3088
25044SOL     OW80967   8.519   7.881   2.540  0.3040 -0.1275  0.1765
25044SOL    HW180968   8.448   7.846   2.485  0.8379  1.5549 -1.7052
25044SOL    HW280969   8.533   7.814   2.606 -2.2596 -1.0308 -0.0856
25045SOL     OW80970   5.571   4.837  10.637  0.0655 -0.4002  0.3293
25045SOL    HW180971   5.554   4.772  10.569 -0.3132 -0.3956  0.4185
25045SOL    HW280972   5.558   4.921  10.594 -2.5269 -0.4000  0.9732
25046SOL     OW80973   6.466   2.762   0.759  0.4475  0.0287 -0.3859
25046SOL    HW180974   6.462   2.674   0.721  2.0233  0.5297 -1.8821
25046SOL    HW280975   6.409   2.815   0.704  0.7893  0.2624 -0.5208
25047SOL     OW80976   2.027   0.088   4.189  0.2295 -0.0566 -0.2152
25047SOL    HW180977   2.122   0.084   4.202  0.0719 -0.4034  0.9181
25047SOL    HW280978   2.012   0.039   4.108  0.7478 -2.7262  1.1691
25048SOL     OW80979   8.022   3.972   5.508  0.2923 -0.3707 -0.8837
25048SOL    HW180980   7.958   4.037   5.537  2.1132  0.9077  0.5264
25048SOL    HW280981   7.985   3.935   5.428 -3.0710 -1.0684  0.8017
25049SOL     OW80982   1.046   2.764   7.623  0.3519 -0.3716 -0.0070
25049SOL    HW180983   1.065   2.852   7.590 -0.7521 -0.4012 -0.7948
25049SOL    HW280984   1.011   2.779   7.711 -0.3308  0.0353 -0.3373
25050SOL     OW80985   3.059   4.808   4.353  0.4356  0.2774 -0.2303
25050SOL    HW180986   3.038   4.791   4.445 -0.6354  0.1127 -0.4916
25050SOL    HW280987   3.111   4.732   4.327 -1.1386 -0.8266 -0.3435
25051SOL     OW80988   7.226   0.387   2.800  0.5153  0.2820 -0.0060
25051SOL    HW180989   7.139   0.388   2.840  0.5972  0.5141  0.1707
25051SOL    HW280990   7.285   0.418   2.869  0.8605 -0.6729  0.1408
25052SOL     OW80991   4.208   2.013   9.950 -0.1676 -0.0686  0.4514
25052SOL    HW180992   4.275   2.078   9.972  0.7819 -0.8398 -0.1175
25052SOL    HW280993   4.126   2.062   9.955  0.5528  1.3099 -0.3675
25053SOL     OW80994   8.727   4.267  10.286 -0.3749  0.1316  0.1119
25053SOL    HW180995   8.771   4.197  10.238  0.7615  1.3418 -0.6675
25053SOL    HW280996   8.763   4.262  10.374 -0.0867 -0.0808 -0.0174
25054SOL     OW80997   1.900   2.488   3.088  0.7384  0.2058 -0.4344
25054SOL    HW180998   1.895   2.553   3.158 -0.2878 -2.4701  2.1697
25054SOL    HW280999   1.810   2.484   3.053 -0.1629 -2.1602  1.8630
25055SOL     OW81000   6.190   2.144   0.567 -0.4547 -0.5275 -0.2304
25055SOL    HW181001   6.115   2.179   0.616 -0.6921 -1.1435 -0.1477
25055SOL    HW281002   6.248   2.109   0.635 -0.5049 -0.8491 -0.3556
25056SOL     OW81003   9.209   7.611   7.566 -0.3931 -0.1065 -0.5954
25056SOL    HW181004   9.135   7.671   7.578  0.6542  0.9768  0.8313
25056SOL    HW281005   9.260   7.650   7.495 -0.2347  0.1642 -0.3361
25057SOL     OW81006   5.985   8.925   2.114 -0.2452  0.1689  0.2257
25057SOL    HW181007   5.949   8.951   2.030  0.3206 -0.3199 -0.1745
25057SOL    HW281008   5.955   8.993   2.175  2.7845  3.0058 -1.1090
25058SOL     OW81009  10.401   9.367   1.211 -0.3729 -0.4239  0.1493
25058SOL    HW181010  10.364   9.317   1.284  1.4822 -0.0921  1.3771
25058SOL    HW281011  10.491   9.336   1.203  0.1498  1.1459 -0.5045
25059SOL     OW81012   6.918   7.099   1.162  0.4968  0.1203  0.2709
25059SOL    HW181013   7.010   7.117   1.146  0.1612  0.4477 -1.5509
25059SOL    HW281014   6.877   7.185   1.171  0.1037  0.0709 -0.8076
25060SOL     OW81015  10.112   8.181   0.941 -0.1728  0.1786  0.2543
25060SOL    HW181016  10.029   8.205   0.981 -0.2610  1.4179 -0.6322
25060SOL    HW281017  10.088   8.152   0.852  0.3721  0.9397 -0.1469
25061SOL     OW81018   4.686   2.028   4.589 -0.0547 -0.1402 -0.0421
25061SOL    HW181019   4.660   2.001   4.677 -1.9771  0.2028 -0.4605
25061SOL    HW281020   4.655   1.958   4.532  0.7878 -0.1481 -0.5141
25062SOL     OW81021   9.876   8.955   2.914 -0.2342 -0.0779  0.3704
25062SOL    HW181022   9.824   9.022   2.959  0.6730 -0.1806  1.6333
25062SOL    HW281023   9.962   8.996   2.901 -0.1019 -0.5022 -0.1358
25063SOL     OW81024   5.208   3.264   9.550 -0.1660  0.4754  0.4917
25063SOL    HW181025   5.160   3.223   9.622  1.2169  1.0956  1.8348
25063SOL    HW281026   5.216   3.196   9.484  0.8909 -1.0301  2.0976
25064SOL     OW81027   0.143   4.052   3.397  0.0609 -0.1433  0.8560
25064SOL    HW181028   0.088   3.978   3.371  1.7971 -1.3736  0.4400
25064SOL    HW281029   0.198   4.018   3.467  1.9573  0.2059 -0.3577
25065SOL     OW81030   2.707   6.712   7.974 -0.1756  0.1351  0.0762
25065SOL    HW181031   2.634   6.745   8.026 -0.7857 -1.7175  0.4726
25065SOL    HW281032   2.785   6.750   8.015 -0.7887  0.4974  0.9414
25066SOL     OW81033   6.356   9.246   2.832 -0.3670  0.0815 -0.6681
25066SOL    HW181034   6.402   9.162   2.834 -0.0084  0.2029 -2.1814
25066SOL    HW281035   6.272   9.229   2.875 -0.7358 -1.3582 -1.8659
25067SOL     OW81036   8.657   5.993  10.066 -0.2952 -0.3126 -0.5352
25067SOL    HW181037   8.675   5.906  10.103  0.6465 -0.7499 -1.9363
25067SOL    HW281038   8.573   5.982  10.021 -0.4271 -0.3532 -0.2805
25068SOL     OW81039   7.898   7.219   8.899  0.0727  0.3788 -0.2621
25068SOL    HW181040   7.806   7.243   8.910  0.4514  1.9439 -0.3349
25068SOL    HW281041   7.926   7.266   8.821  1.4324  1.4492  0.8299
25069SOL     OW81042   2.223   6.777   2.013 -0.7456 -0.3731 -0.2385
25069SOL    HW181043   2.196   6.709   2.074 -0.7115 -0.9773 -0.8874
25069SOL    HW281044   2.191   6.859   2.052  0.1653 -0.6227  1.1023
25070SOL     OW81045   2.019   6.718  10.418 -0.2539 -0.8505  0.6066
25070SOL    HW181046   1.924   6.722  10.432 -0.2950 -1.4827  0.5211
25070SOL    HW281047   2.036   6.784  10.350 -0.3356  0.7704  2.0802
25071SOL     OW81048   0.739   1.240   7.156 -0.0518  0.5475 -0.6445
25071SOL    HW181049   0.702   1.174   7.099 -0.0482  0.3846 -0.4604
25071SOL    HW281050   0.833   1.221   7.158 -0.1913 -0.1266  0.2780
25072SOL     OW81051   8.246   7.702   4.396  0.3725 -0.0747 -0.8072
25072SOL    HW181052   8.281   7.777   4.442  1.5941 -0.4631 -1.0786
25072SOL    HW281053   8.174   7.671   4.451 -0.1536  1.2664 -0.6915
25073SOL     OW81054   6.992   1.313   2.531  1.0290 -0.6201 -0.0662
25073SOL    HW181055   7.048   1.297   2.607  0.9559  0.7195  0.2871
25073SOL    HW281056   6.983   1.408   2.527 -0.4305 -0.7570 -0.6842
25074SOL     OW81057   3.777   1.776   1.299 -0.1725  0.1470  0.2810
25074SOL    HW181058   3.832   1.746   1.371 -1.1352  0.3993  1.1301
25074SOL    HW281059   3.687   1.766   1.330 -0.6512 -0.6395 -1.2473
25075SOL     OW81060   0.680   3.178   5.934  0.3644  0.3726 -0.4278
25075SOL    HW181061   0.720   3.122   6.000  0.9738  1.7654  0.4241
25075SOL    HW281062   0.673   3.122   5.856  3.3683 -0.1585 -0.4314
25076SOL     OW81063   2.669   1.937   6.916  0.2139  0.7925 -0.1791
25076SOL    HW181064   2.671   1.992   6.838 -0.9088  0.3829 -0.5080
25076SOL    HW281065   2.647   1.849   6.884  1.1127  0.3158  0.4440
25077SOL     OW81066   8.746   1.145   8.857  0.3121 -0.2759  0.1848
25077SOL    HW181067   8.825   1.198   8.850 -0.8182  1.5606  0.6879
25077SOL    HW281068   8.745   1.093   8.777  1.9953 -0.3363  0.1603
25078SOL     OW81069   3.635   6.043   9.677  0.1880  0.6360  0.3535
25078SOL    HW181070   3.727   6.050   9.704 -0.0704 -2.4387  2.6606
25078SOL    HW281071   3.618   5.949   9.675 -1.8979  0.8427 -4.2109
25079SOL     OW81072  10.107  10.523   5.473  0.4183  0.3434 -0.1959
25079SOL    HW181073  10.058  10.599   5.443 -1.9447 -1.3693 -0.9329
25079SOL    HW281074  10.153  10.492   5.395  0.6979  0.5035 -0.0971
25080SOL     OW81075   6.699   7.520   0.375  0.0012 -0.3458 -0.1332
25080SOL    HW181076   6.604   7.529   0.380  0.0697  0.0164  0.6432
25080SOL    HW281077   6.732   7.609   0.385  0.3877 -0.2593 -1.8557
25081SOL     OW81078   8.576   4.270   7.750 -0.0051 -0.1205  0.3312
25081SOL    HW181079   8.579   4.335   7.679  0.1674  1.0667  1.3937
25081SOL    HW281080   8.616   4.192   7.713  0.2039  0.5167 -0.8355
25082SOL     OW81081   2.288   0.544   5.446  0.1883 -0.6723 -0.5271
25082SOL    HW181082   2.295   0.586   5.532 -0.4311 -0.8850 -0.3665
25082SOL    HW281083   2.345   0.596   5.389  1.0019 -0.8332  0.1203
25083SOL     OW81084   6.369  10.480  10.308 -0.1071 -0.1996  0.1312
25083SOL    HW181085   6.298  10.422  10.333 -0.7494  0.1437 -0.8457
25083SOL    HW281086   6.347  10.508  10.220  1.7683 -0.8865 -0.5990
25084SOL     OW81087   7.970   3.741   3.533  0.0493 -0.1241 -0.7921
25084SOL    HW181088   7.974   3.738   3.437  1.9896  0.3660 -0.7625
25084SOL    HW281089   7.893   3.795   3.552 -0.1007  0.1468 -2.0621
25085SOL     OW81090  10.324   6.501   1.780  0.5470  0.7575  0.3196
25085SOL    HW181091  10.416   6.480   1.798  0.3329  1.4235  2.4339
25085SOL    HW281092  10.276   6.462   1.853 -0.7895  1.0189 -0.3887
25086SOL     OW81093   9.054   7.677  10.169  0.7424 -0.0150  0.4827
25086SOL    HW181094   9.046   7.753  10.226  0.6978 -0.7754  1.5232
25086SOL    HW281095   9.005   7.608  10.214  0.1213 -0.4573 -0.8212
25087SOL     OW81096   2.407  10.126   4.855 -0.1020  0.0520 -0.5250
25087SOL    HW181097   2.388  10.036   4.880 -0.4200 -0.0735 -1.1924
25087SOL    HW281098   2.398  10.176   4.936 -3.6957  0.0668 -0.7504
25088SOL     OW81099   1.035   5.009   0.218  0.1903 -0.3380 -0.3793
25088SOL    HW181100   1.107   4.964   0.262 -0.4411 -0.5503  0.4449
25088SOL    HW281101   1.026   4.963   0.134  1.7270  0.3914 -0.9793
25089SOL     OW81102   2.796   6.870   5.842  0.0741  0.4743 -0.1714
25089SOL    HW181103   2.833   6.917   5.917  0.6659  0.8189 -0.6761
25089SOL    HW281104   2.809   6.777   5.864 -1.7962  0.4580  1.1867
25090SOL     OW81105   2.643   7.944   5.532  0.4023 -0.0586 -0.3292
25090SOL    HW181106   2.637   7.973   5.623  1.2878 -0.4607 -0.1257
25090SOL    HW281107   2.684   7.857   5.537 -1.5700 -1.0735 -0.9603
25091SOL     OW81108   5.093   2.968  10.286 -0.5227  0.0595  0.4752
25091SOL    HW181109   5.175   2.984  10.333 -0.8223  1.2426  0.6202
25091SOL    HW281110   5.100   2.877  10.257  1.5333  0.5497 -0.8608
25092SOL     OW81111   0.482   8.448   1.066  0.5806  0.4624  0.0652
25092SOL    HW181112   0.553   8.501   1.030  0.3264  1.3817  0.8577
25092SOL    HW281113   0.419   8.440   0.994  1.2935 -0.0113 -0.5104
25093SOL     OW81114   7.489   5.745   7.719  0.3538 -0.6304 -0.6827
25093SOL    HW181115   7.508   5.654   7.696  0.8095 -0.3258 -1.5512
25093SOL    HW281116   7.443   5.780   7.643 -1.0974 -0.5164  0.2141
25094SOL     OW81117   0.777   8.975   1.406  0.6480 -0.4230 -0.0105
25094SOL    HW181118   0.852   8.999   1.352 -0.4644  0.4308 -1.2249
25094SOL    HW281119   0.772   9.044   1.472 -1.1979  1.6144 -2.1421
25095SOL     OW81120   5.450   4.825   1.916 -0.2932 -0.0800 -0.1446
25095SOL    HW181121   5.480   4.836   1.826 -1.7534  0.8209 -0.5632
25095SOL    HW281122   5.393   4.749   1.914 -2.4002  1.4097 -0.6127
25096SOL     OW81123   9.379  10.425   8.589 -0.4432  0.5541 -0.8891
25096SOL    HW181124   9.355  10.517   8.590 -0.4280  0.6422  2.4325
25096SOL    HW281125   9.305  10.380   8.631  0.5970 -0.5832 -0.1904
25097SOL     OW81126   3.125   3.973   5.850  0.0691  0.0217  0.5385
25097SOL    HW181127   3.046   4.010   5.811 -1.1249 -0.6696  2.1664
25097SOL    HW281128   3.092   3.913   5.918  1.9883 -0.7843  0.8201
25098SOL     OW81129   9.587   2.399   0.020  0.0190 -0.0770  0.4451
25098SOL    HW181130   9.591   2.379   0.114  0.0731 -1.0421  0.2500
25098SOL    HW281131   9.522   2.469   0.014 -2.3807 -2.0690  0.9231
25099SOL     OW81132   3.347   7.977   8.692 -0.0855  0.0667  0.4156
25099SOL    HW181133   3.341   7.925   8.613 -1.3049  0.4101  0.2609
25099SOL    HW281134   3.398   8.054   8.666 -0.3457  0.1023  0.0070
25100SOL     OW81135   7.373   0.311   3.829 -0.6210 -0.5500  0.0897
25100SOL    HW181136   7.328   0.372   3.888 -1.1462  0.1554 -1.0077
25100SOL    HW281137   7.315   0.304   3.753 -0.2628 -1.9352 -0.0785
25101SOL     OW81138   7.263   7.562   1.329 -0.2018  0.1294  0.8459
25101SOL    HW181139   7.191   7.508   1.361  0.0642 -0.4425  0.4986
25101SOL    HW281140   7.270   7.540   1.236  0.9197 -0.4129  1.0447
25102SOL     OW81141   3.053   9.902   7.371  0.4032 -0.3240 -0.1969
25102SOL    HW181142   3.088   9.978   7.324 -2.2580  0.6761 -0.7258
25102SOL    HW281143   3.129   9.846   7.385  2.4641  2.3033  0.0123
25103SOL     OW81144  10.701   9.209   5.112  0.0290 -0.2308  0.1535
25103SOL    HW181145  10.749   9.245   5.186  0.8273 -1.1658  0.1160
25103SOL    HW281146  10.657   9.132   5.147 -0.3908 -0.1113 -0.1106
25104SOL     OW81147   8.399   1.122   1.131  0.8136 -0.0354  0.2148
25104SOL    HW181148   8.415   1.089   1.043 -2.0165 -0.4156 -0.2583
25104SOL    HW281149   8.379   1.215   1.118  1.6973  0.2288  0.6579
25105SOL     OW81150   6.415   1.385   0.813 -0.6868  0.2631 -0.2925
25105SOL    HW181151   6.473   1.459   0.834 -1.2361  0.3139  1.1101
25105SOL    HW281152   6.468   1.329   0.755  1.3898 -0.5119  2.1813
25106SOL     OW81153   0.563   9.586  10.435  0.6861 -0.2171 -0.2421
25106SOL    HW181154   0.540   9.545  10.518  1.0891 -2.7359 -1.2947
25106SOL    HW281155   0.485   9.636  10.411  0.1751 -0.3169  1.1338
25107SOL     OW81156  10.042   2.729  10.579 -0.5645 -0.2562 -0.4860
25107SOL    HW181157  10.035   2.645  10.535  0.0910  0.1473 -1.3793
25107SOL    HW281158  10.082   2.788  10.515  1.7543  0.0053  1.0659
25108SOL     OW81159   2.861   2.351   2.044 -0.1829 -0.1505 -0.3354
25108SOL    HW181160   2.835   2.357   1.952  2.5477 -0.4692 -1.2200
25108SOL    HW281161   2.881   2.441   2.069  1.6805 -0.3436 -0.9627
25109SOL     OW81162   7.166   9.078   3.377 -0.4094  0.5020 -0.1911
25109SOL    HW181163   7.156   9.167   3.409 -1.2059  0.1257  0.6466
25109SOL    HW281164   7.260   9.060   3.387  0.3804  2.2479 -3.2073
25110SOL     OW81165   4.596   6.385   7.640 -0.4993  0.2224  0.4127
25110SOL    HW181166   4.543   6.329   7.697 -2.2787  2.2215  0.8270
25110SOL    HW281167   4.548   6.387   7.557 -1.0030  1.8308  0.7042
25111SOL     OW81168   9.205   5.628   5.364  0.2398 -0.1608  0.3081
25111SOL    HW181169   9.145   5.700   5.383  0.8283 -0.0073  1.7026
25111SOL    HW281170   9.162   5.551   5.399  0.7007 -0.1000  1.0177
25112SOL     OW81171   8.623   6.680   8.517  0.3030 -0.2902  0.1526
25112SOL    HW181172   8.701   6.698   8.569 -0.1087 -2.7689  1.7947
25112SOL    HW281173   8.556   6.653   8.581 -0.5438 -2.4744 -1.4904
25113SOL     OW81174   5.902   2.223   5.651  0.4723  0.1548 -0.5529
25113SOL    HW181175   5.951   2.142   5.663 -2.0528 -1.1386  2.4274
25113SOL    HW281176   5.953   2.289   5.698  0.7624 -0.5251  0.1110
25114SOL     OW81177   7.558   3.366   9.386  0.4117  0.0543 -0.1144
25114SOL    HW181178   7.514   3.440   9.344  0.3308  0.3405  0.4677
25114SOL    HW281179   7.510   3.352   9.467  0.7518 -0.3057  0.0274
25115SOL     OW81180   7.551   8.142   4.364 -0.0334  0.0783 -0.2755
25115SOL    HW181181   7.587   8.130   4.276  0.7951  0.1959  0.0334
25115SOL    HW281182   7.483   8.076   4.372 -1.4300  1.2807 -1.6864
25116SOL     OW81183   3.134  10.528   2.415  0.5477 -0.3323  0.2088
25116SOL    HW181184   3.038  10.523   2.413  0.5270 -0.2097 -1.7718
25116SOL    HW281185   3.158  10.556   2.326  2.5715 -3.6299 -0.4615
25117SOL     OW81186   0.577   2.898   8.779 -0.5598 -0.2174  0.2274
25117SOL    HW181187   0.610   2.825   8.726  0.2729  1.0665 -1.1083
25117SOL    HW281188   0.568   2.971   8.717 -0.8360  0.9721  1.6047
25118SOL     OW81189   7.836   7.293   9.816 -0.0838 -0.1008 -0.1559
25118SOL    HW181190   7.895   7.331   9.751 -0.6574  1.1821  0.0515
25118SOL    HW281191   7.776   7.364   9.839 -1.0040 -1.0518  0.4721
25119SOL     OW81192   5.057   2.962   0.958  0.1943  0.4269  0.5216
25119SOL    HW181193   5.024   2.980   1.046 -0.5061 -0.7436  0.5263
25119SOL    HW281194   5.145   2.927   0.972  0.1589  0.4317  0.7539
25120SOL     OW81195   5.717   3.770   2.994 -0.0324  0.5543  0.5587
25120SOL    HW181196   5.660   3.782   3.070  3.3313 -1.5625  3.7326
25120SOL    HW281197   5.764   3.853   2.986 -1.2951  1.2422 -0.1751
25121SOL     OW81198   5.595   9.871   4.924 -0.3620 -0.0877  0.4137
25121SOL    HW181199   5.597   9.787   4.879 -0.6325  0.1871 -0.1082
25121SOL    HW281200   5.505   9.881   4.954  0.0436 -0.7882  2.0199
25122SOL     OW81201   6.758   8.647   4.937 -0.6372 -0.0433  0.2654
25122SOL    HW181202   6.706   8.724   4.913 -0.2242 -0.2340 -1.3759
25122SOL    HW281203   6.842   8.660   4.893 -1.0162 -2.0484 -1.2294
25123SOL     OW81204   5.780   0.232   1.711  0.2432 -0.9507  0.2307
25123SOL    HW181205   5.725   0.289   1.658  2.0734 -0.3962 -1.1727
25123SOL    HW281206   5.800   0.283   1.790  0.0290 -0.5448  0.0204
25124SOL     OW81207   1.451   1.181   0.100 -0.3170  0.2607  0.0156
25124SOL    HW181208   1.374   1.184   0.043 -0.1327  0.7574 -0.2192
25124SOL    HW281209   1.525   1.172   0.040 -0.2679 -1.8210  0.3087
25125SOL     OW81210   5.695   3.147   9.466  0.0965 -0.5941  0.0271
25125SOL    HW181211   5.616   3.140   9.413 -0.1127 -1.0311  0.3899
25125SOL    HW281212   5.723   3.057   9.478  0.1488 -0.4968  0.6465
25126SOL     OW81213   6.117   1.946   4.202  0.2280 -0.4359 -0.6457
25126SOL    HW181214   6.158   2.021   4.246  0.0800 -1.3027  1.0420
25126SOL    HW281215   6.141   1.956   4.110  0.9535  1.1961 -0.3061
25127SOL     OW81216   9.679   9.995   1.042  0.1039  0.1810 -0.1832
25127SOL    HW181217   9.602  10.014   0.989  0.3529 -2.6791 -1.7909
25127SOL    HW281218   9.743   9.962   0.979  1.9857  0.7058  1.3705
25128SOL     OW81219   5.449  10.064   6.411 -0.2418  0.0108 -0.1776
25128SOL    HW181220   5.412  10.090   6.495  1.0649  0.9150  0.1574
25128SOL    HW281221   5.378  10.074   6.349 -1.2733 -0.8004  0.8221
25129SOL     OW81222   5.535   1.514   8.184  0.3472 -0.4446 -0.2996
25129SOL    HW181223   5.628   1.528   8.164  0.0763  1.8791 -0.2283
25129SOL    HW281224   5.490   1.547   8.106 -0.4688  1.1138  0.7895
25130SOL     OW81225  10.112   0.333   9.973 -0.4187 -0.0121  0.5576
25130SOL    HW181226  10.116   0.238   9.959 -0.8396 -0.0690  0.8014
25130SOL    HW281227  10.042   0.344  10.038  0.0088  0.4214  0.9459
25131SOL     OW81228   4.912   4.514   1.909  0.1245  0.1769  0.4531
25131SOL    HW181229   4.986   4.484   1.960 -0.2425 -0.0268  0.8693
25131SOL    HW281230   4.856   4.437   1.899 -0.6701  0.6348  1.2662
25132SOL     OW81231   7.372   8.274  10.529  0.1765  0.4970 -0.0029
25132SOL    HW181232   7.431   8.253  10.600 -1.2281  1.0379  1.3882
25132SOL    HW281233   7.386   8.368  10.513  0.9983  0.2284 -0.9637
25133SOL     OW81234   2.338   0.898   3.880 -0.0076 -0.5412 -0.0012
25133SOL    HW181235   2.305   0.920   3.793  0.2744  0.0675  0.0371
25133SOL    HW281236   2.391   0.819   3.867  0.4878 -0.1319 -0.4823
25134SOL     OW81237   5.917   8.780   1.301 -0.6713 -0.5859  0.3805
25134SOL    HW181238   5.941   8.826   1.220  1.5031  0.5525  1.5901
25134SOL    HW281239   5.837   8.825   1.330 -1.6988 -1.2505 -1.2703
25135SOL     OW81240   8.739   3.078   5.442  0.2715  0.1947 -0.2868
25135SOL    HW181241   8.684   3.087   5.364 -0.6979  1.5216  0.5037
25135SOL    HW281242   8.818   3.033   5.410 -1.0839 -1.4649 -1.5231
25136SOL     OW81243   4.309   0.415   2.470 -0.0170 -0.1147 -0.8657
25136SOL    HW181244   4.376   0.351   2.497 -1.3450 -1.4050 -0.4663
25136SOL    HW281245   4.323   0.490   2.528  0.7539 -0.5729 -0.4377
25137SOL     OW81246   0.663   2.778   5.016  0.2690 -0.4562  0.2716
25137SOL    HW181247   0.571   2.788   4.990 -0.3952 -1.5485  1.9736
25137SOL    HW281248   0.659   2.726   5.097  2.3564  0.0280  0.7429
25138SOL     OW81249   3.152   1.492   2.146  0.5650  0.1069 -0.7760
25138SOL    HW181250   3.092   1.419   2.165  2.4282 -1.5063 -0.8104
25138SOL    HW281251   3.100   1.570   2.166 -1.8467 -1.1410 -1.6498
25139SOL     OW81252   3.817   0.680   7.556 -0.3697  0.0228 -0.2362
25139SOL    HW181253   3.880   0.647   7.492 -0.1979 -0.4677  0.1782
25139SOL    HW281254   3.871   0.708   7.630 -0.6415 -0.6095  0.2117
25140SOL     OW81255   2.710   7.190   9.206 -0.4110 -0.5267 -0.2132
25140SOL    HW181256   2.714   7.190   9.110  1.2208  0.1590 -0.1699
25140SOL    HW281257   2.618   7.207   9.226 -0.5257  0.7079 -1.6551
25141SOL     OW81258   3.957   4.458   4.905 -0.1937 -0.0276 -0.1619
25141SOL    HW181259   3.955   4.539   4.853 -0.5334  1.7559  2.4591
25141SOL    HW281260   3.866   4.429   4.907 -0.2936  0.3004  0.0435
25142SOL     OW81261   6.406   1.535   6.741  0.0491  0.2134 -0.2872
25142SOL    HW181262   6.321   1.492   6.748  0.0241  0.3818  0.5853
25142SOL    HW281263   6.455   1.483   6.678 -0.9530  0.5420 -1.3606
25143SOL     OW81264   3.052   9.213   8.594 -0.1216  0.2067 -0.1771
25143SOL    HW181265   2.977   9.156   8.613  0.0207  0.1189  0.1345
25143SOL    HW281266   3.070   9.257   8.677 -0.7813  1.3663 -0.6416
25144SOL     OW81267   5.645   9.776   8.298  0.4763 -0.1288  0.4737
25144SOL    HW181268   5.607   9.855   8.334  1.4949  0.3963  0.4458
25144SOL    HW281269   5.605   9.767   8.211  0.8738  0.7479  0.1965
25145SOL     OW81270   6.349   1.719   6.514 -0.3930 -0.4563  0.0726
25145SOL    HW181271   6.354   1.636   6.467 -1.2203 -0.9588  0.8547
25145SOL    HW281272   6.424   1.718   6.573  0.1043 -0.2390 -0.5352
25146SOL     OW81273   0.570   7.975   3.269  0.0394  0.6322 -1.1076
25146SOL    HW181274   0.503   7.987   3.201 -0.7086  1.2112 -0.2902
25146SOL    HW281275   0.557   8.049   3.329  0.5389  0.0088 -0.2095
25147SOL     OW81276   3.591   8.310   9.344  0.1715 -0.5911 -0.0830
25147SOL    HW181277   3.504   8.320   9.305 -0.1207 -0.3680  0.6040
25147SOL    HW281278   3.629   8.398   9.340 -0.4397 -0.2169  1.4334
25148SOL     OW81279   6.711   8.953   7.999 -0.8775  0.1180 -0.1655
25148SOL    HW181280   6.637   8.965   8.059 -1.0824 -0.5492 -0.2765
25148SOL    HW281281   6.777   9.014   8.031 -0.8715 -0.4220  0.9311
25149SOL     OW81282   7.619   3.904   7.208 -0.0801 -0.1349 -0.9434
25149SOL    HW181283   7.579   3.818   7.192 -0.8984  0.3852 -1.8735
25149SOL    HW281284   7.704   3.885   7.247  0.3333 -1.4351 -2.3644
25150SOL     OW81285   4.413   3.322   0.574  0.0368 -0.1187  0.3855
25150SOL    HW181286   4.484   3.353   0.518 -0.2221  1.7624  1.0279
25150SOL    HW281287   4.447   3.331   0.663 -1.1505  1.3617  0.7365
25151SOL     OW81288   9.432   5.324   3.912 -0.0759 -0.2422  0.1797
25151SOL    HW181289   9.498   5.344   3.979 -0.6975  1.3893  0.3457
25151SOL    HW281290   9.420   5.407   3.866 -0.0375 -1.2128 -1.6396
25152SOL     OW81291   9.191   6.786   0.339 -0.4695 -0.0037  0.4086
25152SOL    HW181292   9.110   6.770   0.388 -1.1164 -0.5893 -0.8324
25152SOL    HW281293   9.206   6.880   0.349 -1.5501  0.1927  0.2742
25153SOL     OW81294   2.212   7.498   2.603 -0.1499 -0.2054  0.2487
25153SOL    HW181295   2.268   7.421   2.594  0.6485  0.1735  1.6701
25153SOL    HW281296   2.271   7.568   2.631 -1.3504  0.0742  2.3154
25154SOL     OW81297   1.392   6.928   8.651 -0.3021 -1.1501  0.2056
25154SOL    HW181298   1.421   6.976   8.729  0.1724 -1.3181  0.1327
25154SOL    HW281299   1.450   6.959   8.581 -2.6174  1.3286 -0.8179
25155SOL     OW81300   9.291   1.722   3.400  0.1503 -0.1101  0.5161
25155SOL    HW181301   9.374   1.699   3.357  0.1925 -0.3978  0.7476
25155SOL    HW281302   9.299   1.816   3.418  0.2709 -0.0585  0.2020
25156SOL     OW81303   8.632   7.662   1.214 -0.1453  0.2112  0.0775
25156SOL    HW181304   8.726   7.649   1.206  0.0264  0.9128  0.8136
25156SOL    HW281305   8.594   7.615   1.140  0.6983 -1.0845  0.4478
25157SOL     OW81306   6.313   0.198   7.483 -0.4588 -1.0773 -0.3855
25157SOL    HW181307   6.362   0.201   7.565  0.1059 -0.7075 -0.7268
25157SOL    HW281308   6.367   0.143   7.425 -0.0767 -0.1023 -0.9857
25158SOL     OW81309   2.289   4.432   0.872  0.4233 -0.4571  0.0734
25158SOL    HW181310   2.353   4.502   0.883  1.6172 -1.4418 -0.3413
25158SOL    HW281311   2.261   4.440   0.781 -0.5527  0.3623  0.4241
25159SOL     OW81312   9.689   0.812   0.000 -0.5688 -0.1762  0.4760
25159SOL    HW181313   9.676   0.780  -0.089 -0.0563 -0.1908  0.4020
25159SOL    HW281314   9.611   0.863   0.019 -0.5658  0.0399 -0.0728
25160SOL     OW81315   0.234   1.089   4.545  0.3713  0.4554 -0.1781
25160SOL    HW181316   0.243   1.000   4.579 -0.1499  0.4724  0.0199
25160SOL    HW281317   0.186   1.079   4.463  1.2443  0.4588 -0.7058
25161SOL     OW81318   6.728   3.365   3.101 -0.4293  0.3850 -0.3275
25161SOL    HW181319   6.711   3.364   3.007  0.1469 -0.4795 -0.4318
25161SOL    HW281320   6.788   3.438   3.115 -0.0337  0.1327 -0.7173
25162SOL     OW81321   4.960   2.772   5.106 -0.4443  0.5968  0.2266
25162SOL    HW181322   4.998   2.787   5.020 -1.0682  0.8459 -0.0166
25162SOL    HW281323   4.865   2.766   5.089 -0.4785 -0.6531  0.7105
25163SOL     OW81324   4.082   7.667   3.117 -0.0498 -0.0881 -0.0216
25163SOL    HW181325   3.995   7.661   3.079 -0.3097  1.0337  0.3610
25163SOL    HW281326   4.140   7.678   3.041 -0.2390 -0.8028 -0.2740
25164SOL     OW81327   1.547   7.271   0.583  0.2750  0.1665 -0.1031
25164SOL    HW181328   1.590   7.353   0.560 -0.6319  0.4714 -0.7666
25164SOL    HW281329   1.462   7.296   0.618 -0.2661 -0.4979 -0.8972
25165SOL     OW81330   9.197   6.383   3.619  0.2778 -0.5914  0.3607
25165SOL    HW181331   9.203   6.443   3.693 -1.3909 -1.2398  1.0745
25165SOL    HW281332   9.174   6.438   3.545 -1.0833 -0.2888  0.9761
25166SOL     OW81333   2.744   9.633   1.280  0.1269  0.3885 -0.7873
25166SOL    HW181334   2.759   9.588   1.196 -0.1199  0.5219 -0.9064
25166SOL    HW281335   2.650   9.623   1.295 -0.0424  1.4095 -1.1311
25167SOL     OW81336   0.015   6.501   0.294  0.2473  0.4088 -1.0004
25167SOL    HW181337   0.025   6.406   0.285  1.1909  0.4277 -0.4036
25167SOL    HW281338   0.086   6.526   0.354 -1.1175  1.2347  0.3410
25168SOL     OW81339   9.848   7.396   3.477 -0.2647 -0.1000 -0.1997
25168SOL    HW181340   9.845   7.412   3.383 -0.2399  0.9817 -0.0354
25168SOL    HW281341   9.941   7.397   3.499 -0.2967  0.4181 -0.0585
25169SOL     OW81342   3.707   0.993   3.764  0.5257 -0.5565  0.4197
25169SOL    HW181343   3.699   0.929   3.835 -2.1198 -2.2665 -1.2584
25169SOL    HW281344   3.661   1.070   3.796 -1.0033 -1.4581  0.4548
25170SOL     OW81345   3.623   3.891   9.103  0.1232  0.2588  0.4134
25170SOL    HW181346   3.650   3.850   9.185 -0.6124 -2.1218 -0.4625
25170SOL    HW281347   3.570   3.966   9.130 -1.5459 -1.4411  2.2099
25171SOL     OW81348   3.943   6.970   7.288  0.1770  0.0819  0.1253
25171SOL    HW181349   4.002   7.043   7.271  1.9878 -1.0031  1.4660
25171SOL    HW281350   3.913   6.943   7.201  0.3598  1.6643 -0.4644
25172SOL     OW81351   8.361   1.124   4.157 -0.4804 -0.0302  0.0831
25172SOL    HW181352   8.410   1.071   4.094 -1.2953  1.2291 -1.6948
25172SOL    HW281353   8.420   1.132   4.232  0.9646 -0.7616 -0.9169
25173SOL     OW81354   9.346   0.973  10.407  0.3382  0.2673 -0.0991
25173SOL    HW181355   9.315   0.898  10.459  1.5312  1.2897  2.2090
25173SOL    HW281356   9.275   1.037  10.414  0.4979  0.4049  0.3147
25174SOL     OW81357  10.674   0.458   0.002  0.0209  0.0851  0.1554
25174SOL    HW181358  10.735   0.412  -0.055 -1.6789 -1.9266 -0.1445
25174SOL    HW281359  10.622   0.512  -0.058  0.8422  1.1165  0.3212
25175SOL     OW81360   3.733   8.934   1.647 -0.0898  0.1863  0.2224
25175SOL    HW181361   3.661   8.877   1.619 -0.8836 -0.3556  3.0335
25175SOL    HW281362   3.691   9.003   1.698  1.2443  0.9383  0.3517
25176SOL     OW81363   7.847   7.347   6.870 -0.2827  0.0716 -0.3315
25176SOL    HW181364   7.782   7.399   6.917 -0.2371  0.5245 -0.7633
25176SOL    HW281365   7.870   7.277   6.931  0.1254  0.9202  0.5168
25177SOL     OW81366   5.343   3.077   5.352  0.4681 -0.3374 -0.0710
25177SOL    HW181367   5.369   3.047   5.265  0.0106 -0.7340 -0.0736
25177SOL    HW281368   5.370   3.006   5.410  0.5529 -0.1799  0.0822
25178SOL     OW81369   7.855   1.495   7.004  0.0752 -0.1453  0.1836
25178SOL    HW181370   7.871   1.447   6.922  1.7040 -1.0712  0.9991
25178SOL    HW281371   7.913   1.571   6.999 -1.4249  1.0142 -0.4459
25179SOL     OW81372  10.590   3.344   8.333 -0.2432  0.4434 -0.6659
25179SOL    HW181373  10.513   3.287   8.332 -1.0322  1.2990  1.9328
25179SOL    HW281374  10.649   3.303   8.397  0.9487  0.4560 -1.7179
25180SOL     OW81375   6.236   1.379   4.614  0.6445  0.5642  0.3886
25180SOL    HW181376   6.153   1.387   4.568 -0.2317  0.9490  1.9925
25180SOL    HW281377   6.218   1.405   4.704  1.9845 -1.4071  1.3231
25181SOL     OW81378   7.926   6.696   8.981  0.0186  0.0257 -0.2120
25181SOL    HW181379   7.937   6.791   8.976 -1.6896  0.1894 -2.5502
25181SOL    HW281380   7.940   6.666   8.892  0.0857 -1.8746  0.4066
25182SOL     OW81381   8.230  10.082   8.333 -0.4770 -0.4620  0.0586
25182SOL    HW181382   8.325  10.096   8.331 -0.5449 -0.0197 -0.3406
25182SOL    HW281383   8.219   9.989   8.317  0.0065 -1.0310  2.5959
25183SOL     OW81384   4.860   5.704   3.546  0.3986 -0.1646  0.3819
25183SOL    HW181385   4.814   5.758   3.610 -0.9383  0.5345 -1.0880
25183SOL    HW281386   4.900   5.767   3.486  0.0612 -0.7996 -0.5305
25184SOL     OW81387   8.451   1.623   1.725  0.0629 -0.0931  0.2994
25184SOL    HW181388   8.518   1.593   1.786 -0.5684  1.5614  1.8846
25184SOL    HW281389   8.385   1.553   1.728  0.1318 -0.1374  1.3763
25185SOL     OW81390   1.761   7.596   9.357  0.1653 -0.6560 -0.4655
25185SOL    HW181391   1.810   7.538   9.416 -0.1263 -1.6688 -1.1757
25185SOL    HW281392   1.704   7.536   9.308 -0.8077  0.3510 -0.5980
25186SOL     OW81393   7.899   5.277   8.507  0.1609 -0.5182 -0.2349
25186SOL    HW181394   7.844   5.245   8.436  0.9061 -1.8535 -0.2484
25186SOL    HW281395   7.964   5.333   8.464 -1.3492  1.4147 -0.1721
25187SOL     OW81396   6.798   0.281   7.015 -0.1274 -0.5586 -0.4784
25187SOL    HW181397   6.764   0.283   7.105  1.7142  0.5977  0.2539
25187SOL    HW281398   6.817   0.189   6.999  0.6444 -0.6518  0.8009
25188SOL     OW81399   1.370   5.363   2.736 -0.3159  0.4455  0.0375
25188SOL    HW181400   1.393   5.299   2.804 -0.0935 -0.0184 -0.4626
25188SOL    HW281401   1.347   5.310   2.659 -0.4132  0.9616 -0.3002
25189SOL     OW81402   4.349   7.456   8.934 -0.1284 -0.0423 -0.9061
25189SOL    HW181403   4.280   7.400   8.897 -0.8402  1.0156 -1.2270
25189SOL    HW281404   4.301   7.521   8.985  0.6877  0.3219 -0.5969
25190SOL     OW81405   0.100   2.947   7.047 -0.1048  0.1199  0.5879
25190SOL    HW181406   0.017   2.969   7.004  0.3036  1.9716  0.6863
25190SOL    HW281407   0.074   2.915   7.134 -0.8839 -2.8374 -0.5933
25191SOL     OW81408   6.027   4.260   6.719 -0.3374 -0.4103 -0.5638
25191SOL    HW181409   6.116   4.290   6.737 -0.3368  0.3645 -1.7830
25191SOL    HW281410   5.973   4.311   6.780  0.0956 -1.4961  0.7821
25192SOL     OW81411   5.676  10.361   3.896  0.2124  0.1983  0.2635
25192SOL    HW181412   5.597  10.397   3.936  0.6410  1.3083  0.1695
25192SOL    HW281413   5.717  10.437   3.853  1.0568 -0.4582 -0.1211
25193SOL     OW81414   3.780   0.405   0.803  0.0483  0.6727 -0.0723
25193SOL    HW181415   3.838   0.480   0.820  0.1432  0.2739  1.5102
25193SOL    HW281416   3.767   0.365   0.889 -2.0424  0.3527 -0.4869
25194SOL     OW81417   8.327   0.597   1.671  0.3728 -0.2530  0.3448
25194SOL    HW181418   8.376   0.565   1.595  1.2773  0.0961  0.7684
25194SOL    HW281419   8.394   0.614   1.737 -0.3265  0.2200  0.9433
25195SOL     OW81420   5.246   4.701   9.142  0.3166  0.2436  0.4703
25195SOL    HW181421   5.251   4.650   9.061  0.6481  0.0391  0.6128
25195SOL    HW281422   5.281   4.787   9.119  0.8466  0.0408  0.5033
25196SOL     OW81423   8.542   5.703   9.437 -0.2694  0.0112 -0.2400
25196SOL    HW181424   8.564   5.611   9.449 -0.5864  0.1763  2.1892
25196SOL    HW281425   8.476   5.703   9.367 -2.2183 -1.9837  1.4224
25197SOL     OW81426   1.406   2.019   5.154 -0.2838  0.2706  0.1503
25197SOL    HW181427   1.336   2.018   5.219 -0.5359 -0.6763 -0.1257
25197SOL    HW281428   1.452   1.937   5.167  1.4364  1.3216  1.0142
25198SOL     OW81429   8.267   7.683   3.434  0.0204  0.3562 -0.4542
25198SOL    HW181430   8.339   7.706   3.375  0.6338 -0.4570 -0.0391
25198SOL    HW281431   8.290   7.726   3.517 -0.4025  0.7818 -0.5520
25199SOL     OW81432   9.937   4.607   5.179  0.0274 -0.3498  0.3841
25199SOL    HW181433   9.886   4.671   5.229  1.8322 -0.4189  2.4317
25199SOL    HW281434   9.919   4.524   5.221  1.3028 -0.4690  0.7178
25200SOL     OW81435   5.360   5.455   4.337  0.0803  0.3521  0.5036
25200SOL    HW181436   5.381   5.453   4.244  0.9530  1.9117  0.6426
25200SOL    HW281437   5.268   5.430   4.341 -0.1570  0.9227 -0.8463
25201SOL     OW81438   1.906  10.610   5.045 -0.2218 -0.1747 -0.3310
25201SOL    HW181439   2.002  10.603   5.039 -0.2937 -0.7685 -0.8802
25201SOL    HW281440   1.875  10.573   4.963 -0.9527 -0.5137  0.0968
25202SOL     OW81441   5.217   5.574   1.297 -0.1166 -0.0612 -0.1005
25202SOL    HW181442   5.299   5.529   1.277 -0.3769 -0.1764 -0.9682
25202SOL    HW281443   5.158   5.506   1.327  0.4696  0.2059  1.7625
25203SOL     OW81444   9.112   9.479   2.202 -0.8207 -0.2996 -0.2525
25203SOL    HW181445   9.159   9.543   2.149 -1.2279 -0.1187 -0.3953
25203SOL    HW281446   9.027   9.519   2.219 -0.5374 -0.1530  0.9277
25204SOL     OW81447   0.356   9.545   1.308 -0.1690  0.4660  0.5439
25204SOL    HW181448   0.440   9.589   1.321  1.0022 -1.4388 -0.1002
25204SOL    HW281449   0.337   9.504   1.392 -0.3609  0.7542  0.6403
25205SOL     OW81450   5.907   0.065   4.921 -0.3333 -0.6058 -0.4082
25205SOL    HW181451   5.983   0.034   4.971 -1.2811  1.4654  2.6572
25205SOL    HW281452   5.940   0.078   4.832  2.1413 -2.3276  0.1576
25206SOL     OW81453   6.174   9.784   7.823 -0.5833  0.1397 -0.3383
25206SOL    HW181454   6.167   9.825   7.736  1.3221 -1.5453 -1.3660
25206SOL    HW281455   6.194   9.692   7.804  3.0321  0.3032  1.8152
25207SOL     OW81456   0.975  10.381   3.450 -0.2689 -0.5960 -0.1251
25207SOL    HW181457   0.940  10.292   3.443 -2.4268  0.1570  0.1722
25207SOL    HW281458   0.993  10.407   3.359 -0.7005 -0.9538 -0.3153
25208SOL     OW81459   1.433   0.740   0.877 -0.3882  0.0336  0.2898
25208SOL    HW181460   1.340   0.733   0.900 -0.0691 -1.5522  1.2564
25208SOL    HW281461   1.435   0.797   0.800 -2.2371 -0.5608 -0.2441
25209SOL     OW81462   3.578   8.131   2.704  0.2407 -0.2107 -0.2015
25209SOL    HW181463   3.565   8.039   2.723 -1.6280  0.2391  0.9756
25209SOL    HW281464   3.638   8.162   2.772 -0.5820 -0.1702  0.5053
25210SOL     OW81465   6.339   2.773   7.212  0.3456 -0.1885 -0.0235
25210SOL    HW181466   6.409   2.782   7.277  0.1926  0.6430  0.0430
25210SOL    HW281467   6.307   2.863   7.200 -0.2189 -0.4635 -0.5929
25211SOL     OW81468   4.664   6.448   4.630  0.1535  0.4392  0.4197
25211SOL    HW181469   4.619   6.380   4.581 -0.2230  0.4694  0.7220
25211SOL    HW281470   4.609   6.526   4.620  1.2975  1.1170 -1.1428
25212SOL     OW81471   2.261  10.469   9.154  0.2161 -0.2375  0.5340
25212SOL    HW181472   2.258  10.468   9.249  1.1047 -1.5401  0.5741
25212SOL    HW281473   2.248  10.377   9.128  0.7342 -0.0285 -0.5605
25213SOL     OW81474   0.098   4.974   0.465  0.2441  0.1224  0.4945
25213SOL    HW181475   0.131   4.990   0.553  1.5755  0.8683 -0.1262
25213SOL    HW281476   0.162   4.915   0.425  0.3217  0.7946 -0.3960
25214SOL     OW81477   6.951   1.228   9.113  0.3041 -0.3035 -0.6195
25214SOL    HW181478   6.888   1.288   9.074  0.4754 -0.1237 -0.6226
25214SOL    HW281479   6.938   1.145   9.067 -0.5059 -0.5041 -0.0521
25215SOL     OW81480   4.556   5.430   0.476  0.0438  0.3747  0.7036
25215SOL    HW181481   4.648   5.411   0.457  0.3511  0.3357  2.1330
25215SOL    HW281482   4.526   5.477   0.399  1.0070 -0.4007 -0.1816
25216SOL     OW81483   1.885   6.854   2.036  0.1499  0.0214 -0.1772
25216SOL    HW181484   1.913   6.903   1.959 -1.4258 -0.3986 -1.0455
25216SOL    HW281485   1.873   6.921   2.104  1.9734  0.3440 -0.1193
25217SOL     OW81486   2.121   1.639   5.056  0.3373  0.0484  0.3858
25217SOL    HW181487   2.159   1.561   5.015  2.4839  1.6266 -0.8504
25217SOL    HW281488   2.038   1.609   5.092  0.1598 -2.3551 -1.7249
25218SOL     OW81489   7.386   2.917   3.682 -0.2201  0.3999  0.3600
25218SOL    HW181490   7.416   2.988   3.625  0.3771 -1.7739 -2.2632
25218SOL    HW281491   7.465   2.867   3.701 -1.0709 -1.6817 -1.1377
25219SOL     OW81492   0.727   5.927   6.407 -1.2509  0.3368  0.1587
25219SOL    HW181493   0.791   5.977   6.457 -2.0988  2.0032 -0.3728
25219SOL    HW281494   0.737   5.958   6.317 -1.1116 -1.1871 -0.3804
25220SOL     OW81495   2.801   1.394   5.127 -0.2576  0.5841 -0.1868
25220SOL    HW181496   2.710   1.375   5.102 -0.3895  1.3426 -0.2841
25220SOL    HW281497   2.840   1.432   5.049 -0.2925  1.7026  0.3322
25221SOL     OW81498   6.379   7.436   6.496 -0.4585  0.0732  0.0519
25221SOL    HW181499   6.431   7.423   6.417 -1.4602  1.4255 -0.8777
25221SOL    HW281500   6.431   7.397   6.566  1.5360  0.8501 -0.9251
25222SOL     OW81501   6.825   2.793   4.031 -0.3426  0.0066 -0.6723
25222SOL    HW181502   6.836   2.868   3.973 -0.5775 -0.0219 -0.7549
25222SOL    HW281503   6.868   2.819   4.113  0.9021 -0.3602 -1.1994
25223SOL     OW81504   5.525   0.233  10.398 -0.0353  0.1750  0.5982
25223SOL    HW181505   5.477   0.316  10.391 -1.4737 -0.3654  3.0076
25223SOL    HW281506   5.458   0.166  10.394  0.8914 -0.7838  0.7468
25224SOL     OW81507   4.201   6.573   4.530 -0.2648  0.3931 -0.4950
25224SOL    HW181508   4.257   6.648   4.550  0.9771 -0.8689  1.0565
25224SOL    HW281509   4.116   6.596   4.567  0.0207  1.1700 -0.3106
25225SOL     OW81510   5.069   4.263   6.602  0.1632  0.0475  0.4332
25225SOL    HW181511   5.152   4.275   6.647  2.2580 -3.9375 -1.8591
25225SOL    HW281512   5.080   4.308   6.518 -1.2549  1.9676  1.1927
25226SOL     OW81513   2.650  10.315   2.090 -0.1960  0.0300 -0.1643
25226SOL    HW181514   2.673  10.335   1.999 -1.6970 -1.6270 -0.9701
25226SOL    HW281515   2.655  10.219   2.095  1.5866  0.1762  2.0326
25227SOL     OW81516   7.750   6.250   8.085  0.0097  0.0774  0.4979
25227SOL    HW181517   7.683   6.315   8.062  0.8160  0.6844 -0.2210
25227SOL    HW281518   7.815   6.257   8.014  1.2453  0.1078  1.6008
25228SOL     OW81519   4.734   5.720   5.976 -0.3916  0.7731 -0.2162
25228SOL    HW181520   4.784   5.798   6.000  1.0473 -0.1762  0.0342
25228SOL    HW281521   4.731   5.668   6.056  1.0258 -0.6237 -0.9967
25229SOL     OW81522   0.191   2.040   9.543 -0.1325  0.6771  0.0477
25229SOL    HW181523   0.190   2.132   9.517  0.0850  1.0093  1.1546
25229SOL    HW281524   0.139   1.996   9.476 -0.4013  1.6293 -0.3960
25230SOL     OW81525   6.749   4.222   2.299  0.5770  0.4747 -0.4719
25230SOL    HW181526   6.723   4.312   2.281 -0.3331  0.5085  0.8695
25230SOL    HW281527   6.761   4.218   2.394 -1.4929 -1.2767 -0.1845
25231SOL     OW81528   3.731   5.810   8.640 -0.2374  0.1905 -0.3544
25231SOL    HW181529   3.689   5.737   8.596 -0.0188 -1.2548  1.7106
25231SOL    HW281530   3.662   5.851   8.691  0.2140 -0.3936  0.7593
25232SOL     OW81531   9.659   5.180   4.150  0.3411 -0.2928  0.0597
25232SOL    HW181532   9.698   5.212   4.069  0.9686 -1.3240 -0.0636
25232SOL    HW281533   9.670   5.085   4.146 -1.2095 -0.5273  0.5380
25233SOL     OW81534   0.180   7.205   0.514  0.3447  0.2772 -0.8244
25233SOL    HW181535   0.207   7.221   0.424  0.5679  0.3619 -0.7430
25233SOL    HW281536   0.111   7.139   0.508  2.2687 -1.8445 -0.8390
25234SOL     OW81537   2.277   1.265   0.570 -0.2484  0.0465 -0.6235
25234SOL    HW181538   2.351   1.311   0.609  0.0285 -0.2911 -0.7549
25234SOL    HW281539   2.212   1.334   0.555 -1.0189 -0.0079  1.8999
25235SOL     OW81540   1.177   0.152   5.920 -0.1867  0.0416  0.4445
25235SOL    HW181541   1.085   0.128   5.915 -0.0950 -0.2444  0.1557
25235SOL    HW281542   1.219   0.079   5.965 -0.1186  0.2179  0.6680
25236SOL     OW81543  10.438   0.245   0.482 -0.2010 -0.3140  0.5715
25236SOL    HW181544  10.488   0.310   0.531 -1.9643  0.0232  2.0205
25236SOL    HW281545  10.427   0.283   0.395 -1.3319  1.4581  1.4300
25237SOL     OW81546  10.618   1.344   7.825 -0.0064 -0.2067  0.0519
25237SOL    HW181547  10.532   1.345   7.781 -0.0309 -2.0356  0.0141
25237SOL    HW281548  10.626   1.432   7.861 -3.6509 -0.9826  3.4344
25238SOL     OW81549   7.442   9.297   6.120  0.9879 -0.3891 -0.7646
25238SOL    HW181550   7.394   9.345   6.187  3.7129 -0.2824  1.3003
25238SOL    HW281551   7.396   9.214   6.112 -0.2764  0.1999  0.1352
25239SOL     OW81552   1.542  10.319   3.066  0.3843  0.0025 -0.0200
25239SOL    HW181553   1.564  10.268   3.144 -0.6216 -2.8803 -1.4981
25239SOL    HW281554   1.623  10.366   3.045  1.4452 -1.1411  1.3067
25240SOL     OW81555   7.874   9.929   2.800  0.0007  0.3426 -0.4030
25240SOL    HW181556   7.833   9.885   2.726 -0.4094 -0.9845  0.5569
25240SOL    HW281557   7.953   9.877   2.818 -0.5921 -0.1692  0.8767
25241SOL     OW81558   5.484   9.743   8.077 -0.0302 -0.3741 -0.3609
25241SOL    HW181559   5.390   9.760   8.068  0.2249  0.3620 -2.0330
25241SOL    HW281560   5.519   9.754   7.989  1.8645  0.9000  0.4711
25242SOL     OW81561   3.992   0.813   2.119 -0.4512  0.1317  0.8836
25242SOL    HW181562   4.069   0.868   2.130 -0.1112 -0.4623  1.5434
25242SOL    HW281563   3.919   0.875   2.114 -0.0755  0.6512  1.6346
25243SOL     OW81564   2.023   9.688   1.169  0.0030  0.2622 -0.7212
25243SOL    HW181565   2.043   9.615   1.110  0.1086  1.4790 -2.2439
25243SOL    HW281566   2.087   9.755   1.147  0.1917  0.6867  0.9725
25244SOL     OW81567   0.106  10.264   7.483 -0.2992 -0.2547 -0.2222
25244SOL    HW181568   0.098  10.335   7.546 -0.1987  0.7483 -1.3121
25244SOL    HW281569   0.111  10.184   7.536  3.6977  0.7691  1.2998
25245SOL     OW81570   3.381   3.468   4.577  0.2501 -0.4491  0.2353
25245SOL    HW181571   3.330   3.407   4.524  1.3450 -1.0553 -0.1646
25245SOL    HW281572   3.326   3.546   4.585 -0.4421 -0.8215 -0.7450
25246SOL     OW81573   1.964   1.981   5.184  0.4870 -0.0290 -0.5987
25246SOL    HW181574   1.952   2.076   5.184  1.1447  0.0532 -0.7194
25246SOL    HW281575   2.058   1.968   5.197  0.3990 -0.6651 -0.5687
25247SOL     OW81576   3.023   6.213   8.259 -0.7741 -0.5241  0.6651
25247SOL    HW181577   3.089   6.245   8.198 -1.1575 -0.2252  0.4047
25247SOL    HW281578   2.942   6.210   8.208 -0.5078 -3.2545  0.2388
25248SOL     OW81579   8.099   9.052   4.012 -0.0711  0.4230 -0.7160
25248SOL    HW181580   8.117   9.009   3.928 -0.9824 -1.2694 -0.1077
25248SOL    HW281581   8.064   9.137   3.989 -2.9096 -1.0159 -2.1943
25249SOL     OW81582   7.335   6.307   8.933 -0.1684 -0.4886 -0.4373
25249SOL    HW181583   7.357   6.223   8.894  1.5030 -1.0863  1.6294
25249SOL    HW281584   7.381   6.308   9.017 -0.3509  2.3754 -0.2613
25250SOL     OW81585   7.239   9.726   2.211 -0.6647  0.5068 -0.0406
25250SOL    HW181586   7.306   9.701   2.148 -0.5109  0.2728  0.2104
25250SOL    HW281587   7.279   9.711   2.297 -1.1297  0.0864  0.1144
25251SOL     OW81588   8.543   1.916   4.552 -0.2914 -0.2190  0.2047
25251SOL    HW181589   8.551   1.986   4.617  1.0605 -1.7414  1.8003
25251SOL    HW281590   8.620   1.927   4.496  0.3570 -0.8465  0.9433
25252SOL     OW81591   3.464   8.499  10.147 -0.9875  0.1847  0.2924
25252SOL    HW181592   3.507   8.453  10.219 -0.5360 -0.0004 -0.0911
25252SOL    HW281593   3.371   8.482  10.160 -0.7389 -2.7063 -1.0785
25253SOL     OW81594   2.868   4.997   8.868  0.0524 -0.3908  0.5679
25253SOL    HW181595   2.902   5.044   8.944 -1.2698 -0.6151  1.3297
25253SOL    HW281596   2.814   4.927   8.906 -1.3706  0.0493 -0.5813
25254SOL     OW81597  10.452   7.785   2.709 -0.0176  0.1706  0.4335
25254SOL    HW181598  10.425   7.694   2.702 -0.2304  0.2159  0.6507
25254SOL    HW281599  10.385   7.834   2.661 -0.0470  0.2356  0.5405
25255SOL     OW81600   3.908   8.312   1.371 -0.0296 -0.1830 -0.0925
25255SOL    HW181601   3.913   8.341   1.462 -1.7215 -1.4751  0.4669
25255SOL    HW281602   3.973   8.366   1.325  1.7697 -0.3244  2.0711
25256SOL     OW81603   7.441   9.891   5.532  0.0361  0.5613  0.5117
25256SOL    HW181604   7.424   9.949   5.607 -2.3860 -1.9452  2.0721
25256SOL    HW281605   7.378   9.919   5.466  0.5225  1.2054  0.3051
25257SOL     OW81606   4.056   1.999   2.562 -0.3631 -0.5293  0.2183
25257SOL    HW181607   4.109   2.006   2.483 -2.0417  1.0843 -0.8247
25257SOL    HW281608   4.038   1.905   2.570  2.6072 -1.1840  0.6943
25258SOL     OW81609   3.342   9.013   0.748  0.1007 -0.6948  0.2794
25258SOL    HW181610   3.314   9.105   0.747  1.2650 -0.2607 -2.6318
25258SOL    HW281611   3.289   8.972   0.680  2.4049 -1.1791 -1.3011
25259SOL     OW81612   1.668   7.814   2.343  0.2587  0.0496  0.2669
25259SOL    HW181613   1.711   7.735   2.309 -0.3422 -0.1841  0.0249
25259SOL    HW281614   1.691   7.882   2.280  0.4270 -0.0285  0.2423
25260SOL     OW81615   3.688   6.487   0.298  0.9899 -0.6547 -0.4739
25260SOL    HW181616   3.764   6.484   0.239 -0.0878 -0.4497 -1.9155
25260SOL    HW281617   3.655   6.397   0.299 -1.3594  0.0089 -3.4767
25261SOL     OW81618   0.621   3.961   0.866 -0.4711 -0.2922 -0.1892
25261SOL    HW181619   0.624   3.993   0.776  1.5634  0.9808  0.2408
25261SOL    HW281620   0.590   4.037   0.916  0.6741 -0.1919  0.4086
25262SOL     OW81621   7.338   4.874   6.111  0.1202  0.0501  0.3942
25262SOL    HW181622   7.286   4.936   6.162 -1.6294  0.1320 -1.3534
25262SOL    HW281623   7.315   4.788   6.145  1.1287  0.2183  1.5735
25263SOL     OW81624   6.339   2.008   4.475 -0.6665 -0.2404 -0.1387
25263SOL    HW181625   6.378   1.937   4.424  0.9810 -0.6049  1.5206
25263SOL    HW281626   6.294   2.062   4.410 -1.8054 -2.6239 -1.4992
25264SOL     OW81627   4.173   3.241   2.880 -0.3168 -0.3116 -0.0966
25264SOL    HW181628   4.141   3.185   2.808 -2.2559  1.0633 -0.3712
25264SOL    HW281629   4.102   3.241   2.943  0.7761 -0.2997  1.1700
25265SOL     OW81630   4.758   5.513   1.327 -0.6015 -0.0055  0.2939
25265SOL    HW181631   4.781   5.527   1.419  0.5459  0.6426 -0.0671
25265SOL    HW281632   4.830   5.459   1.293  1.2753  3.1779 -1.2205
25266SOL     OW81633  10.165  10.157   8.609  0.6334 -0.5804  0.0197
25266SOL    HW181634  10.204  10.222   8.551 -0.1309 -0.5691 -0.4986
25266SOL    HW281635  10.118  10.209   8.675  2.2513 -0.5711  1.2243
25267SOL     OW81636   8.577   5.284   6.639 -0.1457  0.3656 -0.1035
25267SOL    HW181637   8.603   5.316   6.554  0.9516  0.3354  0.2126
25267SOL    HW281638   8.527   5.204   6.621  0.9490 -0.2002 -0.6702
25268SOL     OW81639   6.481   7.483   9.909 -0.5119 -0.2970 -0.5246
25268SOL    HW181640   6.575   7.468   9.911 -0.5123 -0.8501  3.5672
25268SOL    HW281641   6.445   7.400   9.878  0.2896 -0.5450 -0.8225
25269SOL     OW81642   6.488   2.558   0.387  0.4933 -0.1835 -0.5710
25269SOL    HW181643   6.584   2.567   0.382  0.4934  1.2818  1.2690
25269SOL    HW281644   6.470   2.545   0.480 -1.1342 -0.2887 -0.8759
25270SOL     OW81645   6.608   5.042   4.966 -0.2265 -0.3259 -0.0708
25270SOL    HW181646   6.640   5.023   5.054 -0.4940  1.6988  0.5108
25270SOL    HW281647   6.674   5.099   4.928  0.0173 -1.3882 -1.3236
25271SOL     OW81648   1.737   0.850   2.668 -0.1769  0.3526  0.1640
25271SOL    HW181649   1.655   0.820   2.628  0.2235 -1.4309  0.6179
25271SOL    HW281650   1.792   0.772   2.672  1.6706  1.5643 -0.3628
25272SOL     OW81651   2.830   6.471   0.154  0.1049 -0.0502  0.4527
25272SOL    HW181652   2.878   6.500   0.077  0.2771  1.9492  1.2298
25272SOL    HW281653   2.795   6.552   0.192 -1.2322 -1.1296  1.6415
25273SOL     OW81654   3.011   1.840   8.382 -0.4084  0.3626  0.3027
25273SOL    HW181655   2.928   1.843   8.336 -0.9827  0.4706  1.3250
25273SOL    HW281656   2.988   1.836   8.475  0.7175  0.9998  0.6394
25274SOL     OW81657   2.401  10.278   8.627 -0.2971 -0.2037 -0.1465
25274SOL    HW181658   2.347  10.275   8.707  1.1531 -0.5492  0.8700
25274SOL    HW281659   2.374  10.359   8.583  0.3236  1.1438  1.8017
25275SOL     OW81660   8.601   6.906   1.835  0.0672 -0.3406 -0.9832
25275SOL    HW181661   8.651   6.979   1.797  0.4772  0.5844  1.1813
25275SOL    HW281662   8.513   6.943   1.850 -0.1801 -0.7914 -1.3065
25276SOL     OW81663   4.283   6.577   7.961 -0.2985  0.3193 -0.2327
25276SOL    HW181664   4.212   6.575   7.898  0.4691 -0.4164 -1.1118
25276SOL    HW281665   4.358   6.609   7.912  0.3933 -0.5833  0.2004
25277SOL     OW81666   4.641   6.574   1.852  0.3712 -0.5141 -0.4837
25277SOL    HW181667   4.602   6.497   1.893 -0.2828 -0.0081 -0.1455
25277SOL    HW281668   4.582   6.596   1.780  0.9456 -0.7514 -1.0441
25278SOL     OW81669   1.452   4.602   6.916  0.3335  0.9066  0.2573
25278SOL    HW181670   1.428   4.650   6.995  0.3932  1.3246  0.0279
25278SOL    HW281671   1.400   4.643   6.847 -0.4245 -0.0696  0.2297
25279SOL     OW81672   1.122   9.735   4.745 -0.4157  0.1276  0.4346
25279SOL    HW181673   1.188   9.782   4.694 -0.8801  0.2963 -0.0203
25279SOL    HW281674   1.079   9.803   4.797 -1.5750  0.3432 -0.7582
25280SOL     OW81675   8.009   7.812   3.383 -0.2186 -0.6040 -1.2804
25280SOL    HW181676   8.099   7.780   3.382  0.4631  0.8201  1.5337
25280SOL    HW281677   7.974   7.780   3.467 -0.9602  2.0441 -0.4879
25281SOL     OW81678   6.290   3.433  10.500 -0.0800  0.2223 -0.2083
25281SOL    HW181679   6.243   3.437  10.417  0.7107 -0.6125 -0.7202
25281SOL    HW281680   6.242   3.491  10.558  1.2992  3.6419 -2.2197
25282SOL     OW81681   4.247   5.624   4.282  0.3159  0.0416 -0.1714
25282SOL    HW181682   4.251   5.539   4.240  0.7849 -0.1135  0.1777
25282SOL    HW281683   4.163   5.624   4.327 -0.4779  0.4590 -1.6072
25283SOL     OW81684   3.170   2.415   2.323 -0.2688  0.4624 -0.3698
25283SOL    HW181685   3.106   2.357   2.281  0.4719  0.4687 -1.5570
25283SOL    HW281686   3.190   2.372   2.406 -0.1010 -0.7473 -1.0093
25284SOL     OW81687   9.373   4.694   0.162 -0.1126 -0.0668  0.1089
25284SOL    HW181688   9.452   4.652   0.129  0.6135 -0.3981  2.1531
25284SOL    HW281689   9.309   4.623   0.170  0.6645 -0.5905  2.1924
25285SOL     OW81690   3.230   6.953   0.449  0.1547 -0.3430  0.0826
25285SOL    HW181691   3.246   6.900   0.370  1.1500 -0.9862  0.6944
25285SOL    HW281692   3.166   6.902   0.498 -0.0281 -0.2271 -0.0338
25286SOL     OW81693   9.991   2.880   9.474  0.1194  0.1953 -0.2727
25286SOL    HW181694  10.032   2.823   9.540 -0.8099 -0.0162  0.1370
25286SOL    HW281695  10.049   2.956   9.469  1.0817 -0.5350 -0.4195
25287SOL     OW81696   9.105   0.838   6.943  0.2956 -0.2255 -0.1833
25287SOL    HW181697   9.068   0.759   6.905 -0.8584  0.2255 -0.0369
25287SOL    HW281698   9.037   0.870   7.003  1.0281  0.4843  0.2894
25288SOL     OW81699   8.569   1.659   2.387  0.2219 -0.3188 -0.1592
25288SOL    HW181700   8.556   1.571   2.352  1.1204 -0.2793 -0.6076
25288SOL    HW281701   8.522   1.659   2.470 -1.3820 -0.6326 -1.0206
25289SOL     OW81702   1.397   4.430   7.960 -0.2468  0.2027  0.0797
25289SOL    HW181703   1.383   4.357   8.020 -0.9346 -0.6618 -1.0781
25289SOL    HW281704   1.482   4.466   7.986 -0.2612 -0.5077  1.1886
25290SOL     OW81705   0.916  10.316   2.240  0.6845  0.4490 -0.3001
25290SOL    HW181706   0.891  10.248   2.177 -0.3046  1.5625 -1.1479
25290SOL    HW281707   0.835  10.362   2.260  1.2414  1.0472  0.6864
25291SOL     OW81708   8.926   0.965   4.061  0.0016  0.2132  0.9748
25291SOL    HW181709   8.968   1.026   4.001  1.2122 -1.2051  0.3083
25291SOL    HW281710   8.892   1.020   4.131 -2.3333  2.0744 -1.4120
25292SOL     OW81711  10.547   1.387   3.880 -0.4428  0.2342  0.1689
25292SOL    HW181712  10.554   1.332   3.958  2.3815  0.7707  0.3834
25292SOL    HW281713  10.624   1.443   3.882 -2.2439  3.0117 -1.0066
25293SOL     OW81714   5.060   7.386  10.714  0.2365 -0.1687  0.0066
25293SOL    HW181715   5.000   7.453  10.681  0.1450 -0.0694  0.3753
25293SOL    HW281716   5.135   7.390  10.655 -0.3096 -0.6030 -0.7385
25294SOL     OW81717   0.757   4.639   0.936  0.0197 -0.2299 -0.0410
25294SOL    HW181718   0.712   4.569   0.889  0.4879 -1.8681  1.8190
25294SOL    HW281719   0.850   4.619   0.927  0.2854  1.3122 -1.1454
25295SOL     OW81720   5.341  10.142   5.659 -0.3168 -0.1846  0.4296
25295SOL    HW181721   5.392  10.222   5.668 -0.4310  0.0860 -1.1053
25295SOL    HW281722   5.252  10.167   5.685 -0.5038  0.3829 -0.7195
25296SOL     OW81723   8.009   1.842   0.948 -0.3015  0.1976 -0.5490
25296SOL    HW181724   7.983   1.911   0.887  0.2104  0.6992 -0.2208
25296SOL    HW281725   8.015   1.887   1.033 -4.5100 -1.1620  0.6902
25297SOL     OW81726   6.985   4.920   7.175  0.0514  0.4285 -0.0817
25297SOL    HW181727   6.901   4.932   7.132 -0.5068 -0.0313  0.8557
25297SOL    HW281728   7.047   4.971   7.123 -0.4649 -0.6474 -1.8274
25298SOL     OW81729   7.821   0.586   6.668  0.0879  0.2817  0.2550
25298SOL    HW181730   7.828   0.603   6.762  1.1356  1.8366 -0.0652
25298SOL    HW281731   7.904   0.616   6.632  0.0537 -1.1064 -1.0785
25299SOL     OW81732   5.785   5.413   2.273  0.1907 -0.3047 -0.3756
25299SOL    HW181733   5.817   5.502   2.255 -1.0321  0.0879 -0.7267
25299SOL    HW281734   5.719   5.397   2.205  0.8614 -1.7539 -0.7287
25300SOL     OW81735   4.949   4.412   7.804  0.6159 -0.2795 -0.1268
25300SOL    HW181736   4.894   4.449   7.735  0.1350  0.0056  0.4025
25300SOL    HW281737   5.033   4.397   7.761  0.6101  0.7701 -0.5348
25301SOL     OW81738   4.055   6.424  10.427 -0.0661  0.0300 -0.3303
25301SOL    HW181739   4.060   6.425  10.523  0.6888 -1.0560 -0.3382
25301SOL    HW281740   4.124   6.484  10.399 -0.0351  0.0572 -0.1942
25302SOL     OW81741   9.736   0.047   8.263  0.6610  0.1981  0.7254
25302SOL    HW181742   9.823   0.086   8.253  0.7925 -0.3354 -0.5421
25302SOL    HW281743   9.699   0.089   8.340  0.9764  2.4558 -0.2751
25303SOL     OW81744   8.824   5.702   9.890  0.5195 -0.2443  0.0030
25303SOL    HW181745   8.803   5.609   9.892  1.3897 -0.4368  1.3937
25303SOL    HW281746   8.785   5.737   9.970  1.4557  0.2751  0.2463
25304SOL     OW81747   9.630   7.930   4.257  0.0100  0.1560 -0.0914
25304SOL    HW181748   9.619   8.015   4.213 -0.3121  0.4401  0.5309
25304SOL    HW281749   9.547   7.885   4.241 -0.6261  0.7679  1.2919
25305SOL     OW81750   3.664   4.204   3.531  0.5525  0.2014 -0.1558
25305SOL    HW181751   3.649   4.294   3.504  2.5811  0.2799 -1.2203
25305SOL    HW281752   3.668   4.155   3.449  0.2161 -0.7403  0.3768
25306SOL     OW81753   5.841   5.157   0.982  0.1049  0.6478  0.1261
25306SOL    HW181754   5.791   5.238   0.972  0.0882  0.6615  0.3203
25306SOL    HW281755   5.860   5.151   1.076  0.3592  0.5783  0.0718
25307SOL     OW81756   7.680   1.145   2.507  0.0330 -0.1368 -0.0070
25307SOL    HW181757   7.727   1.103   2.436  1.2898  0.3388  0.5199
25307SOL    HW281758   7.710   1.236   2.506  0.5727 -0.2653  1.5084
25308SOL     OW81759   4.480   1.192   8.611  0.7714 -0.3837 -0.5694
25308SOL    HW181760   4.519   1.122   8.664  0.0730 -0.1934  0.2090
25308SOL    HW281761   4.386   1.173   8.612  0.5755  0.5830 -0.3406
25309SOL     OW81762   8.340   3.722   1.608 -0.2449 -0.4163 -0.0595
25309SOL    HW181763   8.375   3.758   1.689  0.0042  1.1389 -0.8356
25309SOL    HW281764   8.254   3.687   1.632 -1.1340  1.9827  0.4659
25310SOL     OW81765   0.881   3.433   7.826  0.3079 -0.0352  0.0428
25310SOL    HW181766   0.884   3.424   7.922 -0.3160 -1.2806 -0.0417
25310SOL    HW281767   0.790   3.455   7.807 -0.1471 -2.1684 -0.4279
25311SOL     OW81768   8.791   2.911  10.238 -0.4830 -0.0600 -0.1455
25311SOL    HW181769   8.726   2.842  10.252 -0.7278  0.4080  1.0851
25311SOL    HW281770   8.764   2.953  10.156 -3.2052  1.7243  1.5258
25312SOL     OW81771   6.058   8.601   2.679 -0.2109 -0.0538  0.0837
25312SOL    HW181772   6.013   8.623   2.761 -0.4623 -1.4770  0.3534
25312SOL    HW281773   5.991   8.558   2.626  0.5284 -1.1779  0.0374
25313SOL     OW81774   8.158   1.242   8.860 -0.1770 -0.2547 -0.1952
25313SOL    HW181775   8.093   1.301   8.820  1.0047  0.0539 -1.7017
25313SOL    HW281776   8.199   1.296   8.928  1.9272  1.2647 -2.5245
25314SOL     OW81777   0.779   9.086   6.975 -0.1137  0.4807  0.1134
25314SOL    HW181778   0.687   9.060   6.985  0.0221  0.5864  2.2093
25314SOL    HW281779   0.828   9.008   7.003  0.3934  0.8904  0.3784
25315SOL     OW81780   4.996   6.651   8.681 -0.2420  0.8057  0.3419
25315SOL    HW181781   5.039   6.662   8.597 -0.5249 -0.3433  0.0164
25315SOL    HW281782   5.049   6.700   8.743  1.8276 -0.9152  0.0432
25316SOL     OW81783  10.063   6.721   3.267 -0.0747  0.5423 -0.6965
25316SOL    HW181784  10.083   6.814   3.278 -0.1888  0.6702 -1.5027
25316SOL    HW281785  10.051   6.710   3.172 -3.0699  0.3460 -0.3995
25317SOL     OW81786   6.374   3.611   2.460 -0.0579  0.3628  0.1351
25317SOL    HW181787   6.433   3.651   2.395  0.5757  1.7564  1.4975
25317SOL    HW281788   6.294   3.663   2.454  1.1262  2.7028  2.6313
25318SOL     OW81789   8.695   7.606  10.658  0.3150 -0.3403 -0.2538
25318SOL    HW181790   8.751   7.529  10.669 -0.1687 -0.7425 -0.6014
25318SOL    HW281791   8.610   7.571  10.633  0.1253  0.3106 -0.5443
25319SOL     OW81792   7.887   4.027   6.649  0.2724  0.2067  0.0890
25319SOL    HW181793   7.857   4.115   6.626 -1.3684 -0.3412 -0.0517
25319SOL    HW281794   7.837   4.005   6.728 -1.1666 -1.4631 -1.1976
25320SOL     OW81795   7.137   8.675   1.741 -0.2625 -0.1471 -0.2756
25320SOL    HW181796   7.131   8.767   1.767 -1.6674 -0.2805 -0.0168
25320SOL    HW281797   7.181   8.677   1.656 -0.2316  0.7604 -0.2531
25321SOL     OW81798   7.446   1.977   8.896 -0.4715 -0.3046 -0.1396
25321SOL    HW181799   7.483   2.036   8.962 -1.3248 -0.7283  0.7525
25321SOL    HW281800   7.395   1.914   8.947 -2.1399  0.0622 -1.2742
25322SOL     OW81801   2.333  10.432   8.213  0.0864  0.3618 -0.0891
25322SOL    HW181802   2.282  10.359   8.247 -0.4024  1.3060  1.3136
25322SOL    HW281803   2.268  10.499   8.192  0.6386  1.1207  0.5589
25323SOL     OW81804   3.250   8.283   5.704 -0.4910  0.0249 -0.4050
25323SOL    HW181805   3.205   8.201   5.726 -1.2679  0.3938 -0.5804
25323SOL    HW281806   3.342   8.267   5.727 -0.1503 -1.7165 -2.6430
25324SOL     OW81807   0.646   6.265   3.351  0.1008 -0.0996  0.8926
25324SOL    HW181808   0.676   6.175   3.366 -1.3868 -0.3944  2.4027
25324SOL    HW281809   0.648   6.305   3.438  0.4663  1.2621  0.2842
25325SOL     OW81810   4.423   2.292   3.861 -0.1867  0.2632  0.2887
25325SOL    HW181811   4.438   2.198   3.851  0.1522  0.2620  0.7539
25325SOL    HW281812   4.450   2.330   3.778 -0.3843 -0.0595  0.0780
25326SOL     OW81813   3.348   4.927  10.054 -0.4227 -0.4210 -0.2147
25326SOL    HW181814   3.417   4.861  10.047 -1.5431 -1.6659  0.1349
25326SOL    HW281815   3.286   4.891  10.117 -0.8076  1.2265  0.4142
25327SOL     OW81816   6.518   2.593   5.233 -0.0829 -0.0133 -0.4221
25327SOL    HW181817   6.463   2.553   5.166  0.2007  0.6236 -1.0471
25327SOL    HW281818   6.599   2.543   5.232 -0.0202  0.0944 -0.6619
25328SOL     OW81819   4.623   3.153   6.110  0.4019  0.0318  0.2012
25328SOL    HW181820   4.528   3.153   6.122  0.2849  0.8839 -0.5320
25328SOL    HW281821   4.654   3.076   6.156 -0.5141  0.4170  1.5211
25329SOL     OW81822   4.787  10.208   6.087 -0.4552  0.1221 -0.2882
25329SOL    HW181823   4.769  10.124   6.128 -2.1408  0.3945 -0.3978
25329SOL    HW281824   4.738  10.272   6.139  2.9138  1.4932  1.4485
25330SOL     OW81825   5.842   9.784   4.242 -0.0906  0.2431  0.0769
25330SOL    HW181826   5.889   9.852   4.290  1.1755 -0.3170 -0.3447
25330SOL    HW281827   5.910   9.735   4.195 -0.8602 -1.7929  0.9510
25331SOL     OW81828   0.558   8.795   6.341  0.0013 -0.3892  0.2305
25331SOL    HW181829   0.607   8.865   6.384  0.8344 -1.9137  1.9010
25331SOL    HW281830   0.539   8.733   6.411 -1.4283 -1.4577 -1.0435
25332SOL     OW81831   6.450   1.869   2.749  0.1444  0.2193 -0.7200
25332SOL    HW181832   6.391   1.928   2.796  3.1255  2.2396  0.7832
25332SOL    HW281833   6.475   1.803   2.814 -2.1478 -2.1380 -2.0301
25333SOL     OW81834   0.701   4.174   4.696 -0.5278  0.3165 -0.0227
25333SOL    HW181835   0.795   4.191   4.709 -0.4605 -0.3009  0.3575
25333SOL    HW281836   0.658   4.245   4.744 -0.2566 -0.8937  2.1652
25334SOL     OW81837   5.007   2.192   7.045  0.0231  0.0092 -0.0532
25334SOL    HW181838   5.041   2.281   7.038 -1.2414  0.5043 -0.2432
25334SOL    HW281839   4.924   2.202   7.091 -0.2740 -1.0389 -0.3307
25335SOL     OW81840   2.496   2.155   6.718  0.9306 -0.5823  0.3152
25335SOL    HW181841   2.465   2.216   6.784 -1.7233  0.6428 -1.8801
25335SOL    HW281842   2.581   2.190   6.690  0.9195  0.2624  1.2928
25336SOL     OW81843  10.563   9.824   5.913  0.2165 -0.0063 -0.2117
25336SOL    HW181844  10.555   9.796   5.821  2.4112 -1.6384  0.0142
25336SOL    HW281845  10.656   9.819   5.932 -0.0514  1.4139  1.8224
25337SOL     OW81846   6.496   3.040   0.126 -0.3955  0.7292  0.3381
25337SOL    HW181847   6.518   3.133   0.134 -0.1464  0.6379  0.7445
25337SOL    HW281848   6.415   3.031   0.178 -0.0958  0.6068  0.7909
25338SOL     OW81849   2.800   9.941   6.075 -0.2240  0.6586 -0.0785
25338SOL    HW181850   2.729  10.004   6.089  1.1893  2.1700  0.6452
25338SOL    HW281851   2.768   9.860   6.115 -1.6337  1.2204  0.0016
25339SOL     OW81852   3.480   1.738   2.196 -0.0721 -0.2351 -0.4136
25339SOL    HW181853   3.553   1.722   2.256 -0.0714 -0.5401 -0.4920
25339SOL    HW281854   3.447   1.825   2.220 -1.2298 -1.0606  1.2521
25340SOL     OW81855   4.766   1.085   2.433  0.7742 -0.3227  0.3668
25340SOL    HW181856   4.720   1.060   2.513 -0.3062  3.0196  0.9153
25340SOL    HW281857   4.847   1.126   2.464  0.5448  0.6200 -0.2420
25341SOL     OW81858  10.483   0.151   3.630  0.1178 -0.2712 -0.0566
25341SOL    HW181859  10.466   0.191   3.545 -2.2701 -1.1927 -0.0983
25341SOL    HW281860  10.536   0.074   3.610  1.4085  0.6861 -0.4211
25342SOL     OW81861   9.172   1.607   7.378  0.0762 -0.3801 -0.5014
25342SOL    HW181862   9.263   1.634   7.365 -0.7652  2.8699 -0.5607
25342SOL    HW281863   9.130   1.620   7.293 -1.2307  2.1462  0.4149
25343SOL     OW81864   3.024   8.551   8.826 -0.2700  0.1466 -0.0745
25343SOL    HW181865   3.085   8.603   8.878  0.8714  1.6977 -2.7247
25343SOL    HW281866   3.073   8.471   8.805 -0.6611 -0.3924  0.9911
25344SOL     OW81867  10.722   6.180   9.927  0.3263 -0.3459  0.2265
25344SOL    HW181868  10.636   6.223   9.928 -0.0225 -1.0193  0.4416
25344SOL    HW281869  10.780   6.241   9.972 -0.3509 -0.4609  1.3107
25345SOL     OW81870   8.462   1.702   9.468  0.4419  0.3531 -0.0165
25345SOL    HW181871   8.376   1.721   9.504  0.2696  0.3141 -0.4102
25345SOL    HW281872   8.459   1.734   9.378 -0.1948 -2.3061 -1.0393
25346SOL     OW81873   2.533   8.937   2.944 -0.3381 -0.3484 -0.0292
25346SOL    HW181874   2.600   8.960   2.880 -0.5449 -2.5839 -1.1101
25346SOL    HW281875   2.464   9.001   2.929  0.9700  1.2031  0.2464
25347SOL     OW81876   8.153   5.455   3.274  0.4466  0.1452 -0.0389
25347SOL    HW181877   8.081   5.409   3.317 -0.4179  0.5040 -1.0739
25347SOL    HW281878   8.117   5.484   3.190  1.9392 -0.1148 -0.8098
25348SOL     OW81879   0.538   2.871   0.673 -0.5805 -0.2754 -0.2679
25348SOL    HW181880   0.445   2.892   0.681 -0.6130  1.2791 -3.2679
25348SOL    HW281881   0.583   2.955   0.677  0.4398 -0.7431 -1.2235
25349SOL     OW81882   2.085  10.562   3.420  0.1735  0.4195 -0.1650
25349SOL    HW181883   2.144  10.500   3.377  0.1779  0.8105 -0.7376
25349SOL    HW281884   2.140  10.637   3.441 -0.2484  1.0696 -1.3122
25350SOL     OW81885   2.296   3.557   3.978  0.4197  0.3965  0.1589
25350SOL    HW181886   2.362   3.546   4.046  0.8348  2.0752  0.0701
25350SOL    HW281887   2.240   3.480   3.986  1.5850 -0.3906  1.1208
25351SOL     OW81888   5.032   2.101   0.682  0.0318 -0.0252  0.3684
25351SOL    HW181889   5.092   2.083   0.754 -0.1023  0.2774  0.5593
25351SOL    HW281890   4.971   2.167   0.717 -0.2321 -0.1136  0.0851
25352SOL     OW81891   0.111   1.709   9.587 -0.0914 -0.0430  0.2665
25352SOL    HW181892   0.181   1.768   9.618 -0.5507 -0.0690  1.4085
25352SOL    HW281893   0.073   1.755   9.512  1.0711  0.0272 -0.2950
25353SOL     OW81894   6.829   4.850   4.846  0.1088 -0.4303  0.0960
25353SOL    HW181895   6.838   4.768   4.895 -0.0127  1.1353  2.9883
25353SOL    HW281896   6.919   4.884   4.840  0.0516 -0.3374 -0.2423
25354SOL     OW81897   1.084   2.647   6.702 -0.0275 -0.5874 -0.1281
25354SOL    HW181898   1.064   2.729   6.747 -0.1230 -1.1802  0.9459
25354SOL    HW281899   1.109   2.673   6.614 -0.4094  0.5678  0.0928
25355SOL     OW81900   6.412   8.842   0.947 -0.3835 -0.2563  0.3937
25355SOL    HW181901   6.494   8.816   0.903 -0.8588 -0.9000 -0.1365
25355SOL    HW281902   6.366   8.759   0.963 -1.3299  0.1547 -0.1204
25356SOL     OW81903  10.673   9.087   0.800 -0.1327 -0.2941  0.3326
25356SOL    HW181904  10.681   9.176   0.834  0.4150  0.0384 -0.6306
25356SOL    HW281905  10.578   9.072   0.794 -0.2396 -0.2432  1.6504
25357SOL     OW81906   1.560   0.954   9.853  0.2254  0.4574  0.1266
25357SOL    HW181907   1.512   1.026   9.896 -0.6382  0.6830 -1.1589
25357SOL    HW281908   1.538   0.963   9.760 -0.8095 -2.1506  0.0466
25358SOL     OW81909  10.042   0.496   9.148 -0.7682 -0.5140  0.6296
25358SOL    HW181910  10.013   0.565   9.089  0.6400 -0.6131 -0.2135
25358SOL    HW281911  10.043   0.538   9.234 -3.2971 -0.5032  0.7351
25359SOL     OW81912   4.555   1.217   8.972 -0.4626  0.5381  0.2099
25359SOL    HW181913   4.556   1.150   8.904  0.1405 -2.1134  2.6700
25359SOL    HW281914   4.639   1.208   9.016 -1.3586  1.2159  2.1727
25360SOL     OW81915   1.128   0.944   8.657  0.2091  0.0344  0.5102
25360SOL    HW181916   1.157   0.972   8.744 -1.5120 -1.2515  1.5675
25360SOL    HW281917   1.033   0.958   8.658  0.3225  1.2890 -1.6997
25361SOL     OW81918  10.146   8.644   4.227 -0.0654  0.0124 -0.0822
25361SOL    HW181919  10.121   8.724   4.271  0.5703  0.0795  0.1670
25361SOL    HW281920  10.078   8.581   4.250 -0.8516  0.6194 -0.7110
25362SOL     OW81921   0.269   4.889   4.191 -0.6854 -0.0573 -0.4069
25362SOL    HW181922   0.194   4.842   4.152 -1.5041  1.6016 -0.9046
25362SOL    HW281923   0.229   4.949   4.254  0.1755  1.2235 -1.0530
25363SOL     OW81924   3.807  10.178   3.521 -0.5128 -0.4271 -0.8046
25363SOL    HW181925   3.795  10.207   3.611 -1.8345  1.0809 -1.4152
25363SOL    HW281926   3.740  10.225   3.471  0.9873 -0.2358 -2.7689
25364SOL     OW81927   6.542   9.500   6.100 -0.4153  0.1984 -0.4876
25364SOL    HW181928   6.487   9.422   6.111 -1.0533  0.5787 -0.9326
25364SOL    HW281929   6.496   9.552   6.034  2.1756 -1.0370 -3.5441
25365SOL     OW81930   2.368   4.318   4.939 -0.1676 -0.4128  0.5313
25365SOL    HW181931   2.290   4.338   4.990  0.0086  0.5120  0.4551
25365SOL    HW281932   2.384   4.397   4.887  1.0709 -0.4178  0.8765
25366SOL     OW81933   7.192   3.033   7.090 -0.1155 -0.0594 -0.2371
25366SOL    HW181934   7.255   3.043   7.018  1.8699 -2.2243  1.0792
25366SOL    HW281935   7.243   3.053   7.169 -1.3222 -0.9343  0.7959
25367SOL     OW81936   9.811   0.274   6.307  0.5663 -0.4874  0.5674
25367SOL    HW181937   9.850   0.316   6.384  2.0480  0.9658 -0.8832
25367SOL    HW281938   9.721   0.306   6.304 -0.0207 -1.7977  2.5135
25368SOL     OW81939   5.504   4.431   8.818 -0.3589  0.1444  0.1857
25368SOL    HW181940   5.522   4.419   8.911 -1.6543  0.6292  0.5261
25368SOL    HW281941   5.508   4.343   8.780 -3.1531 -0.6135  1.3647
25369SOL     OW81942   7.872   1.059   7.268 -0.7422 -0.2250 -0.3085
25369SOL    HW181943   7.949   1.039   7.322 -0.0945 -0.1179 -1.1748
25369SOL    HW281944   7.884   1.150   7.242 -0.6264 -0.5145 -1.2928
25370SOL     OW81945   4.860   7.594   0.197 -0.2043  0.9251  0.3224
25370SOL    HW181946   4.904   7.512   0.218 -0.3700  0.7142 -0.1339
25370SOL    HW281947   4.768   7.578   0.218 -0.1165  1.2631  0.9873
25371SOL     OW81948   0.228   2.974   3.032 -0.2190  0.0343  0.6036
25371SOL    HW181949   0.165   3.013   3.093 -0.9745 -1.0989  0.5773
25371SOL    HW281950   0.178   2.906   2.986  0.9523 -0.7021  0.3856
25372SOL     OW81951   8.499   4.534   8.642 -0.1731 -0.0558  0.0176
25372SOL    HW181952   8.528   4.467   8.703  1.1703  0.5972  0.1411
25372SOL    HW281953   8.503   4.492   8.556  0.0522 -0.3147  0.1535
25373SOL     OW81954   6.680   1.166   3.257  0.4245  0.2071 -0.9441
25373SOL    HW181955   6.621   1.240   3.244  3.4066  3.4679  2.3166
25373SOL    HW281956   6.724   1.156   3.172 -2.3579 -0.2575 -2.4674
25374SOL     OW81957   1.065   2.673   4.652 -0.1570  0.1228 -0.1544
25374SOL    HW181958   1.001   2.604   4.669  1.6152 -1.4095  0.6280
25374SOL    HW281959   1.090   2.662   4.561  0.4613 -0.5861  0.0965
25375SOL     OW81960   7.417   4.787   9.093 -0.3208  0.4580  0.3729
25375SOL    HW181961   7.483   4.856   9.088  0.5998 -0.3586  0.8590
25375SOL    HW281962   7.384   4.793   9.183  0.3705 -0.2745  0.6788
25376SOL     OW81963   8.016  10.666   9.897  0.7058  0.1876  0.1707
25376SOL    HW181964   8.074  10.714   9.839  0.1055  1.6780  0.7664
25376SOL    HW281965   7.935  10.656   9.847 -0.0893  2.1642  0.9667
25377SOL     OW81966   1.650   9.438   9.029 -0.0608  0.3359  0.3290
25377SOL    HW181967   1.728   9.494   9.022 -0.0992  0.3632  0.0998
25377SOL    HW281968   1.676   9.369   9.090  0.6040 -0.3980 -0.7280
25378SOL     OW81969   9.012   0.253  10.618 -0.3801 -0.3545  0.0767
25378SOL    HW181970   9.038   0.166  10.646 -0.9177  0.2784  2.8703
25378SOL    HW281971   9.019   0.251  10.523 -0.0755 -3.3178  0.0733
25379SOL     OW81972   1.513   0.896   2.509  0.4378  0.5772 -0.2586
25379SOL    HW181973   1.462   0.835   2.563  1.0162 -1.4800 -1.9217
25379SOL    HW281974   1.450   0.963   2.484  0.6004  3.1272  4.7555
25380SOL     OW81975   4.776   3.952  10.034  0.3048  0.1406  0.2304
25380SOL    HW181976   4.858   3.988  10.069  0.2448 -0.0618  0.5871
25380SOL    HW281977   4.793   3.941   9.940  0.5981  0.3421  0.2564
25381SOL     OW81978   3.549   6.364   7.808  0.7468 -0.1685  0.1360
25381SOL    HW181979   3.605   6.295   7.773  0.7794  0.1684 -0.4963
25381SOL    HW281980   3.611   6.429   7.843  0.7745  0.3392 -0.8230
25382SOL     OW81981   4.776   7.409   6.342 -0.3494  0.4867  0.0351
25382SOL    HW181982   4.717   7.478   6.312 -1.4239 -0.3849  0.1139
25382SOL    HW281983   4.790   7.354   6.264 -0.7048 -0.0486  0.3416
25383SOL     OW81984   3.031   7.648   6.049  0.2880 -0.3177  0.4824
25383SOL    HW181985   3.110   7.618   6.005  1.6775  0.0607  2.5972
25383SOL    HW281986   3.052   7.735   6.082 -0.5574 -0.6711  2.0917
25384SOL     OW81987   0.754   5.220   3.683  0.2787  0.2156  0.2145
25384SOL    HW181988   0.723   5.169   3.758 -0.0598  0.9242  0.5728
25384SOL    HW281989   0.848   5.205   3.681  0.0886 -0.9909 -0.1377
25385SOL     OW81990   3.621   6.029   0.873 -0.3088 -0.0574  0.5485
25385SOL    HW181991   3.619   6.125   0.875  0.4829 -0.0374  0.6507
25385SOL    HW281992   3.561   6.003   0.943 -0.9678  0.3506  0.1488
25386SOL     OW81993   4.997   3.736   2.360  0.1247 -0.2651  0.0445
25386SOL    HW181994   4.927   3.797   2.337 -0.9919 -2.2049 -2.1976
25386SOL    HW281995   4.994   3.730   2.456  0.2890  3.0649  0.3494
25387SOL     OW81996   5.135   5.972   2.863  0.0260  0.6361  0.5989
25387SOL    HW181997   5.051   5.948   2.825  0.4082  0.7248 -0.3310
25387SOL    HW281998   5.189   5.893   2.854 -0.0704  0.4488  1.5523
25388SOL     OW81999   8.177   3.895   4.098  0.0075 -0.5658 -0.1371
25388SOL    HW182000   8.227   3.938   4.029  0.2348 -2.0759 -0.9641
25388SOL    HW282001   8.095   3.945   4.103  0.4762  0.2751 -0.6719
25389SOL     OW82002  10.014   1.637   9.868 -0.3736 -0.1450  0.1925
25389SOL    HW182003  10.024   1.606   9.778 -0.1018  0.3313  0.0551
25389SOL    HW282004  10.024   1.732   9.861 -1.7361  0.0380  0.5171
25390SOL     OW82005   0.358   7.049   0.668  0.1613  1.0534 -0.5218
25390SOL    HW182006   0.335   7.090   0.584  0.2431 -0.8700 -1.5535
25390SOL    HW282007   0.453   7.036   0.662  0.2966  1.6945  0.2472
25391SOL     OW82008   4.950   8.221  10.690 -0.1983 -0.1141  0.2318
25391SOL    HW182009   4.959   8.254  10.779  3.1816  2.4195 -0.8168
25391SOL    HW282010   4.892   8.284  10.647  0.5561  0.4243 -0.0263
25392SOL     OW82011   6.559   3.884   6.121 -0.3701  0.4674 -0.2864
25392SOL    HW182012   6.561   3.841   6.206 -1.5643 -0.6714 -0.7968
25392SOL    HW282013   6.494   3.954   6.130  1.5603  2.2472  0.5388
25393SOL     OW82014   1.837   2.498   2.325 -0.2502  0.1791  0.1862
25393SOL    HW182015   1.825   2.516   2.231  1.6359 -1.7773 -0.5084
25393SOL    HW282016   1.857   2.404   2.329 -0.2277  0.2370  2.5570
25394SOL     OW82017   9.731   1.876   4.608  0.2078 -0.0628 -0.3379
25394SOL    HW182018   9.683   1.794   4.595 -1.2001  0.7718 -0.5969
25394SOL    HW282019   9.757   1.875   4.700  0.4127 -0.8930 -0.3976
25395SOL     OW82020   5.000   2.176   8.613 -0.0028  0.5614 -0.2384
25395SOL    HW182021   5.082   2.135   8.642 -0.2007  1.9395  2.5843
25395SOL    HW282022   5.011   2.269   8.635 -1.3391  1.2446 -2.2320
25396SOL     OW82023   8.567   5.637   3.025  0.8247  0.0261  0.6200
25396SOL    HW182024   8.494   5.597   3.072  0.6713 -0.9403 -0.4079
25396SOL    HW282025   8.636   5.570   3.027  0.5942 -0.3099 -1.0494
25397SOL     OW82026   7.314   0.676   3.231 -0.7748 -0.7467  1.0500
25397SOL    HW182027   7.388   0.647   3.178 -1.0125  0.6076 -0.0738
25397SOL    HW282028   7.347   0.753   3.277 -2.2724  1.8244 -1.8422
25398SOL     OW82029   6.008   5.553   3.465  0.0256  0.4465  0.0929
25398SOL    HW182030   5.996   5.565   3.371  1.3387 -2.2101 -0.5068
25398SOL    HW282031   5.944   5.487   3.489 -1.3438  2.1763  1.4530
25399SOL     OW82032   2.068   5.844   1.140  0.0264 -0.1414  0.2988
25399SOL    HW182033   2.083   5.762   1.186  1.4717 -0.2620 -0.3309
25399SOL    HW282034   2.028   5.902   1.205  0.7483 -0.7483  1.2987
25400SOL     OW82035   4.414   8.915   6.666  0.1189 -0.3222  0.3004
25400SOL    HW182036   4.323   8.941   6.681  0.7368  1.9927  0.4728
25400SOL    HW282037   4.442   8.968   6.591  1.3566 -0.8696  0.3594
25401SOL     OW82038  10.402   1.608   6.274  0.6732  0.2496  0.7189
25401SOL    HW182039  10.440   1.566   6.197 -0.6274  0.6212 -0.1753
25401SOL    HW282040  10.447   1.692   6.281  0.8179  0.2012  0.3714
25402SOL     OW82041   8.959  10.417   4.097  0.5668  0.3653  0.3776
25402SOL    HW182042   8.949  10.324   4.073  0.3939  0.3726  0.4199
25402SOL    HW282043   9.012  10.454   4.026  1.1923  0.0911  0.6934
25403SOL     OW82044  10.285   2.910   4.965 -0.5043  0.1621  0.0283
25403SOL    HW182045  10.253   2.825   4.934 -0.0170  0.2978 -0.8763
25403SOL    HW282046  10.319   2.892   5.053 -1.1701 -0.3983  0.1792
25404SOL     OW82047   9.023  10.404   3.631  0.7320 -0.2650 -0.7527
25404SOL    HW182048   9.032  10.470   3.562 -4.2567  0.9136 -0.6376
25404SOL    HW282049   8.999  10.324   3.584 -1.9213  0.3545 -0.6061
25405SOL     OW82050   3.133   2.049   3.689 -0.1140 -0.2756  0.1743
25405SOL    HW182051   3.172   2.016   3.770  0.6328 -2.4528 -0.9841
25405SOL    HW282052   3.140   1.976   3.627  2.1817  2.2137 -2.8426
25406SOL     OW82053   3.123   1.699   1.939 -0.4473 -0.1213  0.5330
25406SOL    HW182054   3.174   1.777   1.962  2.4718 -1.2071 -1.6859
25406SOL    HW282055   3.179   1.625   1.967 -0.2305 -1.3795 -2.7718
25407SOL     OW82056   7.792   4.297  10.179  0.4833 -0.0155  0.2477
25407SOL    HW182057   7.730   4.367  10.198 -1.4499 -1.0571 -1.8105
25407SOL    HW282058   7.818   4.310  10.088  1.1041 -1.2194  0.2225
25408SOL     OW82059   3.150   4.973   0.684 -1.1810 -0.6163 -0.4743
25408SOL    HW182060   3.199   5.048   0.717 -0.7719 -1.7199  1.5512
25408SOL    HW282061   3.208   4.933   0.619 -0.8710  0.0835 -0.6291
25409SOL     OW82062   2.660   1.043   5.166  0.4267 -0.3617 -0.2972
25409SOL    HW182063   2.627   1.110   5.107 -0.1886  0.3749  0.8527
25409SOL    HW282064   2.755   1.051   5.162  0.5932 -2.1679 -3.2627
25410SOL     OW82065   6.499   7.952   7.282  0.0646  0.1116 -0.1633
25410SOL    HW182066   6.566   7.966   7.349  1.2269 -0.1180 -1.2279
25410SOL    HW282067   6.437   8.024   7.294 -0.1113 -0.2647  1.5355
25411SOL     OW82068   9.668   4.861   1.645 -0.0579  0.5671 -0.4104
25411SOL    HW182069   9.724   4.934   1.621  0.0660  0.6330  0.0784
25411SOL    HW282070   9.694   4.838   1.734  1.0844 -1.1655 -1.1438
25412SOL     OW82071   1.707   5.504   0.850 -0.3413 -0.3565 -0.3712
25412SOL    HW182072   1.709   5.421   0.898 -0.9064  0.0954  0.4653
25412SOL    HW282073   1.799   5.522   0.831 -0.1557 -0.8655  0.0014
25413SOL     OW82074   0.801   9.844   8.848 -0.1652  0.1551 -0.0775
25413SOL    HW182075   0.777   9.913   8.910  2.5832  1.4035 -0.2829
25413SOL    HW282076   0.815   9.890   8.765  1.1392 -0.7058 -0.3648
25414SOL     OW82077   0.197   6.366   3.225 -0.4796 -0.3467 -0.0357
25414SOL    HW182078   0.273   6.366   3.167 -2.8202  0.8909 -3.3890
25414SOL    HW282079   0.174   6.274   3.235  2.0196 -0.8709  2.1018
25415SOL     OW82080   7.984   8.152   5.732  0.0337 -0.0326 -0.4514
25415SOL    HW182081   7.966   8.241   5.704 -0.6447  0.1124  0.4126
25415SOL    HW282082   7.951   8.097   5.660  0.3195  0.3919 -0.9165
25416SOL     OW82083   9.803   0.682  10.260  0.5866 -0.0021 -0.0739
25416SOL    HW182084   9.763   0.671  10.175 -0.4120  0.9319  0.2583
25416SOL    HW282085   9.895   0.702  10.241  0.7786 -1.5259 -0.8573
25417SOL     OW82086   8.882   8.027   3.179 -0.3197  0.2984 -0.3497
25417SOL    HW182087   8.850   7.949   3.226  0.4155 -0.2100 -0.6725
25417SOL    HW282088   8.860   8.010   3.087 -0.1900  0.4959 -0.4164
25418SOL     OW82089   4.208   1.494   9.945 -0.4012  0.6112  0.8691
25418SOL    HW182090   4.182   1.573   9.993 -1.0398  1.0861 -0.2170
25418SOL    HW282091   4.134   1.477   9.887  0.0197 -0.4136  0.6221
25419SOL     OW82092   7.446   9.158   0.321 -0.0025  0.0303  0.2925
25419SOL    HW182093   7.431   9.211   0.243  2.0060  1.2175  0.6318
25419SOL    HW282094   7.374   9.181   0.380  0.6791  2.2854  0.3407
25420SOL     OW82095  10.696   3.928   8.994 -0.4050  0.1918  0.3159
25420SOL    HW182096  10.644   3.848   8.995  0.0820 -0.1907  3.2070
25420SOL    HW282097  10.641   3.993   9.039  0.1844  0.7848  0.1894
25421SOL     OW82098   5.799   4.350   5.638  0.4014  0.1356 -0.4642
25421SOL    HW182099   5.763   4.419   5.582 -3.2851  0.9079  2.4098
25421SOL    HW282100   5.833   4.396   5.714 -0.4947 -1.0420  0.7055
25422SOL     OW82101   7.992   2.657  10.521  0.0742  0.1660  1.0437
25422SOL    HW182102   8.002   2.664  10.426  2.2367 -0.4327  1.1781
25422SOL    HW282103   8.009   2.745  10.554  1.0197  0.0139  0.9776
25423SOL     OW82104   2.221   2.370   4.910 -0.4625  0.1172 -0.5595
25423SOL    HW182105   2.217   2.465   4.908 -2.2960  0.0906  0.2782
25423SOL    HW282106   2.201   2.343   4.821 -2.1145  0.4990 -0.3325
25424SOL     OW82107   0.049   7.249   1.158 -0.3669 -0.2698  0.3872
25424SOL    HW182108   0.067   7.261   1.065 -0.0508 -0.7909  0.3773
25424SOL    HW282109  -0.047   7.253   1.164 -0.3342  1.4188  0.2833
25425SOL     OW82110   1.813   3.747   5.794 -0.6388  0.1529 -0.2953
25425SOL    HW182111   1.820   3.763   5.700  0.1635  0.9496 -0.1099
25425SOL    HW282112   1.723   3.768   5.815 -0.1822  2.4888 -0.4501
25426SOL     OW82113   2.083   2.098   4.026 -0.3483  0.6973 -0.1052
25426SOL    HW182114   2.080   2.019   4.081 -1.1385  0.1698 -0.8844
25426SOL    HW282115   2.134   2.071   3.949  0.2298  1.2557  0.0699
25427SOL     OW82116   7.579   4.043   4.073  0.2011 -0.2459  0.3286
25427SOL    HW182117   7.518   3.972   4.088 -0.2464 -0.3696 -1.7229
25427SOL    HW282118   7.604   4.034   3.980  0.6546  1.8416  0.1958
25428SOL     OW82119   5.476   6.356   9.636  0.0146  0.3111 -0.8690
25428SOL    HW182120   5.424   6.317   9.706  1.4677  0.9054  0.6151
25428SOL    HW282121   5.469   6.450   9.651  0.2246  0.4524 -1.6305
25429SOL     OW82122   6.660   8.031  10.165 -0.4622 -0.2712 -0.2181
25429SOL    HW182123   6.658   8.125  10.152  1.6299 -0.2179 -0.5210
25429SOL    HW282124   6.675   8.019  10.259 -2.1514 -0.3796  0.0772
25430SOL     OW82125   2.492   7.431   4.842  0.0923 -0.6082 -0.0583
25430SOL    HW182126   2.524   7.361   4.899 -0.5499 -0.0636  1.0189
25430SOL    HW282127   2.554   7.434   4.770  0.2763 -2.1056  0.0094
25431SOL     OW82128   3.521   3.596   3.598 -0.1349 -0.4408  0.2941
25431SOL    HW182129   3.464   3.562   3.530 -0.0587 -0.7332  0.3752
25431SOL    HW282130   3.603   3.547   3.588 -0.2545 -0.7581  0.8393
25432SOL     OW82131   7.407   4.834   2.622  0.2482 -0.7948  0.3669
25432SOL    HW182132   7.494   4.871   2.635  1.0379 -2.2852 -0.3115
25432SOL    HW282133   7.396   4.772   2.694  0.1919 -1.3453 -0.1041
25433SOL     OW82134   5.202   9.671   8.028  0.4756 -0.2848  0.3260
25433SOL    HW182135   5.119   9.718   8.025  0.1300 -0.8972  0.1670
25433SOL    HW282136   5.193   9.601   7.964  1.7296  0.6128 -0.8903
25434SOL     OW82137   9.088   9.110   0.293 -0.4041  0.3177  0.1849
25434SOL    HW182138   9.141   9.187   0.309  0.3329 -0.2743  0.6817
25434SOL    HW282139   9.012   9.142   0.244  1.1056  0.9673 -1.8707
25435SOL     OW82140   8.159   6.953   2.281  0.2252  0.0196 -0.4419
25435SOL    HW182141   8.122   6.978   2.197 -1.0120  0.8407  0.3152
25435SOL    HW282142   8.226   7.018   2.299  2.8175 -1.9815 -2.2374
25436SOL     OW82143   7.651   3.532   9.806  0.0562 -0.3395 -0.6468
25436SOL    HW182144   7.743   3.519   9.829 -0.4051 -2.6461  0.2335
25436SOL    HW282145   7.653   3.565   9.716  1.7711 -3.7329 -2.0607
25437SOL     OW82146   9.893  10.440   0.275  0.1952  0.0063  0.2615
25437SOL    HW182147   9.903  10.514   0.334 -0.4401  1.8352 -1.8233
25437SOL    HW282148   9.817  10.461   0.222  0.3687 -1.8585 -0.8259
25438SOL     OW82149   4.812   4.738   4.067  0.4996 -0.1487 -0.4077
25438SOL    HW182150   4.813   4.657   4.118  1.3878  0.5820  0.8005
25438SOL    HW282151   4.811   4.807   4.132  1.9939  0.8334 -1.3655
25439SOL     OW82152   4.927   5.634  10.084  0.1303  0.3723  0.0165
25439SOL    HW182153   4.925   5.708  10.145  0.6102 -0.0650  0.5746
25439SOL    HW282154   4.955   5.672  10.001  0.8414  0.7365  0.4164
25440SOL     OW82155   1.628   4.497   5.274 -0.4469 -0.1072 -0.2819
25440SOL    HW182156   1.546   4.545   5.261 -0.4139  0.5222  1.6590
25440SOL    HW282157   1.675   4.507   5.191 -0.6587  2.7752 -0.1431
25441SOL     OW82158   4.372  10.111   9.510 -0.5405  0.3313  0.2276
25441SOL    HW182159   4.314  10.179   9.476 -0.6811  0.1988  0.2028
25441SOL    HW282160   4.399  10.144   9.596 -0.6103  0.4182  0.2167
25442SOL     OW82161   5.861   3.795   0.043  0.8167  0.0741  0.2256
25442SOL    HW182162   5.925   3.857   0.078 -0.2881  0.4240  1.7712
25442SOL    HW282163   5.899   3.709   0.060  0.4644  0.2471  2.0977
25443SOL     OW82164   7.756   8.210  10.385 -0.8786  0.8651 -0.5328
25443SOL    HW182165   7.841   8.194  10.344 -0.6458  0.1455  0.2117
25443SOL    HW282166   7.744   8.305  10.378  0.1926  1.0343 -0.2420
25444SOL     OW82167  10.287   8.375   2.531  0.3715 -0.1445  0.6097
25444SOL    HW182168  10.266   8.468   2.516  0.6323 -0.3175 -1.0803
25444SOL    HW282169  10.292   8.367   2.626 -1.6168  1.1358  0.8948
25445SOL     OW82170   8.401   3.175   6.917 -0.0199 -0.1796 -0.0203
25445SOL    HW182171   8.388   3.181   7.012  0.4347  0.5671  0.0030
25445SOL    HW282172   8.493   3.151   6.907  0.0066  0.0286 -0.2762
25446SOL     OW82173   5.786   3.887   9.454  0.1047  0.0139 -0.2402
25446SOL    HW182174   5.783   3.806   9.504  2.8899 -0.8063 -1.1826
25446SOL    HW282175   5.865   3.931   9.486 -0.2530  1.3781 -1.1679
25447SOL     OW82176   5.335  10.107   3.780  0.7143  0.2661  0.0394
25447SOL    HW182177   5.349  10.202   3.771  0.8922  0.1791 -0.7286
25447SOL    HW282178   5.259  10.099   3.837  1.8297  0.8253  1.6663
25448SOL     OW82179   9.420   2.609   3.322 -0.7770  0.1724  0.4277
25448SOL    HW182180   9.417   2.526   3.370  0.3025 -0.3277 -0.3349
25448SOL    HW282181   9.343   2.607   3.266 -1.5751  0.3743  1.4814
25449SOL     OW82182   3.942   9.410   0.919  0.4011 -0.9052 -0.0816
25449SOL    HW182183   4.032   9.393   0.890  1.2744  0.3299  1.6856
25449SOL    HW282184   3.939   9.378   1.009 -0.4098  0.5262  0.4349
25450SOL     OW82185   7.101  10.172   5.682 -0.4725  0.2074 -0.6530
25450SOL    HW182186   7.118  10.241   5.618  1.2662  0.1330 -0.3164
25450SOL    HW282187   7.186  10.130   5.696 -1.1654 -0.9223  0.3989
25451SOL     OW82188   9.177   9.431   5.780 -0.4454 -0.0865 -0.2151
25451SOL    HW182189   9.158   9.509   5.833 -1.8840 -0.6293  0.1154
25451SOL    HW282190   9.197   9.466   5.693  1.7112  0.8056  0.5598
25452SOL     OW82191   2.813   0.043   2.384  0.3653 -0.2388 -0.2113
25452SOL    HW182192   2.850   0.070   2.300  0.0475  0.7053 -0.0600
25452SOL    HW282193   2.863   0.094   2.449 -0.4714  0.2458  0.0612
25453SOL     OW82194   1.919   0.776   8.874  0.0595 -0.2252 -0.4496
25453SOL    HW182195   1.911   0.825   8.793  0.8367 -2.0099 -1.6576
25453SOL    HW282196   2.008   0.741   8.872 -0.7859 -2.5126 -0.1537
25454SOL     OW82197   0.078   5.194   3.542 -0.2528  0.0121  0.5166
25454SOL    HW182198   0.006   5.192   3.479  1.1511 -0.8235 -1.1390
25454SOL    HW282199   0.112   5.283   3.537 -0.8771  0.2885  0.9999
25455SOL     OW82200   1.926   3.214   0.585 -0.1967 -0.2125  0.3017
25455SOL    HW182201   1.854   3.181   0.639 -1.6835  2.6341  0.2472
25455SOL    HW282202   1.993   3.241   0.648 -0.6440  0.3063  0.5567
25456SOL     OW82203   5.588   1.608   3.717  0.4388  0.4205  0.4138
25456SOL    HW182204   5.520   1.657   3.672  0.1091  0.3804  0.8720
25456SOL    HW282205   5.667   1.624   3.665  0.4293  1.7690  0.7813
25457SOL     OW82206   8.217   1.889   5.877  0.3377  0.2109 -0.0135
25457SOL    HW182207   8.279   1.817   5.865  0.7890  0.6600 -0.4497
25457SOL    HW282208   8.195   1.917   5.788  1.1585  1.4309  0.1436
25458SOL     OW82209   2.349   0.661   9.051 -0.3072  0.1829  0.1301
25458SOL    HW182210   2.290   0.703   9.114 -0.9510  0.0086 -0.3450
25458SOL    HW282211   2.431   0.652   9.098 -0.6201  0.5550  0.7646
25459SOL     OW82212   9.436   0.480   9.644  0.4403 -0.4014  0.2905
25459SOL    HW182213   9.520   0.435   9.655 -0.0778 -1.1934  1.0869
25459SOL    HW282214   9.383   0.450   9.717 -0.6844 -0.2252 -0.4370
25460SOL     OW82215   2.933   9.162   7.872 -0.8601 -0.2252  0.6989
25460SOL    HW182216   2.957   9.154   7.965 -2.8114 -1.7992  1.1383
25460SOL    HW282217   2.840   9.139   7.869 -0.9453  0.2011 -1.6062
25461SOL     OW82218   6.379   1.636   4.542 -0.4934 -0.6025 -0.3369
25461SOL    HW182219   6.328   1.714   4.523 -0.0405  0.0755  1.1230
25461SOL    HW282220   6.316   1.575   4.581  0.0419  0.9446  3.3219
25462SOL     OW82221   3.548  10.541   5.082  0.3799  0.0579  0.6160
25462SOL    HW182222   3.604  10.568   5.155 -1.0028  2.2754  0.9387
25462SOL    HW282223   3.497  10.468   5.117  1.9272 -0.9831  0.8047
25463SOL     OW82224   7.806   7.510   8.454 -0.0455 -0.4719 -0.3034
25463SOL    HW182225   7.896   7.521   8.422  0.1457  1.6918  0.8209
25463SOL    HW282226   7.779   7.424   8.421  1.7367 -0.3329 -2.3196
25464SOL     OW82227   2.455   1.603   0.037 -0.1328 -0.3239 -0.2976
25464SOL    HW182228   2.389   1.543   0.003  2.0616 -1.7702 -2.3386
25464SOL    HW282229   2.527   1.598  -0.026  1.3429  2.3093  0.9961
25465SOL     OW82230   9.944   4.367   7.856 -0.1518 -0.2124  0.3161
25465SOL    HW182231   9.954   4.275   7.832  3.5751  0.0709  0.2151
25465SOL    HW282232   9.937   4.367   7.951  0.2501 -0.6038  0.3481
25466SOL     OW82233   4.900   4.272   4.522  0.1439 -0.2804 -0.2884
25466SOL    HW182234   4.896   4.179   4.545  1.5482 -0.1801  0.5261
25466SOL    HW282235   4.975   4.278   4.463  0.8498  0.4967  0.6560
25467SOL     OW82236   6.506   9.027   2.551 -0.0136 -0.1880 -0.2632
25467SOL    HW182237   6.428   8.997   2.504  0.1097  1.1300 -1.3891
25467SOL    HW282238   6.558   8.948   2.564 -0.5405 -0.7687 -1.4572
25468SOL     OW82239  10.126   1.682   4.303  0.1667  0.3616  0.0445
25468SOL    HW182240  10.039   1.717   4.323  0.2119  0.4145  0.1519
25468SOL    HW282241  10.186   1.752   4.328  0.2646  0.1627  0.3684
25469SOL     OW82242   6.767   5.794   9.515 -0.5563 -0.6228  0.1353
25469SOL    HW182243   6.691   5.774   9.568 -0.1165 -3.6791 -0.2281
25469SOL    HW282244   6.830   5.725   9.534  0.7028 -0.2860 -2.2888
25470SOL     OW82245   6.826   5.526   7.882  0.1023  0.3493  0.6055
25470SOL    HW182246   6.854   5.613   7.908  2.3372 -0.3978  0.8926
25470SOL    HW282247   6.743   5.512   7.928  0.0458  2.0443  1.0577
25471SOL     OW82248   1.117   7.094   9.672  0.3044  0.2248 -1.0908
25471SOL    HW182249   1.132   7.001   9.690  2.7309  0.6148 -0.6907
25471SOL    HW282250   1.069   7.126   9.748 -0.5622 -0.6768 -1.2384
25472SOL     OW82251   6.714   6.877   3.856  0.6023  0.7737 -0.5635
25472SOL    HW182252   6.722   6.971   3.873 -1.1286  0.9575 -0.5491
25472SOL    HW282253   6.690   6.839   3.941  4.1870 -0.1961  0.1848
25473SOL     OW82254   9.444   4.810   3.991  0.8264 -0.0761  0.2724
25473SOL    HW182255   9.349   4.816   3.983  0.9937  1.0956 -1.2095
25473SOL    HW282256   9.458   4.779   4.080 -0.9791 -2.0814 -0.0704
25474SOL     OW82257   7.115   2.146   9.700 -0.1051 -0.1173 -0.0940
25474SOL    HW182258   7.050   2.215   9.687 -1.1769 -1.2586 -1.0669
25474SOL    HW282259   7.199   2.191   9.693 -0.7757  1.0966 -0.6459
25475SOL     OW82260   5.555  10.342   2.345  0.2465 -0.1292  0.2700
25475SOL    HW182261   5.562  10.379   2.433  0.4694 -0.0175  0.2064
25475SOL    HW282262   5.631  10.377   2.298  0.7517 -1.0715  0.3596
25476SOL     OW82263   8.627   9.700   0.334  0.1111 -0.2478  0.2401
25476SOL    HW182264   8.590   9.767   0.275 -0.8094 -1.5644 -0.7277
25476SOL    HW282265   8.714   9.682   0.298 -0.8092 -1.7360 -1.3588
25477SOL     OW82266   1.771   8.216   0.395  0.3448  0.4555  0.1040
25477SOL    HW182267   1.690   8.172   0.370 -0.6267  0.9190  2.2136
25477SOL    HW282268   1.754   8.309   0.380 -0.2936  0.7555  2.3288
25478SOL     OW82269   2.322   1.103   9.233  0.3383 -0.3568 -0.1736
25478SOL    HW182270   2.341   1.080   9.143 -0.9082  1.7745 -1.0578
25478SOL    HW282271   2.270   1.030   9.266  1.7184 -1.6696 -0.7803
25479SOL     OW82272   1.181   1.274   4.211  0.4999  0.0753  0.4923
25479SOL    HW182273   1.159   1.221   4.288  2.2040  1.4438  2.0078
25479SOL    HW282274   1.267   1.242   4.184  1.4670  1.8417  1.3120
25480SOL     OW82275   5.169   0.958   3.137 -0.2866  0.0514 -0.1687
25480SOL    HW182276   5.123   0.902   3.074 -0.3124  1.2513 -1.2540
25480SOL    HW282277   5.099   0.993   3.194 -0.5819  0.8668 -1.0129
25481SOL     OW82278   5.617   4.676   5.003  0.0218  0.3489  0.3775
25481SOL    HW182279   5.587   4.648   5.090  0.0817  1.5260  0.8055
25481SOL    HW282280   5.540   4.715   4.963  0.2399  0.7033  0.3002
25482SOL     OW82281   2.309   9.487   1.262  0.4220  0.1075 -0.0652
25482SOL    HW182282   2.388   9.535   1.238 -0.3014  1.8787  0.9206
25482SOL    HW282283   2.258   9.482   1.180  0.2238  1.6421 -0.0671
25483SOL     OW82284   9.888   4.829   8.257 -0.0527  0.2987  0.5704
25483SOL    HW182285   9.972   4.796   8.227  0.4205  1.5133  0.5419
25483SOL    HW282286   9.849   4.871   8.180  0.0371  1.1564  0.9785
25484SOL     OW82287   8.120   2.279   3.516 -0.3837  0.1939  0.1416
25484SOL    HW182288   8.135   2.314   3.604  0.0882 -0.8850  0.5056
25484SOL    HW282289   8.180   2.327   3.460 -1.1548  1.3604  0.2802
25485SOL     OW82290  10.154   2.662   1.241  0.3151 -0.5349 -0.2508
25485SOL    HW182291  10.186   2.744   1.278  0.2970  0.6489 -2.6620
25485SOL    HW282292  10.059   2.672   1.238  0.2324 -1.0630  0.3120
25486SOL     OW82293   6.133   3.233   0.304 -0.4097 -0.0166  0.8430
25486SOL    HW182294   6.195   3.167   0.273 -1.5572 -0.1022 -1.5633
25486SOL    HW282295   6.053   3.184   0.323 -1.5744  0.6392 -1.8597
25487SOL     OW82296   4.849   4.642  10.453 -0.3596  0.2996 -0.2046
25487SOL    HW182297   4.918   4.584  10.486  0.6520  1.0114 -1.0216
25487SOL    HW282298   4.778   4.634  10.517  1.3403  1.2525  1.9269
25488SOL     OW82299   5.983   2.825   2.199  0.7328  0.1396  0.2866
25488SOL    HW182300   6.015   2.735   2.215  0.9677  0.1385 -0.1681
25488SOL    HW282301   5.911   2.814   2.138  0.6351  0.2463  0.3834
25489SOL     OW82302   3.454   7.830   6.487  0.1953 -0.6025  0.0884
25489SOL    HW182303   3.453   7.750   6.539 -0.0075 -0.1262  0.8149
25489SOL    HW282304   3.444   7.901   6.550  0.6755  0.0200 -0.5147
25490SOL     OW82305   0.689   9.387   8.982 -0.7783 -0.2429  0.3958
25490SOL    HW182306   0.599   9.408   9.005 -0.3016  1.3953  0.8521
25490SOL    HW282307   0.708   9.442   8.906 -0.8878 -2.3213 -1.2474
25491SOL     OW82308   3.592   5.730   1.602  0.1358 -0.1887 -0.3515
25491SOL    HW182309   3.564   5.821   1.602  3.1703  0.8817 -0.8326
25491SOL    HW282310   3.580   5.701   1.511 -1.0965 -0.4016 -0.1364
25492SOL     OW82311   1.886  10.444  10.354  0.0718  0.2351 -0.0708
25492SOL    HW182312   1.856  10.451  10.263 -1.1467 -0.1691  0.2822
25492SOL    HW282313   1.982  10.447  10.347  0.0879 -1.5181 -1.5508
25493SOL     OW82314   3.191   5.417   6.198  0.5942 -0.1629 -0.3175
25493SOL    HW182315   3.217   5.371   6.278  1.6840 -0.2162 -0.6810
25493SOL    HW282316   3.269   5.467   6.173 -0.0442  0.6053 -0.8251
25494SOL     OW82317   3.039   0.411   0.922  0.5835 -0.2494  0.3688
25494SOL    HW182318   3.022   0.487   0.867 -2.1810  1.9821  3.8679
25494SOL    HW282319   3.134   0.405   0.926  0.8836  1.1879 -2.2589
25495SOL     OW82320   3.702   2.797   7.493 -0.3571 -0.4618 -0.2919
25495SOL    HW182321   3.789   2.788   7.455 -0.3605 -0.2945 -0.3417
25495SOL    HW282322   3.717   2.791   7.588 -0.3486 -0.8659 -0.3180
25496SOL     OW82323   1.373   9.493   0.526 -0.8296  0.3332  0.4873
25496SOL    HW182324   1.424   9.573   0.518 -0.5795  0.1012 -0.4172
25496SOL    HW282325   1.303   9.514   0.588  0.4512  0.6010  1.9051
25497SOL     OW82326   1.806   9.873   2.570 -0.1924  0.2745  0.1032
25497SOL    HW182327   1.851   9.789   2.560  1.1765  0.6929  2.1165
25497SOL    HW282328   1.825   9.921   2.490 -0.3599 -1.0197 -0.7494
25498SOL     OW82329   4.845   7.241   1.366  0.2748  0.0758  0.5470
25498SOL    HW182330   4.753   7.255   1.345  0.0678  0.2055  1.4899
25498SOL    HW282331   4.889   7.321   1.338  0.3261 -0.4947 -1.1032
25499SOL     OW82332   7.854   2.551   8.464  0.1506  0.4173 -0.6719
25499SOL    HW182333   7.917   2.617   8.493 -0.1126  0.3199  0.1594
25499SOL    HW282334   7.779   2.601   8.433  0.6966  0.5397 -1.8596
25500SOL     OW82335   5.740   3.665  10.060  0.4269 -0.1497 -0.3395
25500SOL    HW182336   5.667   3.642  10.002  0.1510 -0.0140 -0.0449
25500SOL    HW282337   5.800   3.590  10.054 -1.2201 -1.7758  1.8954
25501SOL     OW82338   3.387   8.810   8.581 -0.5151  0.1318  0.0650
25501SOL    HW182339   3.466   8.813   8.635 -0.3311  0.7005 -0.2313
25501SOL    HW282340   3.419   8.810   8.491 -0.8390 -0.3102 -0.0580
25502SOL     OW82341   3.461   0.955   9.696 -0.0943  0.2699 -0.0675
25502SOL    HW182342   3.458   0.860   9.710 -0.9530  0.4022  0.7452
25502SOL    HW282343   3.553   0.978   9.708  0.0208 -0.3771  0.3342
25503SOL     OW82344   0.964   8.815   1.697 -0.3012  0.2380 -0.3342
25503SOL    HW182345   0.934   8.729   1.726 -1.1572  0.7714  0.4270
25503SOL    HW282346   1.057   8.816   1.718 -0.5306 -0.0704  0.7821
25504SOL     OW82347   9.412   3.673   0.720  0.0592  0.1425 -0.3195
25504SOL    HW182348   9.469   3.613   0.672 -0.7641 -0.7591 -0.2107
25504SOL    HW282349   9.387   3.624   0.799 -1.8080  0.0080 -0.9327
25505SOL     OW82350   8.632   8.061   4.533  0.3667 -0.5290 -0.1373
25505SOL    HW182351   8.598   8.054   4.443  2.6380  0.3983 -1.1481
25505SOL    HW282352   8.595   8.142   4.567 -0.6825 -0.9945 -0.1020
25506SOL     OW82353   0.840   3.238   4.268 -0.1287  0.3183  0.2191
25506SOL    HW182354   0.901   3.194   4.209 -0.1988 -0.5479  0.7789
25506SOL    HW282355   0.758   3.189   4.258  0.3982 -1.2002  2.5511
25507SOL     OW82356   1.772   4.178   5.191  0.2648 -0.0875 -0.4674
25507SOL    HW182357   1.683   4.210   5.176 -0.5691 -1.4435  1.2239
25507SOL    HW282358   1.820   4.203   5.112 -1.4091  1.3334 -1.1085
25508SOL     OW82359   4.876   2.093   0.298 -0.1388 -0.5099 -0.0075
25508SOL    HW182360   4.851   2.158   0.233  0.2863  0.4151  0.7278
25508SOL    HW282361   4.844   2.010   0.263  0.7046 -0.1512 -1.7360
25509SOL     OW82362   3.829   2.177   6.894  0.5355  0.2562  0.1424
25509SOL    HW182363   3.800   2.200   6.982  2.6588  1.4261  0.5995
25509SOL    HW282364   3.814   2.255   6.842  0.5781  0.0430 -0.1929
25510SOL     OW82365   6.142   9.404   3.686  0.0014 -0.4644 -0.2697
25510SOL    HW182366   6.204   9.426   3.616  0.0626 -0.6701 -0.2815
25510SOL    HW282367   6.075   9.351   3.642  0.0514 -0.6115 -0.1677
25511SOL     OW82368   8.582   2.515   9.166 -0.3493  0.1395  0.3142
25511SOL    HW182369   8.518   2.517   9.096  0.9754  0.2321 -0.9321
25511SOL    HW282370   8.637   2.439   9.147  0.7191  0.8170  0.6080
25512SOL     OW82371   7.566   1.436   2.231  0.2928 -0.1952  0.4637
25512SOL    HW182372   7.622   1.488   2.289 -1.0477  1.1877  0.5938
25512SOL    HW282373   7.503   1.394   2.290  0.8367 -1.3013  0.2735
25513SOL     OW82374   6.087   8.189   9.474 -0.6443 -0.5263  0.5505
25513SOL    HW182375   5.993   8.185   9.457 -0.5596 -2.6318  0.2633
25513SOL    HW282376   6.114   8.273   9.439 -2.1070 -0.7141 -1.2134
25514SOL     OW82377   3.979   8.274  10.358 -0.3993 -0.3016  0.6220
25514SOL    HW182378   3.957   8.366  10.376  0.3874  0.4473 -1.7549
25514SOL    HW282379   3.927   8.252  10.281  1.6145 -0.8158 -0.6728
25515SOL     OW82380   4.581   9.699   7.808  0.0342  0.2505 -0.0473
25515SOL    HW182381   4.536   9.622   7.774 -0.1334  0.7688 -1.0255
25515SOL    HW282382   4.643   9.663   7.872 -0.2670 -0.6625 -0.2442
25516SOL     OW82383   5.729  10.337   5.799 -0.2776  0.4074  0.1958
25516SOL    HW182384   5.798  10.370   5.742 -1.3815 -0.2145 -1.5685
25516SOL    HW282385   5.764  10.256   5.835 -0.1387  0.0125 -0.8136
25517SOL     OW82386  10.223   4.280   0.318 -0.2939  0.3372 -0.0192
25517SOL    HW182387  10.280   4.313   0.388  1.1673  1.9961 -1.8727
25517SOL    HW282388  10.205   4.356   0.264 -0.1689 -1.1271 -2.2518
25518SOL     OW82389   0.875   9.980   1.424  0.2156  0.4669  0.4408
25518SOL    HW182390   0.904   9.977   1.333  0.7411  0.1914  0.6155
25518SOL    HW282391   0.921   9.907   1.467 -0.9469 -0.1661  0.6541
25519SOL     OW82392   6.285   7.689   6.537  0.4314 -0.3818 -0.6749
25519SOL    HW182393   6.317   7.599   6.526  0.5892 -0.1562 -2.3801
25519SOL    HW282394   6.361   7.738   6.569  0.1199 -0.9780  1.1065
25520SOL     OW82395   0.156  10.468   6.573 -0.7786 -0.1394  0.3761
25520SOL    HW182396   0.071  10.484   6.615 -0.7749  0.2458  0.2389
25520SOL    HW282397   0.138  10.478   6.480 -1.1123 -2.4089  0.1481
25521SOL     OW82398   4.324   9.659  10.025  0.0958  0.0941  0.0888
25521SOL    HW182399   4.326   9.581  10.081 -0.9680  1.2214  1.7773
25521SOL    HW282400   4.405   9.706  10.046  0.7138 -0.4815 -0.8942
25522SOL     OW82401   6.875  10.706   6.257  0.2820  0.6369 -0.2744
25522SOL    HW182402   6.865  10.798   6.234  0.6947  0.2509 -2.1865
25522SOL    HW282403   6.954  10.703   6.310 -0.9162  1.6253  1.6985
25523SOL     OW82404   7.095   3.560   1.124 -0.5743 -0.2746  0.5092
25523SOL    HW182405   7.041   3.639   1.121  0.4799  0.4532  0.0144
25523SOL    HW282406   7.032   3.488   1.126 -1.6999  0.3967 -3.1173
25524SOL     OW82407   3.854   3.857   6.534  0.4946 -0.0706 -0.3643
25524SOL    HW182408   3.908   3.870   6.456 -0.3303  0.4633 -0.8662
25524SOL    HW282409   3.788   3.927   6.529 -1.0450 -1.4747 -0.4815
25525SOL     OW82410   3.916   9.904   2.399 -0.0779  0.4948  0.1711
25525SOL    HW182411   3.917   9.896   2.495 -0.8464 -0.5169  0.1133
25525SOL    HW282412   4.003   9.937   2.377  0.5439 -0.4334  1.1262
25526SOL     OW82413   4.830   6.546   2.234 -0.0793 -0.1433  0.9926
25526SOL    HW182414   4.809   6.529   2.143 -0.7501 -3.9954  1.6893
25526SOL    HW282415   4.924   6.565   2.235 -0.0574 -0.1233 -0.4895
25527SOL     OW82416   6.129   6.745   2.598 -0.2565  0.0008  0.4947
25527SOL    HW182417   6.215   6.705   2.583 -0.5813 -0.5838  0.1486
25527SOL    HW282418   6.084   6.736   2.515 -1.8238 -2.6100  1.5340
25528SOL     OW82419   6.402   9.722   8.805 -0.0063  0.2721  0.0295
25528SOL    HW182420   6.403   9.670   8.885  0.6360  0.9446  0.4660
25528SOL    HW282421   6.485   9.700   8.762 -0.4563 -0.2759 -0.5901
25529SOL     OW82422   1.644   2.212   1.182 -0.0659 -0.1987 -0.1907
25529SOL    HW182423   1.600   2.127   1.180  0.4735 -0.4765 -0.4759
25529SOL    HW282424   1.605   2.261   1.110  0.2375 -0.5209 -0.5793
25530SOL     OW82425   6.714   6.705   3.007  0.4055 -0.1217 -0.1536
25530SOL    HW182426   6.727   6.645   3.081 -2.4616  0.2082  0.7472
25530SOL    HW282427   6.779   6.774   3.021 -1.0395  0.7640  3.0587
25531SOL     OW82428   9.614   5.399   8.834  0.0640 -0.1438 -0.3675
25531SOL    HW182429   9.534   5.348   8.842 -0.3725  0.7962  1.9891
25531SOL    HW282430   9.684   5.337   8.854 -0.2573 -0.4254 -0.1063
25532SOL     OW82431   4.711   3.846   5.986  0.1528 -0.3769  0.2503
25532SOL    HW182432   4.790   3.799   5.958 -0.5745  0.5436 -4.0397
25532SOL    HW282433   4.639   3.789   5.958 -0.6874  1.1965 -0.9324
25533SOL     OW82434   5.664   8.675  10.705 -0.2406  0.1670  0.4570
25533SOL    HW182435   5.712   8.726  10.770 -2.8912  0.2164  2.5534
25533SOL    HW282436   5.618   8.740  10.652  1.8149  0.1210 -1.5234
25534SOL     OW82437   3.573   5.772   4.581  0.6994  0.2285 -0.6248
25534SOL    HW182438   3.591   5.842   4.518 -0.7557  1.8606  0.6611
25534SOL    HW282439   3.621   5.797   4.660 -1.8510  1.2853  0.7186
25535SOL     OW82440   6.873   7.887   1.115  0.3992 -0.8501 -0.0684
25535SOL    HW182441   6.795   7.864   1.166  1.2439  0.0221  1.7244
25535SOL    HW282442   6.840   7.905   1.027 -1.8336  1.5478  1.0979
25536SOL     OW82443   6.071   6.854   1.094  0.2762 -0.2401 -0.4831
25536SOL    HW182444   6.026   6.797   1.156  1.5573  0.7796  1.4763
25536SOL    HW282445   6.151   6.806   1.071  1.4848  0.7710  1.3685
25537SOL     OW82446   7.386  10.423   4.506 -0.2097 -0.0640  0.7747
25537SOL    HW182447   7.361  10.342   4.461  0.4403 -0.1847  0.6233
25537SOL    HW282448   7.472  10.404   4.544  0.3713  0.8395 -0.0379
25538SOL     OW82449   1.782   3.849   8.455  0.2434  0.5611  0.3405
25538SOL    HW182450   1.823   3.853   8.369  0.8379 -0.8714  0.5312
25538SOL    HW282451   1.816   3.925   8.501  0.5833  0.8769 -0.4059
25539SOL     OW82452   6.758   4.198   9.610 -0.0486  0.0118 -0.0337
25539SOL    HW182453   6.708   4.250   9.547 -1.4711 -1.7577 -0.4466
25539SOL    HW282454   6.824   4.153   9.558  0.1181  0.1393  0.0668
25540SOL     OW82455   7.562   9.715  10.680  0.5465 -0.6489 -0.4926
25540SOL    HW182456   7.605   9.677  10.757  1.7784 -0.7401 -1.2026
25540SOL    HW282457   7.481   9.753  10.714  0.8671 -1.0525  0.7754
25541SOL     OW82458   4.577   7.836   9.745  0.0253 -0.1387  0.1493
25541SOL    HW182459   4.538   7.915   9.707  0.2585  0.8681  1.8774
25541SOL    HW282460   4.504   7.775   9.752 -1.0653  1.2678  2.1521
25542SOL     OW82461   5.837   1.736   9.166  0.4551 -0.4017  0.6479
25542SOL    HW182462   5.796   1.652   9.148 -0.3657  0.2531 -0.6903
25542SOL    HW282463   5.877   1.725   9.253  0.2035 -2.0865  0.5853
25543SOL     OW82464   3.585   1.149   5.302 -0.4919  0.8810  0.3965
25543SOL    HW182465   3.529   1.211   5.349 -0.4289 -0.1040  1.8400
25543SOL    HW282466   3.675   1.176   5.325 -0.4596  0.4467  0.7959
25544SOL     OW82467   8.572   3.039   3.018  0.0106  0.2438 -0.1147
25544SOL    HW182468   8.508   2.993   3.073 -0.5757 -1.1358 -1.8222
25544SOL    HW282469   8.632   3.081   3.080 -1.6420  0.2896  1.5414
25545SOL     OW82470   0.075   7.238   6.969  0.1240  0.1906  0.0655
25545SOL    HW182471   0.064   7.166   7.032 -0.7995  0.3427  0.0878
25545SOL    HW282472   0.091   7.315   7.023 -0.9316  0.3699  0.1430
25546SOL     OW82473   5.911   2.000   3.455 -0.1152  0.5338 -0.5637
25546SOL    HW182474   5.884   2.072   3.512  1.1651 -0.5347  1.5102
25546SOL    HW282475   5.880   1.922   3.499 -0.1551 -0.2832 -1.9938
25547SOL     OW82476   2.726   5.752   4.015 -0.4281 -0.3646  0.0315
25547SOL    HW182477   2.791   5.687   3.987  0.4457 -0.0282  1.1796
25547SOL    HW282478   2.778   5.822   4.054 -1.4498 -1.6409  4.3545
25548SOL     OW82479   7.545   9.645   4.152 -0.4500 -0.1150 -0.8872
25548SOL    HW182480   7.506   9.593   4.082  0.3157 -2.0955  0.0870
25548SOL    HW282481   7.562   9.582   4.222 -1.0235  1.7446  1.0369
25549SOL     OW82482  10.715   5.616   3.029  0.2867  0.0087  0.6749
25549SOL    HW182483  10.694   5.527   3.056 -3.2547  0.1533 -1.0075
25549SOL    HW282484  10.760   5.605   2.945 -0.7246 -0.2236  0.1489
25550SOL     OW82485  10.122   4.420   0.590 -0.2370  0.5116  0.0941
25550SOL    HW182486  10.200   4.366   0.599 -1.3520 -1.2996 -0.4877
25550SOL    HW282487  10.147   4.505   0.625  0.8992 -1.0159  3.3730
25551SOL     OW82488   7.737   5.601   9.019 -0.2232  0.4910 -0.2892
25551SOL    HW182489   7.691   5.648   8.949 -1.0856 -0.4284 -0.3573
25551SOL    HW282490   7.714   5.509   9.005 -0.7905  0.3344  1.4833
25552SOL     OW82491   0.591   3.725   2.380 -0.0557 -0.5738 -0.3856
25552SOL    HW182492   0.582   3.630   2.377 -2.3154 -0.4523  0.4693
25552SOL    HW282493   0.508   3.758   2.346 -0.0291  1.0662  0.9911
25553SOL     OW82494   4.831   9.476   2.134 -0.2053  0.7991  0.2181
25553SOL    HW182495   4.788   9.558   2.109  4.1598  3.1573 -0.6539
25553SOL    HW282496   4.865   9.493   2.222  1.0072  0.0791 -0.0906
25554SOL     OW82497   7.245   4.132   8.327  0.0420  0.2325 -0.0532
25554SOL    HW182498   7.274   4.161   8.413 -0.9135 -0.7966  0.6392
25554SOL    HW282499   7.296   4.185   8.265  0.6975  1.0205  1.1333
25555SOL     OW82500   3.162   7.422   5.521  0.7964  0.0510  0.2346
25555SOL    HW182501   3.249   7.385   5.506  0.2361 -1.8900  1.3975
25555SOL    HW282502   3.179   7.502   5.572  1.9142 -0.2987  0.4386
25556SOL     OW82503   2.475   6.224   2.631  0.5777  0.1202 -0.5705
25556SOL    HW182504   2.382   6.241   2.616  0.5582  1.1580  0.5597
25556SOL    HW282505   2.489   6.136   2.594 -0.8700 -0.1179 -0.6402
25557SOL     OW82506   6.004   9.953   3.787 -0.0089 -0.0338 -0.4636
25557SOL    HW182507   5.909   9.962   3.777  0.1847  2.9152 -0.5988
25557SOL    HW282508   6.039   9.977   3.701  0.8624 -0.8409 -0.3371
25558SOL     OW82509   5.021   0.942   8.266 -0.0324 -0.2412 -0.5219
25558SOL    HW182510   5.045   0.994   8.189 -2.6087  1.9983  0.0128
25558SOL    HW282511   5.095   0.951   8.325  1.5172 -1.0715 -2.2288
25559SOL     OW82512   3.013   3.451   8.056  0.3100 -0.3722  0.5053
25559SOL    HW182513   2.994   3.461   7.963 -1.8026 -1.0249  0.8068
25559SOL    HW282514   2.935   3.485   8.100  1.6641  0.8233  2.0901
25560SOL     OW82515   4.941   2.428   8.041  0.4666  0.5916 -0.0499
25560SOL    HW182516   5.016   2.440   8.099  0.3720  3.4029 -0.3530
25560SOL    HW282517   4.958   2.486   7.967 -1.0638 -0.2556 -1.1400
25561SOL     OW82518   3.479   2.859   0.658  0.1453 -0.3295 -0.0091
25561SOL    HW182519   3.509   2.784   0.608  0.0360 -0.4783  0.1485
25561SOL    HW282520   3.559   2.908   0.678 -0.0350  1.4653 -3.0526
25562SOL     OW82521   0.628   9.607   9.584 -0.2675  0.1454 -0.0445
25562SOL    HW182522   0.712   9.584   9.623  0.5662  1.4000 -1.0082
25562SOL    HW282523   0.638   9.584   9.491 -1.9369 -2.0930  0.2350
25563SOL     OW82524   7.074   8.141   3.021  0.1983  0.0392 -0.3063
25563SOL    HW182525   7.078   8.112   2.930  2.0005  1.0755 -0.6081
25563SOL    HW282526   7.125   8.222   3.022 -0.1531  0.2695  1.5558
25564SOL     OW82527   8.452   0.335   5.665  0.1806  0.2986  0.1572
25564SOL    HW182528   8.444   0.273   5.737  1.5214  0.3398  0.3593
25564SOL    HW282529   8.386   0.307   5.602  0.5674 -1.1626  0.3704
25565SOL     OW82530   3.871   9.565   8.013 -0.3614 -0.3373  0.0323
25565SOL    HW182531   3.821   9.494   8.053  0.8164 -1.1134  0.1795
25565SOL    HW282532   3.926   9.598   8.083 -1.7216  1.5410  0.2761
25566SOL     OW82533   3.357   1.751   2.620 -0.1101  0.4425 -0.1396
25566SOL    HW182534   3.316   1.809   2.556  0.5870 -0.6216 -1.6025
25566SOL    HW282535   3.441   1.793   2.639  0.5052 -0.1650 -1.3902
25567SOL     OW82536   3.590   5.349   0.070  0.2271  0.4634 -0.0940
25567SOL    HW182537   3.656   5.283   0.047  1.5760  2.0296 -0.9048
25567SOL    HW282538   3.545   5.367  -0.013 -1.5682 -0.8926  0.5336
25568SOL     OW82539   7.829   1.592   2.863 -0.1904  0.4358  0.2632
25568SOL    HW182540   7.805   1.542   2.942 -0.0379 -0.6174 -0.3372
25568SOL    HW282541   7.925   1.600   2.868 -0.0762 -0.4413 -0.2614
25569SOL     OW82542   6.305   4.627  10.684 -0.2991  0.6076  0.0381
25569SOL    HW182543   6.355   4.632  10.603  0.8613  1.3039  0.7717
25569SOL    HW282544   6.367   4.651  10.753 -0.7153 -1.9368  1.3953
25570SOL     OW82545   8.724   5.923   2.723 -0.2653  0.4534  0.3294
25570SOL    HW182546   8.664   5.850   2.713 -1.7623  1.6353  0.3548
25570SOL    HW282547   8.704   5.982   2.650  0.5401  1.0867  0.5976
25571SOL     OW82548   4.754   7.835   6.399  0.4484  0.3738  0.1512
25571SOL    HW182549   4.735   7.771   6.330  0.3606 -0.6062  1.0638
25571SOL    HW282550   4.676   7.834   6.455 -1.6812  4.6021 -2.1747
25572SOL     OW82551   2.816   2.359   1.691 -0.0053  0.3175  0.1886
25572SOL    HW182552   2.751   2.394   1.630  1.1415  0.1663 -1.1603
25572SOL    HW282553   2.852   2.436   1.735  0.4964  0.6038 -0.7093
25573SOL     OW82554   4.491   5.908   8.621 -0.4377 -0.7660  0.3151
25573SOL    HW182555   4.464   5.998   8.637  0.8280 -0.2315 -0.3248
25573SOL    HW282556   4.455   5.857   8.693 -0.8425  0.3230  0.8883
25574SOL     OW82557  10.011  10.665   1.621  0.0858  0.1251  0.4339
25574SOL    HW182558  10.069  10.715   1.563  0.2943  1.4384  1.6955
25574SOL    HW282559   9.953  10.617   1.563  1.6430 -0.2667 -0.8665
25575SOL     OW82560   9.129   9.665   8.231 -0.0453  0.1097  0.0657
25575SOL    HW182561   9.149   9.634   8.319  0.7645 -0.3823 -0.2770
25575SOL    HW282562   9.106   9.585   8.183  2.8541 -0.1875 -1.0473
25576SOL     OW82563   3.411  10.209  10.580 -0.2815 -0.3167  0.5580
25576SOL    HW182564   3.316  10.208  10.590 -0.4298  1.8739 -0.0932
25576SOL    HW282565   3.426  10.174  10.492 -0.7203  1.5789 -0.3202
25577SOL     OW82566   9.926   7.542   9.638  0.2045 -0.3047  0.0096
25577SOL    HW182567   9.875   7.580   9.567  0.5536  1.1576  0.5217
25577SOL    HW282568   9.999   7.602   9.651  0.6986 -1.0720  0.9500
25578SOL     OW82569   6.469   9.936   0.565 -0.2626 -0.1829 -0.4842
25578SOL    HW182570   6.390   9.892   0.595 -1.9454  2.7384 -0.1961
25578SOL    HW282571   6.520   9.951   0.645 -0.5007 -0.1331 -0.3421
25579SOL     OW82572   1.325   4.362   6.976  0.5047  0.2235  0.4121
25579SOL    HW182573   1.351   4.329   7.063 -0.5737 -0.6267  0.4307
25579SOL    HW282574   1.373   4.445   6.967 -0.2219  0.9137  2.3117
25580SOL     OW82575   6.601  10.064  10.695  0.1583  0.2257 -0.2017
25580SOL    HW182576   6.631  10.124  10.627  1.4773 -0.1674 -0.0075
25580SOL    HW282577   6.642  10.097  10.775 -0.8582  0.3109  0.2934
25581SOL     OW82578   4.621   6.586   9.548  0.2933  0.3373 -1.1760
25581SOL    HW182579   4.608   6.561   9.457 -2.6361 -1.3907 -0.4264
25581SOL    HW282580   4.626   6.502   9.595 -0.9940  1.1571  0.5119
25582SOL     OW82581  10.680   7.792   9.184  0.2655 -0.1695  0.3037
25582SOL    HW182582  10.601   7.763   9.140 -0.0616  0.6627  0.3379
25582SOL    HW282583  10.653   7.805   9.275  0.7013 -0.9162  0.5520
25583SOL     OW82584   8.827   4.329   5.284  0.1342  0.1437  0.3965
25583SOL    HW182585   8.733   4.344   5.274  0.1674 -0.6390 -1.4734
25583SOL    HW282586   8.832   4.247   5.333 -0.2352 -0.9853 -1.3579
25584SOL     OW82587   6.615   3.940   7.702 -0.0512 -0.4066 -0.0190
25584SOL    HW182588   6.642   4.031   7.688  1.5714 -0.8552  0.0043
25584SOL    HW282589   6.625   3.899   7.616 -2.3080 -0.2417 -0.4284
25585SOL     OW82590   6.311   2.416   2.789  0.1755  0.3816 -0.3585
25585SOL    HW182591   6.241   2.405   2.853  0.2209 -0.0954 -0.3849
25585SOL    HW282592   6.388   2.438   2.842  0.4013 -0.8096 -0.1582
25586SOL     OW82593   9.598   1.721   2.445  0.0905  0.9662 -0.0301
25586SOL    HW182594   9.579   1.648   2.503  3.0946  0.0883  0.0127
25586SOL    HW282595   9.617   1.794   2.504 -0.5377  1.1126 -0.0091
25587SOL     OW82596   7.553   0.448   7.651 -0.0721  0.1525  1.0716
25587SOL    HW182597   7.642   0.427   7.622 -1.1769 -1.8079 -1.3281
25587SOL    HW282598   7.531   0.527   7.602  0.0914  0.2181  1.1019
25588SOL     OW82599   7.105   4.702   2.523  0.1797 -0.2836 -0.4725
25588SOL    HW182600   7.155   4.679   2.602  0.8042 -0.5596 -0.9369
25588SOL    HW282601   7.171   4.702   2.453 -0.3885 -0.1409 -1.0103
25589SOL     OW82602   3.748   7.724   9.974  0.2057 -0.2392 -0.1712
25589SOL    HW182603   3.711   7.676   9.900 -2.6583  0.5146  0.6542
25589SOL    HW282604   3.694   7.802   9.983  0.4261 -0.2848  2.6899
25590SOL     OW82605   3.443   2.966   2.239  0.1742  0.0695 -0.1806
25590SOL    HW182606   3.425   2.904   2.309  0.5315  0.5174  0.3175
25590SOL    HW282607   3.470   3.046   2.284  0.8868  0.2111 -0.8304
25591SOL     OW82608   7.641  10.562   2.709  0.1626 -0.2524  0.1085
25591SOL    HW182609   7.689  10.503   2.767 -0.0684 -1.4858 -0.9133
25591SOL    HW282610   7.698  10.639   2.701  1.2139 -1.0053  0.1913
25592SOL     OW82611   8.306   5.846   2.633 -0.1554  0.0874  0.1117
25592SOL    HW182612   8.217   5.814   2.620  0.1938 -0.3374 -1.4099
25592SOL    HW282613   8.296   5.923   2.688 -1.1724 -1.6399  2.5000
25593SOL     OW82614   6.394   8.439   2.007 -0.9128 -0.2810  0.1141
25593SOL    HW182615   6.390   8.366   1.945  2.3935 -1.3341  0.9075
25593SOL    HW282616   6.428   8.512   1.956  0.2272 -0.6791  0.2745
25594SOL     OW82617   7.899   9.721   5.832 -0.0164 -0.1991 -0.2272
25594SOL    HW182618   7.896   9.700   5.739 -1.9012  1.4104 -0.5937
25594SOL    HW282619   7.874   9.639   5.876  0.9714 -0.9937 -1.0839
25595SOL     OW82620   1.308   0.196  10.649  0.2688  0.7825  0.0827
25595SOL    HW182621   1.292   0.171  10.558 -1.4635 -2.6331  1.1379
25595SOL    HW282622   1.229   0.245  10.674  0.6391  1.5118 -0.1378
25596SOL     OW82623   7.872   7.429   9.115 -0.2248  0.4410  0.2814
25596SOL    HW182624   7.913   7.366   9.057 -0.3085  0.2844  0.3912
25596SOL    HW282625   7.873   7.387   9.201  0.8694  1.1028  0.6171
25597SOL     OW82626  10.182   0.687   3.478  0.6637  0.9838  0.0366
25597SOL    HW182627  10.117   0.626   3.513  0.7463  1.4685  1.0633
25597SOL    HW282628  10.178   0.763   3.536  0.4796  2.0301 -1.2770
25598SOL     OW82629   0.339   0.503   8.933  0.6044  0.2908  0.0719
25598SOL    HW182630   0.265   0.443   8.943 -0.3000  1.3338 -0.1708
25598SOL    HW282631   0.371   0.484   8.845  0.2233  0.2647 -0.0668
25599SOL     OW82632   6.578   4.866   6.308  0.0105 -0.2146 -0.0940
25599SOL    HW182633   6.569   4.917   6.228  1.0964  0.3992  0.1591
25599SOL    HW282634   6.669   4.837   6.308  0.7614  1.8568  2.1024
25600SOL     OW82635   0.569   3.943   4.674  0.6037 -0.4770 -0.2107
25600SOL    HW182636   0.598   3.888   4.747  0.8113  1.1988  1.0435
25600SOL    HW282637   0.613   4.027   4.689 -0.5213  0.3706 -1.4411
25601SOL     OW82638  10.692   8.831   8.914 -0.6318 -0.0244  0.4946
25601SOL    HW182639  10.723   8.787   8.993 -1.0704 -0.9635  0.1617
25601SOL    HW282640  10.708   8.924   8.930 -1.3959 -0.1253  1.9968
25602SOL     OW82641   3.039   8.954   4.417 -0.0307  0.0597  0.0163
25602SOL    HW182642   3.107   8.898   4.379 -1.9387 -1.8490 -0.7394
25602SOL    HW282643   3.061   8.959   4.510  1.5140  0.0632 -0.3245
25603SOL     OW82644   1.584   4.235   1.657  0.0288 -0.0434 -0.0685
25603SOL    HW182645   1.601   4.304   1.593 -1.6654  1.0715  0.6235
25603SOL    HW282646   1.501   4.196   1.630 -0.1685 -0.2794  0.8402
25604SOL     OW82647   1.720  10.343   7.087  0.1626 -0.3607 -0.5921
25604SOL    HW182648   1.777  10.337   7.010  0.9972  0.8294 -0.0884
25604SOL    HW282649   1.653  10.276   7.072  0.3716 -0.2328 -2.2974
25605SOL     OW82650   1.501   2.526   7.409 -0.0656 -0.0009  0.4775
25605SOL    HW182651   1.431   2.589   7.427  0.3057 -0.1255  2.6461
25605SOL    HW282652   1.481   2.451   7.466  1.9624  0.0924  1.3912
25606SOL     OW82653   5.931   6.346   9.226 -0.2722  0.1602  0.0532
25606SOL    HW182654   5.968   6.434   9.214  3.6396 -1.2317  0.6991
25606SOL    HW282655   5.944   6.303   9.141  0.3208 -0.5944  0.5133
25607SOL     OW82656   0.184   9.634   4.548 -0.5526  0.1292  0.4363
25607SOL    HW182657   0.148   9.716   4.516 -0.9924  0.0996  0.8410
25607SOL    HW282658   0.177   9.640   4.644 -0.3503 -0.2666  0.4784
25608SOL     OW82659   5.276   5.684   5.054  0.4184 -0.0642  0.2442
25608SOL    HW182660   5.233   5.677   5.140 -0.3234  1.2221 -0.0053
25608SOL    HW282661   5.276   5.778   5.034  1.4213 -0.2502 -0.7566
25609SOL     OW82662   1.676   4.249   3.728 -0.1399 -0.1795  0.2515
25609SOL    HW182663   1.753   4.298   3.756 -0.3316  1.2203 -1.5116
25609SOL    HW282664   1.696   4.158   3.747  1.1246  0.3564  1.6256
25610SOL     OW82665   6.221   1.622  10.029 -0.6120 -0.0779 -0.0711
25610SOL    HW182666   6.163   1.697  10.042  0.9462  1.2113 -0.2327
25610SOL    HW282667   6.227   1.612   9.934 -2.3769 -1.7263 -0.0641
25611SOL     OW82668   3.749   4.744   0.418 -0.0437  0.2340 -0.4496
25611SOL    HW182669   3.736   4.674   0.482  0.3998  0.1811 -0.4202
25611SOL    HW282670   3.843   4.744   0.400 -0.0735  0.6762 -0.6142
25612SOL     OW82671   9.272   1.463   1.136 -0.5945  0.2978  0.1419
25612SOL    HW182672   9.214   1.524   1.182  0.4766  1.5159 -0.0588
25612SOL    HW282673   9.348   1.516   1.111  0.4202 -1.1466  0.0153
25613SOL     OW82674   0.458   1.321   7.919  0.6998 -0.1143 -0.1971
25613SOL    HW182675   0.488   1.320   8.010 -4.3769 -0.9692  1.7777
25613SOL    HW282676   0.446   1.229   7.896  0.5215  0.1454 -1.2154
25614SOL     OW82677   1.778   5.700   1.987  0.2799 -0.0895 -0.3597
25614SOL    HW182678   1.855   5.716   2.042  0.0912  1.3499 -0.4820
25614SOL    HW282679   1.747   5.613   2.014  0.8953  0.0750  0.9616
25615SOL     OW82680   9.405   9.567   7.506  0.5619 -0.4237  0.4666
25615SOL    HW182681   9.360   9.504   7.561 -1.9165  0.2677 -0.6050
25615SOL    HW282682   9.355   9.648   7.516  1.1655  0.2308 -1.3408
25616SOL     OW82683   8.319   7.387   2.208 -0.2608 -0.6876 -0.5474
25616SOL    HW182684   8.254   7.382   2.278  0.4401  0.0599  0.1787
25616SOL    HW282685   8.403   7.370   2.252  0.3351  0.9789 -0.9486
25617SOL     OW82686   2.557   5.189   3.112  0.0128  0.3012 -0.6202
25617SOL    HW182687   2.477   5.160   3.067 -1.0136  0.1651  1.2122
25617SOL    HW282688   2.581   5.115   3.167  0.4210  0.9864  0.1263
25618SOL     OW82689   6.383   8.094   9.150  0.1041  0.3855 -0.1852
25618SOL    HW182690   6.453   8.094   9.216  1.6526 -3.9742 -1.4838
25618SOL    HW282691   6.424   8.129   9.071 -0.3825  1.3166 -0.0435
25619SOL     OW82692   9.169   6.115   4.160 -0.2160  0.9104 -0.2531
25619SOL    HW182693   9.092   6.064   4.185 -0.6057  1.1966 -0.8571
25619SOL    HW282694   9.146   6.205   4.184 -0.1201  1.0152 -0.5540
25620SOL     OW82695   9.504   0.760   8.175  0.1932  0.4280  0.1083
25620SOL    HW182696   9.541   0.823   8.237 -2.5507  0.0623  2.3485
25620SOL    HW282697   9.470   0.689   8.230 -1.2234 -0.5786 -1.9358
25621SOL     OW82698   5.465   6.807   6.486  1.0294 -0.0180  0.5092
25621SOL    HW182699   5.508   6.818   6.571 -0.2825 -0.4773  1.2551
25621SOL    HW282700   5.379   6.847   6.496  0.3093 -1.3241 -0.1426
25622SOL     OW82701  10.125   9.344   7.351 -0.3131 -0.0555 -0.6237
25622SOL    HW182702  10.150   9.254   7.330  1.0050  0.1302  0.1027
25622SOL    HW282703  10.129   9.390   7.267 -1.1860 -0.7003 -1.0347
25623SOL     OW82704   3.111  10.101   7.880  0.0660  0.0451  0.6250
25623SOL    HW182705   3.060  10.156   7.939  1.1862  0.8961  0.8311
25623SOL    HW282706   3.152  10.035   7.936  1.9836  1.4900  1.0177
25624SOL     OW82707   2.970   6.475   3.575 -0.2606 -0.0726  0.0179
25624SOL    HW182708   2.880   6.500   3.555 -0.2497  0.0982  0.1780
25624SOL    HW282709   2.962   6.400   3.633 -0.3068  0.1782  0.3411
25625SOL     OW82710   4.729  10.669   9.614 -0.2183 -0.4077 -0.2252
25625SOL    HW182711   4.771  10.590   9.581  0.2314 -1.7125  3.1049
25625SOL    HW282712   4.795  10.711   9.669 -1.1409  1.1623 -0.2394
25626SOL     OW82713   3.876   9.691   0.549  0.1363 -0.2912 -0.7563
25626SOL    HW182714   3.839   9.687   0.638 -1.0613  0.9117 -1.1679
25626SOL    HW282715   3.969   9.709   0.563 -0.3390  1.6236  0.2634
25627SOL     OW82716   9.954  10.460   9.704 -0.5956 -0.5474  0.0839
25627SOL    HW182717   9.989  10.546   9.726  1.3986 -1.4289  0.5979
25627SOL    HW282718   9.859  10.473   9.699 -0.2344  2.1165 -2.0121
25628SOL     OW82719   9.943   0.426   6.512 -0.1193 -0.3916  0.2359
25628SOL    HW182720   9.894   0.477   6.577 -1.6495 -1.3169 -0.1283
25628SOL    HW282721   9.936   0.335   6.542  1.7418 -0.5191  0.3639
25629SOL     OW82722   1.365   3.682   4.915  0.7562  0.0438  0.2314
25629SOL    HW182723   1.297   3.618   4.893  0.1087  1.0603 -0.9032
25629SOL    HW282724   1.447   3.635   4.904  0.2553 -1.0442  1.0394
25630SOL     OW82725   7.959   4.092   8.108 -0.1478  0.4946 -0.4286
25630SOL    HW182726   8.043   4.074   8.150  0.2951 -1.5016 -2.0411
25630SOL    HW282727   7.903   4.018   8.134 -1.0570  1.1908 -0.3383
25631SOL     OW82728   0.318   1.804   5.755  0.0432 -0.3972 -0.1564
25631SOL    HW182729   0.297   1.882   5.806 -1.9077 -0.9565 -0.0182
25631SOL    HW282730   0.353   1.742   5.819  1.1732  0.1781 -0.1900
25632SOL     OW82731   0.674   3.362   1.976 -0.0303  0.8043 -0.7780
25632SOL    HW182732   0.700   3.440   2.025  0.4269 -0.2746  0.8132
25632SOL    HW282733   0.587   3.341   2.009  1.2204 -1.3131  1.5497
25633SOL     OW82734   9.021   2.115   6.481 -0.4695 -0.1282  0.5215
25633SOL    HW182735   9.097   2.058   6.471  1.8856  2.5287  1.9026
25633SOL    HW282736   8.958   2.062   6.530 -0.0858 -2.7971 -1.6244
25634SOL     OW82737   7.007   1.928   1.611  0.5725  0.1335 -0.5777
25634SOL    HW182738   7.090   1.888   1.639 -0.3577  0.1276  2.6015
25634SOL    HW282739   7.029   2.018   1.589  1.2338  0.8741  2.5598
25635SOL     OW82740   5.617   4.755   0.357  0.4187 -0.1545 -0.3659
25635SOL    HW182741   5.636   4.666   0.383  1.0234 -0.2312 -1.0413
25635SOL    HW282742   5.657   4.764   0.270 -2.8907 -0.4655 -2.0935
25636SOL     OW82743   6.814   9.391   8.988  0.3006  0.3602  0.6136
25636SOL    HW182744   6.882   9.382   9.055  0.9759 -0.3605 -0.1414
25636SOL    HW282745   6.859   9.435   8.915 -0.4100  1.0846  0.5984
25637SOL     OW82746   3.493  10.298   5.799  0.3584 -0.7627 -0.0038
25637SOL    HW182747   3.475  10.204   5.795  1.2550 -0.9001 -1.4041
25637SOL    HW282748   3.462  10.332   5.715 -0.5604  0.3341  0.7383
25638SOL     OW82749   9.825  10.606   2.563 -0.3662 -0.1237 -0.9025
25638SOL    HW182750   9.760  10.676   2.564  2.0408  2.3373 -1.3348
25638SOL    HW282751   9.780  10.530   2.600 -3.0144  1.7781  0.1127
25639SOL     OW82752   5.161   8.525   0.808 -0.1007  0.6249 -0.2142
25639SOL    HW182753   5.208   8.574   0.875 -0.6841  0.5303  0.2653
25639SOL    HW282754   5.221   8.455   0.784 -1.4043 -1.9194  3.1941
25640SOL     OW82755   2.988   3.319   5.873  0.0472  0.5915  0.4407
25640SOL    HW182756   2.904   3.333   5.830 -0.9653 -0.7993  1.8121
25640SOL    HW282757   2.996   3.224   5.880  0.8176  0.7224  1.9901
25641SOL     OW82758   5.829   9.028   6.056  0.0328  0.5328 -0.1535
25641SOL    HW182759   5.839   9.069   6.142  0.1447  0.2389 -0.0216
25641SOL    HW282760   5.906   8.971   6.048  0.1176  0.6979 -0.5267
25642SOL     OW82761   1.380   7.230   9.477 -0.8105  0.6660  0.4410
25642SOL    HW182762   1.347   7.196   9.559 -0.3048  1.6437  1.0705
25642SOL    HW282763   1.302   7.260   9.430 -1.0661  0.4215  0.7083
25643SOL     OW82764   9.339   2.685  10.168 -0.3371 -0.3016 -0.6128
25643SOL    HW182765   9.264   2.733  10.134 -1.8538 -2.0449  0.1009
25643SOL    HW282766   9.398   2.676  10.093 -0.6259  1.4609 -1.0834
25644SOL     OW82767   4.049   8.805   2.261 -0.3984 -0.0646  0.0579
25644SOL    HW182768   4.110   8.778   2.330  0.3135  0.2284 -0.4359
25644SOL    HW282769   3.964   8.812   2.304 -0.4633 -2.2442  0.3883
25645SOL     OW82770   6.824   2.649   7.932 -0.0569  0.0076 -0.3207
25645SOL    HW182771   6.744   2.597   7.935  0.1368 -0.3164 -0.7725
25645SOL    HW282772   6.885   2.597   7.880  0.8617 -0.3292  1.0420
25646SOL     OW82773   1.022   9.353   4.871 -0.0727  0.3475 -0.7694
25646SOL    HW182774   0.938   9.383   4.837 -1.1066 -2.2646 -0.7070
25646SOL    HW282775   1.086   9.387   4.808 -1.2594  1.3402 -1.5053
25647SOL     OW82776   3.365   3.280   5.096  0.1032  0.5060  0.0633
25647SOL    HW182777   3.443   3.255   5.046 -1.0473 -1.5870 -0.8524
25647SOL    HW282778   3.362   3.217   5.168 -0.9666  0.2389 -0.1954
25648SOL     OW82779   9.516   2.283  10.134 -0.0955  0.5803  0.1185
25648SOL    HW182780   9.568   2.362  10.122 -2.7092  2.3396 -0.5507
25648SOL    HW282781   9.473   2.297  10.219  1.2177 -1.3021  1.1476
25649SOL     OW82782   1.884   9.206   2.065 -0.2175  0.4254  0.3395
25649SOL    HW182783   1.795   9.211   2.029  0.0837 -2.6869 -1.1567
25649SOL    HW282784   1.874   9.163   2.149 -0.0331 -1.9190 -0.7657
25650SOL     OW82785   6.920   7.183   6.741 -0.0974 -0.1586  0.2941
25650SOL    HW182786   6.887   7.227   6.819 -0.6676 -0.3766  0.1810
25650SOL    HW282787   6.904   7.245   6.670 -1.1699 -0.6470  0.0883
25651SOL     OW82788   8.994   6.174   9.777  0.1430  0.3509 -0.6718
25651SOL    HW182789   8.915   6.202   9.731 -0.2382 -0.5337 -0.5683
25651SOL    HW282790   8.963   6.122   9.851  0.8160  0.0745 -0.5692
25652SOL     OW82791   1.844   3.092   8.219 -0.6258  0.3640  0.1771
25652SOL    HW182792   1.859   3.101   8.125 -2.1385  0.6964 -0.0500
25652SOL    HW282793   1.925   3.124   8.259  0.2161 -0.2170 -1.0039
25653SOL     OW82794   6.269   9.032   4.652  0.4498  0.0034  0.3520
25653SOL    HW182795   6.213   8.955   4.648  0.3047  0.1294 -0.1885
25653SOL    HW282796   6.252   9.069   4.739  0.7201 -0.7143  0.7195
25654SOL     OW82797  10.026   1.754   4.714 -0.4161 -0.1139 -0.0329
25654SOL    HW182798   9.951   1.768   4.771 -0.0804  0.6063  0.2507
25654SOL    HW282799  10.004   1.677   4.662 -1.1874 -0.1260  0.3106
25655SOL     OW82800   6.982   2.423   7.310 -0.5962 -0.2634 -0.6243
25655SOL    HW182801   6.964   2.469   7.393  1.5861 -0.8261  0.2223
25655SOL    HW282802   6.899   2.429   7.262 -2.7854 -1.9572  2.5410
25656SOL     OW82803   6.566   7.856   5.260 -0.0289  0.1289  0.0777
25656SOL    HW182804   6.543   7.924   5.196 -1.6662 -0.9677 -0.5683
25656SOL    HW282805   6.639   7.893   5.309 -0.4907  2.1120 -0.6352
25657SOL     OW82806   8.032   4.036   7.173  0.0020  0.7927  0.1491
25657SOL    HW182807   8.087   4.013   7.248 -3.0954 -0.7195  2.1742
25657SOL    HW282808   8.050   3.968   7.108 -0.5437 -0.6139  1.4117
25658SOL     OW82809   1.532   8.207   2.001  0.3090 -0.0566  0.4930
25658SOL    HW182810   1.444   8.219   2.036  0.5856 -0.2190  1.2709
25658SOL    HW282811   1.518   8.180   1.911 -0.4518 -0.3829  0.6977
25659SOL     OW82812   9.100   0.106   7.039 -0.5379  0.3947 -0.4547
25659SOL    HW182813   9.068   0.190   7.073  1.6184  1.3262 -0.5280
25659SOL    HW282814   9.034   0.042   7.065 -1.8564  1.9972  0.2952
25660SOL     OW82815   0.994  10.240   4.284  0.5537 -0.3990  0.1499
25660SOL    HW182816   0.972  10.155   4.321  1.7928 -0.7678  0.0886
25660SOL    HW282817   0.913  10.271   4.244 -0.2411 -0.9670  1.2687
25661SOL     OW82818  10.076   1.016   2.409  0.0253  0.6070 -0.4719
25661SOL    HW182819  10.095   1.060   2.326  0.2056  1.7660  0.1567
25661SOL    HW282820  10.092   1.083   2.475  1.2782 -0.6928  0.6184
25662SOL     OW82821   8.150   0.799   8.131  0.1947  0.4361 -0.0785
25662SOL    HW182822   8.185   0.880   8.094 -0.0143  1.6848  2.3113
25662SOL    HW282823   8.078   0.827   8.186 -0.9155 -1.5720 -0.4217
25663SOL     OW82824   3.212   5.785   9.221 -0.3020 -0.4734 -0.3018
25663SOL    HW182825   3.228   5.846   9.293  0.6484  0.3990 -1.2083
25663SOL    HW282826   3.121   5.757   9.233  0.3356 -1.7359  2.2113
25664SOL     OW82827   4.431   7.818   5.250 -0.0229  0.0439  0.3733
25664SOL    HW182828   4.516   7.861   5.239 -0.2563  0.0342 -2.0738
25664SOL    HW282829   4.368   7.890   5.248 -0.2294 -0.1465 -0.8875
25665SOL     OW82830   7.958   7.865   7.609  0.1335  0.4906  0.0232
25665SOL    HW182831   8.045   7.832   7.585  0.1979 -1.3272  2.4637
25665SOL    HW282832   7.946   7.840   7.700 -1.5519  3.8074  0.8901
25666SOL     OW82833   7.732   0.237   4.830 -0.0200 -0.4068  0.2542
25666SOL    HW182834   7.753   0.289   4.753 -2.6327 -0.9874 -0.9660
25666SOL    HW282835   7.759   0.148   4.806  1.0934 -0.2617  0.8938
25667SOL     OW82836   9.219   4.060   0.622 -0.1071 -0.7846 -0.2575
25667SOL    HW182837   9.158   3.997   0.584  0.1264 -1.8318  1.0289
25667SOL    HW282838   9.175   4.093   0.700  0.1340 -0.0085 -0.4435
25668SOL     OW82839   9.393   1.840   7.106  0.1600 -0.0323 -0.6767
25668SOL    HW182840   9.464   1.884   7.060 -0.0471  1.6991  0.5734
25668SOL    HW282841   9.314   1.888   7.082 -0.3304 -0.7625 -0.5814
25669SOL     OW82842   5.644  10.524   1.386 -0.0324 -0.3932 -0.0972
25669SOL    HW182843   5.690  10.584   1.445  1.0751 -0.3407 -0.9845
25669SOL    HW282844   5.568  10.574   1.355 -0.0865 -0.0830  0.5138
25670SOL     OW82845   2.983   5.692   0.945 -0.4332  0.1128  0.3169
25670SOL    HW182846   2.994   5.608   0.990  2.2963 -0.5641 -1.3282
25670SOL    HW282847   3.069   5.734   0.953 -0.3898  0.7732 -2.4965
25671SOL     OW82848   7.426   3.715   9.608 -0.3272  0.0079 -0.0599
25671SOL    HW182849   7.490   3.644   9.599 -0.3081 -0.0691  0.6320
25671SOL    HW282850   7.449   3.757   9.691 -1.1443  0.0117  0.1635
25672SOL     OW82851   0.091   8.997   2.719  0.0197 -0.1548  0.1481
25672SOL    HW182852   0.003   9.033   2.714 -0.6424 -1.3906  1.7706
25672SOL    HW282853   0.143   9.068   2.758 -0.0039  0.9095 -1.6637
25673SOL     OW82854   8.868   3.756   3.471  0.0499  0.6197 -0.0025
25673SOL    HW182855   8.790   3.767   3.526 -0.2412 -0.4931 -0.1792
25673SOL    HW282856   8.848   3.805   3.391 -1.0460 -0.7555 -0.6048
25674SOL     OW82857   7.465   2.449   5.219  0.4290 -0.5768  0.0329
25674SOL    HW182858   7.549   2.494   5.223  0.7579 -0.9213 -1.9188
25674SOL    HW282859   7.453   2.413   5.307  0.7245  2.2086  1.3176
25675SOL     OW82860   7.616   3.853   6.169 -0.2893 -0.4310 -0.6627
25675SOL    HW182861   7.567   3.806   6.237 -0.9897  0.3870 -0.5898
25675SOL    HW282862   7.700   3.874   6.210 -0.6717 -0.0232 -0.0687
25676SOL     OW82863   7.430   2.991   8.357 -0.1703 -0.0916  0.2267
25676SOL    HW182864   7.437   2.947   8.441  1.5742  1.6419  1.0679
25676SOL    HW282865   7.487   3.068   8.365 -0.8508  0.7538 -2.1380
25677SOL     OW82866   9.590   0.517   8.663  0.3200 -0.2421  0.0964
25677SOL    HW182867   9.646   0.557   8.597 -0.7790 -1.3485 -1.5679
25677SOL    HW282868   9.630   0.542   8.746  1.3432  1.7853 -0.9329
25678SOL     OW82869   1.154   0.242   0.205 -0.2137  0.0725 -0.5199
25678SOL    HW182870   1.181   0.185   0.277  2.3991 -1.0391 -2.2402
25678SOL    HW282871   1.115   0.183   0.140 -2.0250  0.9824 -0.3368
25679SOL     OW82872   6.298   4.432   0.641  0.4242 -0.2773  0.0765
25679SOL    HW182873   6.306   4.337   0.634 -0.0408 -0.3750  0.7739
25679SOL    HW282874   6.214   4.446   0.684 -0.3504  0.5139 -1.6089
25680SOL     OW82875   5.764   9.504   7.086 -0.4331 -0.0076  0.0710
25680SOL    HW182876   5.835   9.568   7.079  0.0076 -0.4739  0.2633
25680SOL    HW282877   5.721   9.525   7.169  1.6808 -1.9303  1.7635
25681SOL     OW82878   5.586   8.188   7.756 -1.2332  1.0064 -0.4961
25681SOL    HW182879   5.520   8.136   7.802  2.4375 -2.0869  1.8996
25681SOL    HW282880   5.616   8.252   7.821 -0.3097  0.7974 -0.6975
25682SOL     OW82881   5.683   3.927   0.636 -0.3573  0.0022 -1.1162
25682SOL    HW182882   5.651   3.972   0.558  1.2098  0.8257 -1.3119
25682SOL    HW282883   5.688   3.994   0.704  1.2326  0.0008 -1.1879
25683SOL     OW82884   8.509   3.045   9.598 -0.1268 -0.4056 -0.2639
25683SOL    HW182885   8.529   2.954   9.618  0.6981 -0.1455  0.1844
25683SOL    HW282886   8.582   3.094   9.638 -0.1105  0.3799 -1.2327
25684SOL     OW82887   8.559   2.557   7.667  0.2230 -0.1449  0.6130
25684SOL    HW182888   8.620   2.583   7.736  0.1875  0.9398  0.2526
25684SOL    HW282889   8.615   2.522   7.597  0.3150 -0.4988  0.8585
25685SOL     OW82890   1.277   8.104   4.825 -0.0307 -0.0785 -0.3494
25685SOL    HW182891   1.243   8.017   4.803 -0.2135  0.0067 -0.3992
25685SOL    HW282892   1.306   8.096   4.915  0.6584 -0.4085 -0.5907
25686SOL     OW82893   6.363   0.701   2.803 -0.0053 -0.5603  0.2930
25686SOL    HW182894   6.380   0.782   2.850 -0.3270  1.3746 -2.6750
25686SOL    HW282895   6.272   0.679   2.824 -0.6542  1.1460 -0.6228
25687SOL     OW82896   1.102   4.509   0.884  0.1049  0.2824  0.1416
25687SOL    HW182897   1.095   4.600   0.854 -0.4196  0.0721 -0.4072
25687SOL    HW282898   1.060   4.509   0.970 -1.3488  0.2627 -0.5296
25688SOL     OW82899   6.029   0.860   9.925 -0.3989 -0.5363 -0.3006
25688SOL    HW182900   5.940   0.869   9.893 -1.1211 -1.2495  1.4024
25688SOL    HW282901   6.084   0.874   9.847 -2.0181 -2.3273 -1.8872
25689SOL     OW82902   7.845   9.134   1.508 -0.1010 -0.3218 -0.0913
25689SOL    HW182903   7.904   9.116   1.581 -2.1186  0.3500  1.8202
25689SOL    HW282904   7.827   9.049   1.469  0.2600 -0.8195  0.8122
25690SOL     OW82905   8.602   4.291   3.018 -0.0861  0.3087  0.3295
25690SOL    HW182906   8.681   4.283   3.072  0.8388  1.1368 -0.8456
25690SOL    HW282907   8.580   4.384   3.021  1.5113  0.9002 -2.6957
25691SOL     OW82908   0.470   0.936  10.134  0.2381 -0.1022  0.2451
25691SOL    HW182909   0.383   0.899  10.146  0.0440 -0.0782 -0.9621
25691SOL    HW282910   0.474   1.009  10.195 -0.5470 -0.1795  0.3957
25692SOL     OW82911   2.417   3.706   8.406  0.1551 -0.1203  0.5694
25692SOL    HW182912   2.437   3.726   8.497  0.1218  1.4075  0.2636
25692SOL    HW282913   2.497   3.730   8.358  1.3093 -3.5627  0.4321
25693SOL     OW82914  10.474   8.844   6.392  1.0699 -0.0672  0.4472
25693SOL    HW182915  10.517   8.776   6.340 -0.0298 -0.9123  0.6098
25693SOL    HW282916  10.406   8.879   6.334  3.1950  2.7298 -0.5920
25694SOL     OW82917   7.898   7.125   4.455  0.0364  0.3525 -0.2092
25694SOL    HW182918   7.819   7.154   4.499  0.5075 -1.3759  1.9450
25694SOL    HW282919   7.873   7.116   4.363 -1.9659  0.7868  0.2538
25695SOL     OW82920   1.397   6.473   5.857 -0.3998  0.6518 -0.3288
25695SOL    HW182921   1.423   6.546   5.801 -0.2333 -0.3168 -1.5351
25695SOL    HW282922   1.303   6.487   5.871 -0.1095  1.8681  0.6498
25696SOL     OW82923   5.569   3.245   1.754  0.4361  0.0859  0.4332
25696SOL    HW182924   5.528   3.251   1.841 -0.6384  0.2607 -0.0688
25696SOL    HW282925   5.659   3.274   1.768  0.3038  0.0328  1.5058
25697SOL     OW82926   0.007  10.090   8.234  0.0955 -0.4420 -0.3716
25697SOL    HW182927  -0.015  10.157   8.298 -1.2121 -1.2965  0.1034
25697SOL    HW282928  -0.021  10.008   8.274  1.0436 -1.2228 -1.2239
25698SOL     OW82929   5.399   7.643   3.369 -0.2482  0.7396 -0.2374
25698SOL    HW182930   5.485   7.614   3.397 -0.4993  0.2995  0.0971
25698SOL    HW282931   5.412   7.677   3.281 -0.3193 -2.7094 -1.7569
25699SOL     OW82932   3.729   3.793   7.330  0.3823 -0.2059 -0.5389
25699SOL    HW182933   3.807   3.829   7.289 -1.1608  0.1303 -3.4359
25699SOL    HW282934   3.733   3.699   7.312  0.4489 -0.2863 -0.1052
25700SOL     OW82935   3.269   2.296   5.680 -0.1919  0.0348  0.2306
25700SOL    HW182936   3.278   2.230   5.749  0.7732  1.6275  1.7123
25700SOL    HW282937   3.315   2.373   5.714  2.6987  0.1504 -3.2628
25701SOL     OW82938   1.394  10.014   2.776  0.2577 -0.2815  0.1555
25701SOL    HW182939   1.435  10.094   2.744 -0.6071 -0.2514 -0.9659
25701SOL    HW282940   1.467   9.957   2.801  0.9941 -0.0576 -1.3507
25702SOL     OW82941   5.392   5.027   8.603  0.2778 -0.7575 -0.9440
25702SOL    HW182942   5.488   5.030   8.596  0.5164 -2.1426  0.9368
25702SOL    HW282943   5.371   4.934   8.591 -0.5111 -0.9355  1.3144
25703SOL     OW82944   2.853   9.180   4.375 -0.1415 -0.7749 -0.0647
25703SOL    HW182945   2.936   9.135   4.359  0.3489 -0.0067  0.2292
25703SOL    HW282946   2.825   9.211   4.289 -0.2475 -1.2420 -0.1993
25704SOL     OW82947   2.837   2.572   1.039  0.0597  0.3506  0.0753
25704SOL    HW182948   2.914   2.585   0.983 -1.3658 -0.2264 -2.1724
25704SOL    HW282949   2.762   2.592   0.982 -1.5858 -2.1369  1.1704
25705SOL     OW82950   4.072   5.957   2.680 -0.2393  0.8744 -0.1529
25705SOL    HW182951   4.101   6.046   2.699  0.3494  0.5935  0.2790
25705SOL    HW282952   4.137   5.901   2.721 -2.0569  0.2056  2.0496
25706SOL     OW82953   7.330   5.954   7.191 -0.6141 -0.0512  0.4493
25706SOL    HW182954   7.282   5.972   7.271  1.6545  1.6776  1.5200
25706SOL    HW282955   7.392   6.026   7.183 -0.4033 -0.4244 -2.6253
25707SOL     OW82956   6.362   9.236   4.070  0.1425  0.4290  0.1081
25707SOL    HW182957   6.361   9.307   4.006  0.8319  0.4037  0.0561
25707SOL    HW282958   6.275   9.198   4.066 -0.0562  0.9164 -0.2672
25708SOL     OW82959   6.483   1.897   7.596  0.0457 -0.1279 -0.4532
25708SOL    HW182960   6.464   1.859   7.682 -2.6946 -2.1011 -1.7787
25708SOL    HW282961   6.560   1.953   7.611 -1.0139  0.6128  3.5152
25709SOL     OW82962   1.839   4.479   2.555 -0.4163  0.2637 -0.0413
25709SOL    HW182963   1.854   4.572   2.542 -0.1918  0.2597  0.1825
25709SOL    HW282964   1.774   4.455   2.489  0.7464  0.2289 -1.2054
25710SOL     OW82965   2.254   9.034   6.389  0.6403 -0.0610 -0.5618
25710SOL    HW182966   2.171   9.051   6.343 -0.5650  0.4607  1.6814
25710SOL    HW282967   2.304   9.115   6.379 -0.9022  1.2391  1.5523
25711SOL     OW82968   3.697   3.947   4.176  0.3818 -0.3524 -0.4056
25711SOL    HW182969   3.688   3.886   4.249  0.6548  1.3833  1.1302
25711SOL    HW282970   3.607   3.973   4.156  0.3917  0.1210  0.1549
25712SOL     OW82971   1.704   6.280   8.516 -0.0131  0.1935  0.5010
25712SOL    HW182972   1.672   6.368   8.537 -0.0388  0.8576 -2.0599
25712SOL    HW282973   1.627   6.233   8.485  0.3400 -0.1803  0.1834
25713SOL     OW82974   5.311  10.707   7.540 -0.5692 -0.7431 -0.5395
25713SOL    HW182975   5.243  10.762   7.499  2.0141  1.3358 -2.3709
25713SOL    HW282976   5.344  10.653   7.468  1.1872 -0.0964 -0.2540
25714SOL     OW82977   6.446   5.447  10.572 -0.0128  0.0763 -0.2447
25714SOL    HW182978   6.422   5.470  10.482  0.7107  0.2974 -0.3877
25714SOL    HW282979   6.513   5.512  10.596 -0.3844  0.1803  0.5445
25715SOL     OW82980   6.255   8.896  10.660  0.2331 -0.4630  0.5612
25715SOL    HW182981   6.279   8.903  10.752  1.0573 -0.3414  0.3428
25715SOL    HW282982   6.231   8.985  10.634 -0.4593 -0.5814  0.7750
25716SOL     OW82983   8.289   0.249   6.264 -0.4497  0.2292 -0.2700
25716SOL    HW182984   8.217   0.306   6.291  0.6021  1.7710 -0.6504
25716SOL    HW282985   8.314   0.280   6.177  2.1368  1.2605  0.7308
25717SOL     OW82986   2.230   4.951   0.528 -0.1968 -0.3697  0.4339
25717SOL    HW182987   2.303   4.890   0.536  0.6776  0.6773  0.6524
25717SOL    HW282988   2.200   4.941   0.438  1.0506  0.0968 -0.0568
25718SOL     OW82989   4.827   9.136   2.539 -0.5110 -0.0039 -0.9074
25718SOL    HW182990   4.886   9.151   2.613 -1.9457 -1.1158  0.5349
25718SOL    HW282991   4.775   9.216   2.533 -1.1958 -0.3489  0.1083
25719SOL     OW82992   8.978   8.549   5.664  0.5671  0.0598 -0.1090
25719SOL    HW182993   9.037   8.480   5.694 -0.7941 -0.6471  1.0902
25719SOL    HW282994   8.905   8.502   5.624 -0.6298  0.7495  1.2011
25720SOL     OW82995   2.867   8.418   1.730 -0.4685 -0.4566 -0.3515
25720SOL    HW182996   2.877   8.437   1.636  2.4416  1.4267  0.2228
25720SOL    HW282997   2.950   8.376   1.754 -1.4861 -1.6431  1.2582
25721SOL     OW82998   3.777   9.093   3.819  0.6461 -0.2333 -0.5594
25721SOL    HW182999   3.858   9.043   3.805  0.5032 -0.7395  0.3041
25721SOL    HW283000   3.726   9.079   3.740  1.3408 -0.0307 -1.0545
25722SOL     OW83001   0.782   8.504   5.200  0.1246 -0.3806 -0.3471
25722SOL    HW183002   0.747   8.421   5.232 -1.5589  0.1000 -0.8152
25722SOL    HW283003   0.754   8.507   5.108 -1.2597  1.3876  0.0711
25723SOL     OW83004   6.605   7.839   2.983  0.3909 -0.3192  0.5358
25723SOL    HW183005   6.696   7.825   2.957 -0.1155 -1.5698 -0.7121
25723SOL    HW283006   6.585   7.927   2.951  0.5098 -0.9082 -1.2585
25724SOL     OW83007   2.613   3.703   1.482  0.1865  0.0494 -0.3719
25724SOL    HW183008   2.577   3.633   1.537 -1.3180 -0.5820 -2.0672
25724SOL    HW283009   2.704   3.678   1.468  0.2819 -0.3720  0.8670
25725SOL     OW83010   8.223   7.765   7.666 -0.0944  0.0103 -0.1208
25725SOL    HW183011   8.176   7.688   7.635  0.0615  0.7236 -2.3342
25725SOL    HW283012   8.315   7.742   7.656 -0.0477  0.4374 -0.7057
25726SOL     OW83013   1.941   4.151   0.757  0.0415 -0.3971 -0.4500
25726SOL    HW183014   1.991   4.135   0.837  0.7106  1.4547 -0.4482
25726SOL    HW283015   1.870   4.086   0.759 -0.1351 -0.1952  1.7889
25727SOL     OW83016   4.274   6.213   2.445  0.2249  0.3145  0.1815
25727SOL    HW183017   4.257   6.230   2.538 -0.5310  1.4285 -0.1342
25727SOL    HW283018   4.235   6.127   2.429  1.7839 -0.6481  1.2344
25728SOL     OW83019   8.194   3.647   1.224  0.2264  0.1477 -0.0467
25728SOL    HW183020   8.252   3.652   1.300 -0.5045  0.8324  0.4788
25728SOL    HW283021   8.253   3.656   1.149  0.7971  1.0809  0.4812
25729SOL     OW83022   0.430   3.361  10.550 -0.6627  0.0842  0.7421
25729SOL    HW183023   0.488   3.285  10.557  3.0402  2.6553  1.3473
25729SOL    HW283024   0.429   3.380  10.456 -0.8561 -0.1767  0.6897
25730SOL     OW83025   7.508   0.097   1.200  0.0869  0.2377 -0.2316
25730SOL    HW183026   7.580   0.108   1.262 -0.5690 -0.0840  0.6087
25730SOL    HW283027   7.472   0.011   1.221 -1.8770  1.2436  0.8138
25731SOL     OW83028   4.256   9.189   5.949 -0.3239  0.4634  0.1903
25731SOL    HW183029   4.236   9.283   5.945  0.1082  0.5694  0.4588
25731SOL    HW283030   4.347   9.183   5.921 -0.0179  0.2435  1.2159
25732SOL     OW83031   9.894   2.075   1.710 -0.3429  0.0766 -0.4078
25732SOL    HW183032   9.960   2.135   1.675 -1.1480  1.9299  1.1072
25732SOL    HW283033   9.921   2.059   1.800 -0.4386 -1.4740 -0.6206
25733SOL     OW83034   4.556   4.338   5.843  0.3070 -0.6144  0.4699
25733SOL    HW183035   4.568   4.414   5.900 -0.6177 -0.9324  1.1012
25733SOL    HW283036   4.623   4.276   5.872  0.1039 -0.6164  0.9445
25734SOL     OW83037   9.327   3.644   1.840  0.0646  0.3176  0.0907
25734SOL    HW183038   9.355   3.636   1.749  1.3367 -1.0583  0.5557
25734SOL    HW283039   9.249   3.588   1.846  2.3150 -3.0454  0.6835
25735SOL     OW83040   3.550   6.991   3.536 -0.0203  0.0497 -0.1191
25735SOL    HW183041   3.537   7.024   3.447 -2.0806 -2.4813 -0.8808
25735SOL    HW283042   3.616   6.922   3.526 -0.0229 -0.0276  0.4033
25736SOL     OW83043   7.738   5.339   4.397  0.1113 -0.3009 -0.2335
25736SOL    HW183044   7.801   5.305   4.333 -0.4439 -1.0004 -0.4251
25736SOL    HW283045   7.760   5.293   4.478 -0.1363 -0.5311 -0.2961
25737SOL     OW83046   3.285   0.152   9.081  0.1737 -0.0453 -0.5861
25737SOL    HW183047   3.336   0.175   9.003  2.3929  1.1536  1.0988
25737SOL    HW283048   3.198   0.186   9.063  1.0894  1.8265 -1.8289
25738SOL     OW83049   1.751   2.625   3.685  0.6153  0.0576 -0.3970
25738SOL    HW183050   1.806   2.623   3.763  1.7422 -0.1230 -1.1657
25738SOL    HW283051   1.690   2.697   3.701 -1.9669 -2.4628  2.4101
25739SOL     OW83052   0.018   8.845   8.638  0.4341 -0.7488 -0.1195
25739SOL    HW183053  -0.019   8.757   8.631 -0.5792 -0.2567 -1.5418
25739SOL    HW283054  -0.004   8.873   8.727 -4.0846  0.0090 -1.1824
25740SOL     OW83055   7.424   3.820  10.614  0.5041  0.1977  0.4644
25740SOL    HW183056   7.465   3.905  10.596 -1.2116  1.0300  0.2682
25740SOL    HW283057   7.487   3.756  10.581  2.0752  1.3572  1.0803
25741SOL     OW83058   8.092   6.164   0.426 -0.4201 -0.1344  0.0654
25741SOL    HW183059   8.067   6.073   0.443  1.3713 -0.7529 -0.3425
25741SOL    HW283060   8.110   6.200   0.512  1.1463 -0.9100  0.0913
25742SOL     OW83061   4.962   3.391   7.644 -0.8258 -0.0004 -0.0370
25742SOL    HW183062   4.990   3.300   7.633  0.7138  0.3142  1.0729
25742SOL    HW283063   5.003   3.420   7.725  0.1682  2.2198 -1.2506
25743SOL     OW83064  10.408   6.865   3.503  0.4404 -0.2026  0.0086
25743SOL    HW183065  10.472   6.827   3.564  1.4455  0.9347 -0.3008
25743SOL    HW283066  10.441   6.842   3.416 -0.3475 -0.8034 -0.1418
25744SOL     OW83067   6.428   3.922   0.538  0.0711  0.0229 -0.6257
25744SOL    HW183068   6.401   3.870   0.614 -0.5572  0.5898 -0.4580
25744SOL    HW283069   6.398   3.872   0.463 -1.5109  0.6447 -0.4479
25745SOL     OW83070   1.798   9.822   4.702 -0.3225  0.2651  0.6600
25745SOL    HW183071   1.729   9.818   4.636 -0.0800 -0.7224  0.4565
25745SOL    HW283072   1.875   9.854   4.656 -0.4603  0.7116  0.7349
25746SOL     OW83073   6.426   2.056   3.757 -0.4922  0.1625 -0.0807
25746SOL    HW183074   6.393   2.113   3.826 -0.0506  1.1755 -0.6858
25746SOL    HW283075   6.459   2.116   3.690 -0.9253 -0.7907 -1.1840
25747SOL     OW83076   7.593   2.894   3.155 -0.0959  0.2642 -0.1022
25747SOL    HW183077   7.637   2.972   3.119 -1.5649  2.0158  1.6724
25747SOL    HW283078   7.662   2.848   3.202  0.3534  1.9008  0.9601
25748SOL     OW83079   6.407   6.045   3.554 -0.2120 -0.1028  0.1850
25748SOL    HW183080   6.367   5.981   3.613 -0.0595 -1.7334 -1.4163
25748SOL    HW283081   6.501   6.036   3.569 -0.2223  0.4561  0.6353
25749SOL     OW83082   6.768   2.826   2.705  0.2341  0.1182  0.5570
25749SOL    HW183083   6.767   2.868   2.619 -0.6418 -0.5648  0.2196
25749SOL    HW283084   6.820   2.885   2.759  2.4268 -0.3752 -0.8814
25750SOL     OW83085   2.534   1.775   6.065 -0.4340 -0.0501 -0.0847
25750SOL    HW183086   2.558   1.694   6.109  0.7082  0.2424 -0.1557
25750SOL    HW283087   2.507   1.834   6.136 -0.8820 -0.3480 -0.0016
25751SOL     OW83088   5.157   6.371   7.667 -0.4406 -0.1846  0.3847
25751SOL    HW183089   5.191   6.296   7.618 -0.8286  0.6554 -1.2400
25751SOL    HW283090   5.068   6.346   7.690  0.2150 -1.1821  2.0364
25752SOL     OW83091   9.166   1.957   6.170  0.3139 -0.0259 -0.1306
25752SOL    HW183092   9.095   1.897   6.148 -0.9060  0.6749  1.7495
25752SOL    HW283093   9.126   2.044   6.167  1.1944  0.4175  0.5431
25753SOL     OW83094   2.881   7.627   9.641  0.2726 -0.3354 -0.4742
25753SOL    HW183095   2.914   7.641   9.730 -4.9254  0.8783  1.6061
25753SOL    HW283096   2.845   7.538   9.642  1.4429 -0.8898 -1.9914
25754SOL     OW83097   1.014   3.768   7.008 -0.4028 -0.2196 -0.0211
25754SOL    HW183098   1.037   3.679   7.034 -0.0688  0.0781  0.7298
25754SOL    HW283099   1.095   3.818   7.020 -0.7522  0.3094  0.1726
25755SOL     OW83100   9.681   3.659   4.613 -0.1928  0.2291 -1.2687
25755SOL    HW183101   9.616   3.593   4.638  1.5922 -1.1439  0.0591
25755SOL    HW283102   9.717   3.628   4.531  0.4287 -0.3217 -0.7995
25756SOL     OW83103   4.486   3.924   9.875  0.1206 -0.3321 -0.2511
25756SOL    HW183104   4.559   3.948   9.818 -0.5328  0.5302 -0.7588
25756SOL    HW283105   4.408   3.946   9.824 -0.4970 -1.3345  0.2415
25757SOL     OW83106   0.082   8.890   7.792  1.4769 -0.6089  0.7830
25757SOL    HW183107  -0.008   8.878   7.820  0.9822  0.4159 -0.2723
25757SOL    HW283108   0.115   8.801   7.778  0.6986 -1.0008  1.3344
25758SOL     OW83109   7.280   9.068   7.021 -0.7415  0.1822  0.1522
25758SOL    HW183110   7.203   9.045   7.073 -0.8125 -0.8843 -0.3871
25758SOL    HW283111   7.256   9.149   6.976 -1.1012  0.4910  0.8880
25759SOL     OW83112   2.965   7.817   3.741 -0.6202  0.3655  0.0383
25759SOL    HW183113   3.053   7.846   3.765 -0.1971 -1.2233  0.5740
25759SOL    HW283114   2.907   7.884   3.776  0.3805  1.6415 -0.6729
25760SOL     OW83115  10.719   0.918   4.753  0.9033  0.2060 -0.0999
25760SOL    HW183116  10.775   0.877   4.688  0.7104 -0.0017 -0.1360
25760SOL    HW283117  10.749   0.884   4.837  1.0740  0.3815 -0.0896
25761SOL     OW83118   4.249  10.606   8.787 -0.0723  0.1214  0.7771
25761SOL    HW183119   4.235  10.627   8.879 -1.4953  1.6951  0.2483
25761SOL    HW283120   4.162  10.614   8.747  0.7921  1.1031 -1.0088
25762SOL     OW83121   9.222  10.170   4.965  0.3883  0.1243 -0.7427
25762SOL    HW183122   9.312  10.142   4.950  0.9645  1.2721  0.3935
25762SOL    HW283123   9.218  10.258   4.928  0.0943  0.5709  0.3309
25763SOL     OW83124   4.639   7.325   2.258 -0.2385 -0.2705 -0.4983
25763SOL    HW183125   4.555   7.322   2.304 -1.5102 -0.3180 -2.6503
25763SOL    HW283126   4.636   7.407   2.209  0.7106 -0.5612 -1.0656
25764SOL     OW83127   8.735   5.820   1.480  0.1683  1.1112  0.0034
25764SOL    HW183128   8.746   5.732   1.443 -1.2005  1.1392 -0.5141
25764SOL    HW283129   8.814   5.867   1.455 -0.2289  0.7978 -1.9639
25765SOL     OW83130   6.459   4.944   1.281 -0.0966  0.3016 -0.8530
25765SOL    HW183131   6.500   4.898   1.354 -0.0790  0.8140 -0.5334
25765SOL    HW283132   6.365   4.943   1.300 -0.0611  0.7523 -0.6300
25766SOL     OW83133   4.851   1.002   9.719  0.2303 -0.4376 -0.0502
25766SOL    HW183134   4.892   0.928   9.675  0.0212  0.8335 -2.5853
25766SOL    HW283135   4.767   1.013   9.674  0.1817  1.2332  0.3766
25767SOL     OW83136   5.549   0.996   4.014 -0.3221  0.6264  0.3007
25767SOL    HW183137   5.617   1.050   3.973  0.3335  0.3698  1.0454
25767SOL    HW283138   5.596   0.926   4.058 -1.1687 -0.8244 -0.9660
25768SOL     OW83139   5.565   8.883  10.536 -0.5234 -0.1180  0.5030
25768SOL    HW183140   5.568   8.851  10.446 -1.8950 -0.2298  0.4803
25768SOL    HW283141   5.593   8.975  10.530  1.9062 -0.7832  0.3584
25769SOL     OW83142  10.271   4.584   8.607  0.5105  0.0173  0.0223
25769SOL    HW183143  10.259   4.607   8.515 -1.2202  2.3153  0.7367
25769SOL    HW283144  10.356   4.539   8.610  1.9548  2.3454 -2.2772
25770SOL     OW83145   8.870   0.894   1.752 -0.1788 -0.4624 -0.0262
25770SOL    HW183146   8.913   0.834   1.690 -1.0908 -2.1533  0.8964
25770SOL    HW283147   8.778   0.870   1.748 -0.3042 -0.3931  1.7330
25771SOL     OW83148   9.437   8.995  10.276  0.2151  0.6108  0.4814
25771SOL    HW183149   9.488   8.916  10.259 -0.6567  0.2869 -0.7406
25771SOL    HW283150   9.503   9.061  10.301  1.1220 -0.0431 -0.1309
25772SOL     OW83151   4.743   0.752   5.284 -0.0938  0.4014 -0.8350
25772SOL    HW183152   4.760   0.834   5.239  1.6561 -0.0337 -1.0412
25772SOL    HW283153   4.829   0.712   5.295 -0.8819 -1.3286 -0.5810
25773SOL     OW83154   9.638   8.849   0.020  0.5864  0.4967  0.2899
25773SOL    HW183155   9.572   8.918   0.031 -0.0538 -0.2280  1.1644
25773SOL    HW283156   9.665   8.827   0.109  0.4027 -0.7372  0.0523
25774SOL     OW83157   5.087   1.107   5.374  0.1618  0.2187  0.4285
25774SOL    HW183158   5.168   1.156   5.358 -0.4026  0.8256 -0.6732
25774SOL    HW283159   5.068   1.064   5.290 -0.6125  0.0279  0.6963
25775SOL     OW83160   3.461   1.913   3.228  0.4504  0.1391  0.0360
25775SOL    HW183161   3.529   1.948   3.286 -1.0086  2.3481  0.5422
25775SOL    HW283162   3.422   1.841   3.278  1.1165  0.1376  0.5665
25776SOL     OW83163   2.644   3.918   3.173  0.4715  0.5223  0.1937
25776SOL    HW183164   2.594   3.933   3.092  0.3614  2.5714  0.5833
25776SOL    HW283165   2.626   3.827   3.196 -2.1081  0.8373 -0.3342
25777SOL     OW83166   9.814   5.497   5.672  0.6016  0.3513  0.3029
25777SOL    HW183167   9.737   5.549   5.652  0.0732 -0.0700  1.1569
25777SOL    HW283168   9.861   5.489   5.589 -0.0916  0.9052 -0.1511
25778SOL     OW83169   5.418   4.151   0.605  0.2612 -0.6022 -0.0392
25778SOL    HW183170   5.419   4.244   0.580 -1.1313 -0.7813 -0.9155
25778SOL    HW283171   5.391   4.106   0.525 -1.3499 -1.5251  0.9657
25779SOL     OW83172   5.546   6.076   8.722 -0.1634 -0.3068  0.3407
25779SOL    HW183173   5.539   6.020   8.645 -1.8136 -1.5685  1.3268
25779SOL    HW283174   5.626   6.047   8.765 -0.9706 -1.9804  0.8169
25780SOL     OW83175   6.756   9.829   0.537  0.4590 -0.1055  0.6837
25780SOL    HW183176   6.684   9.801   0.593  0.8505 -1.0658  0.7309
25780SOL    HW283177   6.728   9.913   0.502 -0.9004 -0.6948  0.2936
25781SOL     OW83178  10.264   4.445   2.156  0.3284 -0.3157 -0.2473
25781SOL    HW183179  10.306   4.474   2.236  1.6460 -1.0090 -0.6572
25781SOL    HW283180  10.317   4.371   2.126 -1.0168 -1.0304 -0.9575
25782SOL     OW83181   3.944   2.094   3.067  0.1271  0.0870  0.3871
25782SOL    HW183182   3.880   2.023   3.063  0.7746 -0.4808 -0.2801
25782SOL    HW283183   3.892   2.174   3.065 -0.5782 -0.3718  0.1869
25783SOL     OW83184   3.791   0.383   1.587  0.2043  0.1348  0.4309
25783SOL    HW183185   3.849   0.434   1.644 -1.2012  2.2502  0.0709
25783SOL    HW283186   3.781   0.299   1.632 -0.5350  1.5604  3.1400
25784SOL     OW83187   8.839   4.638   2.910  0.1105  0.5392  0.0555
25784SOL    HW183188   8.891   4.572   2.957  1.2067  1.1469 -0.2869
25784SOL    HW283189   8.787   4.680   2.979  0.9249  0.7076  0.5913
25785SOL     OW83190   9.544   3.002   0.594 -0.5135 -0.8175 -0.0754
25785SOL    HW183191   9.458   3.039   0.572  0.5973  1.0811 -1.5046
25785SOL    HW283192   9.574   2.962   0.513  0.8568  0.5187 -0.2769
25786SOL     OW83193   5.756   6.205   1.971 -0.0243  0.3302  0.0589
25786SOL    HW183194   5.676   6.153   1.973  0.1356  0.0699 -0.2967
25786SOL    HW283195   5.827   6.142   1.980  0.0938  0.8097  3.6200
25787SOL     OW83196   2.406  10.254   8.000 -0.1739  0.5144  0.6920
25787SOL    HW183197   2.402  10.350   7.997  0.8237  0.5472 -0.8594
25787SOL    HW283198   2.432  10.234   8.090 -2.4563  1.5624  1.6650
25788SOL     OW83199   2.832   6.385   4.375 -0.1135 -0.2340  0.2227
25788SOL    HW183200   2.842   6.438   4.296 -2.0722 -0.4016 -0.1696
25788SOL    HW283201   2.918   6.390   4.417  0.3221  1.6801 -0.7729
25789SOL     OW83202   5.950   5.515   7.093  0.3262  0.0095 -0.2694
25789SOL    HW183203   5.983   5.431   7.063 -0.1348  0.5119 -2.3703
25789SOL    HW283204   6.028   5.566   7.116  0.6563 -0.6340  0.0374
25790SOL     OW83205   3.488   9.002   3.452  0.0751  0.0530 -0.0426
25790SOL    HW183206   3.488   9.090   3.490 -0.7807  0.1315 -0.2104
25790SOL    HW283207   3.427   9.008   3.378  1.7018 -0.0779 -1.4834
25791SOL     OW83208   1.946   1.327   8.782  0.2274 -0.3459 -0.5473
25791SOL    HW183209   1.974   1.250   8.832 -1.1732 -1.8284 -1.9397
25791SOL    HW283210   1.968   1.306   8.692  0.0216  1.0050 -0.9263
25792SOL     OW83211   7.346   2.802   8.157 -0.1375 -0.6120 -0.2702
25792SOL    HW183212   7.385   2.869   8.214  1.1051 -1.1715 -0.4106
25792SOL    HW283213   7.366   2.831   8.068  1.4596 -1.7136 -0.3150
25793SOL     OW83214   6.251   6.746   4.800 -0.2229  0.0478 -0.4015
25793SOL    HW183215   6.250   6.829   4.847  1.9848  0.0344 -0.2401
25793SOL    HW283216   6.274   6.681   4.866  1.6511 -0.1465 -1.1816
25794SOL     OW83217   0.598   3.138   3.410  0.6085 -0.1438  0.2703
25794SOL    HW183218   0.630   3.087   3.485  0.3665  0.7197  0.9791
25794SOL    HW283219   0.558   3.072   3.352  2.3410 -1.0454  0.0417
25795SOL     OW83220   1.505   4.741   2.670 -0.5351  0.3527 -0.3866
25795SOL    HW183221   1.555   4.791   2.735 -1.5732  2.6185 -1.2415
25795SOL    HW283222   1.425   4.715   2.715 -0.9094  1.2694 -0.4907
25796SOL     OW83223   3.352   2.890   5.311 -0.3314 -0.3675 -0.2460
25796SOL    HW183224   3.259   2.878   5.293 -0.4218 -0.3631  0.2051
25796SOL    HW283225   3.356   2.965   5.371 -0.2414 -1.8230  1.6747
25797SOL     OW83226   1.550   5.072   9.263 -0.2009 -0.4027 -0.6736
25797SOL    HW183227   1.513   5.108   9.344 -0.2997  2.1711 -1.7915
25797SOL    HW283228   1.485   5.009   9.233 -0.7810 -0.4257  0.5495
25798SOL     OW83229   1.927   2.612   0.296 -0.2841  0.6164 -0.2714
25798SOL    HW183230   1.948   2.576   0.210 -1.1006 -0.9501  0.1530
25798SOL    HW283231   2.001   2.670   0.316  0.6828 -0.2043 -1.3502
25799SOL     OW83232   1.468   3.307   7.087 -0.1625  0.6226 -0.5218
25799SOL    HW183233   1.541   3.244   7.088 -0.8481 -0.1961  0.5772
25799SOL    HW283234   1.396   3.258   7.048 -0.6291  0.8102  0.0967
25800SOL     OW83235   4.447   7.545   8.670 -0.2295  0.0382  0.7133
25800SOL    HW183236   4.414   7.630   8.700  1.5820  0.1420  2.7018
25800SOL    HW283237   4.442   7.489   8.747 -0.1924 -1.2828 -0.2287
25801SOL     OW83238   4.583   0.178   1.086  0.1621 -0.3332 -0.0317
25801SOL    HW183239   4.634   0.193   1.166  0.3730 -1.1635  0.0039
25801SOL    HW283240   4.642   0.201   1.015 -0.4741  1.7142  0.0541
25802SOL     OW83241   9.626   3.504   0.557  0.3483  0.3488  0.9101
25802SOL    HW183242   9.638   3.470   0.468  0.9749  0.2278  1.0369
25802SOL    HW283243   9.647   3.597   0.551 -0.3779  0.5154  0.7762
25803SOL     OW83244   0.364   7.839   9.872 -0.3515 -0.9574 -0.0016
25803SOL    HW183245   0.278   7.832   9.830 -1.0217 -1.3112  1.3636
25803SOL    HW283246   0.351   7.902   9.943  1.2651  1.1966 -1.4900
25804SOL     OW83247   4.157   8.768   5.593  0.2186  0.3316  0.5637
25804SOL    HW183248   4.192   8.785   5.505  1.3429 -1.2556  0.6793
25804SOL    HW283249   4.232   8.775   5.651  0.6076 -3.5657  0.7660
25805SOL     OW83250   1.025   1.324   7.686  0.3533  0.0342  0.2803
25805SOL    HW183251   0.938   1.301   7.653 -0.4021  1.3899  1.2376
25805SOL    HW283252   1.051   1.248   7.738 -1.2223  0.4244  1.7586
25806SOL     OW83253   2.599   3.713   6.322  0.7279  0.1370  0.4468
25806SOL    HW183254   2.664   3.673   6.379 -0.6656  0.6308  2.4743
25806SOL    HW283255   2.516   3.707   6.370 -1.0264 -1.4173 -2.4494
25807SOL     OW83256   6.629   5.049   9.441  0.2423 -0.3733 -0.5780
25807SOL    HW183257   6.652   5.099   9.363  0.0387  0.3135 -0.2042
25807SOL    HW283258   6.606   5.115   9.506  1.4386 -0.8752  0.4023
25808SOL     OW83259   7.523   5.475   5.007  0.6898 -0.5800 -0.3954
25808SOL    HW183260   7.538   5.387   5.042 -2.8923 -1.7044 -1.2551
25808SOL    HW283261   7.494   5.526   5.083 -3.0746 -1.9199 -0.7080
25809SOL     OW83262   3.015   2.873  10.486  0.4434 -0.1330 -0.2696
25809SOL    HW183263   3.098   2.842  10.522 -0.6340 -0.5519  2.0316
25809SOL    HW283264   3.032   2.964  10.461  1.6470 -0.2773 -0.0412
25810SOL     OW83265   0.533   0.320   2.326 -0.0793 -0.4586 -0.1391
25810SOL    HW183266   0.601   0.376   2.363  0.3009 -0.6633 -0.5171
25810SOL    HW283267   0.451   0.357   2.359  0.1982 -0.0265  0.0779
25811SOL     OW83268   6.244   2.872   4.861 -0.0688 -0.1034  0.0854
25811SOL    HW183269   6.237   2.966   4.877  0.8084  0.2787 -1.5525
25811SOL    HW283270   6.311   2.842   4.922  3.7175  1.4264 -2.8925
25812SOL     OW83271   3.990  10.575   8.662 -0.3161  0.0902 -0.2983
25812SOL    HW183272   3.980  10.554   8.569  1.4104  0.4546 -0.6011
25812SOL    HW283273   4.017  10.492   8.702 -0.1467  0.1466 -0.2934
25813SOL     OW83274   6.311   3.208   6.973  0.3935 -0.7468  0.0695
25813SOL    HW183275   6.222   3.204   6.939  0.8472 -0.3716 -1.2507
25813SOL    HW283276   6.313   3.288   7.026  0.5414  0.5691 -1.8222
25814SOL     OW83277   1.629   9.068  10.479 -0.2775  0.0502 -0.5219
25814SOL    HW183278   1.675   9.057  10.396 -1.8562  0.5787 -1.5082
25814SOL    HW283279   1.685   9.128  10.529  1.1452 -0.9843 -0.7971
25815SOL     OW83280   6.786   3.735   6.984  0.2880  0.7196 -0.1948
25815SOL    HW183281   6.833   3.724   7.067  0.7940 -0.7364 -0.6459
25815SOL    HW283282   6.835   3.682   6.921 -2.0468 -1.0977 -0.6314
25816SOL     OW83283   1.559   8.058   1.256  0.1414  0.0363 -0.0686
25816SOL    HW183284   1.574   8.151   1.241  0.1312  0.0557  0.0425
25816SOL    HW283285   1.638   8.028   1.302 -0.1624  0.1436  0.5368
25817SOL     OW83286   0.974   4.252  10.456 -0.1564 -0.2796  0.1552
25817SOL    HW183287   0.941   4.178  10.405 -0.0688 -1.1744  1.3348
25817SOL    HW283288   1.069   4.248  10.446 -0.2142  0.7537 -1.1702
25818SOL     OW83289   1.300   8.218   2.731 -0.8108 -0.4825  0.4056
25818SOL    HW183290   1.247   8.270   2.791 -0.5920 -0.3602  0.4957
25818SOL    HW283291   1.314   8.276   2.656  0.7172  0.1729  1.1551
25819SOL     OW83292   1.692   1.877   4.087  0.2238 -0.7811 -0.0492
25819SOL    HW183293   1.637   1.833   4.152 -1.0549 -0.2371 -0.7059
25819SOL    HW283294   1.664   1.838   4.003  0.1919  0.1485 -0.4797
25820SOL     OW83295   2.589   7.613   9.461  0.4899  0.1419 -0.0488
25820SOL    HW183296   2.578   7.599   9.367  1.0488 -0.2618 -0.0562
25820SOL    HW283297   2.664   7.559   9.485  1.6905  1.8630  0.2376
25821SOL     OW83298   3.797   5.443   9.776 -0.8325  0.2914  0.2504
25821SOL    HW183299   3.832   5.447   9.864 -1.0058  0.8200  0.2996
25821SOL    HW283300   3.702   5.434   9.788 -0.9113  0.9001  0.1255
25822SOL     OW83301   6.143   3.435   6.007  0.2351 -0.7379 -0.5807
25822SOL    HW183302   6.062   3.386   6.019 -0.4266  0.2814 -0.7859
25822SOL    HW283303   6.161   3.429   5.913 -0.1230 -0.1651 -0.6874
25823SOL     OW83304   8.083   5.046   9.849  0.5059  0.6581 -0.3266
25823SOL    HW183305   8.168   5.010   9.875  0.3066  0.9162  0.7272
25823SOL    HW283306   8.038   5.063   9.932 -1.1790 -0.8497 -0.8736
25824SOL     OW83307   9.219   7.139   7.616  0.0771  0.1708 -0.0026
25824SOL    HW183308   9.144   7.093   7.580 -0.8047  1.5568  0.0073
25824SOL    HW283309   9.220   7.224   7.572 -0.6841  1.7013  2.6325
25825SOL     OW83310   7.427   2.691   0.581  0.2135 -0.0542 -0.3534
25825SOL    HW183311   7.386   2.778   0.581  0.6336  0.1470 -0.4581
25825SOL    HW283312   7.358   2.632   0.552 -0.7703 -0.0984  1.8534
25826SOL     OW83313   1.392  10.170   0.368  0.0108 -0.3196  0.0184
25826SOL    HW183314   1.345  10.104   0.418 -0.1219 -0.5438 -0.3925
25826SOL    HW283315   1.482  10.136   0.363  0.0053 -0.3359  0.0331
25827SOL     OW83316   1.074   4.445  10.241  0.1378 -0.5688  0.2246
25827SOL    HW183317   1.021   4.408  10.311  1.0841 -0.4835  0.9940
25827SOL    HW283318   1.161   4.408  10.253  1.0315  1.5648  0.7923
25828SOL     OW83319   0.763   8.224  10.633  0.1649  0.5042  0.2668
25828SOL    HW183320   0.777   8.135  10.666  0.7238  1.2731  2.2507
25828SOL    HW283321   0.740   8.212  10.540 -0.4540 -1.7338  0.6429
25829SOL     OW83322   6.785   7.788   4.709 -0.4043 -0.3868 -0.0333
25829SOL    HW183323   6.859   7.833   4.750 -0.4569  0.5338 -0.8937
25829SOL    HW283324   6.713   7.797   4.772  0.0831 -0.8836  0.6009
25830SOL     OW83325   9.464   3.546  10.026 -0.1671 -0.2054 -0.2635
25830SOL    HW183326   9.427   3.551  10.114  1.3884 -0.0437  0.4144
25830SOL    HW283327   9.395   3.505   9.973 -0.3690 -2.2740  1.4693
25831SOL     OW83328   5.489   6.831   3.573  0.2400  0.6925 -0.3925
25831SOL    HW183329   5.477   6.893   3.645 -1.5478  0.2397 -0.2288
25831SOL    HW283330   5.440   6.869   3.500  0.2874  0.1563 -0.7058
25832SOL     OW83331   8.917   7.454   1.640  0.3161  0.1811 -0.5657
25832SOL    HW183332   8.937   7.494   1.555 -0.7114  0.9786 -0.4548
25832SOL    HW283333   8.830   7.416   1.629 -0.0330  0.7140  0.2621
25833SOL     OW83334   9.903   2.095   7.171 -0.7194  0.4394 -0.2967
25833SOL    HW183335   9.909   2.159   7.100 -0.5686  2.2470  1.2531
25833SOL    HW283336   9.810   2.091   7.194 -0.6717  0.4435 -0.0960
25834SOL     OW83337   2.427   8.109   9.325 -0.3743 -0.2028 -0.4193
25834SOL    HW183338   2.515   8.071   9.318 -0.4434 -0.2456 -1.0909
25834SOL    HW283339   2.387   8.062   9.399 -0.2500 -1.0321 -0.8657
25835SOL     OW83340   7.585   9.200   8.109 -0.0480 -0.4417 -0.0826
25835SOL    HW183341   7.669   9.198   8.062 -0.9495  0.0290 -1.7951
25835SOL    HW283342   7.522   9.162   8.047 -1.3726  0.5978  0.5842
25836SOL     OW83343   9.091   2.136   1.792  0.6024  0.4848 -0.3692
25836SOL    HW183344   9.018   2.198   1.782 -0.7025 -0.8560  0.4254
25836SOL    HW283345   9.069   2.065   1.732  1.5472  0.3018 -0.5088
25837SOL     OW83346   2.100   1.495   1.279 -0.2102  0.4064  0.1498
25837SOL    HW183347   2.044   1.571   1.294 -2.5913 -1.0229 -0.8077
25837SOL    HW283348   2.062   1.453   1.201  1.8210 -1.0418 -0.1339
25838SOL     OW83349   1.804   3.954  10.648 -0.4511 -0.1435 -0.1012
25838SOL    HW183350   1.848   4.012  10.710  1.0582 -1.2031 -0.1265
25838SOL    HW283351   1.798   3.870  10.694  0.2909 -0.8283 -1.1844
25839SOL     OW83352   1.351   2.433   4.225 -0.1287  0.3918 -0.1787
25839SOL    HW183353   1.417   2.489   4.265 -0.0543 -0.1762  0.5244
25839SOL    HW283354   1.352   2.456   4.132  1.8883 -0.3960 -0.4057
25840SOL     OW83355  10.707   1.340  10.434 -0.6819 -0.3291  0.2826
25840SOL    HW183356  10.726   1.259  10.386  1.1551  1.2199 -1.8249
25840SOL    HW283357  10.793   1.369  10.466 -1.4608  0.2569  1.9498
25841SOL     OW83358   6.933   7.018  10.517  0.0926 -0.1501  0.0625
25841SOL    HW183359   6.959   7.104  10.486 -0.5242 -0.2509 -0.7779
25841SOL    HW283360   6.957   6.959  10.445 -1.5205 -0.3695 -0.3392
25842SOL     OW83361   4.819   4.916   1.670 -0.5106  0.4475  0.2254
25842SOL    HW183362   4.757   4.965   1.616 -0.2246  0.0104 -0.5005
25842SOL    HW283363   4.897   4.906   1.616 -1.1517 -2.3213 -0.3682
25843SOL     OW83364   1.392   3.890   5.432 -0.1080 -0.2045 -0.4183
25843SOL    HW183365   1.377   3.826   5.501 -0.6280  1.5666  1.2272
25843SOL    HW283366   1.418   3.969   5.479 -3.9641  2.2152 -1.8127
25844SOL     OW83367   1.528   2.362   9.035  0.0518  0.2074  0.1355
25844SOL    HW183368   1.494   2.385   9.122  0.2472  0.2368  0.2035
25844SOL    HW283369   1.551   2.446   8.996 -1.8417  0.3909 -0.7055
25845SOL     OW83370   6.768   9.385   2.403  0.6394  0.1110  0.1058
25845SOL    HW183371   6.814   9.468   2.416 -0.4505  0.7990 -0.3099
25845SOL    HW283372   6.701   9.384   2.471  0.7150 -0.4860  0.1774
25846SOL     OW83373   1.471   8.087   4.195  0.1293 -0.3164 -0.2832
25846SOL    HW183374   1.445   8.097   4.103  0.9862 -0.1557 -0.5168
25846SOL    HW283375   1.477   8.176   4.228 -0.6596 -0.3894  0.0793
25847SOL     OW83376   0.970   9.533   7.992 -0.1163 -0.3331  0.1403
25847SOL    HW183377   0.909   9.468   7.958  0.4632 -0.6747 -0.2651
25847SOL    HW283378   0.984   9.508   8.084 -1.5053  0.4550  0.5857
25848SOL     OW83379   4.447   2.792   1.289  0.1346 -0.1388  0.2785
25848SOL    HW183380   4.466   2.713   1.238  2.0698  0.3913  0.1144
25848SOL    HW283381   4.426   2.859   1.223 -0.9493 -0.3433  0.3922
25849SOL     OW83382  10.005   1.558   5.757  0.5210  0.1843 -0.0763
25849SOL    HW183383  10.015   1.566   5.852 -0.0452 -0.0098  0.0044
25849SOL    HW283384  10.094   1.547   5.725  0.7002  0.0208  0.4564
25850SOL     OW83385   4.042  10.596   5.650  0.0097  0.0660 -0.4967
25850SOL    HW183386   3.970  10.535   5.659  0.0231 -0.1353 -1.6068
25850SOL    HW283387   4.001  10.682   5.645 -0.1274 -0.0102 -0.6801
25851SOL     OW83388   6.266   9.816   4.409 -0.3674 -0.1988  0.0883
25851SOL    HW183389   6.233   9.840   4.495 -1.6464  0.2211 -0.4889
25851SOL    HW283390   6.245   9.891   4.353  0.3332 -0.5144 -0.6153
25852SOL     OW83391   7.242   6.026   9.210  0.1172 -0.2068  0.0033
25852SOL    HW183392   7.158   6.070   9.220 -0.5396 -1.2652 -0.5631
25852SOL    HW283393   7.227   5.963   9.140  0.8709 -1.5899  1.0210
25853SOL     OW83394   8.444   1.253   3.294  0.1575 -0.2836 -0.0332
25853SOL    HW183395   8.372   1.190   3.291  0.1075 -0.4415  2.4472
25853SOL    HW283396   8.503   1.225   3.224 -0.7392 -1.9773 -0.1742
25854SOL     OW83397   8.950   4.649   8.803 -0.6937 -0.4433  0.2601
25854SOL    HW183398   8.874   4.689   8.846 -1.1125 -2.2451  1.2896
25854SOL    HW283399   8.945   4.680   8.713  0.1673  3.4228  1.3379
25855SOL     OW83400  10.293   9.861   2.430 -0.2239  0.3422  0.1144
25855SOL    HW183401  10.387   9.870   2.411 -0.2694  0.8858  0.1367
25855SOL    HW283402  10.254   9.941   2.396 -0.6760  0.1361  0.1470
25856SOL     OW83403   4.252   5.304   5.343  0.5847 -0.1645 -0.7513
25856SOL    HW183404   4.239   5.353   5.424 -0.6604 -0.1587 -0.9249
25856SOL    HW283405   4.343   5.320   5.319  0.5032  1.2277 -0.2414
25857SOL     OW83406  10.354   4.465   6.584  0.6097 -0.0942  0.0081
25857SOL    HW183407  10.337   4.548   6.630  0.7037 -0.2215  0.2787
25857SOL    HW283408  10.314   4.399   6.640 -0.4020 -0.1369 -0.7538
25858SOL     OW83409   3.406   6.717   4.592  0.0313 -0.4228 -0.1664
25858SOL    HW183410   3.431   6.626   4.611  1.3938  0.1980  1.2226
25858SOL    HW283411   3.464   6.743   4.520  1.5840  0.1446  1.2230
25859SOL     OW83412   3.236   3.585   8.173  0.3096 -0.1396 -0.3061
25859SOL    HW183413   3.162   3.574   8.113 -0.3614  1.0247  0.2681
25859SOL    HW283414   3.208   3.655   8.232  1.5072 -0.3274  0.5086
25860SOL     OW83415   0.250   3.254   6.159  0.3733 -0.2570 -0.1390
25860SOL    HW183416   0.325   3.257   6.099  0.1016  1.2760 -0.4523
25860SOL    HW283417   0.195   3.328   6.132 -1.0546 -1.1085  0.3491
25861SOL     OW83418   3.571   9.248   9.980 -0.8131  0.1611 -0.0438
25861SOL    HW183419   3.538   9.205  10.058 -1.5255 -1.6485 -1.2771
25861SOL    HW283420   3.630   9.184   9.941 -0.0032  1.2690 -0.6897
25862SOL     OW83421   2.895   1.488   9.000  0.6783  0.0062  0.3863
25862SOL    HW183422   2.855   1.575   9.008  0.1480 -0.1560 -0.4094
25862SOL    HW283423   2.832   1.429   9.042 -0.4875 -0.3931 -1.7758
25863SOL     OW83424   2.955   1.792   0.477 -0.1032 -0.1111 -0.1957
25863SOL    HW183425   2.928   1.701   0.491  1.6718 -0.5084  0.9142
25863SOL    HW283426   2.904   1.820   0.401  0.2211 -2.4508 -1.3789
25864SOL     OW83427   5.834   9.858   5.703 -0.3764 -0.2056 -0.2252
25864SOL    HW183428   5.804   9.804   5.630 -0.1389  1.7589 -1.8695
25864SOL    HW283429   5.754   9.891   5.744 -0.5107  0.2314 -0.8313
25865SOL     OW83430  10.127   6.414   1.329 -0.4272 -0.2207  0.4489
25865SOL    HW183431  10.207   6.462   1.305  0.1855 -0.6407  1.5577
25865SOL    HW283432  10.069   6.425   1.254  0.1496  1.2453  0.1800
25866SOL     OW83433   4.035   4.743   1.884 -0.1861 -0.2785 -0.4314
25866SOL    HW183434   3.951   4.769   1.845 -0.4597 -0.1085  0.2648
25866SOL    HW283435   4.076   4.826   1.909 -0.4302 -0.4238  0.4928
25867SOL     OW83436   1.894   2.583  10.547 -0.0486  0.2536 -0.1787
25867SOL    HW183437   1.915   2.577  10.454  1.4979 -0.7570  0.1995
25867SOL    HW283438   1.891   2.677  10.565  2.7374  0.5112 -0.6340
25868SOL     OW83439   8.314   8.461   1.747 -0.7952  0.0555  0.0941
25868SOL    HW183440   8.231   8.416   1.731 -0.5563 -0.5751  0.5857
25868SOL    HW283441   8.305   8.497   1.835 -0.9175  0.8263 -0.2319
25869SOL     OW83442   4.224   3.116   8.053  0.2282  0.2102  0.4175
25869SOL    HW183443   4.291   3.157   7.998 -1.2692  3.2808  0.6709
25869SOL    HW283444   4.244   3.146   8.142  0.2332 -1.3481  0.9748
25870SOL     OW83445   4.933   9.176   4.082 -0.1044  0.2123  0.0198
25870SOL    HW183446   4.853   9.136   4.116 -0.9100  0.4102 -1.5107
25870SOL    HW283447   5.003   9.114   4.104 -0.7252 -0.1273  1.0828
25871SOL     OW83448   7.964   0.585   5.817  0.1702 -0.1798  0.3554
25871SOL    HW183449   8.058   0.598   5.813  0.2986 -1.0217  0.4490
25871SOL    HW283450   7.945   0.521   5.749 -0.6370  1.4585 -1.0484
25872SOL     OW83451   1.884   3.737   5.522  0.1581 -0.1395  0.0592
25872SOL    HW183452   1.960   3.780   5.483 -1.7173  3.1289 -0.3437
25872SOL    HW283453   1.814   3.747   5.457 -0.4997 -4.0353 -0.0747
25873SOL     OW83454   3.873   2.222   9.145 -0.4352 -0.3758 -0.0290
25873SOL    HW183455   3.850   2.270   9.066 -0.7716 -0.7568 -0.1640
25873SOL    HW283456   3.789   2.188   9.178 -0.1263 -1.4411 -0.3016
25874SOL     OW83457   0.383   9.861   8.731 -0.2153  0.1579  0.1883
25874SOL    HW183458   0.338   9.816   8.802 -1.2913  1.6646  0.5118
25874SOL    HW283459   0.443   9.921   8.775  0.1765  0.0540 -0.2026
25875SOL     OW83460  10.245   8.418   0.875  0.2836 -0.4980 -0.1189
25875SOL    HW183461  10.214   8.488   0.933  0.6431 -0.8717  0.5342
25875SOL    HW283462  10.194   8.341   0.901  1.3457 -0.9846  0.6026
25876SOL     OW83463   8.781   8.008   2.889 -0.0420 -0.4760 -0.2519
25876SOL    HW183464   8.716   8.074   2.867  0.3560  0.2012  0.5512
25876SOL    HW283465   8.845   8.013   2.818 -0.7057 -0.9448 -0.8926
25877SOL     OW83466   8.618   1.218   7.068 -0.5022  0.0721  0.6378
25877SOL    HW183467   8.653   1.297   7.107 -0.3014  0.0720  0.4575
25877SOL    HW283468   8.523   1.227   7.075 -0.4654 -0.2229  1.7220
25878SOL     OW83469   6.568   4.369   4.583  0.0621  0.4310  0.1790
25878SOL    HW183470   6.583   4.413   4.499 -2.2516  0.5284 -0.2414
25878SOL    HW283471   6.530   4.436   4.639 -0.4848 -0.1924  0.5751
25879SOL     OW83472   5.292   1.811   5.997 -0.1066  0.0577 -0.1318
25879SOL    HW183473   5.250   1.831   5.913 -0.6810 -1.7996 -0.3369
25879SOL    HW283474   5.249   1.869   6.060  1.1533  2.3409 -1.2445
25880SOL     OW83475   9.131   7.515   6.505 -0.2261  0.4841  0.3310
25880SOL    HW183476   9.155   7.582   6.568 -0.3970  2.5081 -1.6391
25880SOL    HW283477   9.215   7.483   6.471 -0.1373 -0.5309  1.4274
25881SOL     OW83478   1.260   8.095   3.666 -0.8003 -0.1470  0.0383
25881SOL    HW183479   1.178   8.142   3.647 -0.9841  0.0730  1.2724
25881SOL    HW283480   1.248   8.061   3.754  0.4566 -0.0962  0.2455
25882SOL     OW83481   3.736   4.262   7.910 -0.2218 -0.4119  0.3675
25882SOL    HW183482   3.787   4.325   7.860  1.9858 -2.4345 -0.1380
25882SOL    HW283483   3.682   4.217   7.845  1.4508 -1.9358 -0.0447
25883SOL     OW83484   1.889   3.100   9.030  0.0909 -0.3755 -0.2269
25883SOL    HW183485   1.949   3.049   8.975  0.5283 -0.0938 -0.0185
25883SOL    HW283486   1.940   3.177   9.055 -1.2001  1.2496 -2.2325
25884SOL     OW83487   4.727   7.859   8.281 -0.1374 -0.3073 -0.1399
25884SOL    HW183488   4.813   7.850   8.321  0.5486  0.6697 -1.3479
25884SOL    HW283489   4.666   7.849   8.354  0.8749 -2.9804  0.4707
25885SOL     OW83490   4.255   9.526   8.251  0.1825  0.4589 -0.0262
25885SOL    HW183491   4.281   9.438   8.225  0.0022  0.6340 -0.8030
25885SOL    HW283492   4.160   9.522   8.255  0.1964  0.4885  0.4328
25886SOL     OW83493   1.561   7.553   2.017 -0.0374  0.1353  0.4251
25886SOL    HW183494   1.617   7.485   2.054  0.6549  0.6767  0.3970
25886SOL    HW283495   1.512   7.587   2.091 -0.2247 -0.2500  0.4760
25887SOL     OW83496   3.542   8.513   8.451 -0.0460 -0.1861  0.0938
25887SOL    HW183497   3.453   8.515   8.486  0.6008  0.3527  1.7741
25887SOL    HW283498   3.565   8.605   8.438 -0.3862 -0.3649 -2.1650
25888SOL     OW83499   1.925   5.685   1.444  0.6182  0.1380  0.5387
25888SOL    HW183500   1.978   5.656   1.370  1.6375 -0.8360  1.6090
25888SOL    HW283501   1.987   5.729   1.502 -0.6267  3.3799 -0.3666
25889SOL     OW83502   6.081   4.382   3.534  0.6787  0.1017  0.0925
25889SOL    HW183503   6.130   4.362   3.614  1.1106  1.0043  0.0644
25889SOL    HW283504   6.146   4.372   3.464  0.0451 -1.7339 -0.2750
25890SOL     OW83505   7.346   9.079   5.993 -0.6907 -0.0500  0.6376
25890SOL    HW183506   7.325   9.016   6.062 -0.9111 -0.1863  0.4488
25890SOL    HW283507   7.422   9.042   5.948 -2.2386 -1.4476 -1.0279
25891SOL     OW83508   6.361   9.233   9.658  0.3071  0.1077  0.2161
25891SOL    HW183509   6.400   9.282   9.586 -2.2136 -0.4620 -1.6953
25891SOL    HW283510   6.283   9.284   9.683  0.1006 -0.6681  1.2516
25892SOL     OW83511   9.802   3.234   2.514  0.3433  0.5449 -0.2801
25892SOL    HW183512   9.857   3.169   2.558  0.2301 -1.6527 -3.0997
25892SOL    HW283513   9.865   3.294   2.472  0.4638  1.3377  0.9919
25893SOL     OW83514   8.132   5.372  10.155 -0.0091 -0.0084  0.0101
25893SOL    HW183515   8.043   5.383  10.190 -0.9173 -0.9334 -1.8862
25893SOL    HW283516   8.164   5.461  10.144 -0.2524  0.3359  1.6919
25894SOL     OW83517   6.415   4.024   5.864 -0.1597 -0.0861 -0.2153
25894SOL    HW183518   6.391   4.113   5.838  0.9136  0.6854  1.3119
25894SOL    HW283519   6.505   4.031   5.896  0.4024 -1.9788 -1.2188
25895SOL     OW83520   4.281  10.517   5.695  0.1460  0.3646 -0.0770
25895SOL    HW183521   4.290  10.458   5.620  1.1117 -0.4974  0.6813
25895SOL    HW283522   4.193  10.554   5.686 -0.3202 -0.8522 -0.8234
25896SOL     OW83523   1.602   8.709   5.321  0.2182  0.0430 -0.0482
25896SOL    HW183524   1.536   8.669   5.377 -0.1311  0.2829 -0.2814
25896SOL    HW283525   1.554   8.736   5.243  0.3184  1.4313  0.3394
25897SOL     OW83526   9.947   3.561   6.652 -0.0558 -0.9032  0.2999
25897SOL    HW183527   9.877   3.526   6.598 -1.5713  0.8016  1.0700
25897SOL    HW283528   9.983   3.634   6.601  1.8079 -2.2651 -0.4659
25898SOL     OW83529   1.819   9.928   2.841  0.2965 -0.1175 -0.9700
25898SOL    HW183530   1.805   9.895   2.752 -0.4305 -2.7584  0.0254
25898SOL    HW283531   1.891   9.875   2.875 -2.1180 -2.2333  1.3421
25899SOL     OW83532   3.224   6.283   8.084 -0.1805 -0.0236 -0.5700
25899SOL    HW183533   3.309   6.263   8.123 -0.5361  0.1212  0.2877
25899SOL    HW283534   3.245   6.334   8.006  0.4516  2.3436  1.0436
25900SOL     OW83535   5.565   4.348   6.266  0.4296 -0.0133 -0.3066
25900SOL    HW183536   5.637   4.370   6.325  1.8059 -0.5161 -1.7336
25900SOL    HW283537   5.565   4.253   6.262 -1.1335 -0.0880  0.6041
25901SOL     OW83538   4.957   8.480   3.278 -0.1823 -0.3669  0.6326
25901SOL    HW183539   4.937   8.428   3.200 -0.7510 -1.0490  1.2252
25901SOL    HW283540   4.925   8.428   3.351  1.0371 -0.0952  1.4002
25902SOL     OW83541   8.979   9.781   4.178 -0.2442 -0.8639  0.0734
25902SOL    HW183542   8.910   9.784   4.245 -1.1597 -0.3945 -0.8499
25902SOL    HW283543   8.957   9.704   4.126  1.5602 -2.3559  1.3945
25903SOL     OW83544   1.318   3.720   5.638 -0.4454 -0.7196  0.1385
25903SOL    HW183545   1.298   3.638   5.592  2.2450 -2.0666  1.1468
25903SOL    HW283546   1.242   3.735   5.694 -0.7721 -2.8592  0.3411
25904SOL     OW83547   5.193  10.677   3.618 -0.2614 -0.2303 -0.1593
25904SOL    HW183548   5.102  10.661   3.644  0.2683 -2.2395  0.5959
25904SOL    HW283549   5.219  10.598   3.571  1.8536 -0.8325  1.8472
25905SOL     OW83550   3.655   3.459  10.664 -0.2386 -0.4489  0.4510
25905SOL    HW183551   3.687   3.396  10.600 -0.9088 -0.2702 -0.0768
25905SOL    HW283552   3.560   3.463  10.648 -0.4170 -0.4145  1.4657
25906SOL     OW83553   6.667   4.936   3.568  1.2631 -0.6430 -0.6841
25906SOL    HW183554   6.761   4.946   3.549  1.1308  0.8758 -0.6668
25906SOL    HW283555   6.665   4.882   3.646  2.1678 -0.2323 -0.3547
25907SOL     OW83556   2.711   7.660   2.124 -0.3428 -0.2649 -0.1669
25907SOL    HW183557   2.801   7.636   2.103 -0.1717 -1.2735  1.5049
25907SOL    HW283558   2.712   7.755   2.132  0.4490 -0.2229 -0.6807
25908SOL     OW83559   8.225   4.467   9.937  0.5271 -0.1459  0.3973
25908SOL    HW183560   8.208   4.545   9.884 -2.3082 -0.6161  0.4356
25908SOL    HW283561   8.177   4.483  10.018  0.0187 -1.8560  0.4585
25909SOL     OW83562   9.795   6.517   8.010 -0.1817 -0.3406  0.1147
25909SOL    HW183563   9.802   6.444   7.948  1.9102 -1.9838  2.1211
25909SOL    HW283564   9.881   6.522   8.052 -1.1321  1.4524  2.0381
25910SOL     OW83565   9.116   9.336   9.568 -0.1512  0.1773  0.6529
25910SOL    HW183566   9.048   9.403   9.559 -0.4316 -0.0262  1.1679
25910SOL    HW283567   9.071   9.263   9.610 -0.1040 -0.7300 -0.8256
25911SOL     OW83568   4.079   2.227   0.742 -0.6991 -0.4442  0.5298
25911SOL    HW183569   4.049   2.157   0.799  1.3042 -1.2723  0.6298
25911SOL    HW283570   4.134   2.183   0.677  1.0523  1.0572  0.9183
25912SOL     OW83571   5.337   9.837   3.509 -0.0422  0.0504 -0.1528
25912SOL    HW183572   5.247   9.857   3.535 -1.1349 -4.3071  0.2305
25912SOL    HW283573   5.331   9.816   3.416  0.0545 -2.2224  0.3020
25913SOL     OW83574   8.398   7.270   0.113 -0.3474 -0.6589 -0.4241
25913SOL    HW183575   8.337   7.310   0.174  0.4543  0.0917 -0.0867
25913SOL    HW283576   8.462   7.226   0.168 -1.2855 -2.5848 -0.7960
25914SOL     OW83577   7.220   9.444   0.199  0.3626 -0.2302  0.4680
25914SOL    HW183578   7.232   9.360   0.153 -0.1977 -0.1227  0.1116
25914SOL    HW283579   7.250   9.510   0.137  0.3939 -0.1372  0.5817
25915SOL     OW83580   8.571   4.932   9.990  0.1469  0.4952  0.5373
25915SOL    HW183581   8.625   4.896  10.060  0.9834 -2.0546 -1.2870
25915SOL    HW283582   8.556   5.023  10.016  1.6436  0.0646  3.2622
25916SOL     OW83583   2.512   9.746   8.611 -0.5431  0.1358 -0.1883
25916SOL    HW183584   2.579   9.737   8.544  0.8640 -1.0978  1.2963
25916SOL    HW283585   2.475   9.833   8.597  1.4269  0.8859 -1.0040
25917SOL     OW83586   8.150   1.162   7.634  0.4238  0.2147 -0.3692
25917SOL    HW183587   8.127   1.099   7.565 -2.5538 -0.1411  0.8267
25917SOL    HW283588   8.195   1.110   7.700 -1.5431 -0.6413  0.3630
25918SOL     OW83589   9.042   6.087   9.013  0.0882  0.4987 -0.1207
25918SOL    HW183590   9.071   6.027   8.944 -1.4357  0.4791 -0.7626
25918SOL    HW283591   9.008   6.163   8.967  1.0840  1.4602  0.6803
25919SOL     OW83592   1.966   1.179   0.796  0.3016 -0.2156  0.6593
25919SOL    HW183593   2.027   1.248   0.773  1.7929 -1.1168  1.7722
25919SOL    HW283594   1.885   1.226   0.820 -0.1165  0.9170 -2.4608
25920SOL     OW83595   4.701   4.077   1.780  0.0876 -0.6154 -0.3047
25920SOL    HW183596   4.789   4.113   1.788 -0.7002  1.5088 -0.5136
25920SOL    HW283597   4.643   4.152   1.794 -1.6739 -1.6054 -1.8135
25921SOL     OW83598   8.663   6.955   7.165 -0.8485 -0.1197 -0.6863
25921SOL    HW183599   8.694   7.005   7.090 -0.1671 -0.5286 -0.6879
25921SOL    HW283600   8.619   6.879   7.127 -0.1114 -0.5617 -0.6863
25922SOL     OW83601   3.029   7.201   9.524 -0.4743 -0.0340 -0.4593
25922SOL    HW183602   3.113   7.235   9.493 -0.2053 -0.9747 -0.7983
25922SOL    HW283603   3.002   7.138   9.457 -0.1582 -1.6956  0.8999
25923SOL     OW83604   6.989   1.028   9.726 -0.4447 -0.0572 -0.7422
25923SOL    HW183605   6.924   0.981   9.675  0.5761 -2.7121  0.1947
25923SOL    HW283606   7.071   1.013   9.679  0.1264 -0.5339  0.3531
25924SOL     OW83607   9.831   3.522  10.343 -0.4131  0.3034 -0.3660
25924SOL    HW183608   9.910   3.574  10.355 -0.2093 -0.5020  2.5046
25924SOL    HW283609   9.857   3.451  10.285  1.4178 -0.6785  1.5191
25925SOL     OW83610   0.740   8.168  10.353  0.2086 -0.2278 -0.1683
25925SOL    HW183611   0.706   8.078  10.349  0.8868 -0.4976  0.0739
25925SOL    HW283612   0.792   8.178  10.274  0.4388 -0.1759 -0.0123
25926SOL     OW83613   6.502   8.831   0.298  0.0800  0.0732  0.0217
25926SOL    HW183614   6.509   8.883   0.379 -0.3096  0.2702 -0.0676
25926SOL    HW283615   6.480   8.743   0.328  1.4894 -0.2306  0.2224
25927SOL     OW83616   8.348   9.996   1.074  0.3511 -0.0013 -0.2953
25927SOL    HW183617   8.388   9.935   1.136  0.9626  0.4527 -0.2330
25927SOL    HW283618   8.296   9.941   1.016 -0.5292 -0.4072  0.8406
25928SOL     OW83619   9.424   3.810   4.423 -0.0851  0.0691 -0.7202
25928SOL    HW183620   9.408   3.808   4.518  0.0402  0.0688 -0.6994
25928SOL    HW283621   9.452   3.900   4.405  0.3261 -0.0512 -0.6871
25929SOL     OW83622   7.003   0.491   6.351  0.1888 -0.2085  0.1799
25929SOL    HW183623   6.966   0.545   6.281  0.6100  1.4478  1.1803
25929SOL    HW283624   7.038   0.554   6.414  2.4954 -1.6765  0.4744
25930SOL     OW83625   7.320   0.252   8.398  0.3754 -0.1943  0.1490
25930SOL    HW183626   7.272   0.283   8.474 -0.5633 -1.5787  0.1523
25930SOL    HW283627   7.263   0.272   8.323  0.9423  0.4437 -0.1274
25931SOL     OW83628   2.284   6.351   3.984 -0.4408  0.6435  0.1781
25931SOL    HW183629   2.322   6.432   3.951  0.4301 -0.1141 -0.7659
25931SOL    HW283630   2.225   6.321   3.914  0.3396 -0.2476 -0.1311
25932SOL     OW83631   3.500   7.559   1.813 -0.0764 -1.0086  0.1510
25932SOL    HW183632   3.542   7.560   1.899 -1.0089 -0.0644  0.6175
25932SOL    HW283633   3.517   7.471   1.779 -0.5913 -1.7746  1.7484
25933SOL     OW83634   1.220   8.462   5.743  0.4472 -0.3745  0.1805
25933SOL    HW183635   1.196   8.512   5.664  0.8281 -0.0348  0.2766
25933SOL    HW283636   1.142   8.469   5.799  0.1794 -0.6065 -0.1549
25934SOL     OW83637   4.237   0.203   9.687 -0.5508  0.4944  0.7210
25934SOL    HW183638   4.285   0.255   9.623 -0.1849 -0.5891  0.0968
25934SOL    HW283639   4.149   0.195   9.650 -0.2937 -0.2702  0.2678
25935SOL     OW83640   4.260   5.663   5.153 -0.0389  0.1256  0.1496
25935SOL    HW183641   4.195   5.630   5.214 -1.5129 -0.9663 -1.8841
25935SOL    HW283642   4.221   5.743   5.117  0.0772 -0.0905 -0.4823
25936SOL     OW83643   4.100   2.288   7.988  0.2788 -0.2560  0.1794
25936SOL    HW183644   4.056   2.357   7.938 -0.3012  0.3047  1.4075
25936SOL    HW283645   4.193   2.304   7.976  0.1433  0.3811 -0.0403
25937SOL     OW83646   3.281   1.129   8.343  0.2561  0.1131 -0.5033
25937SOL    HW183647   3.270   1.188   8.418  3.4559 -0.0032  0.2006
25937SOL    HW283648   3.376   1.122   8.332 -0.0871 -1.0979 -3.6509
25938SOL     OW83649   6.259   0.535   1.404 -0.0169  0.5716  0.1698
25938SOL    HW183650   6.316   0.462   1.429  0.2566  0.8756  0.4242
25938SOL    HW283651   6.268   0.541   1.309  1.2780  1.3682  0.3266
25939SOL     OW83652   6.665   2.628   9.850  0.3764 -0.2355 -0.2416
25939SOL    HW183653   6.640   2.674   9.931 -0.1471  0.1950 -0.6464
25939SOL    HW283654   6.646   2.536   9.869  1.6385 -0.3545  0.6532
25940SOL     OW83655   8.745   8.800   5.119 -0.1559 -0.2421  0.1098
25940SOL    HW183656   8.717   8.711   5.103  0.9122 -0.2054 -2.5029
25940SOL    HW283657   8.670   8.843   5.160 -0.8332 -2.1962  0.9832
25941SOL     OW83658   5.164   2.112   2.999  0.1239 -0.0134  0.0870
25941SOL    HW183659   5.101   2.114   2.927 -1.4309 -1.0657  1.3433
25941SOL    HW283660   5.162   2.201   3.034  0.6989  0.4366 -0.9721
25942SOL     OW83661   5.689   4.495   1.172  0.7330 -0.6240  0.1504
25942SOL    HW183662   5.670   4.589   1.162  0.8553 -0.6489 -0.3473
25942SOL    HW283663   5.661   4.456   1.089  1.3884 -0.9141  0.0588
25943SOL     OW83664   8.211   2.241   0.737  0.0505  0.3051  0.3095
25943SOL    HW183665   8.230   2.303   0.666  0.1679  2.0641  1.7778
25943SOL    HW283666   8.297   2.204   0.760  0.1355  0.3526  0.0654
25944SOL     OW83667   0.574   4.099   5.763 -0.1054  0.6022  0.0737
25944SOL    HW183668   0.528   4.130   5.685  0.6433  1.6383  0.0260
25944SOL    HW283669   0.664   4.085   5.734  0.3397  1.6475  0.8981
25945SOL     OW83670   4.153   2.932   0.421  0.7610 -0.3134  0.1692
25945SOL    HW183671   4.135   2.838   0.428  0.7853 -0.3443 -0.1867
25945SOL    HW283672   4.088   2.973   0.478 -0.2804 -0.4414 -0.8872
25946SOL     OW83673   3.139   7.188   3.063  0.3701 -0.5162  0.2561
25946SOL    HW183674   3.088   7.205   2.984  0.5130 -1.0435  0.0511
25946SOL    HW283675   3.149   7.275   3.104 -0.0727 -0.3074 -0.0736
25947SOL     OW83676   7.477   9.845   7.274  0.3564 -0.4489  0.2211
25947SOL    HW183677   7.475   9.757   7.235  0.5478 -0.7789  0.9223
25947SOL    HW283678   7.415   9.896   7.222  0.5373 -0.8916 -0.4447
25948SOL     OW83679   5.754  10.672   2.963 -0.0964 -0.1614 -0.3358
25948SOL    HW183680   5.690  10.649   3.030  0.7102 -0.4200  0.3595
25948SOL    HW283681   5.722  10.628   2.884 -0.3124 -1.0050  0.2073
25949SOL     OW83682   7.469  10.347   7.502  0.2103 -0.5111 -0.7286
25949SOL    HW183683   7.523  10.296   7.442  0.4188 -0.1824 -0.8257
25949SOL    HW283684   7.525  10.361   7.578  0.3430  0.0189 -0.9197
25950SOL     OW83685   7.636   9.017   0.441 -0.3480 -0.0006  0.3174
25950SOL    HW183686   7.697   9.083   0.473 -0.3374  0.4809 -0.6597
25950SOL    HW283687   7.556   9.065   0.419 -0.7431 -0.4820  0.6689
25951SOL     OW83688   0.552   2.214   4.243 -0.1802  0.8320  0.5050
25951SOL    HW183689   0.582   2.127   4.217 -1.7111  0.1477  0.9778
25951SOL    HW283690   0.616   2.274   4.203  2.1981 -0.5643  1.9919
25952SOL     OW83691   3.468  10.393   9.774  0.4941  0.0201  0.6696
25952SOL    HW183692   3.531  10.464   9.783  0.0214  0.4802  0.3568
25952SOL    HW283693   3.460  10.356   9.862 -1.4149  2.1965  1.4931
25953SOL     OW83694   4.894   5.014   6.013  0.5851  0.0966 -0.4155
25953SOL    HW183695   4.950   4.942   5.983  1.4151  0.3876  0.3790
25953SOL    HW283696   4.834   5.029   5.941  0.4549 -1.3281 -0.6467
25954SOL     OW83697   4.026   0.757   9.621  0.0187  0.3356  0.0433
25954SOL    HW183698   3.936   0.761   9.587  0.4259 -0.4348 -1.2081
25954SOL    HW283699   4.074   0.820   9.567  0.5495 -0.4272 -0.3918
25955SOL     OW83700   7.429   4.706   4.698 -0.4304  0.1979  0.0595
25955SOL    HW183701   7.422   4.775   4.765  0.1975  0.5552 -0.2381
25955SOL    HW283702   7.426   4.753   4.615  0.4017 -0.0959 -0.1421
25956SOL     OW83703  10.299   3.610   9.940 -0.0096 -0.1628  0.1595
25956SOL    HW183704  10.318   3.520   9.913 -0.0200  0.1173 -0.8030
25956SOL    HW283705  10.364   3.664   9.896  0.3993  0.2628  1.2305
25957SOL     OW83706   9.080   9.568   8.763  0.2118  0.0995 -1.1146
25957SOL    HW183707   9.046   9.523   8.686  0.8193 -1.3492 -0.5866
25957SOL    HW283708   9.169   9.533   8.774 -0.1731 -0.4406  0.7273
25958SOL     OW83709   6.669   0.921  10.467 -0.1842  0.7179  0.6139
25958SOL    HW183710   6.615   0.876  10.402 -1.4381  1.4233  1.1390
25958SOL    HW283711   6.662   1.014  10.444  2.1212  0.7417 -0.2605
25959SOL     OW83712   7.565  10.281   8.424 -0.0460 -0.1804  0.3771
25959SOL    HW183713   7.488  10.286   8.367 -1.0459  2.7695  1.7678
25959SOL    HW283714   7.533  10.239   8.504  0.5473 -1.3983  0.0064
25960SOL     OW83715   6.335   8.283   8.311  0.0718 -0.0775 -0.0156
25960SOL    HW183716   6.256   8.275   8.257  0.1775  0.8269 -0.3302
25960SOL    HW283717   6.322   8.364   8.360  0.9662  0.2837 -0.3561
25961SOL     OW83718   6.046   1.897   8.484  0.2148  0.3085  0.0898
25961SOL    HW183719   6.018   1.810   8.510  2.2169  0.3072  2.7089
25961SOL    HW283720   6.034   1.900   8.389  0.4174 -2.9415 -0.1300
25962SOL     OW83721   7.511   6.916   3.096  0.1533  0.1020 -0.7046
25962SOL    HW183722   7.465   6.992   3.131 -0.6792 -0.7325  0.0531
25962SOL    HW283723   7.509   6.851   3.166 -0.9810 -1.3858 -2.0185
25963SOL     OW83724   6.723   0.218   4.839 -0.0260 -0.1303  0.4598
25963SOL    HW183725   6.662   0.144   4.838 -2.3757  1.7183  0.9582
25963SOL    HW283726   6.757   0.220   4.929  1.2196 -1.4124  0.0744
25964SOL     OW83727   5.574   6.724   8.785  0.6900 -0.6001 -0.6344
25964SOL    HW183728   5.511   6.687   8.724 -0.9311  0.2348  0.4460
25964SOL    HW283729   5.588   6.814   8.754  0.3799 -0.3912 -0.1885
25965SOL     OW83730   1.557  10.493   6.111 -0.1240  0.2034  0.3675
25965SOL    HW183731   1.528  10.435   6.041  0.9369  0.1652 -0.0592
25965SOL    HW283732   1.581  10.434   6.183  1.0252  0.0784 -0.0925
25966SOL     OW83733   5.777  10.527   4.993 -0.0402  0.1181  0.1949
25966SOL    HW183734   5.719  10.532   5.069  1.0446 -0.8914  1.1247
25966SOL    HW283735   5.774  10.614   4.954  1.0395  1.3362  2.6677
25967SOL     OW83736  10.713   3.167   2.880  0.1086 -0.3632  0.0803
25967SOL    HW183737  10.671   3.145   2.798 -0.8286 -1.0664  0.7294
25967SOL    HW283738  10.659   3.126   2.947 -0.2033  1.6906  1.1772
25968SOL     OW83739   5.408   7.331   5.589 -0.1941 -0.1802  0.0172
25968SOL    HW183740   5.367   7.271   5.651  0.4804  1.2911  2.0001
25968SOL    HW283741   5.340   7.396   5.570  0.1608  0.4192  0.7318
25969SOL     OW83742   7.824   3.190   7.260 -0.6463 -0.1608  0.3633
25969SOL    HW183743   7.776   3.109   7.240 -1.6802  1.1513 -3.1689
25969SOL    HW283744   7.893   3.194   7.194  1.0543  0.6748  2.0779
25970SOL     OW83745   4.755   5.440   8.584  0.5017  0.1348 -0.2507
25970SOL    HW183746   4.760   5.501   8.510  1.8783 -0.0552 -0.3396
25970SOL    HW283747   4.810   5.366   8.558 -0.5770 -0.8400  0.1548
25971SOL     OW83748   6.529   8.644   8.810  0.0766 -0.1100 -0.3618
25971SOL    HW183749   6.441   8.629   8.777 -0.0951 -2.1499  0.7792
25971SOL    HW283750   6.586   8.603   8.746 -0.0056 -0.8531  0.0203
25972SOL     OW83751   3.923  10.037  10.718 -0.1231 -0.1374  0.5614
25972SOL    HW183752   3.899   9.944  10.715 -0.5849 -0.0124 -2.1787
25972SOL    HW283753   3.852  10.079  10.766 -0.7163 -0.9889  0.4437
25973SOL     OW83754   3.015   1.192   0.200  0.7418  0.8337  0.3646
25973SOL    HW183755   2.995   1.099   0.206 -1.5474  1.3012  1.3141
25973SOL    HW283756   3.102   1.196   0.160  0.5844 -1.6607 -0.4004
25974SOL     OW83757   7.883  10.481   1.552 -0.1402 -0.1642  0.0346
25974SOL    HW183758   7.964  10.502   1.506  0.0646  0.1558  0.5428
25974SOL    HW283759   7.884  10.385   1.559 -0.8738 -0.3576 -1.9001
25975SOL     OW83760   2.634   6.336   4.178  0.6563  0.2982 -0.2416
25975SOL    HW183761   2.687   6.306   4.251 -2.0217  0.2163  1.8182
25975SOL    HW283762   2.609   6.426   4.201  1.8735  1.2664 -2.3825
25976SOL     OW83763   5.734   6.466  10.504 -0.7642 -0.3822 -0.2598
25976SOL    HW183764   5.738   6.431  10.415  0.6866 -1.2850  0.1141
25976SOL    HW283765   5.801   6.535  10.505  1.9104 -2.7853  1.0295
25977SOL     OW83766   4.388   0.361   1.397  0.0014 -0.3078 -0.1288
25977SOL    HW183767   4.385   0.448   1.438 -2.0148 -1.3868  2.3090
25977SOL    HW283768   4.345   0.371   1.313 -0.5745  0.9865  0.3048
25978SOL     OW83769   0.553   1.113   4.410 -0.3888 -0.0953  0.1137
25978SOL    HW183770   0.470   1.083   4.372  0.3678 -0.9365 -0.9461
25978SOL    HW283771   0.581   1.184   4.354  0.4851 -1.0069 -0.6368
25979SOL     OW83772   5.971   7.684   3.926 -0.1280 -0.7115  0.4620
25979SOL    HW183773   5.976   7.589   3.920 -2.8621 -0.8859 -0.3125
25979SOL    HW283774   5.966   7.714   3.835  0.9642  0.2086  0.6847
25980SOL     OW83775   9.918   0.459   8.721 -0.1108  0.3051 -0.4541
25980SOL    HW183776   9.850   0.393   8.739 -1.3543  1.6541 -0.0359
25980SOL    HW283777   9.998   0.422   8.760 -0.8198 -0.8527 -0.0404
25981SOL     OW83778   6.392   2.425   2.272  0.6514 -0.2366 -0.5253
25981SOL    HW183779   6.433   2.339   2.278  1.4515  0.0658 -1.3543
25981SOL    HW283780   6.370   2.449   2.362 -0.4848 -1.7159 -0.3647
25982SOL     OW83781   9.677   0.450   6.002  0.0236  0.3504 -0.2217
25982SOL    HW183782   9.638   0.407   6.079  1.3343  0.3243  0.4590
25982SOL    HW283783   9.653   0.393   5.929  1.4083 -1.3912  0.6104
25983SOL     OW83784   2.689   0.025  10.159  0.5856  0.2173 -0.1704
25983SOL    HW183785   2.723   0.006  10.246  0.2133  1.0232  0.1578
25983SOL    HW283786   2.636   0.104  10.170 -1.6056 -1.0860 -0.6071
25984SOL     OW83787   9.336   0.324   3.640  0.1837  0.1299 -0.4742
25984SOL    HW183788   9.389   0.265   3.694  1.1083  2.7867  1.7222
25984SOL    HW283789   9.293   0.266   3.577  3.6883 -2.4777 -0.7683
25985SOL     OW83790   7.504   1.488   4.523 -0.1281  0.3399 -0.2991
25985SOL    HW183791   7.552   1.464   4.444  1.9792 -0.8214  1.2408
25985SOL    HW283792   7.541   1.572   4.549 -1.9754  1.5516 -1.3685
25986SOL     OW83793   5.448  10.373   5.666 -0.1999 -0.1753  0.0449
25986SOL    HW183794   5.531  10.340   5.700  0.4798  0.4650 -0.9494
25986SOL    HW283795   5.472  10.442   5.605 -1.5388  1.2167  1.0078
25987SOL     OW83796   6.404   3.499   6.067  0.2477  0.2737 -0.3332
25987SOL    HW183797   6.324   3.472   6.023 -0.2837 -0.1064  0.8077
25987SOL    HW283798   6.475   3.472   6.009 -0.3539 -1.6529 -0.2392
25988SOL     OW83799   8.541   3.497   4.002  0.5939 -0.1031 -0.4135
25988SOL    HW183800   8.625   3.478   4.043  0.0554  0.2135  0.8763
25988SOL    HW283801   8.564   3.540   3.919  1.6972  0.0035 -0.0610
25989SOL     OW83802  10.288   8.564   7.304  0.1153  0.1348  0.4523
25989SOL    HW183803  10.317   8.474   7.294 -0.5848  0.0005 -0.4533
25989SOL    HW283804  10.194   8.558   7.324 -0.4627  0.6970 -1.8523
25990SOL     OW83805   7.502   1.167   0.298 -0.0540  0.5273  0.3484
25990SOL    HW183806   7.433   1.233   0.293 -0.1186  0.6523  2.1618
25990SOL    HW283807   7.463   1.088   0.259  0.1572  1.5846 -2.2070
25991SOL     OW83808   2.133  10.047   2.991  0.2967  0.1018 -0.1210
25991SOL    HW183809   2.132  10.008   2.904 -0.2590  0.3310 -0.2225
25991SOL    HW283810   2.175  10.132   2.979  2.1171 -0.7014  0.2187
25992SOL     OW83811   8.681   5.205   8.683  0.1201 -0.0488  0.0720
25992SOL    HW183812   8.753   5.182   8.625 -0.0639  0.0529 -0.1944
25992SOL    HW283813   8.629   5.269   8.634 -1.0871 -1.3626 -0.4087
25993SOL     OW83814   3.776   0.929   7.241  0.6231  0.6299 -0.0922
25993SOL    HW183815   3.722   0.896   7.313  2.7112 -1.3584  0.6666
25993SOL    HW283816   3.745   0.882   7.164 -0.3742  1.4020 -0.1906
25994SOL     OW83817   3.832   2.943   1.032  0.1086  0.5401  0.1024
25994SOL    HW183818   3.868   3.000   0.965 -0.8098  0.7559 -0.2244
25994SOL    HW283819   3.895   2.871   1.039  0.6509  0.9651 -0.3602
25995SOL     OW83820   7.849   6.028   3.257 -0.3894  0.0123 -0.0470
25995SOL    HW183821   7.833   6.053   3.166 -0.4064 -0.5382 -0.1980
25995SOL    HW283822   7.944   6.028   3.266 -0.3507 -0.9787 -0.3688
25996SOL     OW83823   1.632   0.789  10.098  0.8400 -0.0035  0.6389
25996SOL    HW183824   1.627   0.821  10.007  1.2165 -0.8415  0.3102
25996SOL    HW283825   1.720   0.751  10.104  0.6063 -0.4542  1.1858
25997SOL     OW83826   1.804   1.829   4.428 -0.4662  0.3537  0.6092
25997SOL    HW183827   1.730   1.776   4.396  0.9809 -0.0021 -2.5340
25997SOL    HW283828   1.834   1.783   4.507 -0.7894 -2.1617 -0.6297
25998SOL     OW83829   2.178   3.728   2.997 -0.0621  0.3442  0.2868
25998SOL    HW183830   2.170   3.775   2.914  1.2775 -1.2700 -0.8164
25998SOL    HW283831   2.240   3.781   3.048 -0.2892  0.9304 -0.0303
25999SOL     OW83832   8.902   4.855   1.433  0.0867 -0.2105  0.1867
25999SOL    HW183833   8.897   4.768   1.471 -2.6927 -0.8077 -1.2372
25999SOL    HW283834   8.986   4.857   1.386  0.1811 -2.1372  0.2193
26000SOL     OW83835   2.966   9.547   2.089 -0.7308 -0.0792  0.5271
26000SOL    HW183836   2.874   9.538   2.112 -1.2113 -1.0732 -1.6317
26000SOL    HW283837   2.971   9.524   1.997  1.1279  3.3247 -0.4111
26001SOL     OW83838   5.738   6.583   5.491  0.2429  0.0265 -0.1705
26001SOL    HW183839   5.763   6.574   5.583 -0.6181  1.1500  0.1987
26001SOL    HW283840   5.655   6.631   5.493 -0.3588 -0.9020 -1.4914
26002SOL     OW83841   9.168   7.136   2.995  0.2643 -0.0815  0.3553
26002SOL    HW183842   9.131   7.160   3.079 -1.8162  0.9134 -0.7646
26002SOL    HW283843   9.148   7.209   2.937 -3.3294 -2.7958 -2.3512
26003SOL     OW83844   4.699   8.529   1.011 -0.1212 -0.4191  0.1659
26003SOL    HW183845   4.741   8.573   0.938 -1.4836  0.6043 -0.0505
26003SOL    HW283846   4.712   8.587   1.086  1.4584 -1.5627  0.8332
26004SOL     OW83847   3.686   3.275   4.594 -0.2795 -0.5595 -0.0365
26004SOL    HW183848   3.627   3.244   4.525  2.1653  0.1591 -2.6783
26004SOL    HW283849   3.773   3.248   4.565  0.9207 -0.0764  2.7702
26005SOL     OW83850   3.444   5.062   4.801  0.6102 -0.1817  0.1536
26005SOL    HW183851   3.377   5.094   4.862 -0.1337 -0.5734 -0.4365
26005SOL    HW283852   3.463   5.138   4.745 -1.9567 -0.9492 -1.9558
26006SOL     OW83853   2.172   0.969   7.208 -0.6004  0.4719 -0.3302
26006SOL    HW183854   2.086   0.927   7.200 -1.5212  2.1178  0.5063
26006SOL    HW283855   2.183   0.983   7.302  1.3938 -1.2372 -0.2227
26007SOL     OW83856   0.146  10.057   8.552 -0.2362  0.4171  0.0927
26007SOL    HW183857   0.138   9.968   8.516  0.3863  0.6212 -0.5933
26007SOL    HW283858   0.228  10.089   8.515  0.5442  0.5790  1.8932
26008SOL     OW83859   7.228   8.079   0.775 -0.0034  0.2253  0.2512
26008SOL    HW183860   7.239   8.011   0.842  1.3052  0.5131  0.3520
26008SOL    HW283861   7.243   8.035   0.692  0.1152  0.2384  0.2658
26009SOL     OW83862   8.897   3.031   0.481 -0.2839 -0.6914 -0.1618
26009SOL    HW183863   8.911   3.051   0.388 -0.2284 -1.4151 -0.3172
26009SOL    HW283864   8.984   3.005   0.513 -0.3787 -0.8041  0.0044
26010SOL     OW83865   6.301   5.632   6.479 -0.0916  0.0026 -0.2938
26010SOL    HW183866   6.251   5.624   6.397 -1.1833  2.8350 -0.0246
26010SOL    HW283867   6.392   5.633   6.452 -0.2618 -2.0511 -1.1288
26011SOL     OW83868   0.688  10.560   3.258 -0.0737  0.2925 -0.6512
26011SOL    HW183869   0.615  10.588   3.204 -0.4034  0.6008 -0.0526
26011SOL    HW283870   0.758  10.622   3.238  0.4275 -0.6872 -2.0920
26012SOL     OW83871   6.195   1.970   0.032  0.3414  0.7392 -0.0641
26012SOL    HW183872   6.273   1.964   0.088  0.8721  0.2843 -0.8211
26012SOL    HW283873   6.174   1.879   0.011 -1.3723  0.7566  1.4063
26013SOL     OW83874   8.995   4.011   2.678  0.1147 -0.2749  0.2574
26013SOL    HW183875   9.069   4.059   2.640 -1.1978  0.7454 -1.1432
26013SOL    HW283876   9.006   3.922   2.646  0.0641  0.1603 -1.0331
26014SOL     OW83877   5.315   3.512   8.611  0.0195 -0.1598 -0.3557
26014SOL    HW183878   5.359   3.548   8.688  1.4393 -0.1191 -1.1731
26014SOL    HW283879   5.280   3.428   8.641  0.1495  0.0588  0.4453
26015SOL     OW83880  10.620  10.138   8.952 -0.1399  0.2246  0.1655
26015SOL    HW183881  10.704  10.143   8.906 -0.4439 -1.5626 -0.6664
26015SOL    HW283882  10.559  10.104   8.887 -0.4575 -2.9920  1.9235
26016SOL     OW83883  10.658   9.638   4.000  0.7917 -0.5731  0.7581
26016SOL    HW183884  10.670   9.692   4.078 -0.1606 -0.3478  0.7682
26016SOL    HW283885  10.683   9.550   4.026  1.0420 -0.3845  1.1489
26017SOL     OW83886   8.233   8.125   9.116 -0.2396 -0.2743  0.0978
26017SOL    HW183887   8.307   8.067   9.132  0.7753  1.3649  1.9510
26017SOL    HW283888   8.272   8.205   9.081 -1.5803 -0.5990 -2.3254
26018SOL     OW83889   4.059   5.147   3.189 -0.1750  0.0270 -0.4335
26018SOL    HW183890   4.031   5.220   3.134 -0.6851 -1.2325 -1.9464
26018SOL    HW283891   3.979   5.098   3.207 -0.1933  0.8872  2.3202
26019SOL     OW83892   9.537   5.195  10.135  0.4625 -0.6893  0.7949
26019SOL    HW183893   9.533   5.276  10.084  0.7118  0.1561  2.0662
26019SOL    HW283894   9.446   5.167  10.144  0.4191 -0.8875 -0.1449
26020SOL     OW83895   2.891   8.795   7.209 -0.2536  0.4583 -0.3795
26020SOL    HW183896   2.943   8.854   7.263  0.0230  0.3364 -0.5107
26020SOL    HW283897   2.900   8.830   7.120 -0.2126  0.3087 -0.4346
26021SOL     OW83898   0.647   6.193   4.029  0.3498  0.9232 -0.0572
26021SOL    HW183899   0.659   6.111   3.980  2.2380  0.3125  1.2895
26021SOL    HW283900   0.735   6.214   4.061 -0.6911  1.5549  2.5998
26022SOL     OW83901   2.029   4.390   6.388  0.3933 -0.5743 -0.0579
26022SOL    HW183902   1.999   4.451   6.455 -0.8972  0.0454 -1.1597
26022SOL    HW283903   1.962   4.322   6.384  0.6866 -0.8521 -0.4157
26023SOL     OW83904  10.525   6.053   5.386 -0.3375 -0.2018 -0.5120
26023SOL    HW183905  10.486   6.075   5.301  1.1203 -1.0354 -1.4514
26023SOL    HW283906  10.510   6.130   5.441 -1.0909  0.4524 -1.5998
26024SOL     OW83907   0.254   0.633   9.529  0.5031  0.6589 -0.2358
26024SOL    HW183908   0.230   0.541   9.530  1.2107  0.4073 -2.2059
26024SOL    HW283909   0.348   0.634   9.508  1.3092  1.7621  2.8522
26025SOL     OW83910   0.390   2.671   4.605  0.0105 -0.3264  0.2693
26025SOL    HW183911   0.410   2.680   4.699 -0.7315 -0.3551  0.4409
26025SOL    HW283912   0.329   2.597   4.601  0.1336 -0.3985 -0.2533
26026SOL     OW83913   9.307   4.593   5.449  0.0365  0.2268 -0.2773
26026SOL    HW183914   9.221   4.553   5.435 -0.0633  0.1716  0.4306
26026SOL    HW283915   9.341   4.549   5.528 -0.9034  2.8347  1.7220
26027SOL     OW83916   8.455   3.737   1.354 -0.2688 -0.2414  0.2156
26027SOL    HW183917   8.536   3.785   1.338 -0.1510 -0.7067 -0.6197
26027SOL    HW283918   8.442   3.743   1.449  1.7577 -1.8036  0.6389
26028SOL     OW83919   6.395   8.131   7.840 -0.0616 -0.2344 -0.6259
26028SOL    HW183920   6.454   8.201   7.870  0.1175 -1.0760  1.0727
26028SOL    HW283921   6.309   8.157   7.874 -0.1596 -0.4034 -0.7477
26029SOL     OW83922   7.866   9.457   8.834 -0.1333 -0.3305 -0.3532
26029SOL    HW183923   7.849   9.532   8.777 -1.7649 -0.8641 -0.6291
26029SOL    HW283924   7.921   9.492   8.904  0.3123  0.7803 -1.2344
26030SOL     OW83925   5.680   4.142   7.489 -0.5441  0.0472 -0.6457
26030SOL    HW183926   5.586   4.156   7.498 -0.8885 -2.0910 -0.3951
26030SOL    HW283927   5.688   4.056   7.448  1.3161 -0.0279 -0.2290
26031SOL     OW83928   7.519   3.257   0.462  0.3195  0.1235 -0.0942
26031SOL    HW183929   7.479   3.272   0.548 -1.1715  0.4300 -0.8044
26031SOL    HW283930   7.549   3.344   0.435 -1.1357  0.4510 -0.7691
26032SOL     OW83931   4.739   5.057   7.993  0.3370  0.2828  0.2395
26032SOL    HW183932   4.680   5.115   7.945 -0.6550 -0.0500  1.0076
26032SOL    HW283933   4.766   4.992   7.928 -0.3082  0.3288 -0.0891
26033SOL     OW83934   2.881   7.417   1.386 -0.0871 -0.8356  0.3685
26033SOL    HW183935   2.952   7.407   1.450 -0.2926  0.2233  0.7832
26033SOL    HW283936   2.814   7.355   1.414  0.0840 -0.8220  0.8164
26034SOL     OW83937   2.458   5.419   8.531  0.1117  0.6529  0.8825
26034SOL    HW183938   2.395   5.349   8.551  0.1044  0.2392 -0.5062
26034SOL    HW283939   2.513   5.424   8.609 -0.5322 -0.1901  1.4141
26035SOL     OW83940   4.112   8.471   7.016 -0.0717 -0.0212  0.2557
26035SOL    HW183941   4.045   8.540   7.015  2.1291  2.3276  2.2186
26035SOL    HW283942   4.116   8.444   7.108  2.3357  0.6244  0.3800
26036SOL     OW83943   9.384   1.531   8.989 -0.3545 -0.2554 -0.2514
26036SOL    HW183944   9.444   1.469   8.948 -0.6508 -0.8974  0.2772
26036SOL    HW283945   9.394   1.612   8.937  0.3442 -0.6070 -0.6749
26037SOL     OW83946   3.447   5.180   8.484  0.1132  0.6845  0.4988
26037SOL    HW183947   3.455   5.085   8.471 -0.2266  0.7393 -0.1339
26037SOL    HW283948   3.435   5.216   8.396 -1.4147  1.1501  0.8751
26038SOL     OW83949   6.920   4.498   7.305  0.2937 -0.7938  0.2896
26038SOL    HW183950   6.951   4.408   7.298  2.5792 -0.1573  1.1684
26038SOL    HW283951   6.894   4.521   7.216 -0.6455 -2.3884  0.1084
26039SOL     OW83952   0.115   0.743   0.928  0.2977  0.3649 -0.3406
26039SOL    HW183953   0.111   0.814   0.992 -0.3040 -0.6685  0.8098
26039SOL    HW283954   0.178   0.681   0.964 -0.8986 -0.7816 -0.1261
26040SOL     OW83955   6.973   5.275   0.639  0.0192  0.2124 -0.1364
26040SOL    HW183956   6.933   5.361   0.623  1.3925  0.7034 -1.1554
26040SOL    HW283957   6.910   5.229   0.695 -1.3759  1.3746 -0.6843
26041SOL     OW83958   5.649   3.505   0.706 -0.1748 -0.6685 -0.0755
26041SOL    HW183959   5.735   3.516   0.746 -0.1429  1.3638 -0.6074
26041SOL    HW283960   5.665   3.450   0.629  0.5762 -0.6172  0.0359
26042SOL     OW83961   7.860   8.217   6.839  0.0411 -0.2680  0.4985
26042SOL    HW183962   7.782   8.207   6.785  0.8658 -0.0228 -0.7919
26042SOL    HW283963   7.896   8.129   6.847  0.2323 -0.2279  0.1321
26043SOL     OW83964   5.247   6.661   1.919 -0.0559  0.4788  0.0757
26043SOL    HW183965   5.236   6.728   1.851 -0.9563  0.7357  0.4549
26043SOL    HW283966   5.324   6.612   1.892  0.0492  1.0629 -0.7265
26044SOL     OW83967   1.492   1.901   9.170  0.0977 -0.0059  0.1627
26044SOL    HW183968   1.467   1.864   9.086 -0.2523 -1.4309  0.8778
26044SOL    HW283969   1.425   1.967   9.188 -0.1082 -0.0475 -0.4371
26045SOL     OW83970   7.769   9.000   2.285 -0.7612 -0.1156  0.4266
26045SOL    HW183971   7.787   8.918   2.238 -0.0512  0.8000 -0.9561
26045SOL    HW283972   7.845   9.011   2.343  0.1046  0.5171 -0.7893
26046SOL     OW83973   1.416   1.082   9.318  0.2572 -0.0159  0.5152
26046SOL    HW183974   1.408   1.175   9.298 -1.6271 -0.4653 -1.1219
26046SOL    HW283975   1.510   1.063   9.312  0.4482  1.3330 -1.2563
26047SOL     OW83976   9.948   5.907   0.216  0.1307 -0.2686 -0.3498
26047SOL    HW183977   9.902   5.946   0.141  0.0654  0.5877  0.1334
26047SOL    HW283978   9.987   5.827   0.180 -0.2640 -0.0962 -1.1949
26048SOL     OW83979   6.529   6.490   0.488  0.0448 -0.2552 -0.3281
26048SOL    HW183980   6.592   6.456   0.552  2.1518  2.4795 -0.7565
26048SOL    HW283981   6.581   6.505   0.409 -1.4779  0.6683 -1.2028
26049SOL     OW83982   9.296   4.958  10.080  0.9733  0.1204  0.2837
26049SOL    HW183983   9.273   4.868  10.056 -0.8729  0.5959  0.1836
26049SOL    HW283984   9.333   4.950  10.168  1.0319 -0.7588  0.1929
26050SOL     OW83985   9.025   0.272   3.905 -0.6325 -0.2545  0.0994
26050SOL    HW183986   8.949   0.215   3.895 -1.3667  0.4013  1.6086
26050SOL    HW283987   9.088   0.220   3.955 -1.7619  0.5583  2.5300
26051SOL     OW83988   2.607   3.037   5.369  0.5128  0.0179 -0.1579
26051SOL    HW183989   2.627   2.947   5.343  1.5231 -0.5462  2.2208
26051SOL    HW283990   2.531   3.028   5.426  1.2996  0.4719  1.0111
26052SOL     OW83991   7.071   5.447   1.918  0.3294 -0.2592  0.2245
26052SOL    HW183992   7.159   5.452   1.881  0.4043 -1.4560  0.1767
26052SOL    HW283993   7.035   5.535   1.908  1.0081 -0.0980 -1.0527
26053SOL     OW83994   6.511   3.895   1.985 -0.9073  0.3282 -0.9339
26053SOL    HW183995   6.587   3.887   1.927  0.4782  2.9416  0.3411
26053SOL    HW283996   6.548   3.919   2.070 -3.0092 -1.3982  0.6041
26054SOL     OW83997   1.953   6.961   3.461  0.5464 -0.0228  0.3973
26054SOL    HW183998   1.895   6.982   3.387 -0.0215 -1.9948  0.2237
26054SOL    HW283999   1.899   6.976   3.539  0.0844 -0.8973  0.2674
26055SOL     OW84000   6.936   8.387   0.167  0.1019  0.3022 -0.1341
26055SOL    HW184001   6.890   8.449   0.110  0.3762  0.4104 -0.2424
26055SOL    HW284002   6.968   8.441   0.240 -1.5947 -0.1015  0.9546
26056SOL     OW84003   9.970   2.642   5.446 -0.1597  0.7585  0.2175
26056SOL    HW184004  10.041   2.580   5.461  0.1667  0.8412 -0.9404
26056SOL    HW284005   9.895   2.603   5.491  0.1861 -0.1879  0.0040
26057SOL     OW84006   3.211   4.420   2.430  0.2227  0.3579 -0.2461
26057SOL    HW184007   3.227   4.439   2.523 -2.2189 -0.7808  0.5085
26057SOL    HW284008   3.291   4.378   2.399  0.7151 -0.2090  1.6625
26058SOL     OW84009   6.192   9.551   9.319  0.1805  0.0470  0.0503
26058SOL    HW184010   6.204   9.462   9.350  1.7969 -0.0021 -0.6217
26058SOL    HW284011   6.260   9.602   9.363  0.6660  0.5161 -1.1856
26059SOL     OW84012   8.269   8.904   7.319  0.1001 -0.3380 -0.1368
26059SOL    HW184013   8.282   8.813   7.346 -1.9781 -0.7609 -0.3854
26059SOL    HW284014   8.204   8.899   7.249  0.0262  1.3399 -0.2152
26060SOL     OW84015  10.490   8.957   4.247  0.0392  0.3329  0.3616
26060SOL    HW184016  10.500   8.920   4.334 -0.7347 -1.0463 -0.1135
26060SOL    HW284017  10.418   9.020   4.255 -0.6347 -0.4549  0.5241
26061SOL     OW84018   6.867   0.835   9.581  0.3241 -0.7291  0.0265
26061SOL    HW184019   6.817   0.790   9.512  0.1497 -1.7024  0.7717
26061SOL    HW284020   6.949   0.785   9.587 -0.0419 -1.2136  1.1483
26062SOL     OW84021   9.272   9.452   7.066  0.1193 -0.4626  0.4550
26062SOL    HW184022   9.298   9.360   7.064 -1.0444 -0.8136 -1.6265
26062SOL    HW284023   9.183   9.453   7.032 -0.1462  1.3693  1.0945
26063SOL     OW84024   0.490   5.837   9.526  0.1130 -0.2352 -0.3265
26063SOL    HW184025   0.545   5.914   9.537 -2.6515  1.7959  0.3981
26063SOL    HW284026   0.529   5.771   9.584  1.6325  1.1308  0.2758
26064SOL     OW84027   4.917   4.469   9.571 -0.5497 -0.5116 -0.5153
26064SOL    HW184028   4.956   4.390   9.609 -0.1890  0.7812  2.0970
26064SOL    HW284029   4.828   4.443   9.549 -0.7288 -1.4850  1.1178
26065SOL     OW84030   7.143   7.692   6.606  0.2476 -0.1255 -0.0260
26065SOL    HW184031   7.071   7.645   6.647 -0.1554 -0.1886 -0.8016
26065SOL    HW284032   7.208   7.624   6.586  0.0313 -0.2280 -0.3735
26066SOL     OW84033   3.061   0.568   0.258  0.2252  0.3655 -0.1901
26066SOL    HW184034   3.144   0.540   0.296 -0.7485  1.1764  2.8444
26066SOL    HW284035   3.038   0.498   0.196  3.0684  0.0990 -1.0582
26067SOL     OW84036   2.407   5.772   8.893  0.1385  0.3296  0.4212
26067SOL    HW184037   2.339   5.793   8.830 -0.4379 -3.3388 -0.4154
26067SOL    HW284038   2.489   5.791   8.847 -0.3074  0.1938 -0.4583
26068SOL     OW84039   1.460   6.684   9.862 -0.3830  0.2559  0.5469
26068SOL    HW184040   1.469   6.750   9.793  2.9390 -0.2264  0.3694
26068SOL    HW284041   1.428   6.606   9.817  1.2221  0.1108 -0.3849
26069SOL     OW84042   3.885  10.026   0.522  0.0610 -0.2684  0.4120
26069SOL    HW184043   3.946   9.953   0.518  0.3340 -0.0735  0.8136
26069SOL    HW284044   3.803   9.988   0.551 -0.1291 -0.6028 -0.5552
26070SOL     OW84045   3.222   0.207   7.155 -0.1145 -0.2469 -0.3311
26070SOL    HW184046   3.129   0.229   7.147 -0.4757 -1.6450 -0.2645
26070SOL    HW284047   3.258   0.274   7.214 -1.1398  0.1189 -0.1036
26071SOL     OW84048   1.255   2.248   3.585 -0.2186  0.1731  0.1594
26071SOL    HW184049   1.243   2.320   3.522 -0.0142 -0.5152 -0.6793
26071SOL    HW284050   1.341   2.212   3.564  0.4758  0.8235  1.7747
26072SOL     OW84051   1.176   0.633   3.678  0.1438  0.4474  0.3149
26072SOL    HW184052   1.180   0.545   3.715  2.4799  0.1991 -0.3419
26072SOL    HW284053   1.148   0.689   3.750 -1.2467 -0.7857  0.7761
26073SOL     OW84054   9.739   7.913   9.616 -0.6097  0.1692 -0.1001
26073SOL    HW184055   9.675   7.912   9.545 -1.4528  1.2919  0.6129
26073SOL    HW284056   9.724   7.830   9.662 -0.6941 -0.1405 -0.6833
26074SOL     OW84057   2.450   1.167   1.941 -0.1214 -0.1995  0.8460
26074SOL    HW184058   2.508   1.134   2.009 -0.2647 -1.6922  0.2688
26074SOL    HW284059   2.505   1.171   1.862 -0.6996 -1.3704  0.3565
26075SOL     OW84060   3.629   7.642   7.938  0.1767 -0.2371  0.1932
26075SOL    HW184061   3.636   7.650   8.033 -1.4962 -1.6940  0.4802
26075SOL    HW284062   3.535   7.637   7.921  0.4645 -0.3128 -1.5095
26076SOL     OW84063   3.896   5.715   0.387 -0.0561  0.3211  0.7202
26076SOL    HW184064   3.922   5.722   0.478  2.0800 -0.4631  0.2326
26076SOL    HW284065   3.920   5.625   0.362 -1.7393  0.1003 -0.2919
26077SOL     OW84066   9.563   8.411   7.386 -0.4520  0.2292  0.2219
26077SOL    HW184067   9.502   8.444   7.453  0.2682  0.6233  0.6922
26077SOL    HW284068   9.649   8.419   7.426 -0.0973 -0.4584 -0.3913
26078SOL     OW84069   5.502  10.153   2.694  0.0607  0.0171 -0.0087
26078SOL    HW184070   5.523  10.067   2.656  0.1192 -0.3799  0.8844
26078SOL    HW284071   5.498  10.137   2.788  1.8262  1.3500  0.3407
26079SOL     OW84072   1.648   3.571   8.088  0.5100  0.0396 -0.2844
26079SOL    HW184073   1.639   3.665   8.104 -0.0807  0.0478 -0.6212
26079SOL    HW284074   1.560   3.536   8.098  0.9256 -0.6890  1.0379
26080SOL     OW84075   4.962   2.320   9.403 -0.1161  0.6216  0.0738
26080SOL    HW184076   4.978   2.388   9.338  1.3550  0.2138 -0.0323
26080SOL    HW284077   4.909   2.255   9.356 -0.7505  1.2429 -0.0987
26081SOL     OW84078   8.784   0.329   6.493 -0.5338 -0.3670 -0.1405
26081SOL    HW184079   8.803   0.349   6.584 -1.7215 -0.0700  0.0546
26081SOL    HW284080   8.838   0.252   6.474  0.2872  0.0134  0.5795
26082SOL     OW84081   3.280   8.324   4.308 -0.1571  0.2052  0.2709
26082SOL    HW184082   3.320   8.358   4.228 -0.4451 -1.0007 -0.4287
26082SOL    HW284083   3.348   8.332   4.375  0.4401  0.3270 -0.3416
26083SOL     OW84084   5.249   8.738   4.331 -0.8739 -0.0710  0.5878
26083SOL    HW184085   5.268   8.717   4.422 -0.5608  0.8402  0.7454
26083SOL    HW284086   5.304   8.814   4.311 -1.0497 -0.1599 -0.3146
26084SOL     OW84087   8.849   5.544   4.901  0.3373  0.2439 -0.0460
26084SOL    HW184088   8.769   5.534   4.849  0.4560 -1.0837  0.0024
26084SOL    HW284089   8.917   5.562   4.836  0.0178  1.3871 -0.0869
26085SOL     OW84090   1.418   7.749   3.624 -0.5989  0.1334  0.0860
26085SOL    HW184091   1.344   7.764   3.565  0.3158  0.4316 -1.0097
26085SOL    HW284092   1.456   7.835   3.638  0.6191 -0.2218 -0.8324
26086SOL     OW84093   3.268   5.154   9.757  0.2213  0.1424 -1.0121
26086SOL    HW184094   3.200   5.215   9.784 -0.8834 -1.1424 -0.7999
26086SOL    HW284095   3.288   5.178   9.667  0.0404  1.0130 -0.8292
26087SOL     OW84096  10.302   5.124   6.422  0.0557 -0.1939 -0.2736
26087SOL    HW184097  10.397   5.128   6.411  0.1976 -2.1519 -0.1208
26087SOL    HW284098  10.276   5.046   6.373 -1.2940 -0.4918  0.8709
26088SOL     OW84099   4.181   7.742   0.636 -0.2153  0.1764  0.2598
26088SOL    HW184100   4.178   7.650   0.608 -0.9736  0.3286 -0.1925
26088SOL    HW284101   4.213   7.790   0.560 -1.4697  0.4857 -0.0998
26089SOL     OW84102   0.065   1.903   9.945  0.8244 -0.1711 -0.7878
26089SOL    HW184103   0.013   1.940  10.016  2.5860  0.8347  0.0509
26089SOL    HW284104   0.013   1.916   9.866 -1.0722 -1.0799  0.2472
26090SOL     OW84105   1.300  10.061   9.858 -0.1624 -0.8532  0.1068
26090SOL    HW184106   1.335   9.976   9.884  0.8845 -0.4732 -0.0203
26090SOL    HW284107   1.336  10.123   9.922  0.1605 -0.3231 -0.5751
26091SOL     OW84108   7.812   2.580   3.851 -0.0888 -0.0309 -0.3173
26091SOL    HW184109   7.762   2.597   3.931  0.9217  0.5659  0.2037
26091SOL    HW284110   7.793   2.488   3.830 -0.5838 -0.1073  0.4426
26092SOL     OW84111   3.765   3.285  10.480 -0.1592  0.1857 -0.2573
26092SOL    HW184112   3.831   3.216  10.472 -0.3493 -0.0619  0.1994
26092SOL    HW284113   3.747   3.312  10.390 -2.0270 -2.2345 -0.7297
26093SOL     OW84114   8.751   3.740   0.752 -0.1883  0.4977 -0.2785
26093SOL    HW184115   8.796   3.679   0.694  1.4677  0.5150  0.9234
26093SOL    HW284116   8.757   3.825   0.708  0.7220  0.4423 -0.2700
26094SOL     OW84117   1.142   0.980   8.281  0.4163 -0.6913  0.0306
26094SOL    HW184118   1.055   1.008   8.309 -1.0244 -0.9423 -3.6463
26094SOL    HW284119   1.199   1.053   8.304 -1.0214  0.1273  1.2005
26095SOL     OW84120   4.937   3.620   0.051 -0.0150  0.4812 -0.5429
26095SOL    HW184121   4.907   3.673  -0.024 -0.4309 -0.8451 -1.3423
26095SOL    HW284122   4.954   3.684   0.120 -0.1123  1.6992 -1.6085
26096SOL     OW84123   7.277   1.851  10.604 -0.4471 -0.0520  0.2351
26096SOL    HW184124   7.288   1.865  10.698 -0.8388  1.2919  0.0965
26096SOL    HW284125   7.183   1.838  10.592 -0.3125 -0.9789  0.1090
26097SOL     OW84126   5.277  10.546   2.953  0.3416  0.4289 -0.4814
26097SOL    HW184127   5.282  10.607   2.879  0.2253  0.2338 -0.6544
26097SOL    HW284128   5.233  10.469   2.917  1.0893 -0.0273 -0.4493
26098SOL     OW84129   9.246   7.010  10.374  0.2335  0.0748  0.0443
26098SOL    HW184130   9.150   7.007  10.381  0.3353 -1.1113  1.5109
26098SOL    HW284131   9.274   6.922  10.400  1.7975  0.8798  1.1956
26099SOL     OW84132   5.247   6.585   7.522  0.3957 -0.5904  0.3115
26099SOL    HW184133   5.198   6.648   7.575  2.4315  0.9158  0.4883
26099SOL    HW284134   5.213   6.500   7.549 -0.2248  0.2588  2.3768
26100SOL     OW84135   4.355   4.270   1.204 -0.6879 -0.3085  0.7732
26100SOL    HW184136   4.265   4.251   1.176 -0.4610 -1.3426  0.7176
26100SOL    HW284137   4.392   4.319   1.131 -2.1958  3.1743  2.1371
26101SOL     OW84138   0.111   1.701   0.239  0.0317 -0.4477 -0.4482
26101SOL    HW184139   0.136   1.780   0.288 -2.6834  0.0403  0.3598
26101SOL    HW284140   0.065   1.647   0.304  0.4544 -1.9828 -1.3843
26102SOL     OW84141   5.772   7.503   3.794  0.8920  0.0894  0.2409
26102SOL    HW184142   5.785   7.434   3.729  1.6780 -0.3437  0.8363
26102SOL    HW284143   5.805   7.466   3.876  1.0340  1.0497  0.6397
26103SOL     OW84144   6.973   5.611  10.256  0.4135 -0.0287  0.3063
26103SOL    HW184145   7.051   5.604  10.201  1.0029 -1.5345  1.2763
26103SOL    HW284146   7.004   5.598  10.345 -0.6206  1.7840  0.9867
26104SOL     OW84147   9.016   2.596   5.596 -0.3326  0.8285 -0.0282
26104SOL    HW184148   8.987   2.504   5.599  0.3892  0.6045  2.6278
26104SOL    HW284149   8.937   2.645   5.574 -0.4060 -0.4666 -3.1856
26105SOL     OW84150   9.214  10.208   0.675  0.1602 -0.3477 -0.2985
26105SOL    HW184151   9.200  10.293   0.633  0.5848 -1.4475 -2.8273
26105SOL    HW284152   9.223  10.229   0.768  0.3312  2.3824 -0.8436
26106SOL     OW84153   1.818   3.775   0.144 -0.3294 -0.3613  0.1899
26106SOL    HW184154   1.885   3.714   0.114  0.0129  0.6779 -1.3279
26106SOL    HW284155   1.847   3.802   0.231  2.9214  2.1882 -1.4138
26107SOL     OW84156   7.156   4.053   1.918  0.1568  0.3139  0.2054
26107SOL    HW184157   7.128   4.123   1.977 -1.3008  0.7396 -0.9412
26107SOL    HW284158   7.122   4.079   1.832  0.4299 -1.3188 -0.4289
26108SOL     OW84159   0.919   3.421   3.615  0.3517  0.0369 -0.7664
26108SOL    HW184160   0.899   3.328   3.625  0.2393  0.0486 -0.8772
26108SOL    HW284161   0.992   3.424   3.553  1.5766 -0.0839  0.6125
26109SOL     OW84162   1.362   7.643  10.252  0.5619 -0.6695 -0.4809
26109SOL    HW184163   1.403   7.558  10.265 -0.2212 -0.9198  0.4421
26109SOL    HW284164   1.414   7.685  10.184  1.4782 -1.5405 -0.3294
26110SOL     OW84165   8.344   1.225   5.606 -0.3387  0.1743  0.1190
26110SOL    HW184166   8.388   1.247   5.688  0.3086 -0.6163  0.0079
26110SOL    HW284167   8.403   1.161   5.565 -2.0107 -1.6212  0.3796
26111SOL     OW84168   8.572   5.310   1.178  0.4267  0.7317  0.0479
26111SOL    HW184169   8.587   5.314   1.084  0.7138 -0.1710  0.0463
26111SOL    HW284170   8.478   5.321   1.189  0.4617  1.3807 -0.3048
26112SOL     OW84171   2.466   7.206   4.422  0.0087  0.5157  0.0646
26112SOL    HW184172   2.439   7.115   4.409  0.8477  0.2410  0.2006
26112SOL    HW284173   2.399   7.242   4.480 -0.0541 -0.1658  0.4387
26113SOL     OW84174   1.012  10.313  10.097  0.3971 -0.4361  0.1906
26113SOL    HW184175   1.006  10.317  10.193 -1.1859 -0.6071  0.1243
26113SOL    HW284176   1.020  10.404  10.070 -2.0088 -0.1034  0.3809
26114SOL     OW84177   9.269   6.767   1.953  0.3432 -0.6803  0.2450
26114SOL    HW184178   9.332   6.698   1.935  1.4268  0.0636  1.0939
26114SOL    HW284179   9.262   6.816   1.871  0.6565 -0.9294  0.0692
26115SOL     OW84180   3.544   7.106   9.937  0.5872  0.3560 -0.2724
26115SOL    HW184181   3.639   7.113   9.950  0.4861  0.7079  0.3374
26115SOL    HW284182   3.532   7.019   9.898  0.9867 -0.6433  1.6866
26116SOL     OW84183   5.763   7.346   1.224  0.3257  0.1648  0.6026
26116SOL    HW184184   5.842   7.400   1.219  0.2624  0.2160  0.1109
26116SOL    HW284185   5.695   7.399   1.185 -0.1399  0.4447  1.7708
26117SOL     OW84186   1.171   2.222   1.779  0.8074 -0.2900 -0.0346
26117SOL    HW184187   1.245   2.282   1.793 -2.8235  4.5936  0.8158
26117SOL    HW284188   1.142   2.199   1.868  0.2800 -0.7338 -0.3171
26118SOL     OW84189   5.228   8.059  10.369  0.1641  0.1638  0.5118
26118SOL    HW184190   5.143   8.047  10.412  0.5591 -1.4585  0.9195
26118SOL    HW284191   5.291   8.056  10.441  0.6000  1.2020  0.1912
26119SOL     OW84192   0.633   5.130   4.834  0.0061 -0.3791  0.2543
26119SOL    HW184193   0.617   5.170   4.749  0.6332 -1.1319 -0.2315
26119SOL    HW284194   0.548   5.092   4.859  0.6150 -3.7081 -1.9640
26120SOL     OW84195   5.810   5.941   7.057 -0.3925  0.7797 -0.0423
26120SOL    HW184196   5.892   5.980   7.086  0.4691 -1.0605  0.0927
26120SOL    HW284197   5.780   5.999   6.987  0.7857  1.7157  0.1918
26121SOL     OW84198   8.159   6.172   0.039 -0.3953 -0.7478 -0.0353
26121SOL    HW184199   8.087   6.159  -0.022  0.2681  1.3635 -1.3550
26121SOL    HW284200   8.224   6.105   0.015 -1.7146 -2.4898  0.9967
26122SOL     OW84201  10.033   2.818   0.129  0.5518 -0.1672  0.4764
26122SOL    HW184202  10.099   2.773   0.076  1.4062  1.1936  0.3360
26122SOL    HW284203  10.000   2.888   0.072  0.5647  0.5187  1.2803
26123SOL     OW84204   2.921   6.061   6.211 -0.2898 -1.0802 -0.0006
26123SOL    HW184205   2.836   6.045   6.253 -0.4100 -2.2044 -0.6180
26123SOL    HW284206   2.964   5.975   6.212  1.0597 -0.4269  0.7499
26124SOL     OW84207   8.769   4.516   2.321 -0.1233 -0.0259 -0.0409
26124SOL    HW184208   8.744   4.565   2.399 -1.7017  2.3867 -1.9230
26124SOL    HW284209   8.824   4.577   2.271  0.5684 -1.3715 -0.9938
26125SOL     OW84210   7.626   2.143   2.334 -0.4004  0.1822  0.0683
26125SOL    HW184211   7.570   2.065   2.328  1.1651 -1.1293  1.5205
26125SOL    HW284212   7.676   2.130   2.414  1.8156  1.3958 -1.0430
26126SOL     OW84213   8.175   2.379   8.910  0.2146  0.0951 -0.5961
26126SOL    HW184214   8.102   2.323   8.882  1.3537 -1.8472  0.0830
26126SOL    HW284215   8.147   2.415   8.994  0.2955 -1.2372  0.0262
26127SOL     OW84216   2.160   2.093   0.538 -0.4009 -0.0223  0.2263
26127SOL    HW184217   2.252   2.070   0.543 -0.0945  1.3924  4.8546
26127SOL    HW284218   2.155   2.157   0.467  2.2209  0.0859  0.0464
26128SOL     OW84219   6.898   5.188   7.328  0.1113  0.1116  0.1518
26128SOL    HW184220   6.987   5.215   7.354 -1.0749  2.6368  2.1120
26128SOL    HW284221   6.880   5.240   7.249  0.2704 -0.1873 -0.0824
26129SOL     OW84222  10.400   4.141   9.375 -0.6941 -0.2879 -0.2224
26129SOL    HW184223  10.330   4.167   9.315 -0.7052 -0.6932 -0.3955
26129SOL    HW284224  10.380   4.049   9.396 -0.4857 -0.2573  0.1116
26130SOL     OW84225   6.056   3.609   0.062  0.2292  0.0489 -0.4181
26130SOL    HW184226   6.076   3.657  -0.018 -1.2280  0.1322 -0.7603
26130SOL    HW284227   6.059   3.516   0.036 -0.4524  0.0809 -0.6458
26131SOL     OW84228   1.854   3.854   2.931 -0.4296  0.0093  0.2665
26131SOL    HW184229   1.906   3.870   3.010 -2.2324  0.7360  1.3609
26131SOL    HW284230   1.861   3.936   2.881 -0.4356  0.0610  0.3501
26132SOL     OW84231   2.885   9.469   1.835  0.3068 -0.0463 -0.2004
26132SOL    HW184232   2.902   9.439   1.745  0.9035  0.7066 -0.3453
26132SOL    HW284233   2.846   9.393   1.878  3.0930 -1.5356 -0.1234
26133SOL     OW84234   7.249   1.320   7.113  0.0734 -0.4607 -0.2857
26133SOL    HW184235   7.314   1.369   7.063 -0.1477 -0.5372 -0.6551
26133SOL    HW284236   7.207   1.264   7.048 -0.7361 -0.0124 -0.1620
26134SOL     OW84237   4.279   2.707  10.456  0.2694 -0.2915  0.2038
26134SOL    HW184238   4.303   2.761  10.381  0.5198  1.6889  1.6085
26134SOL    HW284239   4.332   2.742  10.528  1.1791 -3.1180  1.0273
26135SOL     OW84240   0.357  10.226   7.671  0.2852 -0.2107  0.0838
26135SOL    HW184241   0.289  10.160   7.678 -0.5851  0.5600 -0.7472
26135SOL    HW284242   0.363  10.265   7.758  0.3451 -0.9256  0.4033
26136SOL     OW84243   2.268   9.178   1.135 -0.0966 -0.0650 -0.1307
26136SOL    HW184244   2.232   9.091   1.119  1.1976 -0.7038  0.2555
26136SOL    HW284245   2.212   9.216   1.202  0.9248 -1.7129  1.7482
26137SOL     OW84246   2.257   2.267   6.863  1.0534 -0.0539  0.0904
26137SOL    HW184247   2.336   2.311   6.894  1.4004  0.1662 -1.0538
26137SOL    HW284248   2.219   2.328   6.800  0.0756 -0.2527  0.4666
26138SOL     OW84249   5.928   2.309   9.334 -0.1806 -0.0544  0.0271
26138SOL    HW184250   5.892   2.229   9.295 -3.0462  0.7025  0.8316
26138SOL    HW284251   5.943   2.367   9.260 -1.6311 -0.0818 -0.3186
26139SOL     OW84252   1.976   6.881   9.908 -0.9324  0.1448  0.9023
26139SOL    HW184253   1.920   6.835   9.845  1.7465  1.0020 -2.3569
26139SOL    HW284254   1.938   6.968   9.914 -1.7169 -0.2065  1.2400
26140SOL     OW84255   8.730  10.210   5.632  0.1713 -0.4796 -0.4900
26140SOL    HW184256   8.702  10.218   5.541 -0.9693 -0.3208 -0.1400
26140SOL    HW284257   8.788  10.134   5.632 -0.0708 -0.6765 -1.2864
26141SOL     OW84258   9.916   9.606   8.204  0.0330  0.5362 -0.7978
26141SOL    HW184259   9.849   9.673   8.213 -0.5279 -0.2116  1.1211
26141SOL    HW284260   9.997   9.649   8.230  0.1519  1.1683 -2.1545
26142SOL     OW84261   5.288   9.132   7.358  0.6937 -0.0912 -0.1334
26142SOL    HW184262   5.325   9.058   7.311  2.0692 -0.0013  0.7440
26142SOL    HW284263   5.262   9.096   7.443 -1.0533 -0.0926 -0.6301
26143SOL     OW84264   2.585   8.234   1.661 -0.0328 -0.0271 -0.0022
26143SOL    HW184265   2.679   8.221   1.660  0.4689  2.5045  2.6770
26143SOL    HW284266   2.561   8.245   1.569  2.1727 -1.1010 -0.7684
26144SOL     OW84267   9.568   5.899   5.116  0.2492 -0.0911  0.2619
26144SOL    HW184268   9.531   5.817   5.150 -1.8289  1.3562  1.7331
26144SOL    HW284269   9.501   5.932   5.055  0.5794  0.9953  0.4677
26145SOL     OW84270   6.186   9.530   6.526  0.1947  0.0199  0.0765
26145SOL    HW184271   6.228   9.588   6.590  0.5232  0.0938 -0.2029
26145SOL    HW284272   6.178   9.584   6.447  0.0206 -0.1521 -0.0223
26146SOL     OW84273   6.523   2.930   6.811  0.4159  0.3841  0.4216
26146SOL    HW184274   6.456   2.861   6.812 -0.1161  0.8053 -1.3693
26146SOL    HW284275   6.596   2.893   6.860  0.1248 -1.4794 -0.4517
26147SOL     OW84276   5.561   1.626   8.843 -0.9112  0.2874  0.2553
26147SOL    HW184277   5.646   1.586   8.822 -0.4290 -0.6287  3.4115
26147SOL    HW284278   5.582   1.714   8.872 -1.3983  1.0159 -1.4736
26148SOL     OW84279   1.518   1.321   9.927 -0.0684  0.1656 -0.2562
26148SOL    HW184280   1.453   1.360   9.868 -1.7698  0.2993  1.6021
26148SOL    HW284281   1.476   1.241   9.959  0.3006  0.6471  1.5604
26149SOL     OW84282   3.671   7.047   1.610 -0.0282  0.3146 -0.1483
26149SOL    HW184283   3.699   7.034   1.519 -1.7431  3.6544 -1.3236
26149SOL    HW284284   3.750   7.077   1.655  0.9015 -1.5967 -0.3885
26150SOL     OW84285   9.628   0.655   3.696 -0.5417 -0.5772 -0.5336
26150SOL    HW184286   9.642   0.698   3.781  0.2072 -0.9958 -0.4374
26150SOL    HW284287   9.706   0.677   3.645 -1.2219  0.1037 -1.3070
26151SOL     OW84288   2.874   1.735   2.067 -0.2974  0.1294  0.0985
26151SOL    HW184289   2.954   1.712   2.020  0.6026  1.0010  1.1672
26151SOL    HW284290   2.900   1.804   2.128 -1.2943 -1.2618  2.2290
26152SOL     OW84291   1.020   3.061   2.836  0.0417  0.1786 -0.1418
26152SOL    HW184292   1.059   2.990   2.785 -1.5944 -0.4837 -0.5389
26152SOL    HW284293   1.066   3.059   2.920 -0.1856 -1.6035 -0.0150
26153SOL     OW84294   9.798   5.257   7.649 -0.1966 -0.0030  0.2478
26153SOL    HW184295   9.889   5.253   7.620 -0.1761 -0.0801  0.3226
26153SOL    HW284296   9.780   5.351   7.655 -0.1969  0.0136  0.0024
26154SOL     OW84297   9.988   5.321  10.403  0.6602  0.3428  0.4748
26154SOL    HW184298   9.898   5.334  10.373  1.2951  0.8531 -1.3305
26154SOL    HW284299  10.018   5.409  10.426  1.3319  0.4862 -0.8827
26155SOL     OW84300   1.188  10.706   3.053 -0.5027  0.0478 -0.4156
26155SOL    HW184301   1.252  10.642   3.084 -1.3333  0.1528  1.6339
26155SOL    HW284302   1.192  10.698   2.957  2.7501  0.2669 -0.4224
26156SOL     OW84303   6.740   1.879   8.970 -0.2377 -0.7073  0.4329
26156SOL    HW184304   6.825   1.920   8.952  0.3049 -1.4343  1.2220
26156SOL    HW284305   6.698   1.936   9.033  0.5776 -1.3866  1.6436
26157SOL     OW84306   4.719   3.699   7.477  0.1672 -0.0787 -0.1429
26157SOL    HW184307   4.771   3.687   7.556 -0.2327 -0.1527  0.1149
26157SOL    HW284308   4.706   3.793   7.470 -1.9079 -0.1929  1.2927
26158SOL     OW84309   9.112   6.509   3.398 -0.5009 -0.2912 -0.3405
26158SOL    HW184310   9.067   6.471   3.323 -1.5449  0.3900 -0.0828
26158SOL    HW284311   9.109   6.603   3.383  2.0900 -0.2620 -0.9928
26159SOL     OW84312   0.625   0.867   4.602 -0.1906  0.3468 -0.0019
26159SOL    HW184313   0.655   0.820   4.679 -2.1837 -0.7247  0.1851
26159SOL    HW284314   0.638   0.960   4.622 -1.4114  0.1318  1.9728
26160SOL     OW84315   1.538   6.513   6.337 -0.0589 -0.1752 -0.6655
26160SOL    HW184316   1.537   6.455   6.260 -0.2016  0.1203 -0.8867
26160SOL    HW284317   1.554   6.454   6.411  0.9152 -0.3644 -1.0032
26161SOL     OW84318   8.834   7.948   0.633 -0.2754  0.5460  0.8981
26161SOL    HW184319   8.778   7.996   0.571  0.4096  0.5506  0.2693
26161SOL    HW284320   8.814   7.856   0.616  1.4700  0.4284 -0.9002
26162SOL     OW84321   2.299   5.561   2.305  0.1195 -0.5109 -0.1973
26162SOL    HW184322   2.332   5.512   2.231 -1.8892 -0.4879 -1.1713
26162SOL    HW284323   2.280   5.648   2.270  1.0132  0.1358  0.8471
26163SOL     OW84324   3.142   7.221  10.015  0.7855 -0.4358 -0.0569
26163SOL    HW184325   3.087   7.252  10.087 -0.9636 -1.9541 -0.6637
26163SOL    HW284326   3.229   7.211  10.054  0.4230  0.9538  1.2253
26164SOL     OW84327   8.616   1.610  10.704 -0.2838 -0.0351 -0.2004
26164SOL    HW184328   8.574   1.694  10.687 -0.7780 -0.3129 -0.3608
26164SOL    HW284329   8.579   1.581  10.787  0.4433  0.2526  0.2343
26165SOL     OW84330   2.321   1.977   1.524 -0.4035  0.5411  0.1894
26165SOL    HW184331   2.355   1.887   1.520 -2.3606 -0.2460 -0.0246
26165SOL    HW284332   2.395   2.032   1.498  1.2237 -0.8854  1.6114
26166SOL     OW84333   4.084   8.856   6.521 -0.4669 -0.4262  0.4244
26166SOL    HW184334   4.112   8.929   6.576 -0.6226 -0.7262  0.9062
26166SOL    HW284335   3.996   8.835   6.551 -0.4110 -0.8316  0.3147
26167SOL     OW84336   2.071   9.873   4.025 -0.5981  0.5080  0.2340
26167SOL    HW184337   1.993   9.906   3.981 -0.5423 -0.0276 -0.2750
26167SOL    HW284338   2.103   9.948   4.076 -2.4771  0.2333  1.9533
26168SOL     OW84339   3.250   8.672   8.928 -0.1949 -0.6302  0.4932
26168SOL    HW184340   3.326   8.654   8.873 -0.1465 -0.9280  0.6555
26168SOL    HW284341   3.284   8.725   9.000 -0.4323  0.6002 -0.2628
26169SOL     OW84342   7.568   1.227   2.048  0.2670 -0.1691  0.4514
26169SOL    HW184343   7.575   1.304   2.106  0.0024  0.9113 -0.8959
26169SOL    HW284344   7.490   1.244   1.996 -1.2458 -2.5717  1.7662
26170SOL     OW84345   8.733   2.183   9.971  0.2593 -0.4041 -0.8968
26170SOL    HW184346   8.829   2.190   9.975  0.4206 -2.0601 -1.3475
26170SOL    HW284347   8.717   2.110   9.912 -1.3164  0.2002 -1.2563
26171SOL     OW84348   4.841   2.804   0.929 -0.5863 -0.1923  0.3084
26171SOL    HW184349   4.907   2.866   0.900 -0.6684 -0.3084 -0.1313
26171SOL    HW284350   4.890   2.724   0.949 -0.1536  0.6583  3.0624
26172SOL     OW84351   4.945   9.157   6.927 -1.0534 -0.0174 -0.1872
26172SOL    HW184352   4.990   9.153   6.843 -1.7826 -1.8968 -0.5450
26172SOL    HW284353   4.853   9.142   6.906 -1.2965 -0.1097  0.8887
26173SOL     OW84354   7.127   8.229  10.389  0.4064  0.2349 -0.0094
26173SOL    HW184355   7.217   8.220  10.420  1.1406 -0.5644 -2.1427
26173SOL    HW284356   7.080   8.157  10.430  0.7921  0.4946  0.9086
26174SOL     OW84357   8.366   2.604   6.397  0.3611  0.2401 -0.5184
26174SOL    HW184358   8.448   2.580   6.441  0.9627  2.1321 -0.5320
26174SOL    HW284359   8.366   2.552   6.316  0.9437 -0.6580  0.0392
26175SOL     OW84360   3.842   2.568   2.551  0.1990 -0.5697  0.2021
26175SOL    HW184361   3.750   2.582   2.525 -0.0489  2.8381  2.2202
26175SOL    HW284362   3.891   2.629   2.496  0.6298  0.7609  1.9652
26176SOL     OW84363   7.407   9.580   4.844  0.2392  0.2473 -0.3335
26176SOL    HW184364   7.472   9.646   4.867  0.8173 -0.5582  0.4300
26176SOL    HW284365   7.324   9.627   4.843  0.8214  1.2889 -1.3251
26177SOL     OW84366   5.725   4.818   0.641  0.3527  0.1836 -0.6450
26177SOL    HW184367   5.772   4.838   0.722  0.9367 -0.2504 -0.8689
26177SOL    HW284368   5.738   4.724   0.628 -0.2501  0.1318 -0.9241
26178SOL     OW84369   4.360  10.350   7.483  0.1804  0.3035  0.6789
26178SOL    HW184370   4.404  10.371   7.565  0.1782 -1.5255  1.1799
26178SOL    HW284371   4.353  10.255   7.482 -1.8264  0.3955 -0.4005
26179SOL     OW84372   2.033   0.583   1.583  0.0821  0.1487 -0.2596
26179SOL    HW184373   2.032   0.673   1.550 -0.6183  0.1865 -0.1586
26179SOL    HW284374   2.049   0.530   1.505 -0.0096  0.3347 -0.4085
26180SOL     OW84375   6.222   5.707   2.232 -0.5127 -0.1966 -0.3492
26180SOL    HW184376   6.167   5.665   2.166 -0.2356 -0.5148 -0.3797
26180SOL    HW284377   6.293   5.645   2.247 -0.3501  0.0586 -0.0546
26181SOL     OW84378   7.842   0.514  10.291  0.1006 -0.1459  0.4401
26181SOL    HW184379   7.893   0.521  10.211  1.1340  1.7654  1.1925
26181SOL    HW284380   7.779   0.586  10.285  0.2168  0.0445  1.3240
26182SOL     OW84381   2.925   8.027   6.178  0.0166 -0.1105  0.1475
26182SOL    HW184382   2.963   8.113   6.158 -0.7558 -0.2573 -2.3848
26182SOL    HW284383   2.989   7.986   6.236  1.4535  1.3929 -0.2672
26183SOL     OW84384   7.593   9.319  10.449 -0.0272  0.3920 -0.1499
26183SOL    HW184385   7.499   9.311  10.462 -0.1409 -1.1305 -1.6213
26183SOL    HW284386   7.603   9.347  10.358  0.9542 -1.5996 -0.7129
26184SOL     OW84387   6.755   8.584   5.957  0.5476  0.0418 -0.1118
26184SOL    HW184388   6.814   8.660   5.958 -1.0849  1.4102 -1.2828
26184SOL    HW284389   6.668   8.621   5.976 -0.1848 -1.6671  0.0301
26185SOL     OW84390   9.380  10.150   9.778  0.0706 -0.0695 -0.1635
26185SOL    HW184391   9.437  10.077   9.755 -0.4576 -0.2405 -0.9676
26185SOL    HW284392   9.353  10.132   9.869  0.9458 -0.2000  0.0791
26186SOL     OW84393   2.228   0.766   4.671 -0.5425 -0.0123  0.4379
26186SOL    HW184394   2.293   0.816   4.720  2.4749 -1.2145 -1.9967
26186SOL    HW284395   2.178   0.719   4.738  1.6796  0.2999  2.4400
26187SOL     OW84396   8.744   4.142   0.349 -0.1742  0.4309 -0.2213
26187SOL    HW184397   8.683   4.214   0.367 -0.0333  0.2489  1.0344
26187SOL    HW284398   8.694   4.063   0.369  0.1828  0.2463 -0.0488
26188SOL     OW84399   9.857   3.860   1.857  0.1988  0.3137  0.0348
26188SOL    HW184400   9.840   3.947   1.820 -0.6717 -0.9623 -2.8375
26188SOL    HW284401   9.797   3.854   1.932  0.5800  2.2904  0.5590
26189SOL     OW84402   2.989   2.975   0.096 -0.2946 -0.1294  0.5661
26189SOL    HW184403   2.913   3.000   0.149 -2.3871 -0.5050 -1.9837
26189SOL    HW284404   2.984   2.879   0.093 -0.1475 -0.1164 -0.1936
26190SOL     OW84405   3.844   5.289   8.498  0.3941  0.0992  0.2062
26190SOL    HW184406   3.825   5.198   8.476 -0.6667  0.3749 -0.0560
26190SOL    HW284407   3.821   5.296   8.591 -0.8326  0.4284 -0.1072
26191SOL     OW84408  10.233   8.018   2.191 -0.5503  0.3710  0.7668
26191SOL    HW184409  10.328   8.011   2.185 -0.4838  1.9837 -3.4128
26191SOL    HW284410  10.218   8.069   2.271  2.3406  2.1343  0.3415
26192SOL     OW84411  10.482  10.142   9.721 -0.1494  0.0249  0.0928
26192SOL    HW184412  10.403  10.102   9.756  0.4281 -1.0862  0.1910
26192SOL    HW284413  10.467  10.149   9.627 -0.0447 -0.9676 -0.0044
26193SOL     OW84414   1.951   6.775   2.676 -0.1730 -0.4228  0.1927
26193SOL    HW184415   1.888   6.811   2.739 -0.1879 -0.1976  0.0526
26193SOL    HW284416   2.010   6.721   2.728  0.2285  0.3022  0.5107
26194SOL     OW84417   2.239   1.369   1.877 -0.1766 -0.1653  0.3149
26194SOL    HW184418   2.232   1.441   1.940  0.7715  1.6416 -1.5180
26194SOL    HW284419   2.325   1.331   1.894  0.9272  1.5802 -1.0625
26195SOL     OW84420   4.785   2.745   7.833  0.1805 -0.8461 -0.1202
26195SOL    HW184421   4.848   2.676   7.814 -0.1466 -0.7757 -1.5442
26195SOL    HW284422   4.729   2.749   7.756  1.8724  2.8730 -1.4215
26196SOL     OW84423   7.587  10.656   2.393 -0.2995  0.6383  0.4260
26196SOL    HW184424   7.509  10.600   2.393  0.6108 -0.8709 -2.6883
26196SOL    HW284425   7.629  10.639   2.477  0.6540 -4.6848 -0.7461
26197SOL     OW84426   9.261   8.175   3.642  0.2961 -0.4478  0.7939
26197SOL    HW184427   9.250   8.163   3.548 -0.1839  0.1590  0.7736
26197SOL    HW284428   9.183   8.136   3.681 -0.0739  0.3594  0.8715
26198SOL     OW84429   7.556   7.599   7.522 -0.1818 -0.0990 -0.0689
26198SOL    HW184430   7.518   7.562   7.443 -0.1068  0.9599 -0.6257
26198SOL    HW284431   7.496   7.572   7.592 -0.1283 -1.2291 -0.4374
26199SOL     OW84432   5.281   4.744   7.038 -0.1585 -0.3457 -0.5787
26199SOL    HW184433   5.359   4.776   7.082 -1.6759  0.8503  1.3996
26199SOL    HW284434   5.226   4.821   7.025 -1.0698 -1.1596 -1.8444
26200SOL     OW84435   5.918   0.875   7.567  0.0191 -0.0429 -0.3249
26200SOL    HW184436   5.956   0.958   7.539  2.1947 -0.2339  1.7348
26200SOL    HW284437   5.980   0.809   7.535 -0.2057 -0.6314  0.4363
26201SOL     OW84438   5.857   3.813   3.387  0.0453  0.0021  0.0164
26201SOL    HW184439   5.831   3.890   3.436  0.3825  0.7663 -0.9554
26201SOL    HW284440   5.775   3.779   3.351 -0.4582 -1.6157  2.4888
26202SOL     OW84441   7.508   6.272   2.024  0.7928 -0.1708  0.7156
26202SOL    HW184442   7.452   6.202   2.057 -0.0704  0.2950  0.2841
26202SOL    HW284443   7.550   6.235   1.946 -0.3212  0.0431 -0.0158
26203SOL     OW84444   2.956  10.572   7.519  0.5573  0.1978 -0.1348
26203SOL    HW184445   2.871  10.534   7.496  2.0262 -3.1920 -0.7201
26203SOL    HW284446   2.976  10.632   7.446 -0.8476  0.1907 -0.5475
26204SOL     OW84447   0.172   5.209   9.846  0.4011 -0.6081 -0.0883
26204SOL    HW184448   0.192   5.302   9.835 -0.4433 -0.3418  0.5752
26204SOL    HW284449   0.123   5.186   9.767  2.7518 -1.1525 -1.5025
26205SOL     OW84450   5.823  10.123   4.038 -0.4552 -0.6197  0.3965
26205SOL    HW184451   5.782  10.116   3.952  0.5394 -0.6472 -0.0911
26205SOL    HW284452   5.895  10.185   4.026  1.4318 -2.6666  0.4852
26206SOL     OW84453   3.361   7.146   9.101  0.0156 -0.1054 -0.6545
26206SOL    HW184454   3.426   7.196   9.053 -1.7193  2.4565 -0.5482
26206SOL    HW284455   3.386   7.155   9.193 -1.5795  2.8057 -0.4053
26207SOL     OW84456   1.735   6.351   6.189  0.0461 -0.1668 -0.4215
26207SOL    HW184457   1.651   6.317   6.158 -0.7395  1.6272 -0.3424
26207SOL    HW284458   1.713   6.432   6.235  1.9410  1.0660 -1.5678
26208SOL     OW84459   6.547   6.310   9.409 -0.0022 -0.0539 -0.2546
26208SOL    HW184460   6.572   6.239   9.468  0.7713  0.5777  0.1817
26208SOL    HW284461   6.529   6.384   9.466 -0.3495  0.2412 -0.7406
26209SOL     OW84462   6.964   4.012   2.240  0.3572 -0.2658 -0.5944
26209SOL    HW184463   6.934   4.056   2.319 -0.3906 -1.8589  0.0413
26209SOL    HW284464   6.969   4.082   2.174  1.2973  1.1428  0.8958
26210SOL     OW84465   4.397   0.449  10.331  0.4807  0.1715  0.3634
26210SOL    HW184466   4.457   0.520  10.354  0.9033 -0.0224 -0.1224
26210SOL    HW284467   4.397   0.391  10.407  0.2783  0.5891  0.6870
26211SOL     OW84468   0.708   1.620   9.717  0.0266 -0.3646  0.3813
26211SOL    HW184469   0.617   1.634   9.741 -0.6108 -2.4765 -0.6035
26211SOL    HW284470   0.732   1.537   9.759  1.3752 -0.0537  0.2882
26212SOL     OW84471   3.115   4.693   4.973 -0.5020 -0.1846  0.1652
26212SOL    HW184472   3.162   4.760   5.023  0.7958 -1.7725  1.1590
26212SOL    HW284473   3.051   4.657   5.034  0.6389 -1.6664  0.5617
26213SOL     OW84474   3.219   7.982   7.052 -0.2769 -0.7649 -0.1398
26213SOL    HW184475   3.128   7.992   7.081  0.0529  0.3085  0.5799
26213SOL    HW284476   3.241   8.066   7.013  0.6666 -0.7101  0.4669
26214SOL     OW84477   7.480   4.118   5.088 -0.0536 -0.6435  0.8111
26214SOL    HW184478   7.498   4.109   4.994  1.4008 -0.8985  1.0967
26214SOL    HW284479   7.462   4.212   5.100 -0.4732 -0.6461  0.2490
26215SOL     OW84480   5.846   7.315   2.445 -0.1049  1.0517 -0.4323
26215SOL    HW184481   5.812   7.324   2.356  0.3504  0.3963 -0.6869
26215SOL    HW284482   5.882   7.401   2.466 -0.3311  1.2478 -0.8338
26216SOL     OW84483  10.041   2.778   8.962 -0.0255 -0.3338 -0.0947
26216SOL    HW184484  10.023   2.810   9.050  1.5023  2.4343 -0.6838
26216SOL    HW284485   9.983   2.829   8.906  1.4619  0.4753 -0.9517
26217SOL     OW84486   9.574   1.896  10.492  0.1930  0.5739  0.0685
26217SOL    HW184487   9.607   1.982  10.517  0.0614  0.6135  0.1073
26217SOL    HW284488   9.550   1.906  10.400 -0.4703  0.7751  0.2580
26218SOL     OW84489   5.130   3.736  10.046 -0.1830  0.5230  0.1414
26218SOL    HW184490   5.149   3.794   9.972 -1.2482  1.3135  0.4623
26218SOL    HW284491   5.166   3.651  10.019 -0.7588  0.7230 -1.4032
26219SOL     OW84492   7.928   5.341   8.768  0.2156 -0.3338 -0.3339
26219SOL    HW184493   7.913   5.314   8.677 -0.5296  0.5609 -0.4966
26219SOL    HW284494   7.966   5.428   8.761 -0.4535  0.0146  0.2182
26220SOL     OW84495   2.090   2.989   3.530 -0.0019  0.0473  0.3201
26220SOL    HW184496   2.062   3.034   3.609  1.0883  0.3606  0.5455
26220SOL    HW284497   2.182   3.014   3.519 -0.2068  0.2593 -1.2166
26221SOL     OW84498   4.168   6.026   3.380 -0.5820  0.1507 -0.3568
26221SOL    HW184499   4.122   6.063   3.305 -1.4954 -0.7468 -0.2599
26221SOL    HW284500   4.259   6.019   3.352 -0.9605 -0.4107 -1.4730
26222SOL     OW84501  10.310   3.264   9.247  0.4549  0.2612 -0.4401
26222SOL    HW184502  10.261   3.286   9.168 -0.7769  0.8204  0.4497
26222SOL    HW284503  10.328   3.170   9.238 -0.6015  0.0815 -0.9049
26223SOL     OW84504   1.503   2.889   1.392 -0.2437  0.2621  0.0022
26223SOL    HW184505   1.557   2.865   1.468  0.8213  1.6958 -0.2664
26223SOL    HW284506   1.420   2.919   1.431 -1.0690 -2.2172  0.4027
26224SOL     OW84507   5.478   8.012   4.634  0.0090 -0.4016 -0.3466
26224SOL    HW184508   5.560   8.062   4.628 -0.1835 -0.1582 -1.0869
26224SOL    HW284509   5.445   8.010   4.544 -0.8176 -0.4618 -0.0488
26225SOL     OW84510   2.718   4.419   5.461 -0.5322 -0.4158  0.0884
26225SOL    HW184511   2.742   4.361   5.390  0.2720 -2.0531  1.6120
26225SOL    HW284512   2.798   4.469   5.479 -0.0694 -1.5129  1.1839
26226SOL     OW84513   6.630   9.728   5.006  0.5948 -0.2429  0.1831
26226SOL    HW184514   6.546   9.682   5.007  1.0159 -1.0269  0.6112
26226SOL    HW284515   6.638   9.761   4.916  1.6658 -3.7427 -1.2257
26227SOL     OW84516   5.683   4.147   9.499 -0.2692 -0.4624  0.3710
26227SOL    HW184517   5.696   4.053   9.486  1.3768 -0.2989  0.7196
26227SOL    HW284518   5.771   4.184   9.502 -0.8883  1.0952  0.3192
26228SOL     OW84519   2.925   8.035   9.148  0.2038 -0.3136 -0.3689
26228SOL    HW184520   2.852   7.977   9.169 -0.0120 -0.3903 -1.2535
26228SOL    HW284521   2.919   8.046   9.053  1.1616 -0.0717 -0.4112
26229SOL     OW84522   1.653   0.022   0.299 -0.0233 -0.3971 -0.0780
26229SOL    HW184523   1.593  -0.050   0.280 -1.0881  0.4845 -0.1829
26229SOL    HW284524   1.645   0.081   0.223 -1.6140  1.4042  1.3955
26230SOL     OW84525   9.847   9.140   8.157 -0.1152 -0.0605  0.4191
26230SOL    HW184526   9.890   9.213   8.202 -1.0068  0.2509  0.7936
26230SOL    HW284527   9.918   9.079   8.137  0.6050  0.8013  0.3075
26231SOL     OW84528   6.054   9.457   5.722  0.1215  0.0968 -0.2663
26231SOL    HW184529   6.005   9.390   5.770  1.5459 -1.0818 -0.3831
26231SOL    HW284530   6.072   9.416   5.637  0.0671  1.0667 -0.7533
26232SOL     OW84531   2.370   3.155   3.024 -0.0310  0.2001 -0.1882
26232SOL    HW184532   2.352   3.226   2.962  0.7060  0.2526 -0.3512
26232SOL    HW284533   2.328   3.079   2.986 -2.0621  0.8225  0.6940
26233SOL     OW84534   7.009   5.901   3.082 -0.1949 -0.6067  0.2964
26233SOL    HW184535   7.076   5.921   3.016  0.4190 -1.4368  0.6547
26233SOL    HW284536   7.040   5.946   3.161  0.4527 -1.7700  0.7208
26234SOL     OW84537  10.273   6.449   9.757 -0.6818  0.1857  0.3650
26234SOL    HW184538  10.226   6.383   9.706 -1.4106  0.9094  0.0692
26234SOL    HW284539  10.210   6.520   9.767  0.6261  1.5768 -0.8023
26235SOL     OW84540   4.060   4.561   2.936 -0.4209 -0.3585  0.4011
26235SOL    HW184541   4.072   4.565   3.031  0.4584 -0.4957  0.3075
26235SOL    HW284542   4.053   4.467   2.918 -0.2977 -0.3472  0.2973
26236SOL     OW84543   5.292   4.023   5.485 -0.5619  0.0985  0.0780
26236SOL    HW184544   5.274   4.082   5.559 -0.8009  0.0780  0.0370
26236SOL    HW284545   5.386   4.031   5.470 -0.6495  0.7504 -0.1608
26237SOL     OW84546   5.953   3.390   1.064  0.1256  0.0271  0.9150
26237SOL    HW184547   5.862   3.414   1.082 -1.1636 -2.5971 -1.3298
26237SOL    HW284548   5.975   3.329   1.134 -0.1632 -0.0012  0.9844
26238SOL     OW84549   4.487   6.290   7.410  0.3307 -0.1409  0.2219
26238SOL    HW184550   4.516   6.204   7.441  0.3670 -0.0767  0.3707
26238SOL    HW284551   4.467   6.277   7.318 -2.5979 -1.0603  0.8911
26239SOL     OW84552   2.603   4.946   0.847 -0.4679  0.1712  0.2419
26239SOL    HW184553   2.639   5.008   0.784  0.1678  0.0730  0.4995
26239SOL    HW284554   2.642   4.862   0.823 -0.3830  0.0967  0.6373
26240SOL     OW84555   8.487   5.526   8.313  0.5949 -0.1835 -0.6808
26240SOL    HW184556   8.456   5.497   8.227 -0.6576 -2.2626  0.3682
26240SOL    HW284557   8.440   5.607   8.330 -2.8906 -2.1006 -0.0983
26241SOL     OW84558   2.830  10.173   5.378  0.2851 -0.5451  0.0117
26241SOL    HW184559   2.771  10.149   5.450 -0.4412  1.1066  0.0168
26241SOL    HW284560   2.775  10.168   5.299 -0.0225  1.4504  0.0703
26242SOL     OW84561   0.749   0.335   7.057  0.2611  0.1115  0.2324
26242SOL    HW184562   0.790   0.250   7.074  0.9192  0.3957  0.1102
26242SOL    HW284563   0.783   0.361   6.971 -2.2152 -0.8389 -1.1486
26243SOL     OW84564   8.614   2.445  10.012  0.4137 -0.3308  0.3478
26243SOL    HW184565   8.552   2.448   9.939  0.2878  0.2779  0.4740
26243SOL    HW284566   8.649   2.356  10.010 -1.5257 -1.1733  1.1498
26244SOL     OW84567   8.706   9.993   6.450  0.0108  0.2877  0.0644
26244SOL    HW184568   8.750  10.032   6.374 -0.6704  1.1425  0.0922
26244SOL    HW284569   8.614  10.017   6.439 -0.4940 -1.5575 -0.0443
26245SOL     OW84570   7.193   0.741   6.783 -0.5780 -0.0199  0.1062
26245SOL    HW184571   7.205   0.667   6.844  0.8508 -0.4598 -0.6599
26245SOL    HW284572   7.214   0.818   6.836 -0.3033 -0.3186  0.4476
26246SOL     OW84573   0.661   9.130   3.307  0.1244 -0.4961 -0.2068
26246SOL    HW184574   0.584   9.073   3.308  1.1205 -1.9300  2.1227
26246SOL    HW284575   0.686   9.135   3.214 -2.8902  0.2998 -1.0989
26247SOL     OW84576   8.235   4.993   7.146 -0.3108  0.1791 -0.0156
26247SOL    HW184577   8.295   5.067   7.139 -0.6347  0.2933 -2.5337
26247SOL    HW284578   8.165   5.012   7.083  0.5567 -3.0428 -2.2045
26248SOL     OW84579   0.547   6.893   1.634  0.1305 -0.1321  0.3642
26248SOL    HW184580   0.564   6.948   1.558  3.6674 -0.9695  0.3843
26248SOL    HW284581   0.527   6.807   1.598  1.5948 -0.4766  0.3176
26249SOL     OW84582   7.114   2.661   9.201  0.0984 -0.3642  0.5097
26249SOL    HW184583   7.102   2.728   9.135  0.5007 -0.9912 -0.2170
26249SOL    HW284584   7.205   2.633   9.191  0.3277 -0.1231  1.6692
26250SOL     OW84585   3.642   6.138  10.065 -0.1300 -0.2395  0.2291
26250SOL    HW184586   3.721   6.166  10.019 -0.5603 -1.3555 -1.2744
26250SOL    HW284587   3.600   6.220  10.092  1.5550  0.3665  1.1251
26251SOL     OW84588   5.578   6.507   3.340  0.3353 -0.5283 -0.4437
26251SOL    HW184589   5.569   6.552   3.424  0.7517  0.7415 -1.0382
26251SOL    HW284590   5.647   6.443   3.354 -0.9772 -1.7591  0.7189
26252SOL     OW84591   5.990   4.984   2.132 -0.0652  0.3729 -0.0705
26252SOL    HW184592   5.920   5.022   2.185 -0.4222 -1.0459  0.5336
26252SOL    HW284593   6.063   4.975   2.193  0.1179  0.3999 -0.2878
26253SOL     OW84594   9.590   0.485   0.219  0.6388  0.0139 -0.0510
26253SOL    HW184595   9.550   0.402   0.246  0.9169  0.5470  2.1790
26253SOL    HW284596   9.539   0.512   0.143 -0.5241 -1.3812  0.1769
26254SOL     OW84597   0.373   8.575   5.575 -0.1811  0.3148  0.5574
26254SOL    HW184598   0.449   8.523   5.549  1.0834  0.7577  3.1401
26254SOL    HW284599   0.298   8.526   5.539  1.1456 -1.5089  0.1184
26255SOL     OW84600   7.336   4.983   4.683 -0.0195 -0.0998 -0.5553
26255SOL    HW184601   7.421   4.987   4.641  0.9304  1.0707  1.3491
26255SOL    HW284602   7.297   5.069   4.668  0.4049  0.4018  0.9770
26256SOL     OW84603   4.512   4.390   0.998 -0.1976  0.1752  0.7463
26256SOL    HW184604   4.597   4.353   0.974 -0.3277  0.0286  0.5071
26256SOL    HW284605   4.492   4.453   0.929 -0.0376  0.6000  1.0834
26257SOL     OW84606   7.543   7.657   5.938 -0.3589  0.0227 -0.6311
26257SOL    HW184607   7.546   7.583   5.999 -2.1421 -1.0030 -1.6734
26257SOL    HW284608   7.586   7.624   5.859 -1.1828  0.0351 -1.1087
26258SOL     OW84609   9.166   0.155   2.937  0.4506  0.3199 -0.8931
26258SOL    HW184610   9.222   0.125   2.866  1.4835 -2.4753  0.9100
26258SOL    HW284611   9.078   0.158   2.899  0.7562 -2.3931 -2.0154
26259SOL     OW84612   0.122   5.878   1.862 -0.5414  0.3503 -0.3933
26259SOL    HW184613   0.149   5.943   1.798 -0.6014  0.7928  0.0309
26259SOL    HW284614   0.128   5.794   1.815  0.3184  0.5712 -0.6939
26260SOL     OW84615   1.843   6.649   4.729  0.0977  0.2611 -0.0371
26260SOL    HW184616   1.936   6.659   4.708 -0.4412  0.8085 -2.5954
26260SOL    HW284617   1.822   6.559   4.704 -0.0427  0.1263  0.5655
26261SOL     OW84618   8.668   7.375   0.128 -0.3223  0.2365  0.7620
26261SOL    HW184619   8.577   7.403   0.137 -0.9067 -0.9971 -0.6788
26261SOL    HW284620   8.668   7.319   0.050  1.6837  0.2158  0.7105
26262SOL     OW84621   2.055   2.736   5.377 -0.2579 -0.5321  0.5384
26262SOL    HW184622   2.004   2.774   5.306 -0.4732 -0.6064  0.6520
26262SOL    HW284623   2.146   2.754   5.354 -0.3878  1.3234  1.2933
26263SOL     OW84624   5.102   0.137   9.970 -0.2898  0.0788  0.1183
26263SOL    HW184625   5.197   0.131   9.979 -0.3039  0.1278  0.3142
26263SOL    HW284626   5.087   0.224   9.933 -0.1875 -0.3973 -1.1063
26264SOL     OW84627   3.381   4.356   5.417 -1.0895  0.0670 -0.1752
26264SOL    HW184628   3.368   4.274   5.371 -0.9354  0.5632 -1.1198
26264SOL    HW284629   3.296   4.374   5.459 -0.3838 -1.9233  2.3543
26265SOL     OW84630   3.597   9.027   8.286  0.3267  0.0736 -0.1375
26265SOL    HW184631   3.515   9.077   8.288  1.3639  1.8622  1.9481
26265SOL    HW284632   3.649   9.068   8.217  0.6776  1.0868  0.7078
26266SOL     OW84633   1.531   2.946   0.405  0.2927 -0.3677  0.0310
26266SOL    HW184634   1.480   3.014   0.362  0.5467 -0.2849 -0.1441
26266SOL    HW284635   1.528   2.968   0.498  2.8918  1.6422 -0.2675
26267SOL     OW84636   4.429   9.921   0.010 -0.8003  0.2866 -0.1368
26267SOL    HW184637   4.375  10.000  -0.002  0.8012  1.5972  0.8410
26267SOL    HW284638   4.426   9.904   0.104 -0.5423 -0.3883 -0.2452
26268SOL     OW84639   5.732   5.582   4.233 -0.4185  0.2246 -0.0287
26268SOL    HW184640   5.741   5.509   4.294 -0.8732  0.9195  0.8851
26268SOL    HW284641   5.779   5.553   4.154 -0.6124 -1.0551  0.3025
26269SOL     OW84642   9.301   6.954  10.074  0.4046  0.2970  0.3509
26269SOL    HW184643   9.294   7.047  10.095  0.0324  0.2537  0.4304
26269SOL    HW284644   9.280   6.949   9.981  1.3077  0.3973  0.1328
26270SOL     OW84645   8.037  10.053   4.593  0.5179 -0.3651 -0.0503
26270SOL    HW184646   7.999  10.132   4.632  2.3949  0.3768  0.3494
26270SOL    HW284647   8.101  10.022   4.657 -0.2402 -2.3080 -0.1454
26271SOL     OW84648   7.112   9.203   9.426 -0.0402  0.1783  0.1024
26271SOL    HW184649   7.022   9.185   9.451  0.4731 -3.5392 -0.1211
26271SOL    HW284650   7.107   9.231   9.334 -0.9206 -1.4917 -0.3902
26272SOL     OW84651   3.642   0.216   3.142  0.3264  0.0370 -0.9926
26272SOL    HW184652   3.717   0.165   3.109 -0.1555 -0.1435 -1.8365
26272SOL    HW284653   3.668   0.241   3.230  1.3498 -0.1061 -1.2334
26273SOL     OW84654   7.762   8.533   4.143  0.1680 -0.0969 -0.4381
26273SOL    HW184655   7.752   8.626   4.164  2.3705 -0.3321  2.2432
26273SOL    HW284656   7.713   8.487   4.210  2.5567 -0.8217  0.9551
26274SOL     OW84657   0.467   6.396   4.105 -0.1574 -0.0288  0.0632
26274SOL    HW184658   0.540   6.453   4.128 -0.7230 -0.0146  1.9741
26274SOL    HW284659   0.503   6.335   4.040  0.9205  1.3560 -0.6873
26275SOL     OW84660   3.727   0.207   7.892 -0.2368 -0.0948 -0.1585
26275SOL    HW184661   3.747   0.293   7.856 -0.5002 -0.4014 -1.0483
26275SOL    HW284662   3.812   0.171   7.917 -0.1806  0.7028  0.9055
26276SOL     OW84663   1.185   6.481  10.050  0.4337  0.1413 -0.2055
26276SOL    HW184664   1.126   6.549  10.084  0.4899  0.3930 -0.6045
26276SOL    HW284665   1.273   6.513  10.072  0.4627  0.2305 -0.4473
26277SOL     OW84666  10.578   5.720   3.829 -0.3700 -0.1317 -0.4936
26277SOL    HW184667  10.495   5.766   3.816 -0.7217 -0.6682 -0.2054
26277SOL    HW284668  10.568   5.639   3.778 -0.1847 -0.3862 -0.1285
26278SOL     OW84669   0.379   3.486  10.296 -0.2899  0.2743 -0.4139
26278SOL    HW184670   0.422   3.473  10.211 -1.6553  0.1561 -1.1117
26278SOL    HW284671   0.289   3.508  10.274 -0.1649  2.4465  0.9525
26279SOL     OW84672   8.836   5.115   9.504 -0.1835  1.2759  0.2101
26279SOL    HW184673   8.928   5.095   9.483 -0.6054 -1.1690  0.4463
26279SOL    HW284674   8.788   5.090   9.425 -0.7712  1.3806  0.5303
26280SOL     OW84675   3.423   6.484   3.696  0.2355 -0.2314 -0.3444
26280SOL    HW184676   3.512   6.515   3.711  0.5166 -0.6003 -1.2257
26280SOL    HW284677   3.432   6.389   3.687 -0.3447 -0.3548  0.2592
26281SOL     OW84678   4.605   8.469   8.141 -0.0354 -0.3911  0.0887
26281SOL    HW184679   4.636   8.378   8.141 -2.4512 -1.2682  0.1275
26281SOL    HW284680   4.516   8.465   8.107  0.1980  2.1446 -1.0590
26282SOL     OW84681  10.161   8.436   0.132  0.3680 -0.6717 -0.5346
26282SOL    HW184682  10.081   8.385   0.140 -0.1089  0.2289  0.7245
26282SOL    HW284683  10.149   8.510   0.191  1.7403 -0.0034 -1.0383
26283SOL     OW84684   5.691   3.435   0.426  0.5379  0.5225 -0.0149
26283SOL    HW184685   5.774   3.459   0.386 -0.0283  0.9008 -0.9944
26283SOL    HW284686   5.643   3.518   0.434  0.3597  0.3495  0.8052
26284SOL     OW84687   3.160   9.900  10.327 -0.2030  0.1272  0.1087
26284SOL    HW184688   3.089   9.909  10.264 -1.3897  0.6966  1.4719
26284SOL    HW284689   3.123   9.847  10.397  0.5494  0.8602  1.0895
26285SOL     OW84690   6.691   6.335   0.645 -0.1278  0.3524 -0.1821
26285SOL    HW184691   6.703   6.297   0.732  1.1321  0.5503 -0.2513
26285SOL    HW284692   6.732   6.272   0.586 -0.8040  0.3140 -0.6245
26286SOL     OW84693   2.060   7.367   4.815  0.4283  0.2324 -0.2020
26286SOL    HW184694   2.101   7.438   4.865 -3.4714  2.6502  0.0233
26286SOL    HW284695   2.019   7.411   4.740 -0.9973 -2.0060 -0.8436
26287SOL     OW84696   7.854   2.588   0.724 -0.2894  0.1791 -0.7851
26287SOL    HW184697   7.906   2.637   0.788  0.7396 -0.3158 -1.2120
26287SOL    HW284698   7.788   2.542   0.775  0.7188 -0.4650 -0.0296
26288SOL     OW84699   7.329   4.881   1.572  0.0139  0.2682  0.3743
26288SOL    HW184700   7.370   4.796   1.556  0.1053  0.0393  1.7103
26288SOL    HW284701   7.400   4.935   1.607 -0.4340  0.3694  1.1376
26289SOL     OW84702   9.561   3.507   2.311  0.2949  0.4348  0.1130
26289SOL    HW184703   9.521   3.581   2.265  1.2504  1.6798  1.2133
26289SOL    HW284704   9.623   3.547   2.372  0.6412 -1.2729  0.9439
26290SOL     OW84705   8.452   6.041   0.029  0.1384  0.5450 -0.5049
26290SOL    HW184706   8.473   5.969  -0.031 -1.3891  1.6540 -2.5295
26290SOL    HW284707   8.537   6.077   0.054  0.9004 -1.3706 -0.1293
26291SOL     OW84708   4.398   2.968   2.811  0.2943 -0.4315 -0.1173
26291SOL    HW184709   4.342   2.931   2.880 -0.1128 -0.6092 -0.5408
26291SOL    HW284710   4.435   2.893   2.766 -0.3518 -0.3443 -0.8282
26292SOL     OW84711   8.822   5.347   9.331  0.9590  0.0933  0.2636
26292SOL    HW184712   8.844   5.303   9.412  2.6932  0.0814 -0.1613
26292SOL    HW284713   8.727   5.344   9.326  0.9413 -2.0067  1.1131
26293SOL     OW84714   9.001   1.123   1.373 -0.4083 -0.2549 -0.4002
26293SOL    HW184715   8.985   1.202   1.425 -0.0681  0.3806 -1.2356
26293SOL    HW284716   9.095   1.109   1.379 -0.3392 -0.0744 -0.9685
26294SOL     OW84717   0.647   9.872   4.615 -0.1143 -0.0635  0.4944
26294SOL    HW184718   0.686   9.959   4.613 -0.4959  0.1009 -0.7473
26294SOL    HW284719   0.614   9.862   4.704 -0.4333  1.2183  0.5325
26295SOL     OW84720   3.166   7.028   5.253 -0.0092 -0.0803  0.4947
26295SOL    HW184721   3.143   7.056   5.164  0.9046 -0.3521  0.1565
26295SOL    HW284722   3.116   7.086   5.310  0.1797  0.7908 -0.1960
26296SOL     OW84723   3.626   6.400   2.684  0.1941  0.1145  0.4161
26296SOL    HW184724   3.637   6.400   2.779  0.4374 -0.1268  0.3893
26296SOL    HW284725   3.531   6.394   2.672  0.1326  0.6067  0.6435
26297SOL     OW84726   4.359   5.882  10.418 -0.4176 -0.1008 -0.5398
26297SOL    HW184727   4.433   5.831  10.453 -0.2568 -0.0710 -0.8355
26297SOL    HW284728   4.353   5.857  10.326 -0.9436 -0.2940 -0.4532
26298SOL     OW84729   7.855   9.307   2.520 -0.2130 -0.4372 -0.2026
26298SOL    HW184730   7.887   9.388   2.481  1.3970 -0.7858  0.2896
26298SOL    HW284731   7.797   9.335   2.591  0.1385  0.2948 -0.1918
26299SOL     OW84732   7.265   2.597   8.601  0.5183  0.3924 -0.3077
26299SOL    HW184733   7.276   2.601   8.506  0.8510  2.3259 -0.2179
26299SOL    HW284734   7.211   2.673   8.623 -0.6038 -0.6879  0.9482
26300SOL     OW84735   8.749  10.073   7.936 -0.3603  0.1379 -0.4448
26300SOL    HW184736   8.784  10.020   7.864  4.9680  1.6007  0.6092
26300SOL    HW284737   8.736  10.160   7.897  1.0999  0.5486 -0.1026
26301SOL     OW84738   4.999   8.121   7.806 -0.3946  0.4531 -0.1176
26301SOL    HW184739   5.072   8.181   7.788  0.4554 -0.5213 -0.0428
26301SOL    HW284740   5.041   8.037   7.823 -1.4492  0.2307  1.6152
26302SOL     OW84741   2.703   3.021   3.811 -0.7244 -0.4076  0.0105
26302SOL    HW184742   2.669   3.068   3.887 -0.4852  2.7113 -1.6507
26302SOL    HW284743   2.705   2.929   3.838 -2.0133  0.3880  3.2116
26303SOL     OW84744   5.929   4.380   5.047  0.1884 -0.3260 -0.2895
26303SOL    HW184745   5.983   4.362   5.123 -0.4746 -1.2826 -0.0372
26303SOL    HW284746   5.885   4.463   5.067 -0.7924 -1.0999  0.8348
26304SOL     OW84747   2.339   4.184   3.183 -0.3643 -0.5933  0.3051
26304SOL    HW184748   2.314   4.172   3.091 -1.8446  0.7065  0.4928
26304SOL    HW284749   2.265   4.230   3.222  1.2274  1.0449  1.5880
26305SOL     OW84750   7.851   2.982   7.952 -0.4269 -0.4883  0.3558
26305SOL    HW184751   7.918   2.939   7.899 -1.0493 -1.0891  0.0346
26305SOL    HW284752   7.893   3.061   7.984  0.2628 -0.5822 -0.2829
26306SOL     OW84753   9.937   9.538   4.397  0.3429  0.5118 -0.3342
26306SOL    HW184754  10.015   9.564   4.346  2.4897 -0.4582  2.2001
26306SOL    HW284755   9.967   9.540   4.488 -1.7708 -2.6551  0.5946
26307SOL     OW84756   2.331   1.454   1.639  0.0239  0.0274  0.6316
26307SOL    HW184757   2.284   1.531   1.608 -0.2602  0.1254  1.2754
26307SOL    HW284758   2.271   1.413   1.702 -0.3676 -1.4396 -0.6326
26308SOL     OW84759   1.379   4.987   1.727 -0.0251 -0.0358 -0.1194
26308SOL    HW184760   1.392   5.061   1.787 -2.5260 -0.0564  0.5710
26308SOL    HW284761   1.444   4.922   1.755  0.4313  0.8693  1.0164
26309SOL     OW84762   1.450   2.782   2.308 -0.2643  0.2842  0.1483
26309SOL    HW184763   1.497   2.785   2.225 -2.6389  1.7923 -1.2595
26309SOL    HW284764   1.454   2.872   2.341 -0.8850  0.1032  0.7340
26310SOL     OW84765   7.755   1.407   2.488 -0.3934 -0.2205  0.2044
26310SOL    HW184766   7.820   1.472   2.513 -0.7035  0.5183 -0.8085
26310SOL    HW284767   7.795   1.361   2.414 -1.1302  0.4775 -0.6577
26311SOL     OW84768   1.479   4.818   7.778 -0.5669  0.4035  0.0561
26311SOL    HW184769   1.400   4.861   7.746  0.0327  2.6643  1.4440
26311SOL    HW284770   1.471   4.818   7.873  0.6033 -0.3844  0.1853
26312SOL     OW84771   8.374   5.120   6.520  0.2573  0.6492  0.4200
26312SOL    HW184772   8.310   5.119   6.591 -0.1001 -0.5248  0.1103
26312SOL    HW284773   8.344   5.190   6.462 -0.8030  0.0968  0.2602
26313SOL     OW84774   9.477   4.075   6.541  0.0415 -0.4798  0.5954
26313SOL    HW184775   9.536   4.000   6.529  0.4065 -0.1790  0.5039
26313SOL    HW284776   9.504   4.114   6.624  0.7165  0.3265  0.0045
26314SOL     OW84777   1.091   1.726  10.161 -0.3617  0.1565 -0.0345
26314SOL    HW184778   1.170   1.760  10.121 -1.5037  0.2593 -2.3860
26314SOL    HW284779   1.020   1.751  10.101 -1.6443 -3.7171 -0.4454
26315SOL     OW84780   1.310   4.182   4.907  0.5537 -0.0756 -0.2364
26315SOL    HW184781   1.258   4.248   4.955 -0.2332 -1.4505  0.8976
26315SOL    HW284782   1.252   4.106   4.904  1.3104 -0.6045 -1.8445
26316SOL     OW84783   0.273   9.914   3.560  0.0396  0.0114  0.6810
26316SOL    HW184784   0.341   9.861   3.602  0.6934  0.7424  0.5611
26316SOL    HW284785   0.240   9.972   3.629 -1.6314 -1.4255  1.1727
26317SOL     OW84786   0.215   7.811   9.112 -0.2897  0.0924  0.2096
26317SOL    HW184787   0.121   7.792   9.121 -0.2845 -0.1236 -0.1870
26317SOL    HW284788   0.249   7.739   9.060 -0.4637  1.6660 -2.2535
26318SOL     OW84789   5.389   3.502   4.632  0.1462  1.2284  0.1496
26318SOL    HW184790   5.468   3.491   4.683  0.4551  0.8243 -0.4124
26318SOL    HW284791   5.341   3.420   4.642  0.7043  0.7329 -1.0412
26319SOL     OW84792   2.023   0.980   4.638 -0.4380  0.1992 -0.3733
26319SOL    HW184793   2.103   0.927   4.635 -0.5084  0.1102 -2.8902
26319SOL    HW284794   2.052   1.064   4.672  0.3271 -0.4083  0.5349
26320SOL     OW84795   7.356   3.080   9.379  0.2204  0.5192 -0.1848
26320SOL    HW184796   7.326   3.166   9.352  1.5160  1.4043  1.0042
26320SOL    HW284797   7.279   3.037   9.416 -0.1107  1.8146  0.6828
26321SOL     OW84798   3.468   0.059   9.887  0.6364  0.1554  0.0358
26321SOL    HW184799   3.538   0.100   9.938  0.7579 -0.2700  0.2183
26321SOL    HW284800   3.512  -0.013   9.840  0.4527  0.3030 -0.3681
26322SOL     OW84801  10.697   1.938   0.453  0.1285 -0.0587  0.8660
26322SOL    HW184802  10.646   1.867   0.492 -0.1398 -0.1704  0.3191
26322SOL    HW284803  10.788   1.909   0.459 -0.0552 -0.9397 -0.3275
26323SOL     OW84804  10.082   9.259   0.830  0.1438 -0.1461  0.6368
26323SOL    HW184805  10.097   9.329   0.766  1.1666 -0.1285  0.8709
26323SOL    HW284806   9.993   9.272   0.861  0.5604  1.5191  1.2244
26324SOL     OW84807   9.625   0.288   5.771  0.1977 -0.5737 -0.2629
26324SOL    HW184808   9.638   0.193   5.777 -0.7185 -0.6834  0.1871
26324SOL    HW284809   9.673   0.314   5.693  0.0405 -1.4904 -0.6793
26325SOL     OW84810   4.184   1.245   5.657  0.2615 -0.2088 -0.0275
26325SOL    HW184811   4.279   1.254   5.657  0.0850  2.6838  0.5633
26325SOL    HW284812   4.155   1.297   5.732 -1.8201 -0.6489 -0.4647
26326SOL     OW84813   2.210   2.059   9.426  0.1803  0.2208 -0.1754
26326SOL    HW184814   2.200   2.150   9.455  0.3675 -0.6194  2.8885
26326SOL    HW284815   2.238   2.066   9.335  0.3931  3.2352  0.0097
26327SOL     OW84816   0.994   3.862   0.559  1.3765  0.0559  0.0131
26327SOL    HW184817   1.041   3.838   0.479  0.1559  0.6543 -0.9274
26327SOL    HW284818   1.022   3.951   0.577 -0.0636  0.7893 -1.1254
26328SOL     OW84819   8.104   3.204  10.296  0.5874 -0.2286  0.2768
26328SOL    HW184820   8.033   3.254  10.338 -0.3626 -0.4701 -0.9666
26328SOL    HW284821   8.058   3.138  10.244  1.7106 -0.0687 -0.9588
26329SOL     OW84822   4.889   3.650   4.784 -0.4140  0.0469  0.3478
26329SOL    HW184823   4.968   3.596   4.785 -0.2712  0.2479 -0.0648
26329SOL    HW284824   4.825   3.600   4.835 -0.1891 -0.3679  0.2231
26330SOL     OW84825   1.473   9.441   6.079  0.0643  0.2177 -0.3365
26330SOL    HW184826   1.497   9.510   6.017 -2.3307 -1.1289 -3.0155
26330SOL    HW284827   1.405   9.480   6.134  0.0400  0.5350 -0.5928
26331SOL     OW84828   5.564   0.099   9.578  0.0036 -0.1666  0.1595
26331SOL    HW184829   5.557   0.057   9.492 -0.1615  0.0644  0.0586
26331SOL    HW284830   5.549   0.028   9.640 -0.4592 -0.2254 -0.0133
26332SOL     OW84831   7.548  10.592   8.484 -0.2242 -0.5875  0.1704
26332SOL    HW184832   7.629  10.600   8.433 -0.4473 -1.3297 -0.3147
26332SOL    HW284833   7.526  10.499   8.480 -1.4695 -0.2924 -0.2878
26333SOL     OW84834   9.691   0.641   1.038 -0.0811  0.2859 -0.3689
26333SOL    HW184835   9.605   0.599   1.045  0.1009 -0.2436 -1.1926
26333SOL    HW284836   9.739   0.587   0.975  1.8065 -1.0110  1.9711
26334SOL     OW84837   3.220   4.084   4.598  0.3536 -0.4298  0.5427
26334SOL    HW184838   3.135   4.118   4.571 -0.3256 -2.1641  0.4219
26334SOL    HW284839   3.282   4.153   4.573 -1.0123  1.0059  0.9295
26335SOL     OW84840   6.100   8.835   4.666 -0.1312  0.4471  0.3434
26335SOL    HW184841   6.110   8.779   4.589 -2.9817  0.9261 -0.5249
26335SOL    HW284842   6.081   8.774   4.737  0.8762  0.0922  0.3180
26336SOL     OW84843   9.505   3.541   9.471  0.0212 -0.3316 -0.3191
26336SOL    HW184844   9.556   3.603   9.523  1.5771  0.0590 -2.2096
26336SOL    HW284845   9.513   3.458   9.519  2.4902 -0.2800 -0.5155
26337SOL     OW84846   5.851   8.481  10.622  0.2986 -0.3370 -0.1817
26337SOL    HW184847   5.782   8.542  10.645  0.4144 -0.3716  0.2662
26337SOL    HW284848   5.811   8.421  10.559  0.2340  0.3008 -0.7581
26338SOL     OW84849   6.493   0.008   0.736 -0.5455  0.2000  0.1361
26338SOL    HW184850   6.524  -0.027   0.653 -0.2843 -0.2917  0.4414
26338SOL    HW284851   6.453   0.092   0.713 -0.5838  0.0089 -0.5003
26339SOL     OW84852   8.946   5.227   8.829 -0.5335 -0.3605  0.2262
26339SOL    HW184853   8.946   5.267   8.916 -0.6123  1.2328 -0.4727
26339SOL    HW284854   9.003   5.150   8.838 -0.9929 -0.5436  1.8124
26340SOL     OW84855   9.278   9.932   3.379 -0.2154  0.5167 -0.5095
26340SOL    HW184856   9.278   9.873   3.455  0.4834 -2.0152 -2.3507
26340SOL    HW284857   9.193   9.976   3.383 -1.4668 -1.7772  0.1630
26341SOL     OW84858   5.048   8.809   6.081  0.0139  0.7133  0.1264
26341SOL    HW184859   5.137   8.794   6.112 -0.5406  0.0862  1.4616
26341SOL    HW284860   5.051   8.782   5.989  0.6815 -1.4288  0.7196
26342SOL     OW84861   8.788   4.158   3.163 -0.8294 -0.3318  0.3839
26342SOL    HW184862   8.718   4.117   3.112 -0.2109  0.7382 -1.4028
26342SOL    HW284863   8.869   4.129   3.122 -0.3298  1.0877  0.3007
26343SOL     OW84864   8.976   2.558   9.123 -0.3140  0.0759 -0.3818
26343SOL    HW184865   8.981   2.539   9.216 -1.3652  0.2327 -0.2845
26343SOL    HW284866   9.013   2.481   9.080 -1.0039 -0.5460  0.1281
26344SOL     OW84867   0.132   2.680   5.292 -0.0700 -0.4751  0.4673
26344SOL    HW184868   0.040   2.677   5.318  0.1399  0.4662  1.3731
26344SOL    HW284869   0.133   2.735   5.214 -0.3182 -0.7707  0.2534
26345SOL     OW84870  10.044   5.637   3.348  0.2931 -0.9264 -0.0771
26345SOL    HW184871   9.997   5.569   3.301  0.6621 -0.5245 -1.0517
26345SOL    HW284872   9.988   5.657   3.424 -1.2231 -0.3259 -1.2974
26346SOL     OW84873   8.532   4.230   1.214 -0.0855  0.2496  0.3001
26346SOL    HW184874   8.578   4.281   1.282 -0.5487  0.8874  0.1460
26346SOL    HW284875   8.595   4.224   1.142 -0.9759  3.1620 -0.8811
26347SOL     OW84876   3.828   0.806   3.077 -0.4253 -0.2751  0.4499
26347SOL    HW184877   3.821   0.825   2.984 -1.3742 -1.1570  0.3247
26347SOL    HW284878   3.827   0.892   3.119 -0.4829  0.1118 -0.3273
26348SOL     OW84879   5.818   9.569   6.313 -0.3556 -0.1360  0.1330
26348SOL    HW184880   5.807   9.657   6.348 -1.2831 -0.2698  0.2031
26348SOL    HW284881   5.729   9.533   6.310 -0.1182 -0.6865 -0.8839
26349SOL     OW84882   0.084  10.377   5.558  0.0563  0.2876 -0.7346
26349SOL    HW184883   0.059  10.285   5.559 -2.1458  0.8404 -1.5055
26349SOL    HW284884   0.179  10.375   5.544  0.3739 -1.8741  1.0299
26350SOL     OW84885   7.536  10.051   5.247 -0.6033  0.3817 -0.1927
26350SOL    HW184886   7.563   9.969   5.288  0.0223  0.5832 -0.1839
26350SOL    HW284887   7.463  10.082   5.300 -0.8517 -0.1763 -0.2052
26351SOL     OW84888   9.845  10.691   3.283 -0.8864 -0.0463  0.0924
26351SOL    HW184889   9.825  10.597   3.281  0.1352 -0.2530 -0.9241
26351SOL    HW284890   9.908  10.700   3.355 -0.9092 -0.1469  0.1257
26352SOL     OW84891   7.678   9.853  10.228  0.7769  0.0220  0.4556
26352SOL    HW184892   7.716   9.938  10.248  0.1090  0.0678  1.6006
26352SOL    HW284893   7.695   9.799  10.305  0.9078 -0.7916 -0.1238
26353SOL     OW84894   3.223   8.045   3.252  0.5991  0.5250  0.1242
26353SOL    HW184895   3.264   8.129   3.275  0.2433  0.8847 -0.5484
26353SOL    HW284896   3.140   8.046   3.300 -0.0073  1.1451 -0.9104
26354SOL     OW84897   5.886   7.666   2.152 -0.0140  0.4211  0.0422
26354SOL    HW184898   5.966   7.619   2.175  0.1550  0.8368  0.3332
26354SOL    HW284899   5.911   7.721   2.078  0.4181  1.7378  1.1229
26355SOL     OW84900   1.873   0.188   5.586 -0.7305 -0.1735  0.4179
26355SOL    HW184901   1.845   0.202   5.496 -0.3852 -1.2359  0.1348
26355SOL    HW284902   1.959   0.146   5.579 -0.4192  0.2907  1.2484
26356SOL     OW84903   1.123   8.264  10.098 -0.4727  0.3013  0.4968
26356SOL    HW184904   1.105   8.339  10.156 -0.8598  1.0096 -0.5108
26356SOL    HW284905   1.051   8.204  10.115 -1.8113  1.4604 -0.7597
26357SOL     OW84906   6.654   0.134   3.208 -0.0307 -0.1617  0.0611
26357SOL    HW184907   6.693   0.054   3.244 -1.8233 -1.4775 -0.7944
26357SOL    HW284908   6.561   0.114   3.202 -0.5525  2.1047  0.0350
26358SOL     OW84909   0.526   8.559   9.705 -0.2314  0.8340 -0.2106
26358SOL    HW184910   0.557   8.519   9.787  2.8732  0.4673 -1.4481
26358SOL    HW284911   0.537   8.653   9.719 -1.3866  0.9150  0.3523
26359SOL     OW84912   7.957   7.535   4.399  0.0503  0.0383 -0.4576
26359SOL    HW184913   7.943   7.628   4.379 -1.0781 -0.0342 -0.0530
26359SOL    HW284914   8.005   7.536   4.482  0.2919  0.2614 -0.5979
26360SOL     OW84915   4.342   2.451   9.442  0.9981  0.0824  0.0691
26360SOL    HW184916   4.390   2.420   9.519 -1.3411  1.1215  2.1043
26360SOL    HW284917   4.301   2.532   9.471  0.1843  0.6332 -2.3844
26361SOL     OW84918   4.257   5.997   5.623  0.0028  0.4690 -0.1821
26361SOL    HW184919   4.186   6.058   5.604 -1.3430 -0.9685  0.0157
26361SOL    HW284920   4.281   5.961   5.538 -2.3974 -2.0562  0.0622
26362SOL     OW84921   7.877   3.313   8.319  0.2405  0.8025 -0.1652
26362SOL    HW184922   7.844   3.302   8.229  0.4528  0.4957 -0.2096
26362SOL    HW284923   7.864   3.227   8.359 -1.0055  1.2808  0.4979
26363SOL     OW84924   7.569   2.135   5.756 -0.4889  0.1154  0.0812
26363SOL    HW184925   7.584   2.078   5.832  1.5747 -0.5121 -0.7311
26363SOL    HW284926   7.645   2.121   5.700 -1.6201  1.0902 -1.7991
26364SOL     OW84927   0.860   8.577   3.359  0.3718  0.2455  0.7002
26364SOL    HW184928   0.775   8.564   3.316  1.3463 -0.5282 -1.0932
26364SOL    HW284929   0.864   8.672   3.374 -0.1951  0.4988 -0.5718
26365SOL     OW84930   5.025   5.448   9.359  0.2188 -0.1781  0.3512
26365SOL    HW184931   5.022   5.475   9.268  0.0714  1.6146  0.8402
26365SOL    HW284932   4.966   5.373   9.364  1.3893 -1.2834 -1.2849
26366SOL     OW84933   8.016   5.717   0.038 -0.7715 -0.2038 -0.3182
26366SOL    HW184934   7.989   5.661  -0.035  0.2471  0.6782 -1.3854
26366SOL    HW284935   7.968   5.799   0.024 -0.5398 -0.0175 -0.0228
26367SOL     OW84936   9.603   0.179   6.791  0.7289  0.3391 -0.0992
26367SOL    HW184937   9.541   0.108   6.808 -1.1875  1.1776 -2.8664
26367SOL    HW284938   9.684   0.134   6.767  0.3491 -0.8499  0.7278
26368SOL     OW84939   6.417   6.313   6.339 -0.5234 -0.1930 -0.1690
26368SOL    HW184940   6.372   6.368   6.403 -1.1072  0.5505 -1.1824
26368SOL    HW284941   6.417   6.365   6.259  0.7825 -0.8255 -0.6119
26369SOL     OW84942   9.934   6.736  10.656  0.2523  0.3432  0.0218
26369SOL    HW184943   9.879   6.669  10.615 -0.6728  1.3456 -0.4289
26369SOL    HW284944   9.971   6.785  10.582  2.4281 -0.7903  0.2792
26370SOL     OW84945   3.027   2.141   6.712 -0.4487  0.1636 -0.3069
26370SOL    HW184946   3.044   2.234   6.700  2.7566 -0.1350  1.0981
26370SOL    HW284947   3.035   2.104   6.624 -0.2504  1.0161 -0.6537
26371SOL     OW84948   1.819   8.884   2.796  0.1659  0.1002  0.3956
26371SOL    HW184949   1.768   8.808   2.823 -0.1108  0.5381  1.1453
26371SOL    HW284950   1.813   8.945   2.870  3.2641 -0.5162  1.2866
26372SOL     OW84951   8.894  10.545   9.657  0.0524 -0.1233 -0.0232
26372SOL    HW184952   8.800  10.533   9.646 -0.2375  0.2262  1.8252
26372SOL    HW284953   8.908  10.638   9.638  0.3911 -0.5716 -2.2834
26373SOL     OW84954   6.543  10.306   7.092 -0.0843 -0.0949 -0.4508
26373SOL    HW184955   6.600  10.267   7.026 -0.0982 -1.1921  0.1468
26373SOL    HW284956   6.503  10.231   7.136  1.1422  0.5061  1.8659
26374SOL     OW84957   5.122   5.375   3.974 -0.0769  0.2152 -0.1792
26374SOL    HW184958   5.038   5.360   3.931 -0.2593 -0.1636  0.2961
26374SOL    HW284959   5.136   5.469   3.969 -0.8495  0.3640  0.3223
26375SOL     OW84960   5.556   3.926   7.074 -0.6347  0.2176  0.2936
26375SOL    HW184961   5.478   3.877   7.100  0.7479 -1.3304  1.7757
26375SOL    HW284962   5.588   3.966   7.155  0.9192 -0.3960  0.0159
26376SOL     OW84963  10.339   1.208   6.470 -0.4996  0.4746 -0.2179
26376SOL    HW184964  10.276   1.146   6.432 -0.2658 -0.4414  0.8294
26376SOL    HW284965  10.294   1.242   6.547 -0.3024  0.9936 -0.3326
26377SOL     OW84966   4.853   5.239   9.373  0.5058 -0.6928  0.0900
26377SOL    HW184967   4.758   5.244   9.381  0.4577  1.0680 -0.8911
26377SOL    HW284968   4.881   5.185   9.447 -1.1557 -0.1248  1.1942
26378SOL     OW84969   2.818   5.137   3.903 -0.3415 -0.2568  0.3599
26378SOL    HW184970   2.867   5.070   3.856 -0.3058  0.4539 -0.6291
26378SOL    HW284971   2.726   5.120   3.881 -0.3764 -0.3105  0.5450
26379SOL     OW84972   1.745   5.130   9.655 -0.2256 -0.0488 -0.2035
26379SOL    HW184973   1.823   5.106   9.705 -0.8264  1.5162  1.6178
26379SOL    HW284974   1.736   5.061   9.589  1.7672 -1.1187  0.5690
26380SOL     OW84975   2.795  10.620   6.704 -0.3108  0.1187  0.2563
26380SOL    HW184976   2.796  10.689   6.638  0.3530  0.1425  0.2772
26380SOL    HW284977   2.705  10.616   6.735 -0.6648  0.0114 -0.7525
26381SOL     OW84978   1.108   3.105   7.208 -0.0217 -0.0293  0.0298
26381SOL    HW184979   1.088   3.168   7.277 -0.6460 -0.0818 -0.1041
26381SOL    HW284980   1.039   3.117   7.143  0.9853  0.5620 -0.9658
26382SOL     OW84981   7.170   0.871   6.390 -0.1398 -0.3117  0.3247
26382SOL    HW184982   7.255   0.862   6.348 -0.5130 -1.6255 -0.1801
26382SOL    HW284983   7.162   0.793   6.445 -1.3361 -0.5901 -0.2173
26383SOL     OW84984   5.601   7.130   0.250 -0.1946  0.0672 -1.2411
26383SOL    HW184985   5.546   7.164   0.321 -0.6981 -1.8102 -0.6710
26383SOL    HW284986   5.550   7.148   0.171 -0.2748  0.9439 -0.9984
26384SOL     OW84987   3.704   8.347   6.703 -0.4024 -0.1003 -0.1754
26384SOL    HW184988   3.689   8.254   6.723  2.1328 -0.3044  1.1335
26384SOL    HW284989   3.616   8.384   6.694 -1.5146 -2.2524  1.0501
26385SOL     OW84990   2.509   1.969   6.260  0.4588 -0.3529  0.2066
26385SOL    HW184991   2.434   1.988   6.316 -0.4159 -0.1816 -1.0043
26385SOL    HW284992   2.585   1.985   6.317 -0.3717  1.1164  0.9658
26386SOL     OW84993   4.493   3.914   9.184  0.2024 -0.3008 -0.2345
26386SOL    HW184994   4.497   3.827   9.143  2.5626 -1.3147  1.8985
26386SOL    HW284995   4.429   3.905   9.254  0.4429 -0.3299 -0.0171
26387SOL     OW84996   0.333   8.834   2.472  0.4040 -0.1977 -0.4812
26387SOL    HW184997   0.364   8.890   2.543 -0.5488  0.0921 -0.2828
26387SOL    HW284998   0.248   8.871   2.446  0.0627 -1.1506 -0.7959
26388SOL     OW84999   2.766   0.891   3.891 -0.2600  0.1244  0.3057
26388SOL    HW185000   2.711   0.813   3.882  0.6649 -0.3425 -2.2745
26388SOL    HW285001   2.855   0.856   3.900 -0.0434  0.8890  1.1889
26389SOL     OW85002   9.253   0.057   4.749 -0.0095  0.5710 -0.3189
26389SOL    HW185003   9.169   0.036   4.789  0.0507 -0.9694 -0.9493
26389SOL    HW285004   9.238   0.047   4.655  0.8983  0.2245 -0.4351
26390SOL     OW85005   6.170   9.932   7.566  0.0579  0.9022 -0.2031
26390SOL    HW185006   6.081   9.961   7.550 -0.9453 -0.8472  1.6769
26390SOL    HW285007   6.223  10.012   7.564 -1.7248  2.1328 -0.2518
26391SOL     OW85008   7.486   4.682   2.182  0.0527  0.1461  0.5387
26391SOL    HW185009   7.558   4.629   2.216  0.3385 -0.2526 -0.6510
26391SOL    HW285010   7.408   4.646   2.226  0.4584 -0.0364  1.1235
26392SOL     OW85011   5.329   7.406   0.627  0.0794 -0.6646  0.4407
26392SOL    HW185012   5.373   7.393   0.543  0.4164  2.2234  0.0682
26392SOL    HW285013   5.237   7.414   0.606  0.0761 -0.7000  0.4410
26393SOL     OW85014  10.244   1.974   1.589 -0.1678  0.0861 -0.2227
26393SOL    HW185015  10.201   2.057   1.569  2.1235  1.3580 -0.1871
26393SOL    HW285016  10.289   1.989   1.672  2.7648 -0.0796 -1.6254
26394SOL     OW85017   0.734   0.223   6.651 -0.5172  0.0666 -0.7190
26394SOL    HW185018   0.779   0.145   6.685 -0.0408 -0.4115 -2.3475
26394SOL    HW285019   0.642   0.208   6.672 -0.2190  0.0058  0.6932
26395SOL     OW85020   2.958   3.650   1.220 -0.3385 -0.0323  0.3213
26395SOL    HW185021   2.928   3.606   1.300 -0.2365  0.7148  0.7849
26395SOL    HW285022   2.986   3.579   1.163 -0.3849 -0.5842  0.9654
26396SOL     OW85023   4.589   8.812  10.248  0.7568 -0.0675 -0.4293
26396SOL    HW185024   4.676   8.808  10.208  1.0933  0.9564  0.1525
26396SOL    HW285025   4.537   8.865  10.186  0.4428 -0.9642 -0.9434
26397SOL     OW85026   9.508   3.752   9.057 -0.2908  0.5278  0.4057
26397SOL    HW185027   9.589   3.731   9.011 -0.4710 -1.8605  1.0465
26397SOL    HW285028   9.439   3.713   9.004 -0.8983  1.2725  0.6301
26398SOL     OW85029   4.844   7.915   9.674  0.1757  0.1618 -0.2325
26398SOL    HW185030   4.818   8.005   9.655  0.2482  0.2342  0.0133
26398SOL    HW285031   4.776   7.882   9.732  0.6492  0.3673  0.4485
26399SOL     OW85032   7.238   5.010   5.268  0.2446  0.1275  0.6189
26399SOL    HW185033   7.296   5.010   5.191 -1.6622  2.4997 -0.9660
26399SOL    HW285034   7.155   4.974   5.235 -0.1512 -0.2703  2.0062
26400SOL     OW85035   6.528   6.903   3.102 -0.3257 -0.1847  0.0511
26400SOL    HW185036   6.447   6.887   3.055  0.0851  0.2504 -0.8230
26400SOL    HW285037   6.589   6.837   3.068 -0.7943 -1.7801  2.0620
26401SOL     OW85038   3.275   3.537   7.472 -0.5486  0.2649  0.2585
26401SOL    HW185039   3.277   3.619   7.421 -0.1862  1.3004  1.8627
26401SOL    HW285040   3.364   3.527   7.505 -1.0731  0.3492  1.7640
26402SOL     OW85041   9.743   3.914   4.228 -0.4137 -0.1425  0.1403
26402SOL    HW185042   9.806   3.843   4.239 -0.9110 -0.9259 -1.7294
26402SOL    HW285043   9.788   3.978   4.173 -0.5779  0.2291  0.4270
26403SOL     OW85044  10.069  10.056   6.357  0.7640  0.1332 -0.4480
26403SOL    HW185045  10.024  10.080   6.276  0.3996  2.9158  0.4725
26403SOL    HW285046  10.000  10.051   6.422  1.4380  2.1405  0.5032
26404SOL     OW85047   5.110   4.304   6.960  0.0107 -0.5822  0.3516
26404SOL    HW185048   5.149   4.381   7.001 -0.4809  0.6903 -1.4447
26404SOL    HW285049   5.161   4.230   6.994  1.5645  0.6841  0.8934
26405SOL     OW85050   8.229   8.498  10.673 -0.2814 -0.8058  0.0141
26405SOL    HW185051   8.295   8.467  10.735  1.4696 -0.4972 -1.6122
26405SOL    HW285052   8.267   8.479  10.587 -2.4691 -0.8852 -0.9909
26406SOL     OW85053   9.327   6.151   3.954 -0.0962 -0.5881  0.3092
26406SOL    HW185054   9.284   6.149   4.039  0.5334  0.9957  0.6809
26406SOL    HW285055   9.305   6.236   3.917 -0.3270 -1.2341 -1.1097
26407SOL     OW85056   3.437   3.394   9.675 -0.1719 -0.5640 -0.0512
26407SOL    HW185057   3.427   3.301   9.694 -1.9286 -0.3642  0.2324
26407SOL    HW285058   3.350   3.422   9.647  1.0259  0.3625 -3.2431
26408SOL     OW85059   3.182   3.197   8.739  0.1543  0.1998  0.4368
26408SOL    HW185060   3.212   3.288   8.742 -0.9479  0.6259 -0.6997
26408SOL    HW285061   3.088   3.203   8.727  0.3338 -1.0486 -2.1609
26409SOL     OW85062   4.067   3.250   4.564 -0.5429 -0.1304  0.0239
26409SOL    HW185063   4.036   3.300   4.639 -2.4603  3.1817 -2.6695
26409SOL    HW285064   3.988   3.232   4.513  0.8456 -0.5558 -2.1309
26410SOL     OW85065   0.318   5.339   3.816 -0.1207  0.4107 -0.0575
26410SOL    HW185066   0.291   5.375   3.901  1.5132  0.0775  0.6493
26410SOL    HW285067   0.309   5.244   3.827  1.7322  0.2372  0.4154
26411SOL     OW85068  10.518   7.784  10.050  0.5098  0.4502  0.5008
26411SOL    HW185069  10.436   7.762  10.095 -1.3752  1.1599 -2.3154
26411SOL    HW285070  10.555   7.699  10.025 -0.6353  0.1342 -0.2094
26412SOL     OW85071   4.350   7.912   5.735  0.3253  0.0985 -0.2916
26412SOL    HW185072   4.364   7.958   5.818 -2.3807  0.1671  0.2266
26412SOL    HW285073   4.370   7.821   5.755 -0.1767  0.1326  0.4203
26413SOL     OW85074   7.946   0.062   2.173  0.2369  0.4994  0.2734
26413SOL    HW185075   8.003   0.133   2.143 -1.3442  0.9298 -1.9416
26413SOL    HW285076   8.004  -0.012   2.185  1.5256  1.4253 -0.0618
26414SOL     OW85077   8.328   9.518   3.059  0.2588  0.3822  0.0656
26414SOL    HW185078   8.339   9.498   2.966  1.0959  0.8556  0.0597
26414SOL    HW285079   8.233   9.526   3.070  0.0838 -0.7520 -0.5124
26415SOL     OW85080  10.132   2.235   9.558  0.2994 -0.0052  0.2448
26415SOL    HW185081  10.180   2.266   9.635  0.9945  2.3515 -1.0506
26415SOL    HW285082  10.061   2.298   9.546 -1.5378 -1.9056  0.5011
26416SOL     OW85083   3.754   6.944   4.026  0.4304 -0.1728 -0.7183
26416SOL    HW185084   3.773   7.022   3.974  0.3125 -1.1180 -2.2147
26416SOL    HW285085   3.827   6.939   4.089  0.9970  0.5417 -1.3031
26417SOL     OW85086   5.122   3.634   8.464 -0.4511  0.0919 -0.2224
26417SOL    HW185087   5.196   3.586   8.500  0.7674  1.7302 -0.4341
26417SOL    HW285088   5.102   3.589   8.382 -0.8990 -1.4573  0.7079
26418SOL     OW85089   3.418   6.842   6.635  0.2207 -0.7062 -0.0020
26418SOL    HW185090   3.513   6.829   6.640  0.2309 -0.1593  2.2429
26418SOL    HW285091   3.380   6.766   6.678 -0.3650 -0.7406 -0.5549
26419SOL     OW85092   3.447   4.016   9.682 -0.1741 -0.8786 -0.2134
26419SOL    HW185093   3.461   4.009   9.588  0.3814  0.4602 -0.2655
26419SOL    HW285094   3.484   4.102   9.705 -1.0615 -0.8156  1.0792
26420SOL     OW85095   9.650   1.646   0.429 -0.6575  0.1138  0.1304
26420SOL    HW185096   9.683   1.722   0.380 -0.5096  1.3530  2.0413
26420SOL    HW285097   9.556   1.661   0.436 -0.6956 -0.1191  0.1078
26421SOL     OW85098   4.069   1.238   4.645  0.3298 -0.0472 -0.4992
26421SOL    HW185099   4.083   1.185   4.567  0.2995 -0.5893 -0.1356
26421SOL    HW285100   3.984   1.280   4.631  0.2642 -0.2465 -0.6925
26422SOL     OW85101   5.173   8.946   8.264 -0.5671  0.6327 -0.0366
26422SOL    HW185102   5.080   8.951   8.240 -0.3089  1.1817 -0.9861
26422SOL    HW285103   5.206   8.870   8.216 -0.1673  1.4246 -1.0648
26423SOL     OW85104   3.441   6.033   9.874 -0.2127 -0.2603  0.0277
26423SOL    HW185105   3.390   5.970   9.824 -0.8490  2.3056 -2.8704
26423SOL    HW285106   3.512   6.058   9.815 -0.0672  1.7617  0.9758
26424SOL     OW85107   4.944   2.468   8.706  0.3049 -0.4584  0.1343
26424SOL    HW185108   4.873   2.491   8.766  0.7482  0.0595  0.4660
26424SOL    HW285109   4.917   2.505   8.622  0.9122  1.1589  0.6166
26425SOL     OW85110   7.465   8.115   2.776  0.0283 -0.1867  0.1867
26425SOL    HW185111   7.471   8.065   2.857  2.6745  0.9947  0.8552
26425SOL    HW285112   7.483   8.052   2.707 -1.5895 -1.0681  0.5251
26426SOL     OW85113   5.129   4.889  10.158 -0.7036  0.1492  0.0061
26426SOL    HW185114   5.055   4.924  10.108 -0.3813 -0.3366 -0.8267
26426SOL    HW285115   5.136   4.797  10.131  0.3035  0.2303 -0.0639
26427SOL     OW85116   6.270   8.866   8.951  0.0240  0.2353 -0.8635
26427SOL    HW185117   6.309   8.886   8.866  0.2135  0.1620 -0.7938
26427SOL    HW285118   6.336   8.895   9.015  0.4639 -0.9398 -0.7629
26428SOL     OW85119   2.871   0.033   7.687 -0.0098  0.1261  0.0388
26428SOL    HW185120   2.905  -0.009   7.608  0.0829  1.4543 -0.6428
26428SOL    HW285121   2.787  -0.011   7.703 -1.1649  1.3733 -2.1417
26429SOL     OW85122   4.271   8.816   1.405 -0.4352  0.0233 -0.0542
26429SOL    HW185123   4.286   8.899   1.359 -1.8356  0.6195  0.4860
26429SOL    HW285124   4.282   8.749   1.339 -0.3881  0.7212 -0.7679
26430SOL     OW85125   4.361   0.130   5.012  0.2499 -0.4779 -0.1079
26430SOL    HW185126   4.317   0.094   5.089  1.9050  0.7091  1.4623
26430SOL    HW285127   4.366   0.056   4.951 -0.2051 -1.7283  1.3212
26431SOL     OW85128   8.524   5.586   5.301  0.1318 -0.3586  0.3192
26431SOL    HW185129   8.450   5.647   5.304  0.7098  0.4123 -0.3972
26431SOL    HW285130   8.520   5.549   5.213 -1.2741 -2.7702  1.3024
26432SOL     OW85131   5.172   8.852   1.036 -0.2791 -0.0483  0.2585
26432SOL    HW185132   5.146   8.942   1.057 -0.3506  0.0397 -0.1885
26432SOL    HW285133   5.264   8.847   1.062  0.0634  0.5137 -0.7795
26433SOL     OW85134   8.711   0.722   3.821 -0.0970  0.0087 -0.4423
26433SOL    HW185135   8.696   0.759   3.908  0.1339  1.1076 -0.8603
26433SOL    HW285136   8.694   0.628   3.832 -0.8241  0.2456  0.6066
26434SOL     OW85137  10.038   2.671   9.678  0.3827  0.4597  0.0606
26434SOL    HW185138   9.987   2.596   9.648 -0.0744  1.2184 -1.1799
26434SOL    HW285139  10.126   2.637   9.693  0.0485 -0.4305  0.0469
26435SOL     OW85140  10.618   5.377   3.083 -0.2386 -0.3070 -0.6905
26435SOL    HW185141  10.587   5.344   3.167 -1.9556  2.2316 -0.2070
26435SOL    HW285142  10.693   5.322   3.061  0.3655 -0.9731  2.5648
26436SOL     OW85143   4.791   4.561   7.641  0.4733 -0.0022  0.3644
26436SOL    HW185144   4.737   4.603   7.708  0.7202  1.1160 -0.1034
26436SOL    HW285145   4.797   4.626   7.571 -0.2173 -1.3417 -0.9964
26437SOL     OW85146   2.756   0.143   7.137  0.0668  0.2988  0.1596
26437SOL    HW185147   2.691   0.203   7.101  0.5573 -0.7410 -2.6907
26437SOL    HW285148   2.753   0.067   7.080  4.4291  0.5857 -0.7909
26438SOL     OW85149   6.065   8.513   4.639  0.3925 -0.1673 -0.6460
26438SOL    HW185150   6.039   8.424   4.618 -0.6653 -0.1725  0.5369
26438SOL    HW285151   6.007   8.539   4.711  0.5971  1.5152 -1.0342
26439SOL     OW85152   2.296   9.135  10.268 -0.4899  0.5121 -0.2601
26439SOL    HW185153   2.377   9.119  10.220  0.3981  0.4022  1.2115
26439SOL    HW285154   2.229   9.087  10.219  0.9691 -2.4844  0.4508
26440SOL     OW85155   6.970   7.349   9.032 -0.6310  0.0889 -0.3581
26440SOL    HW185156   7.040   7.288   9.053 -0.0288  0.9347  0.1795
26440SOL    HW285157   6.907   7.298   8.981 -0.2922 -1.0414  0.3263
26441SOL     OW85158   1.526   8.028   3.037  0.0550 -0.5542 -0.1679
26441SOL    HW185159   1.605   8.046   3.088 -0.0570 -0.7142  0.0638
26441SOL    HW285160   1.554   8.036   2.946  0.2653 -0.3055 -0.0831
26442SOL     OW85161   7.215   7.121   5.706 -0.6092  0.3541  0.1050
26442SOL    HW185162   7.240   7.109   5.798 -0.3442 -2.4544 -0.2489
26442SOL    HW285163   7.119   7.128   5.708 -0.8446 -2.1198  0.4775
26443SOL     OW85164   8.065   7.297   0.525 -0.2047 -0.1209 -0.2607
26443SOL    HW185165   8.021   7.292   0.440 -0.7538  1.1891 -0.0886
26443SOL    HW285166   8.121   7.374   0.518 -0.4736  0.1685  0.6430
26444SOL     OW85167   2.659   3.126   9.733  0.2358  0.4496 -0.1504
26444SOL    HW185168   2.681   3.217   9.710 -0.7343  0.5598 -0.6795
26444SOL    HW285169   2.732   3.075   9.697 -0.2191  0.8333 -1.6917
26445SOL     OW85170   7.004   7.111   2.864 -0.0598  0.3053 -0.4970
26445SOL    HW185171   7.099   7.103   2.876 -0.1604 -1.2848 -0.4960
26445SOL    HW285172   6.988   7.072   2.779 -0.8856 -0.9774  0.2235
26446SOL     OW85173   7.641   6.846   8.815  0.1340  0.3520  0.0599
26446SOL    HW185174   7.615   6.769   8.764 -2.3154  1.1985 -0.0797
26446SOL    HW285175   7.699   6.895   8.757  0.6505 -0.6843 -0.3369
26447SOL     OW85176   4.607   4.150   1.329 -0.3276 -0.4416 -0.3813
26447SOL    HW185177   4.576   4.089   1.396 -2.8399 -0.4694 -1.4572
26447SOL    HW285178   4.529   4.172   1.279  1.4755 -0.6694 -3.5548
26448SOL     OW85179   0.297   3.494   5.559  0.2071 -0.8202  0.2886
26448SOL    HW185180   0.332   3.427   5.619  0.1525 -1.3996 -0.3099
26448SOL    HW285181   0.369   3.556   5.548  0.2905 -0.8264  0.7808
26449SOL     OW85182   4.255   1.920   1.012 -0.5558  1.1033 -0.1452
26449SOL    HW185183   4.321   1.983   1.041 -0.0922  0.7608 -0.4273
26449SOL    HW285184   4.255   1.853   1.081 -1.1102  1.4449  0.1978
26450SOL     OW85185  10.019   0.291   5.634 -0.0031 -0.2033  0.5953
26450SOL    HW185186  10.098   0.314   5.683  0.1849  1.5864 -0.4405
26450SOL    HW285187   9.992   0.207   5.669  2.2751 -0.7830  1.1019
26451SOL     OW85188   3.228   2.789  10.627  0.3379  0.6451 -0.2249
26451SOL    HW185189   3.264   2.862  10.677  0.2536  0.7974 -0.3842
26451SOL    HW285190   3.302   2.730  10.614  0.4207  0.7320 -0.1498
26452SOL     OW85191   8.523   3.645   4.830 -0.3396  0.3497 -0.6907
26452SOL    HW185192   8.528   3.721   4.772 -0.7212 -0.5174 -1.9101
26452SOL    HW285193   8.518   3.682   4.918  1.0080  1.6943 -1.1365
26453SOL     OW85194   2.531   0.603   4.332 -0.3630  0.5978  0.3705
26453SOL    HW185195   2.449   0.573   4.371 -1.2223  0.2324 -1.5775
26453SOL    HW285196   2.511   0.612   4.239  1.7086  0.9132 -0.0935
26454SOL     OW85197   6.530   0.658   4.560 -0.1414  0.1951 -0.4587
26454SOL    HW185198   6.608   0.655   4.505  0.5277  1.9346  0.3178
26454SOL    HW285199   6.458   0.668   4.498  0.5845  1.9473 -1.0757
26455SOL     OW85200   1.124   4.682   0.495  0.3900  0.5000 -0.3671
26455SOL    HW185201   1.085   4.595   0.509  2.0197 -0.0460  1.1773
26455SOL    HW285202   1.097   4.733   0.571  1.2730  0.6233 -0.1217
26456SOL     OW85203   9.834   2.640  10.305 -0.0331  0.2360 -0.4449
26456SOL    HW185204   9.882   2.723  10.298 -0.8869  0.8410  0.6062
26456SOL    HW285205   9.749   2.664  10.340 -0.9403 -0.8961 -1.7680
26457SOL     OW85206   9.464   0.756   9.959  0.0664 -0.4171 -0.6605
26457SOL    HW185207   9.486   0.804  10.039  0.3667 -1.2015 -0.2635
26457SOL    HW285208   9.387   0.800   9.925 -0.6847 -0.6987  0.6105
26458SOL     OW85209   8.099   4.279   8.811  0.6081  0.5977 -0.1847
26458SOL    HW185210   8.163   4.245   8.748  0.8250 -0.4724  0.5964
26458SOL    HW285211   8.024   4.220   8.802  0.7307  0.2943  0.7156
26459SOL     OW85212   9.777   9.964   6.436 -0.1425  0.7587  0.4190
26459SOL    HW185213   9.817   9.923   6.359  0.9415 -0.2011  1.4621
26459SOL    HW285214   9.814   9.917   6.510  0.9438  3.4277  1.6953
26460SOL     OW85215   4.768   2.223   9.210  0.1612  0.0065 -0.1997
26460SOL    HW185216   4.778   2.131   9.186  1.8296  0.5704 -1.8237
26460SOL    HW285217   4.681   2.247   9.180  0.5180 -0.5064 -1.6898
26461SOL     OW85218   3.094   8.782   1.005 -0.1405  0.0630  0.0212
26461SOL    HW185219   3.086   8.721   1.078  4.0829  2.2100  2.6711
26461SOL    HW285220   3.159   8.742   0.947  0.4175  0.7175  0.1932
26462SOL     OW85221   1.585   3.126   3.646  0.1279 -0.0250 -0.0764
26462SOL    HW185222   1.567   3.078   3.565 -0.2902 -1.3851  0.7785
26462SOL    HW285223   1.540   3.075   3.714 -0.9157  1.9824  0.8092
26463SOL     OW85224   6.912   0.163   4.443 -0.5055  0.1273  0.0720
26463SOL    HW185225   6.971   0.237   4.452 -2.4383  1.6154  1.3052
26463SOL    HW285226   6.866   0.158   4.527 -2.5076 -0.5884 -0.9946
26464SOL     OW85227   1.300   0.191   0.641 -0.1113  0.2041 -0.5223
26464SOL    HW185228   1.359   0.265   0.652 -1.2928  1.3918 -1.8085
26464SOL    HW285229   1.357   0.117   0.621  1.1002  0.7041  0.9442
26465SOL     OW85230   7.769   1.655   2.316  0.0939 -0.3492 -0.2466
26465SOL    HW185231   7.799   1.644   2.407 -0.1507 -1.6205 -0.2935
26465SOL    HW285232   7.850   1.657   2.265  0.2033 -1.1211 -0.1239
26466SOL     OW85233   5.014   8.442   4.348  0.3193 -0.0222 -0.0792
26466SOL    HW185234   4.965   8.433   4.267  1.3094 -0.7565 -0.6272
26466SOL    HW285235   5.106   8.436   4.321  0.7527  1.6305  0.8622
26467SOL     OW85236   3.767   3.626   9.738  0.1348 -0.4255  0.2294
26467SOL    HW185237   3.691   3.680   9.758  0.7275  1.0689 -1.3344
26467SOL    HW285238   3.841   3.675   9.774  0.8050  0.4797 -2.2338
26468SOL     OW85239   8.646   1.995   3.052 -1.1249 -0.1543 -0.6109
26468SOL    HW185240   8.677   1.939   3.124 -2.6689 -0.6827 -0.3053
26468SOL    HW285241   8.556   2.017   3.077 -1.1993  0.8389 -1.7045
26469SOL     OW85242   7.504   3.134   1.916  0.0149 -0.6593  0.0410
26469SOL    HW185243   7.420   3.090   1.902  0.4285 -0.9012 -1.8503
26469SOL    HW285244   7.481   3.225   1.931 -0.6923 -1.0573  1.6957
26470SOL     OW85245   2.106   1.791   7.728  0.0043  0.6088  0.6092
26470SOL    HW185246   2.110   1.744   7.811  1.3096 -0.8839 -0.2357
26470SOL    HW285247   2.151   1.874   7.746 -0.8962  0.8880  1.7050
26471SOL     OW85248   1.945   2.777   3.911 -0.5436 -0.5354 -0.2575
26471SOL    HW185249   1.893   2.734   3.979 -1.5942 -1.2878 -1.4779
26471SOL    HW285250   1.887   2.844   3.875  0.6411  1.1116  0.7582
26472SOL     OW85251   0.341   3.283   9.832 -0.3393 -0.2272 -0.5451
26472SOL    HW185252   0.258   3.242   9.808 -0.8128 -0.2315  0.9484
26472SOL    HW285253   0.393   3.212   9.870 -0.9505  0.3576  1.5444
26473SOL     OW85254   6.977   4.973  10.480  0.4754  0.2158  0.4805
26473SOL    HW185255   6.923   4.944  10.554  0.6967  1.1356  1.0271
26473SOL    HW285256   7.003   4.892  10.436 -2.2980 -0.2441 -0.5134
26474SOL     OW85257   6.182   1.226   7.197 -0.0623 -0.5114 -0.7914
26474SOL    HW185258   6.250   1.253   7.135  0.1355 -0.9268 -0.7643
26474SOL    HW285259   6.153   1.307   7.238  0.3352 -0.3128 -0.8932
26475SOL     OW85260   6.081   7.609   5.797 -0.1181 -0.6215 -0.5136
26475SOL    HW185261   6.060   7.633   5.707 -0.8979  0.5225 -0.0439
26475SOL    HW285262   5.999   7.618   5.845  0.7378  1.0277  0.7647
26476SOL     OW85263   1.478   6.016   8.533  0.0351 -0.3573 -0.1454
26476SOL    HW185264   1.494   6.042   8.443 -0.2287 -1.4189 -0.5073
26476SOL    HW285265   1.505   5.924   8.538  2.0756  0.2414  1.4062
26477SOL     OW85266   7.425   8.736   5.927  0.0952 -0.2683  0.5484
26477SOL    HW185267   7.480   8.697   5.860 -2.7469 -0.7834 -1.6760
26477SOL    HW285268   7.449   8.829   5.927  0.0937 -0.2317 -1.3059
26478SOL     OW85269   9.329   1.201   2.902 -0.2317 -0.7468 -0.4820
26478SOL    HW185270   9.337   1.269   2.968  1.8040  0.6188 -1.9950
26478SOL    HW285271   9.363   1.122   2.944 -1.7480 -0.6837  0.9872
26479SOL     OW85272   0.834   2.519   0.310  0.1568  0.4566 -0.2946
26479SOL    HW185273   0.836   2.594   0.369 -0.4694 -1.5704  2.5229
26479SOL    HW285274   0.918   2.474   0.327 -0.4516 -0.6667 -0.1649
26480SOL     OW85275   0.210   0.474   0.738  0.1952  0.0217 -0.1017
26480SOL    HW185276   0.282   0.421   0.706  1.0755  0.4608  1.0885
26480SOL    HW285277   0.222   0.559   0.696 -1.3555 -0.6972 -2.2030
26481SOL     OW85278   1.517   2.031   7.793 -0.2279  0.0545  0.4055
26481SOL    HW185279   1.436   2.073   7.763 -1.1680  0.4588  3.1874
26481SOL    HW285280   1.487   1.958   7.848  1.3670 -1.7864 -1.0280
26482SOL     OW85281   4.220   3.125   8.646 -0.7963 -0.0386 -0.6298
26482SOL    HW185282   4.187   3.078   8.722 -1.3604  1.9485  0.4168
26482SOL    HW285283   4.144   3.174   8.614  0.8277  4.5700  1.7590
26483SOL     OW85284   8.614   7.976   1.796  0.4510 -0.0299 -0.1959
26483SOL    HW185285   8.620   7.881   1.798 -0.5127 -0.1194 -0.7722
26483SOL    HW285286   8.694   8.007   1.838 -0.0218 -1.1004  1.5669
26484SOL     OW85287   9.625   3.922   7.837 -0.4779 -0.1965  0.2391
26484SOL    HW185288   9.718   3.932   7.857 -0.1873 -0.0982 -1.0570
26484SOL    HW285289   9.619   3.839   7.790 -1.3332 -1.1124  1.8634
26485SOL     OW85290   6.262   7.733   2.891  0.2957  0.4310 -0.0368
26485SOL    HW185291   6.187   7.790   2.877 -1.8660 -2.2341 -0.2440
26485SOL    HW285292   6.283   7.744   2.984  2.2432  3.9856 -0.7473
26486SOL     OW85293   7.124   4.317   7.515  0.1246 -0.0510 -0.0877
26486SOL    HW185294   7.101   4.346   7.426  1.7058  2.4322  0.2229
26486SOL    HW285295   7.144   4.224   7.505 -1.5982 -0.2855 -1.9393
26487SOL     OW85296   1.310   2.247   9.879  0.1336 -0.0104  0.2136
26487SOL    HW185297   1.347   2.186   9.943  0.3140  0.4924  0.6023
26487SOL    HW285298   1.270   2.316   9.933 -1.0539 -0.3537 -0.2038
26488SOL     OW85299   7.973   0.721   0.780 -0.0867 -0.2489  0.2966
26488SOL    HW185300   7.953   0.634   0.814 -2.5593 -0.4212 -1.3399
26488SOL    HW285301   8.011   0.705   0.693  0.9100  0.3070  0.6057
26489SOL     OW85302   0.245   5.004   7.519 -0.0562 -0.7445 -0.0732
26489SOL    HW185303   0.240   4.984   7.612 -1.0551 -3.6037 -0.6465
26489SOL    HW285304   0.336   5.032   7.505 -0.2436  1.1272  1.9223
26490SOL     OW85305   6.522   8.942   5.612  0.3808 -0.5639 -0.3296
26490SOL    HW185306   6.447   8.936   5.552 -0.2690 -1.0331  0.5027
26490SOL    HW285307   6.592   8.894   5.568  1.0863  2.0412 -2.3396
26491SOL     OW85308   8.248   0.810   4.868  0.3086 -0.0711  0.1036
26491SOL    HW185309   8.296   0.866   4.928  0.6472 -1.6302  1.3277
26491SOL    HW285310   8.185   0.764   4.923 -2.0817  1.2517 -1.3088
26492SOL     OW85311   6.384   2.652   5.780  0.3433  0.1690  0.4678
26492SOL    HW185312   6.359   2.588   5.846 -0.8350 -0.3419 -0.4196
26492SOL    HW285313   6.453   2.704   5.820 -0.6610  0.1819  2.2685
26493SOL     OW85314   0.871  10.613   7.368  0.4511 -0.6937 -0.0275
26493SOL    HW185315   0.967  10.613   7.369  0.5129 -0.6918 -2.0791
26493SOL    HW285316   0.847  10.521   7.375  0.8283 -1.2889 -4.0196
26494SOL     OW85317   2.741   8.898   0.066 -0.2089 -0.0881 -0.1465
26494SOL    HW185318   2.736   8.925   0.157  0.3112  1.5912 -0.5776
26494SOL    HW285319   2.749   8.803   0.069  0.9277  0.0238  1.5905
26495SOL     OW85320   6.368   0.799  10.373 -0.4009  0.1508  0.3319
26495SOL    HW185321   6.319   0.822  10.294 -1.1140 -3.7887 -0.5923
26495SOL    HW285322   6.452   0.766  10.340  0.6688  1.5464  1.5304
26496SOL     OW85323   1.989   2.923   4.282 -0.3715  0.0604  0.0649
26496SOL    HW185324   2.036   2.849   4.320 -0.5476  0.0290  0.2222
26496SOL    HW285325   2.029   2.935   4.196 -1.4357 -1.2483 -0.6355
26497SOL     OW85326   4.542   0.964   5.106  0.4626 -0.2083 -0.3149
26497SOL    HW185327   4.613   1.003   5.158 -1.8616  1.2071  2.0509
26497SOL    HW285328   4.506   1.037   5.056  0.3064 -0.7877 -1.0604
26498SOL     OW85329   7.265   3.550   6.220  0.4804  0.1104 -0.5640
26498SOL    HW185330   7.191   3.598   6.181  0.8947  0.0754 -1.4074
26498SOL    HW285331   7.224   3.475   6.263 -0.1441  0.9989  0.4625
26499SOL     OW85332   9.413   3.090   8.564 -0.1700  0.1389  0.5819
26499SOL    HW185333   9.497   3.045   8.569  0.8504  1.8202 -0.5925
26499SOL    HW285334   9.366   3.062   8.643  1.3398 -1.0817  1.0943
26500SOL     OW85335   9.911   9.530   6.393 -0.1092 -0.0644  0.0907
26500SOL    HW185336   9.857   9.530   6.472 -0.0191 -0.3243  0.1517
26500SOL    HW285337   9.969   9.455   6.403  0.0839  0.0577 -0.0990
26501SOL     OW85338  10.121   9.597   3.670  0.2706 -0.0365  0.5250
26501SOL    HW185339  10.184   9.586   3.599  1.4687  1.2253  1.3664
26501SOL    HW285340  10.094   9.507   3.691 -0.2436 -0.4404 -1.5874
26502SOL     OW85341   1.971   0.177   0.799 -0.1360 -0.1949 -0.9124
26502SOL    HW185342   2.007   0.232   0.731  1.2010 -0.9682 -0.8584
26502SOL    HW285343   1.914   0.235   0.850  0.6499  0.9302 -1.2956
26503SOL     OW85344   3.560   2.892   0.986  0.2548  0.1246 -0.0601
26503SOL    HW185345   3.650   2.914   0.966  0.2356 -0.5061 -0.9048
26503SOL    HW285346   3.565   2.834   1.062  0.7046 -1.3357 -1.1781
26504SOL     OW85347   9.663   1.740   7.618 -0.3780 -0.1065  0.2896
26504SOL    HW185348   9.605   1.694   7.679 -0.7213  0.3549  0.3197
26504SOL    HW285349   9.609   1.811   7.584 -0.4737 -0.8742 -1.2277
26505SOL     OW85350   0.016   9.641   0.864 -0.3757  0.1843 -0.0344
26505SOL    HW185351   0.073   9.690   0.804 -0.2846 -0.5644 -0.5631
26505SOL    HW285352   0.033   9.680   0.950  2.3028 -1.2045  0.1429
26506SOL     OW85353   1.533   6.241   0.484  0.8235 -0.0208 -0.4856
26506SOL    HW185354   1.471   6.297   0.531  0.7530 -1.3219  1.0502
26506SOL    HW285355   1.559   6.293   0.408 -3.5281 -0.0537 -2.3124
26507SOL     OW85356   8.207   7.027  10.380 -0.6021  0.0678 -0.0770
26507SOL    HW185357   8.298   7.048  10.401 -0.5055  2.2302 -2.1175
26507SOL    HW285358   8.199   6.933  10.396  2.5792 -0.6170 -1.6335
26508SOL     OW85359   9.693   9.927   8.578  0.0203 -0.2676  0.2024
26508SOL    HW185360   9.743   9.886   8.649  2.1019 -1.0091 -1.5884
26508SOL    HW285361   9.756   9.983   8.533 -1.1710 -0.0089 -1.2172
26509SOL     OW85362   1.472   2.954   4.245 -0.5123  0.0716  0.5912
26509SOL    HW185363   1.383   2.931   4.274 -1.0083  0.1533 -0.7882
26509SOL    HW285364   1.467   2.950   4.149  0.7134  1.0804  0.4701
26510SOL     OW85365   3.673   8.979   8.698  0.0554  0.2997  0.1726
26510SOL    HW185366   3.675   9.074   8.709 -0.6224  0.4726 -1.0451
26510SOL    HW285367   3.744   8.960   8.637  1.6233 -0.2602  2.0706
26511SOL     OW85368   3.577   1.596   3.794 -0.6173  0.5120  0.5478
26511SOL    HW185369   3.651   1.629   3.845 -0.0890  0.4728 -0.1703
26511SOL    HW285370   3.613   1.584   3.706 -1.3679  0.0769  0.2944
26512SOL     OW85371   3.328   9.087   5.625 -0.4126  0.1874 -0.4859
26512SOL    HW185372   3.406   9.139   5.646 -1.0548  0.9851  0.0035
26512SOL    HW285373   3.313   9.103   5.532  0.7475 -1.0077 -0.8984
26513SOL     OW85374   1.526   3.999   4.935 -0.8747  0.2317 -0.6573
26513SOL    HW185375   1.468   4.062   4.893 -1.1628 -0.2780 -1.0364
26513SOL    HW285376   1.474   3.962   5.007 -0.6800  0.4812 -0.3870
26514SOL     OW85377  10.720   7.970   1.209 -0.0976 -0.1999  0.0425
26514SOL    HW185378  10.629   7.948   1.230 -0.3831 -0.3395 -1.2650
26514SOL    HW285379  10.736   7.928   1.124  0.3402  2.0364 -1.0403
26515SOL     OW85380   4.492   1.483   3.542 -0.1580  0.2774  0.1318
26515SOL    HW185381   4.467   1.391   3.533 -0.0848  0.1306  1.2712
26515SOL    HW285382   4.425   1.531   3.494  0.3606 -0.4153 -1.3376
26516SOL     OW85383   2.486   2.036   2.591 -0.1513 -0.0696  0.0511
26516SOL    HW185384   2.578   2.028   2.614 -0.3732 -0.1443  0.9501
26516SOL    HW285385   2.440   2.034   2.675 -0.9054  1.0329 -0.3157
26517SOL     OW85386   4.029   1.321   4.118 -0.3150 -0.0781 -0.4721
26517SOL    HW185387   4.095   1.269   4.072 -1.3352  1.4501 -4.0904
26517SOL    HW285388   4.071   1.406   4.132 -0.7038  0.1250 -0.5317
26518SOL     OW85389   0.978   1.396   5.490  0.1044  0.6434  0.1024
26518SOL    HW185390   1.038   1.456   5.534  1.0593  1.0648 -1.6739
26518SOL    HW285391   1.029   1.359   5.418 -1.2386 -0.3728 -0.3711
26519SOL     OW85392   2.316   4.247   1.095  0.2676  0.2768  0.2354
26519SOL    HW185393   2.299   4.326   1.044  1.4202  0.4460  0.0968
26519SOL    HW285394   2.246   4.247   1.161  0.2576  1.4246  0.2567
26520SOL     OW85395   6.650   0.862   6.379 -0.0352  0.1820 -0.0473
26520SOL    HW185396   6.721   0.863   6.444 -0.0097  1.0554 -0.0742
26520SOL    HW285397   6.575   0.896   6.426  0.1886  1.6362 -0.6871
26521SOL     OW85398   4.004   6.577   1.070  0.2265 -0.2028  0.4338
26521SOL    HW185399   3.953   6.586   1.151  0.4637  0.4769  0.5140
26521SOL    HW285400   3.979   6.491   1.036 -0.4813 -0.1605  0.8123
26522SOL     OW85401   3.811   5.262   3.581 -0.7527  0.2940 -0.2091
26522SOL    HW185402   3.741   5.229   3.638 -0.0976 -0.0970  0.3995
26522SOL    HW285403   3.767   5.318   3.518 -1.7365 -0.7133 -0.4405
26523SOL     OW85404   5.062   5.317   3.028 -0.6337  0.2408  0.0819
26523SOL    HW185405   5.140   5.299   2.976 -1.9508 -0.2045 -1.8274
26523SOL    HW285406   5.069   5.410   3.050 -1.2146  1.1496 -3.0941
26524SOL     OW85407   4.607   3.874   5.650  0.2966  0.0023  0.0676
26524SOL    HW185408   4.557   3.947   5.687  1.0367  0.5915 -0.0813
26524SOL    HW285409   4.613   3.893   5.557  1.4979  0.3759  0.2042
26525SOL     OW85410   4.452   6.096   9.975  0.3588 -0.3668  0.3178
26525SOL    HW185411   4.459   6.016   9.922 -1.9539  0.0237 -0.6855
26525SOL    HW285412   4.402   6.156   9.920  1.1187  1.4163  1.5019
26526SOL     OW85413   8.905   6.367   9.556 -0.6851  0.4804  0.4097
26526SOL    HW185414   8.922   6.418   9.477 -1.7983 -0.5274 -0.5298
26526SOL    HW285415   8.817   6.395   9.583 -0.2354  0.9577  1.4255
26527SOL     OW85416   2.453   4.312   9.325  0.2845  0.2468  0.3045
26527SOL    HW185417   2.541   4.313   9.363 -0.0105  0.8139  1.0095
26527SOL    HW285418   2.395   4.305   9.401 -0.3385  1.8953  0.0253
26528SOL     OW85419   7.477   1.208   4.788 -0.2747  0.1308 -0.2195
26528SOL    HW185420   7.535   1.199   4.864  0.1348 -0.7712 -0.6159
26528SOL    HW285421   7.536   1.227   4.715 -0.6741  1.0819 -0.3027
26529SOL     OW85422   3.049   2.767   1.398  0.0858  0.0880  0.1181
26529SOL    HW185423   3.046   2.712   1.476 -1.8866  0.9300  0.7063
26529SOL    HW285424   2.985   2.727   1.339  1.2032 -0.2578 -0.9009
26530SOL     OW85425  10.212   4.923   0.562  0.6559 -0.6846  0.0682
26530SOL    HW185426  10.118   4.925   0.580 -0.1055  1.2691 -3.2927
26530SOL    HW285427  10.249   4.990   0.618 -0.4256  0.3822 -0.4500
26531SOL     OW85428   5.884   2.875   7.827 -0.2085 -0.4803  0.1471
26531SOL    HW185429   5.893   2.781   7.847 -0.8267 -0.5263  0.2417
26531SOL    HW285430   5.846   2.912   7.907  0.7417 -0.0127  0.3848
26532SOL     OW85431   7.666   6.828   6.268  0.6019 -0.3467 -0.2602
26532SOL    HW185432   7.689   6.755   6.324 -1.6392  0.0481  1.2884
26532SOL    HW285433   7.581   6.804   6.230 -0.6526  1.7828  1.0293
26533SOL     OW85434   2.276   8.941   2.352  0.0325  0.5719 -0.0670
26533SOL    HW185435   2.209   8.911   2.413 -0.6476  0.9483 -0.6186
26533SOL    HW285436   2.232   8.946   2.268  0.1482  2.9227 -0.0509
26534SOL     OW85437   1.794  10.423  10.092 -0.5480 -0.5849 -0.1716
26534SOL    HW185438   1.761  10.382  10.012 -1.3040 -0.3361  0.0046
26534SOL    HW285439   1.719  10.470  10.127  0.2865  0.9751 -0.3799
26535SOL     OW85440   5.165   3.893   9.262 -0.1937  0.0304 -0.5363
26535SOL    HW185441   5.138   3.806   9.291 -0.7460  0.5125  0.4598
26535SOL    HW285442   5.188   3.939   9.342  1.7604  0.2881 -1.1925
26536SOL     OW85443   1.435   8.823   5.652  0.3126  0.4398 -0.2584
26536SOL    HW185444   1.342   8.809   5.674 -0.0918  1.0869 -1.4685
26536SOL    HW285445   1.455   8.756   5.588  0.3973  0.9049 -0.7254
26537SOL     OW85446   5.502   4.023   9.184 -0.0755 -0.1693 -0.1652
26537SOL    HW185447   5.450   3.943   9.188  0.4180 -0.4559  0.6427
26537SOL    HW285448   5.460   4.083   9.245  1.4043 -0.9395  1.7035
26538SOL     OW85449   6.134   3.296   7.549 -0.4363  0.0916  0.0608
26538SOL    HW185450   6.087   3.253   7.621 -0.5003 -0.5755 -0.3654
26538SOL    HW285451   6.097   3.256   7.470 -2.1715  2.6070 -0.5048
26539SOL     OW85452   2.346   0.283   5.375  0.4761  0.2771 -0.5836
26539SOL    HW185453   2.315   0.370   5.398 -0.7514 -0.1957 -0.3791
26539SOL    HW285454   2.439   0.285   5.393  0.3030  1.2657  0.2670
26540SOL     OW85455   2.915   5.625   3.059 -0.0158  0.5717  0.6984
26540SOL    HW185456   2.880   5.714   3.066  0.1584  0.9073 -1.7164
26540SOL    HW285457   2.841   5.568   3.082 -0.3932  1.3154  1.3851
26541SOL     OW85458   5.503   0.981   6.547 -0.1243 -0.5561 -0.0698
26541SOL    HW185459   5.536   1.060   6.591  0.4575 -1.1822  0.6537
26541SOL    HW285460   5.472   1.012   6.462  0.9739  0.3179 -0.1785
26542SOL     OW85461   3.857   5.707   5.563  0.1345 -0.3368  0.7547
26542SOL    HW185462   3.771   5.722   5.602  0.6131  0.7809  1.4141
26542SOL    HW285463   3.879   5.617   5.588 -0.9365 -0.7099  0.3824
26543SOL     OW85464   2.437   6.621   2.987 -0.0921  0.0803  0.2864
26543SOL    HW185465   2.424   6.563   3.061  0.5716 -0.3474  0.0745
26543SOL    HW285466   2.454   6.707   3.025 -0.0687 -0.0727  0.6165
26544SOL     OW85467   1.485   1.990   8.581 -0.3628 -0.3224 -0.1151
26544SOL    HW185468   1.556   2.029   8.530  0.1807  0.7124  1.3577
26544SOL    HW285469   1.521   1.982   8.669 -3.2468  4.2648  1.8746
26545SOL     OW85470   0.164   4.845   6.594 -0.1565  0.1745  0.0713
26545SOL    HW185471   0.206   4.759   6.595  0.5342  0.5097  0.4461
26545SOL    HW285472   0.204   4.893   6.667 -0.1244  1.0017 -0.4736
26546SOL     OW85473   6.136   6.962   3.428  0.4284  0.5775  0.1241
26546SOL    HW185474   6.211   7.003   3.384  1.1147 -1.3788 -0.6636
26546SOL    HW285475   6.070   6.952   3.359  0.3909  0.1079  0.2235
26547SOL     OW85476   6.680   8.017  10.461 -0.2289 -0.0768  0.0917
26547SOL    HW185477   6.705   8.103  10.496 -0.4751  0.6378 -1.3987
26547SOL    HW285478   6.604   7.991  10.513  1.1415 -0.4359  2.0220
26548SOL     OW85479   5.897   7.343   8.371 -0.3276  0.8323  0.0239
26548SOL    HW185480   5.850   7.295   8.439 -2.6876  0.3526 -1.8086
26548SOL    HW285481   5.853   7.428   8.368 -1.4941  0.2210 -2.0226
26549SOL     OW85482   4.317   1.789   4.355  0.3351 -0.4376 -0.0709
26549SOL    HW185483   4.289   1.697   4.362 -0.8869 -0.0010  1.0529
26549SOL    HW285484   4.294   1.828   4.439  0.8051  0.9213 -0.5491
26550SOL     OW85485   9.274   4.038   7.281  0.3561 -0.0991  0.0444
26550SOL    HW185486   9.216   3.972   7.243  1.3733 -1.3003  0.5252
26550SOL    HW285487   9.232   4.122   7.261 -0.7142 -0.8645 -0.9894
26551SOL     OW85488   3.200   9.515   2.753  0.4943 -0.0512  0.4588
26551SOL    HW185489   3.144   9.515   2.831 -0.3073 -1.3210 -0.0974
26551SOL    HW285490   3.175   9.594   2.705  0.5581  0.4070  1.1599
26552SOL     OW85491   9.004   4.487   4.156 -0.4658 -0.8941  0.1075
26552SOL    HW185492   8.990   4.415   4.094  0.1239 -0.8451 -0.0839
26552SOL    HW285493   9.095   4.476   4.185 -1.0451 -1.5573  1.7818
26553SOL     OW85494   8.575   6.977   0.612 -0.2177  0.0433  0.3730
26553SOL    HW185495   8.523   7.003   0.536  1.3813 -1.0057 -1.1651
26553SOL    HW285496   8.600   6.886   0.593 -0.7549 -0.6750  2.7525
26554SOL     OW85497   4.686   3.178   3.050  0.7904 -0.1993  0.1557
26554SOL    HW185498   4.655   3.088   3.058 -1.7719  0.6999  1.6267
26554SOL    HW285499   4.751   3.188   3.120  0.7258 -0.7606  0.2976
26555SOL     OW85500   2.629   4.510   2.500 -0.5616 -0.1212 -0.1829
26555SOL    HW185501   2.657   4.444   2.436 -1.3382 -1.1532  0.5058
26555SOL    HW285502   2.711   4.550   2.529 -0.2066  0.5060 -1.9384
26556SOL     OW85503   3.265   3.334   3.188  0.5549 -0.4369 -0.0395
26556SOL    HW185504   3.171   3.350   3.201  0.6261  0.4562 -0.5598
26556SOL    HW285505   3.269   3.244   3.155 -0.2496  0.0060 -1.4187
26557SOL     OW85506   0.321   4.672   5.237  0.0648  1.0628  0.2688
26557SOL    HW185507   0.260   4.650   5.308  0.7108  2.2332  1.2216
26557SOL    HW285508   0.270   4.661   5.157 -0.6004 -0.5464  0.8865
26558SOL     OW85509   8.718   7.952   5.938  0.2568 -0.0785  0.6756
26558SOL    HW185510   8.814   7.949   5.944  0.2078 -0.5039  1.3020
26558SOL    HW285511   8.687   7.918   6.022 -0.4476  0.5497  0.6811
26559SOL     OW85512   5.622   6.880   3.817  0.0795 -0.0675  0.0992
26559SOL    HW185513   5.534   6.909   3.840  0.1660 -1.6776  2.9830
26559SOL    HW285514   5.615   6.848   3.728 -1.5456  2.2972 -0.7298
26560SOL     OW85515   4.215   4.832   9.176  0.2460 -0.2067  0.1688
26560SOL    HW185516   4.233   4.772   9.103 -2.4899  0.4537 -1.2183
26560SOL    HW285517   4.241   4.918   9.143  0.3630 -0.0926  0.5558
26561SOL     OW85518   2.028   4.412   5.567  0.0123  0.3196  0.1524
26561SOL    HW185519   2.001   4.410   5.475 -0.0770  1.2722  0.1396
26561SOL    HW285520   2.073   4.329   5.581  1.3208  0.7737 -1.1601
26562SOL     OW85521   5.538   2.904  10.682 -0.1195  0.1710  0.1216
26562SOL    HW185522   5.527   2.912  10.776  0.4464  1.2053  0.1152
26562SOL    HW285523   5.551   2.810  10.667 -2.1949 -0.2768  0.8305
26563SOL     OW85524   1.957   0.437  10.671  0.4808 -0.1072  0.4712
26563SOL    HW185525   1.901   0.494  10.723  1.7735  0.8652  0.8709
26563SOL    HW285526   2.021   0.402  10.734  0.4683 -1.0111 -0.0019
26564SOL     OW85527   7.450   0.240  10.663  0.1276  0.0111 -0.0054
26564SOL    HW185528   7.405   0.188  10.597 -2.6121 -0.4790  2.0772
26564SOL    HW285529   7.464   0.325  10.622 -1.5840 -0.2429 -1.2131
26565SOL     OW85530   7.529   6.758   3.422 -0.6180  0.9797  0.0727
26565SOL    HW185531   7.523   6.701   3.499  0.1627  0.8279  0.0275
26565SOL    HW285532   7.472   6.717   3.357  0.9725 -0.5563 -0.4457
26566SOL     OW85533   6.662   1.707   4.580 -0.3878 -0.5537  0.2544
26566SOL    HW185534   6.675   1.651   4.657  0.2181  0.1496  0.6716
26566SOL    HW285535   6.572   1.688   4.552 -1.1240  0.1862  1.9714
26567SOL     OW85536  10.405  10.243   2.673 -0.0060  0.5186 -0.0159
26567SOL    HW185537  10.437  10.195   2.596 -0.4963  1.5310 -0.8670
26567SOL    HW285538  10.484  10.271   2.719  0.2947  0.1944 -0.3308
26568SOL     OW85539   2.581   7.829   1.316  0.1433 -0.0331 -0.5094
26568SOL    HW185540   2.512   7.895   1.318 -0.3675 -0.5459  1.5530
26568SOL    HW285541   2.535   7.746   1.330  1.1520 -0.3485  1.2612
26569SOL     OW85542   2.013   8.163   9.090 -0.0549  0.1516  0.3068
26569SOL    HW185543   1.961   8.175   9.170  0.2832 -2.4762  1.0130
26569SOL    HW285544   2.000   8.244   9.041 -1.0690  1.4607  2.5635
26570SOL     OW85545   2.003   5.909   0.504  0.0955  0.0209  0.0891
26570SOL    HW185546   1.999   5.977   0.438 -1.1343  1.1061  1.2266
26570SOL    HW285547   1.994   5.827   0.455  0.0191  0.7493 -1.1438
26571SOL     OW85548   8.210   5.104   2.051  0.1349  1.3089  0.6411
26571SOL    HW185549   8.177   5.194   2.050 -0.3778  1.1453 -1.6669
26571SOL    HW285550   8.266   5.097   1.973  0.0583 -0.4139  0.6894
26572SOL     OW85551   2.786   4.959   6.182  0.0218 -0.3141 -0.3511
26572SOL    HW185552   2.737   4.880   6.159  0.1704 -0.1945 -1.1002
26572SOL    HW285553   2.843   4.975   6.107  0.4027  0.1850  0.0364
26573SOL     OW85554   9.401   8.180   7.345 -0.0291  0.0229 -0.2159
26573SOL    HW185555   9.378   8.162   7.436  0.5771 -1.1606 -0.2840
26573SOL    HW285556   9.444   8.266   7.348 -2.4533  1.2996  0.1943
26574SOL     OW85557   7.112  10.475   1.282  0.0804 -0.8654 -0.2204
26574SOL    HW185558   7.104  10.512   1.369  1.1216  2.2354 -1.3079
26574SOL    HW285559   7.077  10.386   1.290 -1.3516 -0.1441  2.9281
26575SOL     OW85560   7.394   2.108   9.256  0.3240  0.3833  0.6116
26575SOL    HW185561   7.438   2.025   9.238 -0.4925 -0.0325  0.4604
26575SOL    HW285562   7.460   2.175   9.240  0.5103 -0.1366 -0.9469
26576SOL     OW85563   4.684   4.435   5.437 -0.0605  0.1503  0.0918
26576SOL    HW185564   4.722   4.457   5.523  0.4093 -1.1032  0.2355
26576SOL    HW285565   4.664   4.519   5.397  2.1392  0.8810  0.3622
26577SOL     OW85566   3.381   2.692   2.357  0.8023 -0.4833 -0.1560
26577SOL    HW185567   3.409   2.665   2.444  0.2757  0.4327  0.3073
26577SOL    HW285568   3.377   2.610   2.307  2.2468 -0.8783  0.3356
26578SOL     OW85569   0.041   7.001   7.161  0.4965  0.7319 -0.6742
26578SOL    HW185570   0.111   6.950   7.202 -0.5992  0.6902  1.2624
26578SOL    HW285571  -0.035   6.988   7.218 -0.6313  2.1583 -1.7675
26579SOL     OW85572   4.753   3.176   7.333  0.3625  0.2424 -0.5778
26579SOL    HW185573   4.731   3.094   7.288  0.6342  0.0636 -0.3881
26579SOL    HW285574   4.846   3.190   7.313  0.9061 -0.6431  1.1705
26580SOL     OW85575   6.447   7.758   3.515 -0.2496 -0.5764  0.2238
26580SOL    HW185576   6.480   7.717   3.435  0.1505  0.0254  0.0747
26580SOL    HW285577   6.526   7.783   3.563 -0.4902 -0.0197  0.3300
26581SOL     OW85578   6.234   5.282   6.725  0.0944  0.4878  0.6412
26581SOL    HW185579   6.205   5.370   6.702 -0.0683  0.5139  0.9384
26581SOL    HW285580   6.235   5.234   6.642 -2.1581  0.1009  0.7820
26582SOL     OW85581   9.943   3.051  10.694 -0.4510  0.6617  0.7677
26582SOL    HW185582   9.848   3.066  10.689 -0.2700  1.4922 -0.9774
26582SOL    HW285583   9.978   3.097  10.617  1.1987 -0.9987  0.4743
26583SOL     OW85584   0.283   0.962   0.681  0.7292 -0.1033  0.0428
26583SOL    HW185585   0.228   1.039   0.691  2.1604  0.8346  1.0132
26583SOL    HW285586   0.224   0.888   0.698 -0.5392  0.7756 -0.3735
26584SOL     OW85587   6.646   0.342   6.555 -0.3662  0.1897 -0.3224
26584SOL    HW185588   6.741   0.350   6.551 -0.0487 -2.5235 -0.2037
26584SOL    HW285589   6.623   0.289   6.478 -1.6848  0.1216  0.0830
26585SOL     OW85590   3.464   3.083   8.249 -0.0862 -0.3659 -0.3367
26585SOL    HW185591   3.386   3.040   8.215 -0.2926 -0.9520  0.8281
26585SOL    HW285592   3.439   3.175   8.258  0.1022 -0.1129 -2.0807
26586SOL     OW85593   0.631   8.861   3.458 -0.0626 -0.0632 -0.1596
26586SOL    HW185594   0.679   8.847   3.539  1.1740 -1.0152 -1.0214
26586SOL    HW285595   0.698   8.882   3.393 -1.0309  0.7796 -0.9386
26587SOL     OW85596   5.610   0.023   0.331 -0.4074 -0.0301 -0.1362
26587SOL    HW185597   5.571  -0.047   0.382 -0.2078 -0.5917 -0.7393
26587SOL    HW285598   5.695  -0.012   0.304 -0.6231  0.1435 -1.0742
26588SOL     OW85599   6.878   4.541   2.510 -0.2575 -0.5610 -0.3197
26588SOL    HW185600   6.836   4.563   2.592 -0.4181 -0.1896 -0.5014
26588SOL    HW285601   6.951   4.603   2.503  0.2780 -1.1494 -0.0429
26589SOL     OW85602   1.182   4.373   5.064  0.5116  0.5320  0.0515
26589SOL    HW185603   1.242   4.446   5.080  0.5078  0.3038  1.2088
26589SOL    HW285604   1.107   4.390   5.121 -0.0992  0.3088 -0.6652
26590SOL     OW85605   8.709   2.497   1.741 -0.8104  0.0180 -0.3363
26590SOL    HW185606   8.622   2.517   1.773 -0.8043 -0.6407  0.1131
26590SOL    HW285607   8.718   2.549   1.661 -1.6945 -0.0773 -0.5099
26591SOL     OW85608   4.997   4.195   3.367 -0.3949  0.1688  0.6744
26591SOL    HW185609   5.054   4.198   3.289 -1.7179  0.9410 -0.3130
26591SOL    HW285610   5.058   4.200   3.441  0.8846 -0.2218 -0.3036
26592SOL     OW85611   4.934   6.661   5.870 -0.6130 -0.4028  0.2775
26592SOL    HW185612   4.975   6.580   5.900  0.0843 -0.5305 -0.9606
26592SOL    HW285613   4.840   6.645   5.881 -0.4385 -0.8722  1.2530
26593SOL     OW85614   0.857   1.532   0.496  0.6784  0.0750  0.3456
26593SOL    HW185615   0.922   1.562   0.560 -0.0991 -2.8977  2.7421
26593SOL    HW285616   0.908   1.488   0.428  1.3469  1.0514  0.1837
26594SOL     OW85617   2.680   7.147   7.840 -0.5016 -0.4482  0.4506
26594SOL    HW185618   2.616   7.209   7.873  0.5265 -0.0302  1.7789
26594SOL    HW285619   2.764   7.181   7.870  0.3277 -1.1164 -1.0113
26595SOL     OW85620   1.632   8.774   1.251  0.1695 -0.1774 -0.2953
26595SOL    HW185621   1.631   8.824   1.169 -2.0771 -1.0531 -0.8850
26595SOL    HW285622   1.604   8.686   1.225 -1.8051 -0.1834  1.5483
26596SOL     OW85623   3.949   5.747   3.200  0.2934  0.4567 -0.8933
26596SOL    HW185624   3.921   5.801   3.275 -2.1729 -0.1277 -1.3176
26596SOL    HW285625   3.928   5.658   3.226  1.6349 -0.0336 -1.3926
26597SOL     OW85626  10.545   9.577   6.065  0.4401  0.0908 -0.0397
26597SOL    HW185627  10.578   9.493   6.032  1.6278  0.2098  0.7577
26597SOL    HW285628  10.577   9.642   6.003  0.2971  0.0350 -0.1707
26598SOL     OW85629   8.834   9.802   9.805 -0.1798  0.3509 -0.0185
26598SOL    HW185630   8.797   9.890   9.801 -0.6331  0.2184  1.0966
26598SOL    HW285631   8.879   9.798   9.889  0.8976 -0.0786 -0.5996
26599SOL     OW85632   2.834   2.812   5.294  0.4939 -0.3319 -0.0137
26599SOL    HW185633   2.828   2.731   5.242  1.5634 -0.2389 -0.3170
26599SOL    HW285634   2.782   2.794   5.373 -1.6240 -0.2717 -1.3363
26600SOL     OW85635   4.263   7.221   9.999 -0.1570  1.0901  0.2901
26600SOL    HW185636   4.200   7.210   9.928 -0.2028  3.3354 -0.0714
26600SOL    HW285637   4.238   7.302  10.042  0.6367  0.4163  2.1205
26601SOL     OW85638   1.323   3.825   0.859  0.0188  0.0070  0.2159
26601SOL    HW185639   1.299   3.895   0.920  2.5532  1.3525 -0.1735
26601SOL    HW285640   1.262   3.754   0.878  0.3136  0.5604  3.9380
26602SOL     OW85641   9.670   3.660   9.291  0.1176 -0.2519 -0.0608
26602SOL    HW185642   9.614   3.701   9.225 -0.4330  0.6971  0.9566
26602SOL    HW285643   9.615   3.594   9.332 -0.2105  0.5182  0.7779
26603SOL     OW85644  10.529   7.615   3.777  0.3279  0.6893  0.0751
26603SOL    HW185645  10.482   7.676   3.720  1.2724  1.1770 -0.2000
26603SOL    HW285646  10.464   7.547   3.798 -0.0701  0.5616 -1.4792
26604SOL     OW85647   2.480   1.676   7.965  0.2663  0.2192 -0.0653
26604SOL    HW185648   2.525   1.592   7.980 -1.5536 -0.5982  1.2675
26604SOL    HW285649   2.547   1.742   7.983  1.0199 -0.9381  1.7448
26605SOL     OW85650   0.318   9.787  10.001 -0.3635 -0.1761 -0.5169
26605SOL    HW185651   0.350   9.767   9.913 -0.1476 -2.6691  0.0655
26605SOL    HW285652   0.367   9.866  10.026  2.4713 -1.5917 -1.1646
26606SOL     OW85653   2.214   7.536   0.995  0.0434 -0.4500 -0.6682
26606SOL    HW185654   2.217   7.565   0.903 -0.2294 -0.7748 -0.7805
26606SOL    HW285655   2.131   7.572   1.027  0.6650  0.6327 -0.2189
26607SOL     OW85656   7.176   5.153   7.280  0.4017  0.2574  0.5586
26607SOL    HW185657   7.259   5.113   7.253  0.4474  0.7900 -0.1150
26607SOL    HW285658   7.130   5.171   7.198  0.4612  1.7306  0.8178
26608SOL     OW85659   3.912   0.287   5.084 -0.2210  0.1462 -0.3457
26608SOL    HW185660   3.915   0.347   5.158 -1.0270  1.6998 -1.5172
26608SOL    HW285661   3.996   0.298   5.040 -0.5354  0.7690 -0.8056
26609SOL     OW85662   7.847   5.279   3.008 -0.0100  0.1141 -0.2633
26609SOL    HW185663   7.794   5.206   2.976  1.0771 -1.1856  0.7640
26609SOL    HW285664   7.806   5.305   3.090 -0.4910  0.7705 -0.7112
26610SOL     OW85665   2.934   1.730   5.811 -0.1837  0.2717 -0.1901
26610SOL    HW185666   2.889   1.645   5.812 -0.2112  0.2335 -1.8714
26610SOL    HW285667   2.966   1.739   5.722  0.8626  1.5102  0.2824
26611SOL     OW85668   8.832   6.835   3.126  0.2849 -0.0213  0.0390
26611SOL    HW185669   8.826   6.911   3.069  0.3235  0.9145  1.2556
26611SOL    HW285670   8.748   6.790   3.114 -0.0617  0.6473 -0.1035
26612SOL     OW85671   7.762   4.615   1.060  0.0998 -0.1482  0.2747
26612SOL    HW185672   7.834   4.667   1.096  1.1938 -1.8318  0.6414
26612SOL    HW285673   7.717   4.580   1.137 -1.3661  1.1513  0.0568
26613SOL     OW85674   3.680   1.426   5.437 -0.6133  0.0506 -0.1653
26613SOL    HW185675   3.638   1.510   5.455 -0.4767 -0.1273  1.0592
26613SOL    HW285676   3.752   1.447   5.378 -0.3156  0.8676  0.4777
26614SOL     OW85677   8.248   0.954   8.796  0.1670 -0.2360 -0.0623
26614SOL    HW185678   8.337   0.973   8.824  0.1730  0.3556 -0.4537
26614SOL    HW285679   8.197   1.030   8.826  0.3993  1.0728 -2.7092
26615SOL     OW85680   4.143   3.831   0.532  0.0212  0.0407 -0.6016
26615SOL    HW185681   4.228   3.864   0.560 -1.1742  1.2629  1.9554
26615SOL    HW285682   4.159   3.741   0.506  2.0241  0.1360  0.1345
26616SOL     OW85683   5.415   2.073   6.896  0.2629  0.3255 -0.5083
26616SOL    HW185684   5.384   2.159   6.867  2.0012  1.0524 -0.3071
26616SOL    HW285685   5.367   2.056   6.977 -1.1751  0.4023 -1.3008
26617SOL     OW85686   6.953   8.427   1.461 -0.1620  0.0208  0.5610
26617SOL    HW185687   6.972   8.434   1.555  1.0757 -0.8462  0.4137
26617SOL    HW285688   7.037   8.401   1.423 -0.7891 -0.1676 -0.7162
26618SOL     OW85689   2.357   6.114   0.405 -0.2480 -0.1423  0.4514
26618SOL    HW185690   2.277   6.118   0.354 -0.1825  0.5365  0.4025
26618SOL    HW285691   2.407   6.042   0.367  1.7387  2.8613 -3.2903
26619SOL     OW85692   0.303   2.053   0.335  0.2187  0.2772  0.0197
26619SOL    HW185693   0.380   2.001   0.314  0.3899  0.3430  0.4655
26619SOL    HW285694   0.243   1.992   0.378  1.2456  0.8472  2.4326
26620SOL     OW85695   2.258  10.579   4.071 -0.0792 -0.3632  0.3016
26620SOL    HW185696   2.216  10.663   4.053 -0.2806 -0.3904  0.6293
26620SOL    HW285697   2.219  10.518   4.008  0.7256 -0.0238 -0.5477
26621SOL     OW85698   8.313   5.776   9.321 -0.1336  0.3922 -0.4401
26621SOL    HW185699   8.362   5.849   9.285 -0.2684  0.3657 -0.6749
26621SOL    HW285700   8.284   5.806   9.407  0.8066  0.1992 -0.0385
26622SOL     OW85701   7.030   4.384   5.990 -0.3241  0.7588  0.2065
26622SOL    HW185702   7.044   4.455   5.928  1.8436  2.1388  2.1050
26622SOL    HW285703   7.112   4.335   5.988 -0.7932 -0.0779  0.9005
26623SOL     OW85704   7.987   8.761   4.450  0.2073  0.0587  0.0871
26623SOL    HW185705   7.945   8.823   4.389 -2.8255 -1.9393 -0.0674
26623SOL    HW285706   8.026   8.695   4.393 -0.0590 -0.2678  0.2848
26624SOL     OW85707   4.718   7.074   3.799 -1.0826  0.1115 -0.3826
26624SOL    HW185708   4.781   7.146   3.796  0.6731 -1.3567 -0.3690
26624SOL    HW285709   4.633   7.117   3.803 -0.0401  2.2026  1.6947
26625SOL     OW85710   8.585   2.877   0.925 -0.3073  0.1022 -0.8748
26625SOL    HW185711   8.609   2.786   0.910  0.8151  0.1573  0.3634
26625SOL    HW285712   8.669   2.924   0.924 -0.8218  1.0499 -1.0052
26626SOL     OW85713   4.790   3.089   1.252 -0.2016 -0.0408  0.6437
26626SOL    HW185714   4.709   3.125   1.286 -0.3809 -0.2667  0.4604
26626SOL    HW285715   4.764   3.038   1.176  0.1141 -0.0981  0.5705
26627SOL     OW85716   6.046   6.490   8.081 -0.6966  0.4526  0.0676
26627SOL    HW185717   6.047   6.585   8.067 -1.4096  0.0799 -3.4766
26627SOL    HW285718   6.120   6.457   8.029 -1.6457 -1.0420 -0.4178
26628SOL     OW85719   9.664   5.942   9.919 -0.5301 -0.2881 -0.2500
26628SOL    HW185720   9.578   5.909   9.892 -0.4259  0.6945 -1.9205
26628SOL    HW285721   9.719   5.864   9.923 -1.2149 -0.7863 -0.2968
26629SOL     OW85722   2.959   2.611   9.260  0.4752  0.3303  0.1725
26629SOL    HW185723   2.916   2.572   9.184  1.6336  1.5684 -1.1872
26629SOL    HW285724   2.964   2.540   9.324  0.2921 -1.0304 -1.2510
26630SOL     OW85725   0.768   1.626   7.387 -0.2372  0.0617 -0.2318
26630SOL    HW185726   0.765   1.702   7.445 -0.1368  0.0317 -0.1867
26630SOL    HW285727   0.819   1.655   7.312  0.7035 -0.2839  0.2635
26631SOL     OW85728   0.496   1.858   0.503 -0.0560  0.3270 -0.1661
26631SOL    HW185729   0.524   1.949   0.511 -0.6856  0.6995 -1.7909
26631SOL    HW285730   0.574   1.810   0.477  0.2170  0.4301  0.4439
26632SOL     OW85731   3.811   4.170   2.786  0.2636  0.1972  0.0128
26632SOL    HW185732   3.777   4.260   2.786  0.0696  0.1357 -1.1752
26632SOL    HW285733   3.897   4.178   2.828  2.0321  1.7112 -3.3910
26633SOL     OW85734   8.486   2.863  10.211  0.2024 -0.2292  0.3005
26633SOL    HW185735   8.495   2.937  10.270 -0.4307  0.8148 -0.8674
26633SOL    HW285736   8.400   2.825  10.233  0.1814 -0.1430  0.3704
26634SOL     OW85737   4.337   5.515   9.231 -0.1357 -0.2167  0.1081
26634SOL    HW185738   4.364   5.587   9.174  0.4075  1.1678  2.0473
26634SOL    HW285739   4.285   5.556   9.300  0.5626 -1.6117  1.5171
26635SOL     OW85740   2.116   5.940  10.700  0.0451 -0.6981 -0.0452
26635SOL    HW185741   2.051   5.871  10.714 -1.6432  0.7974 -0.2234
26635SOL    HW285742   2.155   5.953  10.787  0.4860 -1.9204 -0.0302
26636SOL     OW85743   0.183   3.827   2.569 -0.3738  0.1343  0.0304
26636SOL    HW185744   0.091   3.816   2.543 -0.5316  0.2361  0.5351
26636SOL    HW285745   0.232   3.822   2.487 -0.9938  2.1442 -0.5165
26637SOL     OW85746   9.984   3.489   5.361 -0.1761 -0.3437 -0.3221
26637SOL    HW185747  10.029   3.521   5.283  0.0934 -1.7343 -0.7617
26637SOL    HW285748  10.052   3.484   5.428  0.1139 -1.3997 -0.6789
26638SOL     OW85749   1.901   6.224   6.348 -0.4162  0.9236 -0.3874
26638SOL    HW185750   1.856   6.142   6.367  1.0324  0.1017 -0.3445
26638SOL    HW285751   1.852   6.262   6.275 -0.1281 -0.8598 -1.5867
26639SOL     OW85752   2.743   8.579   7.679  0.5584  0.1639 -0.3639
26639SOL    HW185753   2.748   8.670   7.649  2.1642  0.0679 -0.4951
26639SOL    HW285754   2.762   8.584   7.773 -2.2030  0.2205  0.2789
26640SOL     OW85755   0.774   1.666   6.417 -0.4141  0.3035 -0.5217
26640SOL    HW185756   0.863   1.682   6.388 -0.0528  1.1434  0.9816
26640SOL    HW285757   0.738   1.753   6.435 -1.0041 -0.1032  0.3537
26641SOL     OW85758   9.615   8.757   2.113  0.1669 -0.1709 -0.1291
26641SOL    HW185759   9.634   8.690   2.048  1.1128 -0.4180  0.3875
26641SOL    HW285760   9.692   8.759   2.169  0.0800  1.2307 -0.0265
26642SOL     OW85761  10.308   4.777   4.547 -0.3126 -0.1150  0.3464
26642SOL    HW185762  10.298   4.813   4.459  0.4304  0.6196  0.5485
26642SOL    HW285763  10.265   4.691   4.543  0.3400 -0.4081 -0.9378
26643SOL     OW85764   0.395   0.064   0.267 -0.5306  0.1515  0.0991
26643SOL    HW185765   0.322   0.111   0.228 -0.9326 -0.6680 -0.1592
26643SOL    HW285766   0.472   0.118   0.248 -0.9082  0.4353 -0.6570
26644SOL     OW85767   4.317   1.704   8.011 -0.3378  0.5608 -0.4247
26644SOL    HW185768   4.309   1.662   7.926 -0.3604  0.4211 -0.3535
26644SOL    HW285769   4.228   1.705   8.046 -0.0446 -1.1745  0.4559
26645SOL     OW85770   6.681   5.251   9.641 -0.1762  0.5815 -0.6071
26645SOL    HW185771   6.760   5.252   9.587 -0.0762 -1.5391 -0.5733
26645SOL    HW285772   6.704   5.301   9.719  1.5378 -0.8992 -0.1071
26646SOL     OW85773   2.120   1.132   8.079  0.2522  0.3344 -0.8826
26646SOL    HW185774   2.044   1.126   8.137  0.5075 -0.2292 -0.6054
26646SOL    HW285775   2.093   1.087   7.999  0.2217  0.3072 -0.8576
26647SOL     OW85776   7.860   0.451   9.287  0.5928 -0.3614 -0.4745
26647SOL    HW185777   7.880   0.530   9.237  0.5036  0.0457  0.1199
26647SOL    HW285778   7.944   0.421   9.320  0.4485  0.5075  0.7808
26648SOL     OW85779   6.071   1.601   6.554 -0.7245  0.0061  0.4351
26648SOL    HW185780   6.148   1.655   6.539 -0.5095 -0.2444  0.6186
26648SOL    HW285781   6.103   1.528   6.607 -1.4311  0.7882  2.0050
26649SOL     OW85782   7.240   8.015   2.268  0.2457  0.4995  0.4904
26649SOL    HW185783   7.231   8.004   2.362 -0.4282 -0.9248  0.3018
26649SOL    HW285784   7.330   8.044   2.254  0.2360  1.0738  1.5906
26650SOL     OW85785   1.875   0.270   8.987  0.0402 -0.2616 -0.5925
26650SOL    HW185786   1.801   0.322   8.957  0.1454 -0.4270 -1.1507
26650SOL    HW285787   1.865   0.186   8.943  0.8006 -0.1338 -1.0235
26651SOL     OW85788   8.260  10.351   1.046  0.3634 -0.2183  0.1661
26651SOL    HW185789   8.262  10.446   1.044 -0.5350 -0.1841 -1.8079
26651SOL    HW285790   8.351  10.324   1.032  0.7106  0.3258  1.3045
26652SOL     OW85791   3.743   0.139   6.453  0.9453 -0.3490  0.4178
26652SOL    HW185792   3.704   0.155   6.367  2.4438 -2.2408 -0.7053
26652SOL    HW285793   3.678   0.086   6.500  0.5117 -0.1029  0.1031
26653SOL     OW85794   8.519   6.371   9.392 -0.2176 -0.5673 -0.2388
26653SOL    HW185795   8.532   6.398   9.483 -2.0181 -0.5814  0.0541
26653SOL    HW285796   8.559   6.285   9.387  0.5975 -0.2367  0.3144
26654SOL     OW85797   9.853   1.825   4.353 -0.1805  0.5808  0.5581
26654SOL    HW185798   9.806   1.742   4.350 -2.1437  1.6707 -0.4629
26654SOL    HW285799   9.834   1.860   4.440  1.4816 -0.4468  1.3791
26655SOL     OW85800   0.833   0.669   7.108 -0.5431  0.0639 -0.3051
26655SOL    HW185801   0.828   0.583   7.067 -1.1555 -1.0863  2.0234
26655SOL    HW285802   0.890   0.720   7.050  0.2358 -2.0358 -1.4911
26656SOL     OW85803   2.291  10.517   7.558 -0.4865 -0.7249  0.3824
26656SOL    HW185804   2.238  10.576   7.612  0.7001 -0.4389  1.2755
26656SOL    HW285805   2.229  10.481   7.495 -1.1386  1.8859 -0.5745
26657SOL     OW85806   4.735   0.887   8.905  0.0605 -0.2406  0.5165
26657SOL    HW185807   4.792   0.847   8.840 -0.3639 -1.5484  0.9131
26657SOL    HW285808   4.758   0.843   8.987 -0.4905  0.2676  0.9509
26658SOL     OW85809  10.489   2.422   9.694 -0.4336  0.4328  0.4994
26658SOL    HW185810  10.529   2.340   9.724 -0.7164  0.2102  0.2818
26658SOL    HW285811  10.532   2.440   9.610 -0.8457  0.1455  0.2218
26659SOL     OW85812   0.222   3.264   6.447  0.1209 -0.2971  0.1761
26659SOL    HW185813   0.313   3.234   6.453  0.4550  0.7295  0.3078
26659SOL    HW285814   0.199   3.250   6.355  1.1381  1.4432 -0.3875
26660SOL     OW85815   0.848   3.790   5.232  0.6253 -0.0771  0.0538
26660SOL    HW185816   0.808   3.702   5.236 -0.2303  0.3423  1.3356
26660SOL    HW285817   0.787   3.840   5.177  0.4996  0.0099  0.2710
26661SOL     OW85818   4.571   1.693   1.941 -0.0274  0.1321 -0.4574
26661SOL    HW185819   4.542   1.685   1.850 -0.6024  1.3327 -0.4040
26661SOL    HW285820   4.582   1.603   1.971 -0.0635 -0.2857 -1.6387
26662SOL     OW85821   7.869  10.092   0.602  0.2761 -0.0677 -0.1403
26662SOL    HW185822   7.793  10.149   0.613  0.7510  1.3679 -3.0644
26662SOL    HW285823   7.944  10.148   0.624  0.6445 -0.0721 -1.2803
26663SOL     OW85824   1.920   0.829   7.536 -0.3461  0.0281 -0.7882
26663SOL    HW185825   1.976   0.889   7.586  1.9390 -1.0064 -1.9891
26663SOL    HW285826   1.910   0.753   7.593 -0.8638  0.3507 -0.4335
26664SOL     OW85827   9.296   6.908   0.678 -0.0044 -0.0990  0.3900
26664SOL    HW185828   9.329   6.997   0.690  1.6050 -0.1370 -2.6823
26664SOL    HW285829   9.210   6.919   0.638 -0.2552  0.0623  0.9697
26665SOL     OW85830   1.101   2.232   2.759 -0.2253  0.1310  0.3049
26665SOL    HW185831   1.013   2.264   2.740  0.4813  2.3741  0.6138
26665SOL    HW285832   1.159   2.304   2.738  1.9626 -2.3005 -3.0035
26666SOL     OW85833   6.132   8.278   6.421 -0.1426  0.4095 -0.5435
26666SOL    HW185834   6.162   8.368   6.427  0.0968  0.2233  2.1196
26666SOL    HW285835   6.205   8.231   6.380  1.2812  0.8260  1.3810
26667SOL     OW85836   7.847   8.875  10.564 -0.0741 -0.0309  0.2515
26667SOL    HW185837   7.846   8.802  10.625  0.9859 -0.6053 -0.3899
26667SOL    HW285838   7.764   8.870  10.518  0.0548 -0.9279  0.1134
26668SOL     OW85839   2.829   1.323   1.617  0.4405 -0.4634 -0.6917
26668SOL    HW185840   2.807   1.231   1.612  2.8805 -1.2238  0.7401
26668SOL    HW285841   2.885   1.331   1.694  0.7637  2.1149 -1.0718
26669SOL     OW85842   0.731   8.526   2.225 -0.4100  0.1751 -0.2542
26669SOL    HW185843   0.783   8.604   2.245  0.0419 -0.2394  0.2149
26669SOL    HW285844   0.645   8.545   2.262 -0.2962  0.4415 -0.1226
26670SOL     OW85845   3.767   9.183  10.219  0.2833 -0.2012 -0.2018
26670SOL    HW185846   3.716   9.105  10.242  0.2127 -0.1244 -0.1027
26670SOL    HW285847   3.808   9.160  10.135 -0.0823 -0.1854 -0.3896
26671SOL     OW85848  10.311   3.441   0.569 -0.4554  0.5701 -0.1526
26671SOL    HW185849  10.376   3.510   0.555  0.5646 -0.6195 -1.5009
26671SOL    HW285850  10.355   3.378   0.627  0.1156 -0.8494 -2.0478
26672SOL     OW85851   6.631   0.213   8.162 -0.3113  0.0596 -0.1346
26672SOL    HW185852   6.560   0.198   8.101 -0.0818 -0.2690 -0.3241
26672SOL    HW285853   6.629   0.138   8.221 -1.1670  0.8660  0.8943
26673SOL     OW85854   9.375   9.175   6.764  0.5385 -0.8237 -0.1837
26673SOL    HW185855   9.300   9.227   6.735 -0.0816 -1.1489  0.8060
26673SOL    HW285856   9.373   9.180   6.859  2.2524 -0.1901 -0.1583
26674SOL     OW85857   8.899   3.314   6.268  0.3203 -0.0865  0.3667
26674SOL    HW185858   8.957   3.314   6.192  2.0346 -1.5346  1.5862
26674SOL    HW285859   8.899   3.223   6.299  1.2447  0.7577  3.1690
26675SOL     OW85860   0.519   4.233   7.914 -0.5481  0.2246 -0.6277
26675SOL    HW185861   0.467   4.160   7.947  2.3149 -1.3345  0.8680
26675SOL    HW285862   0.540   4.284   7.992 -0.3953  1.2103 -1.2954
26676SOL     OW85863   9.276  10.511   1.780 -0.2393 -0.0925  0.0600
26676SOL    HW185864   9.190  10.470   1.786 -0.7312  1.0856  1.5573
26676SOL    HW285865   9.324  10.478   1.856  0.8894 -1.2250 -1.0956
26677SOL     OW85866   4.257   2.089   1.718  0.0620  0.3169  0.5194
26677SOL    HW185867   4.284   2.092   1.810  0.2049 -0.3112  0.5033
26677SOL    HW285868   4.186   2.152   1.712 -2.0111 -1.7285  1.7690
26678SOL     OW85869   7.215   8.693   2.539 -0.2042 -0.0528 -0.5179
26678SOL    HW185870   7.127   8.658   2.526 -0.4558  0.3073  0.1388
26678SOL    HW285871   7.245   8.651   2.620 -0.2889  0.8169 -0.0309
26679SOL     OW85872   4.221   1.921   7.605  0.6058 -0.5640 -0.2877
26679SOL    HW185873   4.274   1.988   7.648  1.3487 -2.1166  1.3137
26679SOL    HW285874   4.281   1.875   7.547 -0.0273  0.4321 -1.8230
26680SOL     OW85875   7.200   0.713   3.883  0.6875 -0.2360 -0.3634
26680SOL    HW185876   7.183   0.632   3.834 -2.6964  0.8690 -1.2688
26680SOL    HW285877   7.208   0.780   3.816  0.9893  0.5766  0.4719
26681SOL     OW85878   3.166   3.705   2.356 -0.5814  0.2065  0.0644
26681SOL    HW185879   3.171   3.615   2.386  0.4698  0.7287  1.5730
26681SOL    HW285880   3.210   3.704   2.271  0.5427 -0.5021  0.6211
26682SOL     OW85881   1.685   3.127   7.116 -0.2298 -0.5251  0.4620
26682SOL    HW185882   1.637   3.060   7.066 -2.0853 -0.9789  2.6863
26682SOL    HW285883   1.763   3.082   7.148 -0.8677 -1.3140  0.9569
26683SOL     OW85884   1.186   7.045   1.313 -0.0057 -0.3184 -0.9016
26683SOL    HW185885   1.170   7.029   1.406  3.0159  0.5580 -0.1083
26683SOL    HW285886   1.245   6.974   1.287 -1.9658 -1.4230 -2.6359
26684SOL     OW85887   7.116  10.161   7.315 -0.0345  0.0676  0.1293
26684SOL    HW185888   7.090  10.184   7.226  0.4942  1.0351  0.2067
26684SOL    HW285889   7.158  10.075   7.307 -1.3648 -0.5543 -0.2985
26685SOL     OW85890   2.270   9.061  10.520 -0.2620 -0.6065 -0.4734
26685SOL    HW185891   2.353   9.089  10.558  0.1481 -2.4388  0.0759
26685SOL    HW285892   2.281   9.074  10.426 -0.3602  1.6190 -0.2263
26686SOL     OW85893  10.321   8.627  10.700 -0.2142  0.0539 -0.3591
26686SOL    HW185894  10.411   8.659  10.707  0.6050 -2.2748  0.6915
26686SOL    HW285895  10.268   8.706  10.695  1.8381  1.5047 -0.5636
26687SOL     OW85896   7.869   0.969   8.758 -0.4198 -0.0290 -0.0405
26687SOL    HW185897   7.933   0.898   8.758 -2.2333 -1.7626  1.1278
26687SOL    HW285898   7.890   1.019   8.837 -0.2085 -0.2869  0.0680
26688SOL     OW85899   1.521   2.884   9.356 -0.4018 -0.2894  0.6234
26688SOL    HW185900   1.564   2.828   9.421 -0.8197 -1.2924  0.0645
26688SOL    HW285901   1.592   2.919   9.303 -0.1643 -0.8118  0.5866
26689SOL     OW85902  10.312   4.307   6.944 -0.6095 -0.4689  0.7013
26689SOL    HW185903  10.290   4.244   6.875 -1.0615 -0.4584  0.8314
26689SOL    HW285904  10.277   4.268   7.024  1.7538 -1.5047  1.2983
26690SOL     OW85905   2.348   5.877   0.657  0.1951 -0.5078  0.2715
26690SOL    HW185906   2.309   5.962   0.679  1.8474  0.2551  0.4241
26690SOL    HW285907   2.327   5.821   0.732 -0.9956 -0.2831  0.1260
26691SOL     OW85908   1.947   7.585   9.867 -0.0668  0.0745 -0.1088
26691SOL    HW185909   2.029   7.538   9.883 -0.7271 -1.3608 -0.7521
26691SOL    HW285910   1.937   7.583   9.771 -0.7535  0.4174 -0.0490
26692SOL     OW85911   1.335   9.261   4.691 -0.0701 -0.6627  0.0797
26692SOL    HW185912   1.283   9.209   4.752  2.6148 -1.9071  1.4883
26692SOL    HW285913   1.282   9.340   4.676 -2.6620 -2.1546  0.7040
26693SOL     OW85914   8.352   3.300   0.434 -0.3715  0.2438 -0.0936
26693SOL    HW185915   8.332   3.380   0.386 -0.2185  0.9835  1.0353
26693SOL    HW285916   8.270   3.277   0.478 -0.2556  0.0999  0.0482
26694SOL     OW85917   3.671   5.181   9.575  0.1307 -0.0424 -0.4033
26694SOL    HW185918   3.586   5.226   9.583 -0.5933 -1.2619 -1.0222
26694SOL    HW285919   3.661   5.124   9.499  2.4985  1.8457 -2.2647
26695SOL     OW85920   8.099   5.273   4.257  0.3582 -0.1642 -0.3368
26695SOL    HW185921   8.049   5.347   4.292  1.0678  1.0225 -1.7242
26695SOL    HW285922   8.164   5.255   4.324  0.6906  1.0222 -0.3153
26696SOL     OW85923  10.150   6.260   1.674 -0.2167 -0.1512 -0.0708
26696SOL    HW185924  10.170   6.285   1.764  0.9852  0.2847 -0.4439
26696SOL    HW285925  10.233   6.230   1.637 -0.8203 -0.9504 -0.8515
26697SOL     OW85926   8.066   9.782   8.749 -0.1937 -0.0323  0.0572
26697SOL    HW185927   8.093   9.842   8.817 -1.2402  0.2031  0.2908
26697SOL    HW285928   8.147   9.742   8.717  0.5410  1.6477 -0.2494
26698SOL     OW85929   6.663   8.042   8.589 -0.3044 -0.1028  0.2935
26698SOL    HW185930   6.584   8.009   8.546 -0.2839 -0.9444  0.8696
26698SOL    HW285931   6.678   8.128   8.549 -1.4605  0.0372  0.1157
26699SOL     OW85932   4.909   7.476   7.433  0.2731  0.2032 -0.0433
26699SOL    HW185933   4.861   7.433   7.362 -0.9654  0.3038  0.7095
26699SOL    HW285934   4.993   7.430   7.437  0.7077  0.6925 -2.0793
26700SOL     OW85935   1.714   0.862   1.929 -0.0511  0.1397  0.5223
26700SOL    HW185936   1.740   0.939   1.980  0.0433  0.9097 -0.6363
26700SOL    HW285937   1.636   0.891   1.881  0.3626 -0.2567 -0.4283
26701SOL     OW85938   6.892   3.505   4.599 -0.2480 -0.3739  0.0274
26701SOL    HW185939   6.965   3.445   4.587 -0.3065 -0.1826 -1.3660
26701SOL    HW285940   6.814   3.451   4.590 -0.3177 -0.5591  1.4201
26702SOL     OW85941   6.535   9.651   5.754 -0.4948  0.2634  0.2456
26702SOL    HW185942   6.595   9.634   5.682 -0.8496  1.9201 -0.4905
26702SOL    HW285943   6.499   9.565   5.776  1.2033 -0.5724 -0.1019
26703SOL     OW85944   1.626   3.746   8.783  0.3488 -0.3809 -0.5394
26703SOL    HW185945   1.566   3.707   8.720 -0.9848 -1.3648  1.2565
26703SOL    HW285946   1.712   3.713   8.757 -0.1330 -0.6035 -1.9331
26704SOL     OW85947   1.615   0.682   5.236  0.8605  0.1263 -0.2843
26704SOL    HW185948   1.666   0.613   5.277 -0.1423 -0.3260  0.2337
26704SOL    HW285949   1.631   0.672   5.142  0.9103 -0.6657 -0.1943
26705SOL     OW85950   5.324   2.188   6.050 -0.2603 -0.3447  0.1516
26705SOL    HW185951   5.347   2.172   5.958 -0.0305  0.7830 -0.0050
26705SOL    HW285952   5.376   2.265   6.074 -0.5214 -0.4729  1.1507
26706SOL     OW85953   7.499   5.133   4.124 -0.3299 -0.8555  0.4209
26706SOL    HW185954   7.421   5.131   4.179  0.0498 -0.9037  0.9662
26706SOL    HW285955   7.510   5.042   4.096  0.6974 -1.2650  2.0315
26707SOL     OW85956  10.689   2.566   2.729  0.2645  0.3280 -0.0461
26707SOL    HW185957  10.658   2.486   2.773  0.1937 -0.1331 -0.9153
26707SOL    HW285958  10.700   2.540   2.637  0.7209  1.1900 -0.2421
26708SOL     OW85959   5.408   1.869  10.098  0.4703  0.2559  0.5751
26708SOL    HW185960   5.426   1.945  10.154  0.0476 -1.1151  2.6581
26708SOL    HW285961   5.314   1.873  10.082  0.3905 -0.0158  0.9734
26709SOL     OW85962   8.526   3.555   8.808 -0.0316  0.3851  0.7236
26709SOL    HW185963   8.603   3.612   8.801  0.7845 -0.5388  1.7870
26709SOL    HW285964   8.512   3.544   8.902  0.3630 -1.8283  0.5831
26710SOL     OW85965   1.661   2.759   6.393 -0.1898 -0.3017  0.8626
26710SOL    HW185966   1.673   2.691   6.460 -1.7583 -1.8199 -0.3177
26710SOL    HW285967   1.749   2.774   6.358 -0.0827 -3.9744 -0.9005
26711SOL     OW85968   5.524   3.767   3.739  0.2474  0.2557 -0.3021
26711SOL    HW185969   5.548   3.815   3.660 -0.7534  1.0983 -0.1128
26711SOL    HW285970   5.603   3.718   3.762  0.5303 -0.0868 -1.8657
26712SOL     OW85971   2.148   3.998   6.735 -0.7354  0.6248 -0.7641
26712SOL    HW185972   2.056   4.022   6.721 -1.0716 -1.0498 -1.8732
26712SOL    HW285973   2.155   3.984   6.829 -1.3174  1.8315 -0.5203
26713SOL     OW85974   4.874   4.173   4.889 -0.4702  0.3564  0.3713
26713SOL    HW185975   4.959   4.213   4.874 -0.3173  0.1241  0.6071
26713SOL    HW285976   4.837   4.222   4.963 -0.9039  1.0085 -0.2607
26714SOL     OW85977   1.970   4.784   4.502  0.3060  0.6910  0.2911
26714SOL    HW185978   1.926   4.844   4.442 -1.6852  1.1811  2.1044
26714SOL    HW285979   1.996   4.710   4.448 -0.8358  1.3925 -1.2832
26715SOL     OW85980   8.873   7.912   1.292 -0.0338  0.2527  0.1605
26715SOL    HW185981   8.797   7.922   1.349  0.1157  0.0123  0.4071
26715SOL    HW285982   8.849   7.957   1.212 -0.1473  0.8179  0.5087
26716SOL     OW85983   0.783   1.809   6.167  0.4601  0.1329 -0.0328
26716SOL    HW185984   0.746   1.730   6.127 -2.0846  0.3919  1.5485
26716SOL    HW285985   0.725   1.879   6.137 -0.7488  0.5143  2.9331
26717SOL     OW85986   1.225   4.891   1.518 -0.1717 -0.1725 -0.1126
26717SOL    HW185987   1.134   4.920   1.512  0.2607  1.3443  0.4846
26717SOL    HW285988   1.254   4.919   1.604  1.8219  2.2936 -1.4591
26718SOL     OW85989   6.905   6.433   1.006 -0.2357 -0.0685 -0.5444
26718SOL    HW185990   6.979   6.442   0.946 -0.0997  0.7921 -0.2611
26718SOL    HW285991   6.898   6.338   1.021  0.3328 -0.2184 -1.1550
26719SOL     OW85992   0.918   9.786   5.946  0.4280 -0.7660  0.6297
26719SOL    HW185993   0.930   9.768   6.039 -0.3980 -1.8128  0.5520
26719SOL    HW285994   0.956   9.711   5.902  0.9584 -0.1999  0.1029
26720SOL     OW85995   6.117   4.392   6.086  0.4192 -0.0409  0.4801
26720SOL    HW185996   6.050   4.444   6.130  0.5626 -0.7172  1.5197
26720SOL    HW285997   6.071   4.314   6.055  0.5202 -0.0370  0.3183
26721SOL     OW85998   4.571   8.401   0.226 -0.3235  0.0540  0.2333
26721SOL    HW185999   4.526   8.429   0.306 -0.7526 -0.3613  0.1444
26721SOL    HW286000   4.529   8.318   0.203 -1.8327  1.2628 -1.6961
26722SOL     OW86001   9.534  10.149   4.691 -0.3016 -0.5125 -0.1269
26722SOL    HW186002   9.462  10.087   4.690 -1.0263  0.2433 -3.0448
26722SOL    HW286003   9.500  10.224   4.740 -1.9237  0.2182 -2.2578
26723SOL     OW86004   8.506   8.009   9.408 -0.4252  0.0821  0.5462
26723SOL    HW186005   8.480   7.935   9.353 -0.6309  0.6629 -0.1477
26723SOL    HW286006   8.473   8.086   9.362  3.2051  0.9878 -0.9214
26724SOL     OW86007   3.165   5.517   9.959  0.0735 -0.1798  0.7434
26724SOL    HW186008   3.201   5.466  10.032 -1.3114 -1.7795  0.3892
26724SOL    HW286009   3.147   5.452   9.892  2.7019  1.4200 -1.7182
26725SOL     OW86010   0.050  10.120   2.688 -0.4440 -0.8777 -0.4006
26725SOL    HW186011  -0.028  10.105   2.742 -0.5288 -0.6216 -0.4468
26725SOL    HW286012   0.123  10.098   2.745 -0.5920 -3.0899 -1.0039
26726SOL     OW86013   9.104  10.104   6.415  0.5772  0.3399 -0.3163
26726SOL    HW186014   9.109  10.017   6.454  0.6881  0.1639 -0.7136
26726SOL    HW286015   9.018  10.136   6.440  0.3708 -0.0533 -0.5083
26727SOL     OW86016   5.902   1.578   7.107  0.5347 -0.0277 -0.0390
26727SOL    HW186017   5.907   1.512   7.176 -0.7661  0.1296  0.2502
26727SOL    HW286018   5.983   1.569   7.058 -0.0374 -2.5261 -0.6413
26728SOL     OW86019   8.221   0.613   6.915  0.1886 -0.6449 -0.5597
26728SOL    HW186020   8.302   0.582   6.954 -0.7480 -3.0733 -0.3821
26728SOL    HW286021   8.223   0.708   6.927  1.9164 -0.8753  1.5037
26729SOL     OW86022   4.847   4.975   0.089  0.0115  0.2720 -0.1657
26729SOL    HW186023   4.846   5.041   0.159  3.0652 -2.1576  2.5223
26729SOL    HW286024   4.929   4.990   0.043  0.4439 -1.1523  0.0791
26730SOL     OW86025   4.840   6.591   7.099  0.3566  0.3590 -0.8568
26730SOL    HW186026   4.759   6.569   7.054  1.0470 -0.0045 -1.9708
26730SOL    HW286027   4.847   6.686   7.090 -0.2738  0.4749 -0.1686
26731SOL     OW86028   2.930   4.409   3.825  0.3641 -0.5493  0.1793
26731SOL    HW186029   3.011   4.413   3.877  1.3732 -0.7627 -1.3204
26731SOL    HW286030   2.939   4.330   3.773  0.2680  0.5921 -1.6657
26732SOL     OW86031   3.763   6.823   3.506 -0.1988  0.0930  0.1443
26732SOL    HW186032   3.753   6.823   3.601 -0.2277 -0.5207  0.1449
26732SOL    HW286033   3.712   6.748   3.476 -1.0263  0.8766 -0.4600
26733SOL     OW86034   7.045   8.554   0.358 -0.1980  0.0389  0.1715
26733SOL    HW186035   7.131   8.540   0.397 -1.2471  1.3732  3.2931
26733SOL    HW286036   7.034   8.649   0.356 -1.6979 -0.1058  0.1371
26734SOL     OW86037   8.408   3.562  10.571  0.9816  0.1576 -0.0363
26734SOL    HW186038   8.370   3.474  10.582  3.2089 -0.6970  1.4892
26734SOL    HW286039   8.333   3.621  10.579 -0.5741 -1.5676 -0.9939
26735SOL     OW86040   0.759   2.416   7.278  0.4967  0.2496  0.3964
26735SOL    HW186041   0.766   2.479   7.206  1.6264 -0.4375 -0.1114
26735SOL    HW286042   0.719   2.339   7.239 -1.6069  0.8595  1.1878
26736SOL     OW86043  10.705   2.373   1.683 -0.2611 -0.2172 -0.2357
26736SOL    HW186044  10.735   2.349   1.595  3.1663 -0.0497  0.7221
26736SOL    HW286045  10.655   2.297   1.713 -3.6039  0.6147 -3.0178
26737SOL     OW86046   5.260   7.378   1.101 -0.0253 -0.1328  0.0153
26737SOL    HW186047   5.172   7.357   1.069 -0.2192  0.7957 -0.0760
26737SOL    HW286048   5.306   7.410   1.024 -0.3419  1.6339  0.5289
26738SOL     OW86049   1.582   7.992   3.878 -0.3092  0.2598 -0.6094
26738SOL    HW186050   1.667   8.007   3.919 -1.0452  2.2494  0.3097
26738SOL    HW286051   1.579   8.054   3.805 -0.8485 -0.0491 -0.8639
26739SOL     OW86052   7.016  10.683   0.963  0.3425  0.3455  0.5732
26739SOL    HW186053   6.958  10.608   0.975 -0.6456  1.0307  0.2696
26739SOL    HW286054   6.999  10.739   1.038  0.6198  0.5492  0.4860
26740SOL     OW86055   6.551   0.083   1.532  0.3490  0.0841 -0.2098
26740SOL    HW186056   6.613   0.020   1.498 -1.1620 -1.2480 -0.6164
26740SOL    HW286057   6.537   0.056   1.623 -0.0089  0.0435 -0.2729
26741SOL     OW86058   0.358  10.049   9.805  0.5483 -0.7403 -0.0311
26741SOL    HW186059   0.364  10.051   9.900  1.0723 -1.9190 -0.0269
26741SOL    HW286060   0.423  10.113   9.776 -0.9036  1.0331  0.3976
26742SOL     OW86061   0.310  10.532   4.223  0.3626  0.1894 -0.1339
26742SOL    HW186062   0.255  10.509   4.299  2.5275  1.4164  1.9241
26742SOL    HW286063   0.301  10.627   4.215  0.6475  0.1426 -1.0369
26743SOL     OW86064   8.170   3.760   6.442  0.0724 -0.1904 -0.4893
26743SOL    HW186065   8.135   3.823   6.505 -1.4537  0.4575 -1.9279
26743SOL    HW286066   8.146   3.674   6.479 -1.2051  0.1861 -0.3954
26744SOL     OW86067   3.995   8.454   5.902 -1.2890  0.1208  0.3502
26744SOL    HW186068   4.087   8.460   5.928 -1.1512 -1.2795  0.2327
26744SOL    HW286069   3.990   8.507   5.822 -0.3505 -0.5650 -0.1961
26745SOL     OW86070   8.565   8.010   6.203  0.2516 -0.2055  0.3285
26745SOL    HW186071   8.597   7.928   6.240 -1.1242 -0.7949  0.2865
26745SOL    HW286072   8.470   7.998   6.197  0.1296  1.0214 -0.5955
26746SOL     OW86073   6.530   5.423   7.290  0.5095  0.1848  0.0750
26746SOL    HW186074   6.595   5.457   7.228  2.0707  0.9928  2.0585
26746SOL    HW286075   6.468   5.495   7.302  0.5244  0.2270 -0.0914
26747SOL     OW86076   6.815   7.957   2.199 -0.3931 -0.0607  0.4756
26747SOL    HW186077   6.805   7.936   2.107  0.0603 -0.6002  0.5419
26747SOL    HW286078   6.855   8.044   2.200 -2.0933  0.7507  0.1929
26748SOL     OW86079   3.436   6.213   9.572  0.5352 -0.0744 -0.7969
26748SOL    HW186080   3.381   6.139   9.546 -0.6164  0.5974 -0.3723
26748SOL    HW286081   3.523   6.175   9.586 -0.3867 -1.6872  1.0078
26749SOL     OW86082   5.064   9.909   8.915 -0.4877  0.8387 -0.2497
26749SOL    HW186083   5.058   9.960   8.834 -0.6830  1.0186 -0.1195
26749SOL    HW286084   5.101   9.825   8.887 -0.7189  0.8366 -0.5538
26750SOL     OW86085  10.574   2.609   1.007  0.2057  0.2426  0.3026
26750SOL    HW186086  10.591   2.701   0.985  0.9478  0.9531  3.4339
26750SOL    HW286087  10.536   2.611   1.094  0.5581 -2.4727  0.6142
26751SOL     OW86088   8.078   8.995   2.950 -1.2294  0.3263 -0.1929
26751SOL    HW186089   8.077   8.902   2.973 -1.9651 -0.0352 -1.5619
26751SOL    HW286090   7.985   9.020   2.948 -1.0249  1.1564  0.3996
26752SOL     OW86091   4.729   2.175   2.062  0.4138 -0.0139 -0.0485
26752SOL    HW186092   4.689   2.256   2.095  1.0271  0.1663  0.2678
26752SOL    HW286093   4.765   2.200   1.976 -0.0754 -0.1550 -0.2965
26753SOL     OW86094   9.834   6.544   3.229  0.7017  0.0019  0.6301
26753SOL    HW186095   9.739   6.551   3.224  0.7378  0.3031  0.2598
26753SOL    HW286096   9.855   6.464   3.180  0.7957  1.1576 -1.3413
26754SOL     OW86097  10.445   0.035   7.029 -0.2213 -0.3323  0.1801
26754SOL    HW186098  10.431   0.063   7.120  1.0953 -3.6529  1.5591
26754SOL    HW286099  10.540   0.023   7.022 -0.3232 -0.3945 -1.5705
26755SOL     OW86100  10.359   5.800   4.672  0.3020  0.1670 -0.9682
26755SOL    HW186101  10.281   5.833   4.627  0.3067  0.6131 -0.6576
26755SOL    HW286102  10.324   5.749   4.745  0.2407  2.5347  0.7877
26756SOL     OW86103   4.535   6.394   0.868 -0.2435 -0.3528 -0.2919
26756SOL    HW186104   4.441   6.380   0.879 -0.2621 -0.1039 -0.1315
26756SOL    HW286105   4.575   6.312   0.895 -0.4047 -0.4075 -0.2191
26757SOL     OW86106   7.289  10.518   4.806  0.2378  0.0734  0.2896
26757SOL    HW186107   7.262  10.464   4.880  2.1458 -2.7304 -0.8826
26757SOL    HW286108   7.337  10.458   4.749 -0.3904  2.2842 -2.8364
26758SOL     OW86109   8.682   0.922   9.806  0.0190  0.5036 -0.1152
26758SOL    HW186110   8.769   0.944   9.837  0.8726  0.7035 -2.4354
26758SOL    HW286111   8.690   0.833   9.769 -1.2499 -0.2595  1.3205
26759SOL     OW86112   3.719   5.632   3.013  0.0990  0.0889  0.4921
26759SOL    HW186113   3.639   5.603   2.970 -0.2862  3.1592 -1.2193
26759SOL    HW286114   3.689   5.674   3.094 -0.0447  1.0007 -0.0179
26760SOL     OW86115   5.675  10.172   6.320  0.4333 -0.1915  0.2037
26760SOL    HW186116   5.583  10.155   6.339 -0.1249  1.3488 -0.8663
26760SOL    HW286117   5.686  10.144   6.229  2.0181 -3.7530  1.3258
26761SOL     OW86118   3.351   5.426  10.142 -0.0635  0.2570  0.2401
26761SOL    HW186119   3.442   5.452  10.132 -0.0890 -0.1107 -1.1069
26761SOL    HW286120   3.351   5.367  10.218  0.8701  0.0191  0.0646
26762SOL     OW86121   2.447  10.572   1.608 -0.8223 -0.7041 -0.3371
26762SOL    HW186122   2.403  10.609   1.684 -1.5169 -1.8801 -0.1412
26762SOL    HW286123   2.417  10.481   1.605  1.4743 -1.5345 -0.2763
26763SOL     OW86124   7.078   7.089  10.151 -0.4729  0.2139 -0.1262
26763SOL    HW186125   7.098   7.087  10.245 -0.1930  2.2705 -0.0995
26763SOL    HW286126   7.113   7.007  10.118 -1.7336 -1.1677  1.7770
26764SOL     OW86127   9.374   4.117   3.230 -0.2876  0.1158  0.2519
26764SOL    HW186128   9.395   4.077   3.315 -1.2359 -1.3351 -0.1691
26764SOL    HW286129   9.372   4.044   3.169  1.3222  1.2535 -1.2527
26765SOL     OW86130  10.380   3.206   8.351  0.3336  0.0358 -0.3755
26765SOL    HW186131  10.388   3.134   8.413  2.6427  2.1099  1.9846
26765SOL    HW286132  10.286   3.225   8.349 -0.0021 -1.3034  1.0611
26766SOL     OW86133   5.433   3.749   8.530  0.0716  0.8793  0.0873
26766SOL    HW186134   5.403   3.659   8.540  1.6661  0.2876 -0.2573
26766SOL    HW286135   5.390   3.780   8.451 -0.8225  0.5784  0.4442
26767SOL     OW86136   2.095   5.868   4.706  0.0402 -0.3562  0.3478
26767SOL    HW186137   2.180   5.839   4.672 -0.5351 -2.6046  0.6446
26767SOL    HW286138   2.110   5.957   4.737  2.3296 -0.7434  0.5265
26768SOL     OW86139   0.015   0.176   9.077 -0.6804  0.1682 -0.0314
26768SOL    HW186140   0.014   0.236   9.002 -1.2741  1.7865  1.1998
26768SOL    HW286141  -0.039   0.102   9.050  0.9773 -0.4106 -2.0154
26769SOL     OW86142   0.406  10.412   9.040 -0.3204 -0.7446 -0.6509
26769SOL    HW186143   0.483  10.363   9.068  0.4919  0.8785  0.0855
26769SOL    HW286144   0.424  10.502   9.065 -1.6687  0.0007 -2.1440
26770SOL     OW86145   1.737   8.034   1.810  0.3747 -0.2472  0.1820
26770SOL    HW186146   1.736   7.949   1.854 -0.3337  0.1153  0.8910
26770SOL    HW286147   1.678   8.022   1.735 -1.3363  0.1722  1.4041
26771SOL     OW86148   9.082   0.454   1.996 -0.0560  0.0439  0.5394
26771SOL    HW186149   9.133   0.484   1.921 -0.8912 -1.1372 -0.5313
26771SOL    HW286150   9.068   0.534   2.048 -1.1847  1.3191 -1.5846
26772SOL     OW86151   4.410   1.016   6.827  0.2941  0.0466  0.2792
26772SOL    HW186152   4.389   1.109   6.838  3.6118  1.0038 -0.3004
26772SOL    HW286153   4.368   0.992   6.744 -1.3438  0.7170  0.8652
26773SOL     OW86154  10.682   9.871  10.033  0.2190  0.3629  0.6979
26773SOL    HW186155  10.762   9.826  10.061  0.9422  2.1439  1.6671
26773SOL    HW286156  10.710   9.961  10.016 -0.8281  0.1681 -2.8516
26774SOL     OW86157  10.133   9.681   6.287  0.1321  0.3222 -0.0773
26774SOL    HW186158  10.107   9.627   6.362 -2.1359 -2.4819 -2.6229
26774SOL    HW286159  10.051   9.721   6.257  0.8858  0.9395 -1.3728
26775SOL     OW86160   9.738  10.493   8.266 -0.3978 -0.2357 -0.2448
26775SOL    HW186161   9.715  10.455   8.181  0.0669  2.0009 -1.4640
26775SOL    HW286162   9.738  10.588   8.250  0.0059  0.2312  2.1904
26776SOL     OW86163   3.051   0.105   5.364  0.1284  0.1760 -0.3981
26776SOL    HW186164   3.124   0.118   5.303  0.9543 -1.2074  0.2368
26776SOL    HW286165   3.048   0.186   5.415  0.1568  0.8972 -1.5020
26777SOL     OW86166  10.328   5.774   2.944 -0.2162 -0.7330  0.2917
26777SOL    HW186167  10.416   5.795   2.913 -0.1457 -0.2717  0.7914
26777SOL    HW286168  10.292   5.857   2.973 -0.4358 -1.0740  1.0314
26778SOL     OW86169   4.996   8.429   5.587  0.5184  0.1181 -0.1752
26778SOL    HW186170   5.046   8.401   5.664  0.1777  0.6702  0.2561
26778SOL    HW286171   4.987   8.350   5.534  0.6004 -0.3083  0.4422
26779SOL     OW86172  10.006   4.931   6.078 -0.0833 -0.1183 -0.4822
26779SOL    HW186173  10.018   4.927   5.984 -1.5069  1.5328 -0.7787
26779SOL    HW286174   9.914   4.955   6.090  0.5555  1.7241  1.2635
26780SOL     OW86175   6.101   9.417  10.573 -0.2681 -0.5374 -0.5299
26780SOL    HW186176   6.169   9.447  10.634 -1.5893 -0.2076  0.8483
26780SOL    HW286177   6.100   9.484  10.505  0.2008 -0.0748 -0.0984
26781SOL     OW86178   8.950  10.611   3.436 -0.0019 -0.0500  0.5438
26781SOL    HW186179   8.884  10.657   3.384  1.1730 -0.0616 -1.0233
26781SOL    HW286180   9.023  10.674   3.443  0.5281 -0.6784  0.7271
26782SOL     OW86181   4.968   3.899   3.010 -0.2784  0.3565  0.0568
26782SOL    HW186182   4.965   3.910   3.105  0.6340  0.4003  0.0826
26782SOL    HW286183   5.012   3.815   2.997 -0.7357  0.1670 -0.3284
26783SOL     OW86184   5.400   7.769   4.347  0.3060  0.2436 -0.0675
26783SOL    HW186185   5.449   7.750   4.267 -0.2378  0.1033 -0.3731
26783SOL    HW286186   5.319   7.809   4.317  1.2047  2.6655  0.5336
26784SOL     OW86187   5.841   1.544  10.153  0.1987  0.6768  0.3323
26784SOL    HW186188   5.749   1.562  10.137  0.1729  0.1144 -0.2126
26784SOL    HW286189   5.885   1.567  10.071  0.2608 -0.9028 -0.1209
26785SOL     OW86190  10.191  10.584   7.014 -0.4990 -0.6971 -0.2934
26785SOL    HW186191  10.222  10.567   6.925  0.6684  1.6410 -0.4305
26785SOL    HW286192  10.268  10.617   7.060 -1.2997 -1.0129  1.3363
26786SOL     OW86193   2.995   0.072   2.913 -0.5332  0.2756  0.0226
26786SOL    HW186194   3.089   0.058   2.921 -1.0038 -4.2986  0.0600
26786SOL    HW286195   2.969   0.109   2.997  1.1803  1.7952 -0.0578
26787SOL     OW86196   1.758   0.427   6.583  0.1694  0.3718 -0.2583
26787SOL    HW186197   1.721   0.505   6.543 -0.5475  1.3369  2.1530
26787SOL    HW286198   1.852   0.432   6.561 -0.0258  1.3726 -0.9451
26788SOL     OW86199   4.310   6.293   9.787 -0.0937 -0.3928  0.0342
26788SOL    HW186200   4.305   6.385   9.812  0.1614 -0.3951  0.0968
26788SOL    HW286201   4.303   6.294   9.691 -0.3847 -0.3326  0.0547
26789SOL     OW86202   8.318   4.204   7.874  0.2274 -0.3015 -0.4093
26789SOL    HW186203   8.392   4.214   7.815 -0.0501  0.5148 -0.6220
26789SOL    HW286204   8.260   4.278   7.855  0.0444 -0.1193  0.7513
26790SOL     OW86205   5.596   2.966   2.382 -0.1311  0.9037 -0.0255
26790SOL    HW186206   5.575   3.014   2.462  0.0911  0.7443  0.1276
26790SOL    HW286207   5.666   3.018   2.341  0.3363  0.5406  0.3034
26791SOL     OW86208   2.493  10.372   0.361 -0.7417 -0.4087  0.4268
26791SOL    HW186209   2.434  10.330   0.297 -0.5970  0.9047 -0.6128
26791SOL    HW286210   2.580  10.361   0.322 -0.7172  0.9511  0.0508
26792SOL     OW86211   6.544   9.628   7.917 -0.1571  0.5465 -0.2784
26792SOL    HW186212   6.625   9.587   7.886 -1.3251 -1.6353 -0.6676
26792SOL    HW286213   6.475   9.567   7.892 -2.2676  3.3973 -2.1304
26793SOL     OW86214  10.325   3.053   2.706  0.0734  0.0752  0.7372
26793SOL    HW186215  10.300   2.970   2.747 -1.0042 -0.3315 -0.6981
26793SOL    HW286216  10.279   3.120   2.758 -1.3459 -0.4436  0.2124
26794SOL     OW86217   5.385   3.319   6.980 -0.1044 -1.4181 -0.1302
26794SOL    HW186218   5.307   3.319   7.036  0.6530  1.0213  1.0522
26794SOL    HW286219   5.352   3.345   6.894 -0.7550 -1.4269  0.1107
26795SOL     OW86220   8.245   5.388   0.568  0.5066  0.1440 -0.5234
26795SOL    HW186221   8.307   5.332   0.521  1.3684 -1.3016  2.1256
26795SOL    HW286222   8.246   5.355   0.657 -0.4803  3.2015  0.7502
26796SOL     OW86223   7.910   4.878   3.192 -0.6559 -0.7097 -0.0323
26796SOL    HW186224   7.934   4.836   3.275  0.6752  1.0572  0.5151
26796SOL    HW286225   7.884   4.966   3.216  0.2153 -0.0065 -1.5337
26797SOL     OW86226  10.403   9.236   4.862  0.4530 -0.2953  0.2860
26797SOL    HW186227  10.473   9.283   4.907  2.0686 -0.8628 -1.5451
26797SOL    HW286228  10.386   9.159   4.917  2.5536 -1.1043 -0.1247
26798SOL     OW86229   6.696   6.075   9.453 -0.0353  0.5466  0.3208
26798SOL    HW186230   6.700   5.979   9.458 -2.3598  0.3894  0.1176
26798SOL    HW286231   6.698   6.093   9.359  0.5393  0.7240  0.3638
26799SOL     OW86232   0.840   3.286   2.775  0.3680  0.4752  0.5060
26799SOL    HW186233   0.877   3.201   2.801 -0.2732  0.2163  0.5945
26799SOL    HW286234   0.917   3.342   2.761  0.9225 -0.7655 -1.9031
26800SOL     OW86235   2.611   3.607   9.180  0.0118 -0.0821 -0.3598
26800SOL    HW186236   2.625   3.605   9.274  2.0654  0.2341 -0.6244
26800SOL    HW286237   2.680   3.552   9.143 -1.1131 -0.6967 -1.6718
26801SOL     OW86238   3.913   1.563   8.788  0.1982  0.1735 -0.1666
26801SOL    HW186239   3.937   1.580   8.879 -0.9517  2.0982 -0.1619
26801SOL    HW286240   3.817   1.561   8.788  0.1913 -0.2336 -1.2624
26802SOL     OW86241   7.270   4.764   7.295 -0.3264  0.4347 -0.3595
26802SOL    HW186242   7.177   4.787   7.299 -0.8177 -1.5377  2.1827
26802SOL    HW286243   7.276   4.681   7.342  2.5905 -0.0720 -1.4449
26803SOL     OW86244   3.910   7.502   6.531 -0.5239 -0.0195  0.5571
26803SOL    HW186245   3.997   7.479   6.497 -0.6545  2.1137 -1.5073
26803SOL    HW286246   3.852   7.437   6.491 -0.1345 -0.1770  0.2337
26804SOL     OW86247   4.084   7.543   8.281 -0.0400  0.4062  0.1226
26804SOL    HW186248   4.021   7.614   8.273 -0.2286  0.2034 -0.2079
26804SOL    HW286249   4.034   7.464   8.259  0.4469  0.2940 -0.5924
26805SOL     OW86250   5.922  10.711   4.656 -0.6644  0.5165 -0.2684
26805SOL    HW186251   5.897  10.794   4.615  1.3125  0.9363 -0.7468
26805SOL    HW286252   5.859  10.647   4.623 -0.6769  1.3433 -1.9682
26806SOL     OW86253   3.167  10.379   7.585  0.3612  0.1183  0.1886
26806SOL    HW186254   3.082  10.423   7.580 -0.8499 -1.9828  0.9684
26806SOL    HW286255   3.147  10.286   7.574  2.6691 -0.3942 -0.3298
26807SOL     OW86256   4.133   5.610   6.225 -0.1266 -0.0774  0.3749
26807SOL    HW186257   4.130   5.683   6.164 -0.6741  0.2193  0.7503
26807SOL    HW286258   4.045   5.606   6.263  0.0251 -0.6498  0.6836
26808SOL     OW86259   8.711   1.759   5.186 -0.2741  0.4217 -0.8214
26808SOL    HW186260   8.735   1.674   5.221  0.1840  0.1478 -1.7628
26808SOL    HW286261   8.617   1.753   5.170 -0.5343  0.6356  0.5514
26809SOL     OW86262   9.743   0.160   8.851  0.4061 -0.0720 -0.1873
26809SOL    HW186263   9.716   0.105   8.924  1.0422  1.9079  1.6477
26809SOL    HW286264   9.834   0.183   8.871  0.3708  1.0696 -1.2259
26810SOL     OW86265   5.854   8.302   6.816  0.0372 -0.4861  0.5847
26810SOL    HW186266   5.923   8.363   6.790  0.6459 -2.0840 -1.8445
26810SOL    HW286267   5.870   8.286   6.909  2.1671  0.1637  0.3821
26811SOL     OW86268   6.688   8.465   5.706  0.1232 -0.5031  0.4545
26811SOL    HW186269   6.617   8.527   5.688  1.8944  1.5328  0.0581
26811SOL    HW286270   6.726   8.495   5.788  1.5738 -0.5098 -0.1900
26812SOL     OW86271   2.654   3.920   7.662  0.6424  0.0507 -0.4330
26812SOL    HW186272   2.646   3.883   7.574 -1.1846 -0.7729  0.0314
26812SOL    HW286273   2.563   3.934   7.691  1.2109  0.8139  1.1108
26813SOL     OW86274   1.420   2.392  10.369 -0.1180 -0.1561 -0.1121
26813SOL    HW186275   1.461   2.470  10.406 -1.0830  0.2017  0.2439
26813SOL    HW286276   1.487   2.353  10.314  1.3025 -0.5778  1.8076
26814SOL     OW86277   3.962   8.028   9.712  0.4036  0.1456 -0.7724
26814SOL    HW186278   3.965   8.047   9.619  0.0258  0.9786 -0.6228
26814SOL    HW286279   3.982   8.112   9.755  3.0587 -0.7208 -0.1021
26815SOL     OW86280   4.221   7.551   5.897  0.4418 -0.0645  0.3016
26815SOL    HW186281   4.239   7.457   5.888  0.7531  0.0433 -0.2473
26815SOL    HW286282   4.299   7.594   5.863 -0.7958  0.4103 -2.1662
26816SOL     OW86283   2.316   3.040   4.691 -0.3263 -0.0503  0.2736
26816SOL    HW186284   2.263   3.028   4.769 -0.9592 -0.3665 -0.1873
26816SOL    HW286285   2.280   3.118   4.649  1.2041  1.2198  1.2215
26817SOL     OW86286  10.008   7.051   9.199 -0.0561 -0.2208 -0.4877
26817SOL    HW186287  10.052   7.068   9.116 -0.5591 -0.1026 -0.7354
26817SOL    HW286288  10.035   6.962   9.223  0.8154  0.0775 -0.3093
26818SOL     OW86289   3.932   4.315   6.411  0.6020 -0.0131 -0.2943
26818SOL    HW186290   3.950   4.317   6.317  1.1865  2.0381 -0.1790
26818SOL    HW286291   4.012   4.278   6.450  0.7794  0.1193 -0.5293
26819SOL     OW86292   2.550   6.664   9.032 -0.5009 -0.1658  0.5205
26819SOL    HW186293   2.463   6.696   9.007 -1.0280 -0.8275  1.4361
26819SOL    HW286294   2.609   6.734   9.006 -1.4650  0.9009  1.0970
26820SOL     OW86295   6.059   2.821   8.460 -0.2410  0.9294 -0.2117
26820SOL    HW186296   5.979   2.873   8.465 -1.2654 -0.6112  0.3203
26820SOL    HW286297   6.028   2.730   8.459  1.4494  0.3178 -1.4242
26821SOL     OW86298   5.943   4.839   9.727 -0.4903  0.0510  0.1253
26821SOL    HW186299   5.962   4.751   9.759  0.5454 -0.4015 -1.5993
26821SOL    HW286300   6.003   4.896   9.777  1.0060 -0.6183 -0.8404
26822SOL     OW86301   5.433   2.173   3.730  0.3271 -0.2068 -0.4358
26822SOL    HW186302   5.479   2.091   3.749 -0.8034 -0.5377  1.0385
26822SOL    HW286303   5.403   2.163   3.640 -0.3753 -1.7252 -0.0634
26823SOL     OW86304   6.883   1.859   6.542 -0.0164 -0.0626 -0.2044
26823SOL    HW186305   6.949   1.895   6.483  0.2213 -0.3621 -0.1226
26823SOL    HW286306   6.933   1.824   6.615 -0.0987 -2.0150 -1.0178
26824SOL     OW86307   1.521   1.634   9.696  0.4299  0.2359 -0.0803
26824SOL    HW186308   1.478   1.559   9.655  1.2004 -0.3124  0.0937
26824SOL    HW286309   1.611   1.630   9.665  0.9252  0.0668  1.3168
26825SOL     OW86310   0.697   4.019   7.663  0.1114  0.5127 -0.0850
26825SOL    HW186311   0.634   4.080   7.626 -0.0228  0.3070 -0.1960
26825SOL    HW286312   0.662   3.932   7.643 -0.2006  0.3979  0.9181
26826SOL     OW86313   6.341   8.243   5.032  0.0179 -0.0554  0.1348
26826SOL    HW186314   6.378   8.323   4.995  2.1740 -0.3093  1.5940
26826SOL    HW286315   6.257   8.270   5.069  0.5918  1.4774  0.3883
26827SOL     OW86316   3.559   6.739   1.325  0.0601 -0.6308 -0.1950
26827SOL    HW186317   3.561   6.819   1.273 -1.2649 -0.8240 -0.5717
26827SOL    HW286318   3.540   6.769   1.414  0.8337 -0.4338 -0.0855
26828SOL     OW86319   0.495   9.362   6.733 -0.4295  0.5238 -0.4487
26828SOL    HW186320   0.486   9.446   6.688 -1.2295  1.3391  1.1666
26828SOL    HW286321   0.411   9.348   6.776  0.0995 -0.5006  0.2982
26829SOL     OW86322   2.633  10.438   7.416  0.1597 -0.2755 -0.6917
26829SOL    HW186323   2.581  10.394   7.482 -0.0552  1.8404  0.6292
26829SOL    HW286324   2.584  10.517   7.394  1.6169  0.5232 -1.2501
26830SOL     OW86325   9.649   1.136   7.348 -0.4433 -0.1150 -0.6404
26830SOL    HW186326   9.580   1.201   7.335  0.8630  1.2366 -1.0690
26830SOL    HW286327   9.730   1.185   7.337  0.5907 -1.8549 -1.0620
26831SOL     OW86328  10.630   9.191   2.051 -0.3112  0.0026  0.4577
26831SOL    HW186329  10.708   9.230   2.011 -0.0115 -2.0392 -1.1358
26831SOL    HW286330  10.658   9.103   2.076 -1.9217 -0.5269  0.4935
26832SOL     OW86331   6.586   1.392   3.769 -0.8559  0.0420 -0.3802
26832SOL    HW186332   6.618   1.458   3.830 -3.1572  0.8200  0.1051
26832SOL    HW286333   6.592   1.433   3.683  0.8338 -0.4180 -0.4983
26833SOL     OW86334   7.260   2.543   7.417  0.1335 -0.1801 -0.0234
26833SOL    HW186335   7.343   2.497   7.406 -0.6588 -1.7986  0.3973
26833SOL    HW286336   7.238   2.576   7.330  0.7051 -0.6498 -0.3426
26834SOL     OW86337   5.954   2.469   0.807  0.2605 -0.0917 -0.1505
26834SOL    HW186338   5.913   2.477   0.893  1.8562  1.1347  0.5464
26834SOL    HW286339   5.884   2.491   0.745 -0.8182 -0.6453  0.8224
26835SOL     OW86340   5.549   0.249   7.143  0.2382 -0.2502 -0.3295
26835SOL    HW186341   5.616   0.306   7.105  0.0916 -1.1551 -2.0735
26835SOL    HW286342   5.467   0.276   7.101 -0.2583 -0.1339  0.6792
26836SOL     OW86343   8.000   8.086   1.688 -0.0910  0.2418  0.2304
26836SOL    HW186344   8.030   8.017   1.748  0.6554  0.8192  0.5420
26836SOL    HW286345   7.918   8.116   1.726 -0.3689 -0.4053  0.1508
26837SOL     OW86346   7.317  10.571   7.326  0.0895 -0.6578  0.1122
26837SOL    HW186347   7.286  10.647   7.375 -0.1248 -0.7905  0.1884
26837SOL    HW286348   7.370  10.522   7.389 -0.8630 -1.2563  0.4718
26838SOL     OW86349   9.703   2.400   2.218  0.2339 -0.1447 -0.3520
26838SOL    HW186350   9.777   2.420   2.274  0.1216  0.3290 -0.3682
26838SOL    HW286351   9.738   2.405   2.129  0.4986 -1.2535 -0.3279
26839SOL     OW86352   5.740   3.776   0.908  0.2437 -0.2925  0.0705
26839SOL    HW186353   5.679   3.775   0.834 -1.5451 -1.9364  1.4838
26839SOL    HW286354   5.748   3.869   0.930 -3.0449 -0.0413  0.7837
26840SOL     OW86355  10.477   9.235   3.230  0.2473 -0.1553  0.5210
26840SOL    HW186356  10.481   9.240   3.135 -1.3253 -0.3050  0.4207
26840SOL    HW286357  10.390   9.199   3.249  1.1922 -1.8311  1.9752
26841SOL     OW86358   0.876   1.001   8.310  0.3970 -0.1532 -0.3014
26841SOL    HW186359   0.817   0.975   8.239  0.8842 -1.7659 -0.1479
26841SOL    HW286360   0.833   1.078   8.349 -2.6410 -2.2792  0.9726
26842SOL     OW86361   5.245   7.632   2.464 -0.0089 -0.1524 -1.0268
26842SOL    HW186362   5.301   7.593   2.397  1.6665 -1.6696  1.1052
26842SOL    HW286363   5.172   7.570   2.473  2.1104 -2.5544  1.6059
26843SOL     OW86364   5.552   5.888   3.369 -0.6052 -0.9404 -0.1254
26843SOL    HW186365   5.502   5.810   3.346 -2.4242 -0.2104  1.0544
26843SOL    HW286366   5.577   5.874   3.461 -3.1521  0.8317  0.9603
26844SOL     OW86367   8.913   6.007   3.834 -0.1233 -0.4576  0.1002
26844SOL    HW186368   8.941   6.083   3.783 -2.9557  0.3698 -0.3882
26844SOL    HW286369   8.867   6.044   3.909  0.4590 -1.7161  1.1112
26845SOL     OW86370   2.429   7.349   5.983  0.0102 -0.2412  0.3083
26845SOL    HW186371   2.479   7.278   5.943  0.8458 -0.1174  1.0939
26845SOL    HW286372   2.493   7.420   5.996 -0.4215  0.0229  1.0807
26846SOL     OW86373   7.520  10.650   9.488 -0.2294  0.0671 -0.0720
26846SOL    HW186374   7.582  10.709   9.531 -0.6465 -0.1771  0.8927
26846SOL    HW286375   7.479  10.602   9.560 -0.0802 -1.2263 -0.8134
26847SOL     OW86376   7.203   3.029   3.331 -0.8694 -0.8260  0.7049
26847SOL    HW186377   7.296   3.042   3.350 -0.9352  1.0573 -0.0345
26847SOL    HW286378   7.158   3.086   3.393 -1.2988  1.2869 -1.3704
26848SOL     OW86379   1.356   1.799   1.242 -0.3627  0.1071 -0.4714
26848SOL    HW186380   1.295   1.837   1.306 -1.4981 -2.6093  0.1991
26848SOL    HW286381   1.309   1.803   1.159 -0.0390  1.0416 -0.6287
26849SOL     OW86382   3.458   9.214   8.146  0.1834  0.2781  0.4860
26849SOL    HW186383   3.370   9.245   8.165 -0.7667 -2.2213  0.5250
26849SOL    HW286384   3.449   9.162   8.066  1.8248  0.7167 -0.0404
26850SOL     OW86385   6.556   7.912   0.533  0.4001 -0.0430  0.2517
26850SOL    HW186386   6.469   7.942   0.562  0.5086  1.3098 -0.7252
26850SOL    HW286387   6.566   7.951   0.446 -0.4211 -4.8631 -2.3148
26851SOL     OW86388   4.272   3.626   3.556  0.5359  0.0677  0.1320
26851SOL    HW186389   4.226   3.556   3.509 -0.1016  0.1649  0.6066
26851SOL    HW286390   4.291   3.692   3.489  0.3911 -0.1756 -0.1518
26852SOL     OW86391   3.326   8.363   4.828 -0.0823 -0.1679 -0.0790
26852SOL    HW186392   3.320   8.458   4.839  1.8412 -0.0688  0.3848
26852SOL    HW286393   3.242   8.330   4.860  0.1523  1.1881  2.1255
26853SOL     OW86394   4.005   0.843   1.021  0.0029 -0.4921 -0.5528
26853SOL    HW186395   3.997   0.910   0.954 -3.0183 -0.7257 -0.5837
26853SOL    HW286396   4.082   0.868   1.072  1.6995  0.3406 -3.3184
26854SOL     OW86397   6.797  10.290   6.817 -0.2562 -0.0242 -0.3952
26854SOL    HW186398   6.869  10.328   6.869 -1.0077 -0.4660  1.0417
26854SOL    HW286399   6.754  10.365   6.778  0.0683  0.3739 -0.0140
26855SOL     OW86400   7.439   2.285   1.835  0.0168  0.3748  0.1690
26855SOL    HW186401   7.452   2.349   1.765  3.3491 -0.7542 -0.4040
26855SOL    HW286402   7.510   2.302   1.897  0.2513 -1.9718  0.6169
26856SOL     OW86403   4.618   4.739   0.960  0.5973 -0.0575  0.2427
26856SOL    HW186404   4.620   4.828   0.925  0.6316  0.7571  2.2249
26856SOL    HW286405   4.609   4.684   0.882 -0.8462  1.7191 -0.9298
26857SOL     OW86406   2.227  10.361   4.930  0.9013 -0.3469  0.7036
26857SOL    HW186407   2.155  10.362   4.868  0.2278  1.6609  1.4318
26857SOL    HW286408   2.208  10.288   4.988  0.5434 -1.0772 -0.3126
26858SOL     OW86409   2.566   5.639   0.874  0.3668  0.3160  0.8784
26858SOL    HW186410   2.557   5.706   0.941  1.2090  0.0509  1.2737
26858SOL    HW286411   2.528   5.560   0.912 -0.1054  0.4231  0.6345
26859SOL     OW86412   3.542   2.258   7.439 -0.0150 -0.3039  0.0916
26859SOL    HW186413   3.594   2.336   7.459 -1.1014  0.8027 -1.1829
26859SOL    HW286414   3.493   2.241   7.519 -1.1228  1.4624 -0.1551
26860SOL     OW86415   5.523   4.577   1.583  0.2792 -0.3774  0.0636
26860SOL    HW186416   5.458   4.519   1.623  0.4278 -0.0984  0.7113
26860SOL    HW286417   5.550   4.530   1.503 -1.2782 -0.1433 -0.6364
26861SOL     OW86418   2.022   7.584   5.140 -0.2578 -0.4565  0.1660
26861SOL    HW186419   1.943   7.636   5.127  0.7560  1.0479 -0.1495
26861SOL    HW286420   1.989   7.496   5.161 -2.0260  0.6730  2.5580
26862SOL     OW86421   2.055   1.094   6.163 -0.3272  0.0549  0.2229
26862SOL    HW186422   2.011   1.093   6.078 -0.5599  0.1260  0.3427
26862SOL    HW286423   2.069   1.001   6.183 -0.7907  0.0175  0.3753
26863SOL     OW86424   4.351   0.547   5.289  0.1607  0.1858  0.3720
26863SOL    HW186425   4.335   0.453   5.282  3.3186 -0.5334  0.9987
26863SOL    HW286426   4.270   0.588   5.259 -1.6747 -2.7033  0.9766
26864SOL     OW86427   9.496   1.711   0.054  0.8834  0.1518 -0.1364
26864SOL    HW186428   9.576   1.671   0.091  0.3253 -0.7220  0.1708
26864SOL    HW286429   9.518   1.728  -0.037  1.7035  0.7067  0.1524
26865SOL     OW86430   7.885   6.045   8.784 -0.1338 -0.0337  0.0604
26865SOL    HW186431   7.939   5.992   8.842  0.8209 -1.3872 -1.9221
26865SOL    HW286432   7.940   6.058   8.706 -2.6181 -1.6159 -2.1449
26866SOL     OW86433   0.341   7.680   7.589  0.2825  0.4777 -0.2036
26866SOL    HW186434   0.369   7.607   7.645  0.1508  0.4660 -0.1533
26866SOL    HW286435   0.309   7.638   7.509 -2.1015  0.3134  0.7630
26867SOL     OW86436   5.159   3.044   8.432  0.4481 -0.5846  0.3492
26867SOL    HW186437   5.170   3.078   8.343 -1.4064 -1.2148 -0.1708
26867SOL    HW286438   5.175   2.950   8.424 -0.3827 -0.7495  0.5299
26868SOL     OW86439   9.858   8.433   5.284  0.2069 -0.3167 -0.2562
26868SOL    HW186440   9.874   8.358   5.342  0.6930  0.4125  0.5628
26868SOL    HW286441   9.846   8.507   5.342  1.1083  0.5134 -1.0837
26869SOL     OW86442   0.192   3.382   8.170  0.5824 -0.1203 -0.0951
26869SOL    HW186443   0.119   3.400   8.111 -0.5629 -1.2274  0.9485
26869SOL    HW286444   0.155   3.330   8.240  2.3418 -0.5464  0.5765
26870SOL     OW86445   1.060   5.826  10.565  0.1355  0.0861  0.4492
26870SOL    HW186446   1.131   5.766  10.539 -0.0601 -0.2997  0.7811
26870SOL    HW286447   1.025   5.859  10.483  2.0405  1.8939  0.2990
26871SOL     OW86448   6.618  10.713  10.533 -0.0058  0.0140 -0.2799
26871SOL    HW186449   6.636  10.683  10.622 -1.0184  0.5370  0.1099
26871SOL    HW286450   6.653  10.802  10.530 -1.8256  0.7814  0.2695
26872SOL     OW86451   6.264   1.214   9.872  0.6823 -0.1633  0.2182
26872SOL    HW186452   6.310   1.294   9.896 -0.3919  0.2931  0.8400
26872SOL    HW286453   6.291   1.149   9.936  0.7167  0.0080  0.3763
26873SOL     OW86454  10.624   8.916   2.033  0.1158 -0.2106  0.1322
26873SOL    HW186455  10.603   8.877   1.948 -2.4576 -0.9277  0.9947
26873SOL    HW286456  10.680   8.852   2.076 -0.1586 -0.7452 -0.2857
26874SOL     OW86457   2.740   4.859   3.801  0.3087 -0.0798 -0.0262
26874SOL    HW186458   2.705   4.930   3.747  0.7661  0.3380  0.2261
26874SOL    HW286459   2.744   4.783   3.742 -0.7780 -0.0759 -0.1316
26875SOL     OW86460  10.703   8.086   4.206  0.0874 -0.1762  0.7709
26875SOL    HW186461  10.763   8.161   4.207 -0.0366 -0.0770  1.2169
26875SOL    HW286462  10.619   8.123   4.232 -0.8024  0.1632 -2.2667
26876SOL     OW86463   6.729   0.603   5.475  0.7608  0.5407 -0.5760
26876SOL    HW186464   6.769   0.525   5.513 -1.2890 -0.4523 -0.2843
26876SOL    HW286465   6.728   0.667   5.546 -4.0424 -1.6405  1.8599
26877SOL     OW86466   8.119   7.880   9.352  0.6956 -0.2378 -0.0670
26877SOL    HW186467   8.174   7.875   9.430 -0.9577 -1.8109  1.0847
26877SOL    HW286468   8.131   7.795   9.308  1.3704  0.5083 -1.4050
26878SOL     OW86469   1.612   4.040   8.654 -0.3102 -0.0776  0.1022
26878SOL    HW186470   1.662   4.079   8.726  1.4035 -1.6115 -0.1639
26878SOL    HW286471   1.609   3.946   8.675 -1.1602 -0.3286 -1.0262
26879SOL     OW86472   5.425   3.804   8.036  0.4522  0.6480 -0.2876
26879SOL    HW186473   5.350   3.814   7.977  1.0757  0.5135 -1.1225
26879SOL    HW286474   5.478   3.735   7.997  0.0485 -0.6522  1.3513
26880SOL     OW86475   6.856  10.329   1.938 -0.1176 -0.1468 -0.4307
26880SOL    HW186476   6.898  10.261   1.990 -0.0063  1.4189  1.6807
26880SOL    HW286477   6.765  10.303   1.933 -0.1266 -0.3628  0.5818
26881SOL     OW86478  10.637   8.367   1.106 -0.3707  0.2662 -0.0550
26881SOL    HW186479  10.625   8.363   1.012  0.4982 -0.4623 -0.1448
26881SOL    HW286480  10.633   8.461   1.126 -3.4587  0.2869 -0.3764
26882SOL     OW86481   4.421   0.698   6.626 -0.2130  0.1797  0.1943
26882SOL    HW186482   4.447   0.607   6.640  0.6307  0.5832  1.4055
26882SOL    HW286483   4.337   0.707   6.669  0.1367  0.2000  0.8790
26883SOL     OW86484   9.045   9.898   9.563  0.6323  0.0018  0.5203
26883SOL    HW186485   8.950   9.893   9.559  0.5984  0.6762  0.3511
26883SOL    HW286486   9.066   9.874   9.653  0.4715 -2.2787 -0.0055
26884SOL     OW86487  10.495   8.290   7.171  0.2025 -0.4531 -0.3362
26884SOL    HW186488  10.535   8.205   7.154  1.0593 -0.2130  0.3996
26884SOL    HW286489  10.495   8.298   7.266  0.7487  0.6394 -0.4057
26885SOL     OW86490   9.432   2.081   4.117  0.1475 -0.0438  0.4463
26885SOL    HW186491   9.382   2.042   4.046 -0.3546 -0.6287  1.1027
26885SOL    HW286492   9.522   2.052   4.102 -0.0207 -0.4783  0.2641
26886SOL     OW86493   1.569   5.425   3.812  0.2650 -0.0758 -0.3846
26886SOL    HW186494   1.500   5.464   3.759 -2.1680  1.0381  3.2236
26886SOL    HW286495   1.616   5.500   3.850 -0.2149 -0.6728  1.5162
26887SOL     OW86496  10.013   6.606   9.868 -0.6897 -0.4031  0.1074
26887SOL    HW186497   9.921   6.601   9.894 -0.2185  0.8671  2.3428
26887SOL    HW286498  10.052   6.526   9.906 -0.4901  0.1690  1.1527
26888SOL     OW86499   6.450   3.758   7.851  0.2404  0.5532 -0.0602
26888SOL    HW186500   6.384   3.823   7.875  1.8113  2.2162  0.0113
26888SOL    HW286501   6.510   3.805   7.793  2.3586 -0.3326  1.2862
26889SOL     OW86502   2.612   4.434   3.507 -0.3015  0.2224 -0.6311
26889SOL    HW186503   2.648   4.463   3.423  0.7804 -0.0727 -0.2868
26889SOL    HW286504   2.599   4.340   3.496  0.7238  0.0132 -0.1795
26890SOL     OW86505   6.021   2.613   9.159 -1.0836 -0.5707 -0.0387
26890SOL    HW186506   6.109   2.583   9.180 -1.2779 -0.5881  0.7584
26890SOL    HW286507   6.035   2.696   9.112 -0.6331 -0.8065 -0.3335
26891SOL     OW86508   5.065   3.372   9.938 -0.5886  0.1183 -0.3934
26891SOL    HW186509   5.094   3.283   9.957 -0.2421  0.5488  1.2853
26891SOL    HW286510   5.136   3.427   9.970 -1.2638  1.0301 -0.4306
26892SOL     OW86511   9.188   1.417   6.241  0.3684 -0.1258 -0.9698
26892SOL    HW186512   9.117   1.366   6.282  0.5980  0.5664  0.3288
26892SOL    HW286513   9.267   1.387   6.284  0.3082  2.8827  1.5743
26893SOL     OW86514   9.370   5.491   5.830  0.4524  0.1103 -0.0026
26893SOL    HW186515   9.348   5.415   5.776  0.9892 -0.4143  0.5060
26893SOL    HW286516   9.425   5.456   5.900 -1.7699  0.4460  2.0003
26894SOL     OW86517   1.882   9.435   7.085 -0.0180  0.5418 -0.6463
26894SOL    HW186518   1.885   9.408   6.994 -0.0340  0.6260 -0.6717
26894SOL    HW286519   1.904   9.528   7.084  1.2554  0.2582 -0.4300
26895SOL     OW86520   9.604   6.156  10.112  0.9496 -0.1697  0.2654
26895SOL    HW186521   9.517   6.129  10.142  1.3851 -0.0684  1.6836
26895SOL    HW286522   9.624   6.096  10.041  1.3106 -2.7625  2.4084
26896SOL     OW86523   8.190   5.278   3.993 -0.2151  0.2174  0.1967
26896SOL    HW186524   8.177   5.272   4.088  0.4121  1.0111  0.3436
26896SOL    HW286525   8.269   5.228   3.976 -0.1248  0.3782  0.1425
26897SOL     OW86526   3.246   4.727   6.940 -0.0914  0.7875  0.6704
26897SOL    HW186527   3.236   4.633   6.923 -0.6411  0.6121  1.8805
26897SOL    HW286528   3.161   4.764   6.920 -0.0612  0.9355  0.8191
26898SOL     OW86529   2.517   2.805   3.636  0.0063  0.1959 -0.0359
26898SOL    HW186530   2.460   2.728   3.630  0.1631 -0.0077  0.9111
26898SOL    HW286531   2.484   2.853   3.713  0.8147  0.3123  0.2444
26899SOL     OW86532   8.387   6.405   2.311  0.8904 -0.2907 -0.3316
26899SOL    HW186533   8.359   6.348   2.240 -0.9936  2.0470 -1.5856
26899SOL    HW286534   8.365   6.493   2.282  1.0494  0.8708  2.6974
26900SOL     OW86535   7.110   8.381   8.510  0.1665  0.4451  0.7399
26900SOL    HW186536   7.092   8.394   8.603 -0.9981 -0.8229  0.7167
26900SOL    HW286537   7.042   8.432   8.466 -0.2324 -0.1972  0.6037
26901SOL     OW86538   3.299  10.103   6.441 -0.5529 -0.1251 -0.2281
26901SOL    HW186539   3.364  10.171   6.459 -0.8954  0.0364  0.4446
26901SOL    HW286540   3.232  10.147   6.388 -1.2836  0.3582  1.0530
26902SOL     OW86541   6.157   8.027   1.756 -0.4725  0.6202 -0.0234
26902SOL    HW186542   6.148   8.045   1.662 -0.5833  0.9335  0.0444
26902SOL    HW286543   6.240   7.980   1.764 -0.5827  0.3686 -0.3077
26903SOL     OW86544   8.810   4.648   4.258 -0.1098 -0.4338  0.4453
26903SOL    HW186545   8.770   4.584   4.317 -0.5064  0.7513  1.5008
26903SOL    HW286546   8.884   4.601   4.219  0.4922 -1.1030  2.2892
26904SOL     OW86547   2.524   4.195   3.978 -0.1510  0.2184  0.1178
26904SOL    HW186548   2.563   4.278   4.005 -1.0244  0.6008  0.2452
26904SOL    HW286549   2.438   4.219   3.944 -0.7457 -0.7124  0.8950
26905SOL     OW86550   5.545   9.774   7.812  0.3143 -0.3551  0.5455
26905SOL    HW186551   5.623   9.756   7.760 -0.3933 -2.9152  0.2377
26905SOL    HW286552   5.514   9.858   7.781  2.2993  0.1821 -0.1253
26906SOL     OW86553   0.041   5.820   3.190  0.0441  0.5242  0.0598
26906SOL    HW186554   0.021   5.742   3.138  0.6702  0.5356 -0.2086
26906SOL    HW286555   0.006   5.800   3.277  1.7609 -0.8343  0.4967
26907SOL     OW86556   8.579   7.457   2.013 -0.0915 -0.6481 -0.2541
26907SOL    HW186557   8.516   7.459   2.085 -1.5000  1.9989 -1.4290
26907SOL    HW286558   8.643   7.524   2.035 -0.5711  0.2322 -1.4370
26908SOL     OW86559   8.847   7.316   4.115  0.3547  0.0399  0.7315
26908SOL    HW186560   8.813   7.226   4.108 -0.2020  0.1737  1.5991
26908SOL    HW286561   8.918   7.310   4.180  1.8290 -0.1718 -0.8134
26909SOL     OW86562  10.224   7.716   6.560 -0.0722 -0.1789 -0.1250
26909SOL    HW186563  10.192   7.658   6.630  0.2138  0.5428  0.6236
26909SOL    HW286564  10.164   7.790   6.561  0.0295 -0.0881 -0.5432
26910SOL     OW86565   8.120   0.750   6.329  0.1132 -0.1986 -0.1589
26910SOL    HW186566   8.080   0.721   6.411 -0.6308 -1.0380 -0.7962
26910SOL    HW286567   8.199   0.796   6.356  0.1656 -0.9270  1.0018
26911SOL     OW86568   8.349   2.230  10.050  0.8243  0.0376 -0.1981
26911SOL    HW186569   8.410   2.180  10.103  0.1724  0.7793  1.3245
26911SOL    HW286570   8.288   2.268  10.113  0.7621  2.0107 -1.3487
26912SOL     OW86571   3.162   2.654   6.220 -0.1564  0.0971 -0.1284
26912SOL    HW186572   3.234   2.596   6.195  0.4821  0.5131  0.6797
26912SOL    HW286573   3.115   2.606   6.288 -0.2500  0.0912 -0.1982
26913SOL     OW86574   5.119   7.060   4.732  0.5539  0.1954  0.0958
26913SOL    HW186575   5.167   7.021   4.805  0.6336 -1.0559 -0.6096
26913SOL    HW286576   5.031   7.025   4.740  0.0281  1.5422  0.6670
26914SOL     OW86577   6.152   2.018   3.365  0.2059 -0.0724  0.0156
26914SOL    HW186578   6.165   1.969   3.283  0.7708  1.0799 -0.6087
26914SOL    HW286579   6.059   2.006   3.386  0.5557 -2.3742  0.5413
26915SOL     OW86580   3.315   7.567   8.707  0.0489 -0.0435 -0.0171
26915SOL    HW186581   3.379   7.616   8.758  0.7683 -0.9051 -0.0846
26915SOL    HW286582   3.276   7.632   8.649  0.7218  0.5253  0.1595
26916SOL     OW86583   9.229   4.658  10.134 -0.6549  0.3829 -0.2712
26916SOL    HW186584   9.217   4.640  10.228 -0.2015 -1.5314 -0.5357
26916SOL    HW286585   9.301   4.600  10.108 -1.0731  0.5505 -1.8975
26917SOL     OW86586   0.230   1.854   6.492 -0.3923 -0.1695  0.0065
26917SOL    HW186587   0.308   1.868   6.438 -0.7748 -0.0567 -0.5211
26917SOL    HW286588   0.256   1.885   6.579 -0.6908  2.4491 -0.7481
26918SOL     OW86589   2.850   3.094   1.673 -0.0254 -0.2645  0.0110
26918SOL    HW186590   2.803   3.037   1.734  1.5553 -1.7345 -0.0744
26918SOL    HW286591   2.857   3.177   1.720 -0.8577 -0.6580  0.8727
26919SOL     OW86592   5.027   3.268   7.297 -0.1280 -0.4357  0.0629
26919SOL    HW186593   4.982   3.352   7.299  1.5749  0.6404 -2.1336
26919SOL    HW286594   5.113   3.286   7.336 -0.7179 -1.9446  2.2799
26920SOL     OW86595   0.025   2.860   8.494  0.4824  0.2225  0.0318
26920SOL    HW186596   0.118   2.882   8.486  0.6887 -0.0624  1.3256
26920SOL    HW286597  -0.001   2.897   8.578  0.3007 -2.5064  1.2983
26921SOL     OW86598   6.119   2.133   5.255 -0.2646 -0.2405  0.2520
26921SOL    HW186599   6.109   2.050   5.301  0.1594  0.2179  1.2202
26921SOL    HW286600   6.166   2.112   5.175  1.7303 -0.6815  1.4507
26922SOL     OW86601   7.596   0.560   6.501  0.6340  0.1121 -0.0356
26922SOL    HW186602   7.679   0.551   6.547 -0.0139 -0.9258  0.9926
26922SOL    HW286603   7.619   0.597   6.416  2.4799 -2.3622 -0.7325
26923SOL     OW86604   3.710  10.360   8.778  0.1369 -0.5387  0.3578
26923SOL    HW186605   3.667  10.319   8.853  1.4504 -1.8910  0.4216
26923SOL    HW286606   3.804  10.353   8.798  0.4477  0.9191 -0.4802
26924SOL     OW86607   7.265   9.307   9.115 -0.1571 -0.1368  0.2229
26924SOL    HW186608   7.324   9.316   9.040  2.6345 -1.4961  2.0552
26924SOL    HW286609   7.248   9.213   9.121 -1.8235  0.1453  0.2838
26925SOL     OW86610   5.189   6.865   4.485 -0.2701 -0.0098 -0.3704
26925SOL    HW186611   5.194   6.911   4.568 -0.0888  1.6763 -1.2702
26925SOL    HW286612   5.156   6.778   4.507 -0.7746  0.5940  1.3787
26926SOL     OW86613   1.678   2.654   7.854 -0.3642  0.2319 -0.0525
26926SOL    HW186614   1.763   2.671   7.812 -1.0865  0.2527 -1.5748
26926SOL    HW286615   1.635   2.740   7.857 -0.5126  0.1468  0.3016
26927SOL     OW86616   6.232   4.107   6.525  0.1377 -0.0386  0.2326
26927SOL    HW186617   6.234   4.188   6.576  0.2426  0.6794 -0.8932
26927SOL    HW286618   6.207   4.040   6.589  0.6811  0.7643  1.3207
26928SOL     OW86619   3.301   5.862   6.700  0.0794  0.1965  0.0006
26928SOL    HW186620   3.307   5.934   6.637 -0.5516  0.1732 -0.0936
26928SOL    HW286621   3.223   5.882   6.751  1.4662  1.1086  1.8995
26929SOL     OW86622  10.305  10.412  10.502  0.0476  0.2070  0.1563
26929SOL    HW186623  10.326  10.344  10.566  0.8999 -0.0094 -0.3385
26929SOL    HW286624  10.222  10.449  10.533 -1.9548 -2.8958 -1.0458
26930SOL     OW86625   5.899   9.669   8.384  0.7131  0.0277  0.0618
26930SOL    HW186626   5.812   9.690   8.351  1.4269 -0.2337 -2.1373
26930SOL    HW286627   5.956   9.736   8.347  1.8083 -1.2021 -0.5633
26931SOL     OW86628   6.981   0.822   4.772 -0.3001  0.4736  0.3201
26931SOL    HW186629   6.992   0.917   4.767  1.7038  0.2248 -1.0612
26931SOL    HW286630   6.958   0.795   4.683 -0.9402 -0.3615  0.7129
26932SOL     OW86631   4.521   1.867   2.754 -0.1891 -0.0548  0.4591
26932SOL    HW186632   4.568   1.948   2.735 -1.0873  0.2571 -0.4843
26932SOL    HW286633   4.444   1.869   2.698  0.0507 -1.8377  0.0024
26933SOL     OW86634   6.541   4.426   5.549 -0.6901  0.1026 -0.0459
26933SOL    HW186635   6.564   4.334   5.542  0.6688  0.4046  0.2339
26933SOL    HW286636   6.457   4.433   5.502  0.2279 -0.8818 -1.9629
26934SOL     OW86637   7.995   5.948   6.165  0.7238  0.6965 -0.3502
26934SOL    HW186638   7.978   5.987   6.250 -1.3550 -0.7940  0.0010
26934SOL    HW286639   7.934   5.992   6.106 -0.7551 -1.0297 -0.1950
26935SOL     OW86640   3.246   3.763   9.636 -0.4917  0.2537  1.0220
26935SOL    HW186641   3.324   3.742   9.583  0.1649  0.6676  1.8004
26935SOL    HW286642   3.238   3.858   9.630  0.0653  0.3979  2.2955
26936SOL     OW86643   9.500   8.384   1.515  0.2401 -0.0443  0.0649
26936SOL    HW186644   9.552   8.460   1.541 -2.0269  0.7442  2.8267
26936SOL    HW286645   9.417   8.421   1.485 -0.1256 -1.3871 -0.6718
26937SOL     OW86646   8.430   2.137   9.785  0.4118 -0.1601  0.4732
26937SOL    HW186647   8.396   2.048   9.782  0.5525 -0.2000 -0.1526
26937SOL    HW286648   8.431   2.160   9.878 -0.0993 -0.6270  0.6003
26938SOL     OW86649   4.249   1.038  10.369  0.4686 -0.1710 -0.0314
26938SOL    HW186650   4.213   0.950  10.369 -0.1167  0.0593  0.8769
26938SOL    HW286651   4.247   1.065  10.277 -2.2767  0.0757  0.0308
26939SOL     OW86652   6.761   4.433   1.471 -0.3759  0.0326  0.0651
26939SOL    HW186653   6.768   4.470   1.384 -1.1607  0.3492  0.1279
26939SOL    HW286654   6.683   4.377   1.468  0.1385 -0.7240  0.2938
26940SOL     OW86655   4.841   0.014   7.046 -0.0045 -0.3164 -0.1343
26940SOL    HW186656   4.903   0.084   7.066 -1.1332  0.9943 -1.0083
26940SOL    HW286657   4.797  -0.004   7.130 -1.0299  1.4069 -0.2515
26941SOL     OW86658   0.968   7.918   0.462  0.0249  0.2741  0.2928
26941SOL    HW186659   1.023   7.974   0.408 -0.7638 -1.7287 -2.8707
26941SOL    HW286660   0.882   7.960   0.462 -0.0383  0.1618 -0.3292
26942SOL     OW86661   5.066   8.777   5.133  0.0616  0.0056 -0.2737
26942SOL    HW186662   5.087   8.721   5.208  1.1467 -0.0312 -0.5937
26942SOL    HW286663   5.132   8.755   5.067 -1.3451 -0.5493 -1.5702
26943SOL     OW86664   0.055   1.528   9.136 -0.5167  0.9124 -0.0367
26943SOL    HW186665   0.143   1.520   9.174 -0.8651  0.4278  0.6905
26943SOL    HW286666   0.069   1.523   9.042  0.0968 -0.7690  0.1027
26944SOL     OW86667   9.519   6.504   3.558 -0.8160 -0.2283 -0.7564
26944SOL    HW186668   9.489   6.594   3.573 -0.0124 -0.2292  1.2139
26944SOL    HW286669   9.483   6.480   3.473 -1.3785  1.8175 -1.1447
26945SOL     OW86670   4.275   6.084   4.425 -0.2956 -0.3127 -0.6529
26945SOL    HW186671   4.363   6.111   4.399 -1.1776  2.5545 -0.9899
26945SOL    HW286672   4.232   6.061   4.343 -0.0843 -1.0546 -0.5618
26946SOL     OW86673   7.717   7.674   5.078  0.2350  0.7231  0.1853
26946SOL    HW186674   7.757   7.750   5.121  1.5244  1.3811 -2.0426
26946SOL    HW286675   7.791   7.618   5.056 -0.2617  0.8558 -1.9733
26947SOL     OW86676   6.723   5.406   5.818  0.0664  0.2703 -0.7737
26947SOL    HW186677   6.790   5.437   5.878  1.0864 -0.6445 -1.4087
26947SOL    HW286678   6.701   5.483   5.765  1.7545  0.2494 -1.5842
26948SOL     OW86679   6.886   8.489   1.999  0.0596 -0.1018  0.4533
26948SOL    HW186680   6.823   8.430   2.042 -0.4727 -0.4380 -0.7449
26948SOL    HW286681   6.858   8.577   2.025 -0.9097 -0.2483 -0.0469
26949SOL     OW86682   7.762   6.579   2.660 -0.4970 -0.3042 -0.0298
26949SOL    HW186683   7.839   6.532   2.627 -0.0013 -2.4040  3.5307
26949SOL    HW286684   7.797   6.658   2.700 -0.5548  0.0823 -0.7340
26950SOL     OW86685   4.263   8.014   4.508  0.3036 -0.2036  0.1267
26950SOL    HW186686   4.342   8.068   4.501  0.2673 -0.2301 -0.6846
26950SOL    HW286687   4.262   7.983   4.598  0.8234  0.4002  0.3497
26951SOL     OW86688   9.787   1.586   2.972  0.5707 -0.0476 -0.1503
26951SOL    HW186689   9.795   1.510   2.914 -0.3946  1.0131 -1.7772
26951SOL    HW286690   9.695   1.588   2.996  0.7828  0.0701  0.6683
26952SOL     OW86691   6.016   6.579  10.111  0.0161 -0.4677  0.2128
26952SOL    HW186692   5.950   6.619  10.168  1.2489  0.3430  1.1093
26952SOL    HW286693   6.007   6.626  10.028 -0.8872 -0.7352  0.1464
26953SOL     OW86694   6.949  10.393   0.753  0.5772  0.3411  0.1747
26953SOL    HW186695   6.914  10.401   0.842  1.1718 -2.0389  0.7123
26953SOL    HW286696   7.042  10.375   0.765  0.7851  0.5862 -0.9534
26954SOL     OW86697   6.181   7.690   0.147  0.2005 -0.1741  0.0787
26954SOL    HW186698   6.098   7.677   0.101  0.1964  2.0710 -0.6630
26954SOL    HW286699   6.179   7.781   0.176  1.9157 -0.4081  1.0819
26955SOL     OW86700  10.506   5.418   0.031  0.5321 -0.5869  0.0919
26955SOL    HW186701  10.569   5.433   0.102 -1.7842 -0.4334  2.2834
26955SOL    HW286702  10.513   5.325   0.013  0.5494 -0.8199  1.2016
26956SOL     OW86703   6.051   6.441   2.818  1.0148 -0.5366 -0.3798
26956SOL    HW186704   6.029   6.348   2.807  0.5716 -0.5795  0.7337
26956SOL    HW286705   6.063   6.473   2.729 -0.6546 -1.2419 -0.9123
26957SOL     OW86706   1.535   8.386   2.787 -0.3083  0.0099  0.5121
26957SOL    HW186707   1.578   8.409   2.705 -1.4436  2.2749  0.4804
26957SOL    HW286708   1.505   8.296   2.774  0.2758  0.0302 -1.2207
26958SOL     OW86709   5.776   4.207   6.040 -0.3561 -0.7747 -0.1172
26958SOL    HW186710   5.863   4.168   6.037  1.4157  2.6126  1.4123
26958SOL    HW286711   5.753   4.206   6.133 -0.8162  0.4502 -0.1903
26959SOL     OW86712   4.098   5.138   0.599 -0.4928 -0.3787  0.0626
26959SOL    HW186713   4.113   5.045   0.583  0.0389 -0.2319 -0.3174
26959SOL    HW286714   4.004   5.144   0.614 -0.4569 -1.0527  0.6318
26960SOL     OW86715   9.637  10.466   4.865 -0.5315 -0.2897 -0.0842
26960SOL    HW186716   9.719  10.431   4.829 -0.2188 -0.6271  0.9119
26960SOL    HW286717   9.591  10.389   4.898 -0.8093  0.0048  0.2182
26961SOL     OW86718   1.747   6.119   3.252 -0.1975 -0.1237 -0.4202
26961SOL    HW186719   1.754   6.026   3.231  0.6868  0.1686 -1.5431
26961SOL    HW286720   1.653   6.133   3.268 -0.2338 -1.3488  0.5480
26962SOL     OW86721   5.388   1.493   6.300  0.6546 -0.0799  0.4219
26962SOL    HW186722   5.474   1.468   6.265  1.4159  2.3620  0.3271
26962SOL    HW286723   5.374   1.582   6.267 -1.3489  0.0583  1.4937
26963SOL     OW86724   8.746   0.800   1.440  0.1991  0.2496  0.1283
26963SOL    HW186725   8.830   0.755   1.429  0.3559  0.5110  0.2669
26963SOL    HW286726   8.742   0.862   1.367 -0.8557 -1.2688 -1.1923
26964SOL     OW86727   2.664   4.863   8.665  0.2852  0.3743 -0.6511
26964SOL    HW186728   2.745   4.890   8.622  0.7410 -0.0674 -0.0826
26964SOL    HW286729   2.642   4.780   8.623  0.5401  0.1186 -0.2873
26965SOL     OW86730   2.790   5.208   7.673 -0.3314 -0.2640  0.3813
26965SOL    HW186731   2.855   5.269   7.708 -0.7205  0.6444 -0.4370
26965SOL    HW286732   2.717   5.213   7.735 -0.2737 -0.0463  0.4339
26966SOL     OW86733   9.074  10.272   1.408  0.1505  0.2776  0.1382
26966SOL    HW186734   9.152  10.325   1.394 -0.8528  1.8715  0.3080
26966SOL    HW286735   9.089  10.193   1.356  1.8243  0.5770  0.1174
26967SOL     OW86736   4.526   8.532   2.265  0.5035 -0.1468 -0.5687
26967SOL    HW186737   4.520   8.624   2.290  1.4459 -0.1999 -0.0997
26967SOL    HW286738   4.485   8.485   2.337 -0.3876 -0.0752 -1.0212
26968SOL     OW86739  10.255   1.922   4.377 -1.0864  0.3375  0.0523
26968SOL    HW186740  10.202   1.984   4.426 -1.3485  0.3654 -0.2641
26968SOL    HW286741  10.312   1.975   4.323 -0.9248  0.3056  0.1904
26969SOL     OW86742   4.343   9.548   7.641  0.2971  0.2566 -0.3863
26969SOL    HW186743   4.369   9.486   7.573  0.1206 -0.6326  0.3370
26969SOL    HW286744   4.344   9.497   7.722 -0.7895  0.9580  0.0900
26970SOL     OW86745   4.967   0.285   8.055 -0.3194  0.3034 -0.1299
26970SOL    HW186746   4.883   0.279   8.011 -0.6263 -0.0136  0.4883
26970SOL    HW286747   4.982   0.379   8.066 -0.7550  0.3543  0.0571
26971SOL     OW86748   6.859   0.789   1.461  0.4012 -0.2414  0.3395
26971SOL    HW186749   6.778   0.835   1.440  2.1812  1.7996 -2.9437
26971SOL    HW286750   6.838   0.697   1.448 -1.2417  0.2848 -1.2058
26972SOL     OW86751  10.255   8.259   9.996 -0.0494  0.4547  0.4112
26972SOL    HW186752  10.262   8.221   9.909  0.2826  1.3229  0.0514
26972SOL    HW286753  10.286   8.349   9.986  1.8984  0.0109  1.8176
26973SOL     OW86754   4.971   2.928   7.283  0.2792  0.6369 -0.4792
26973SOL    HW186755   4.939   2.913   7.194  0.9877 -1.7402 -0.3956
26973SOL    HW286756   4.910   2.879   7.338  0.7191  0.8613  0.2067
26974SOL     OW86757   2.515   8.612   2.853 -0.2576  0.1807 -0.3916
26974SOL    HW186758   2.421   8.604   2.834 -0.9710  0.2223  2.6309
26974SOL    HW286759   2.520   8.681   2.919  1.6052 -1.4007  1.2274
26975SOL     OW86760   6.634   4.620   5.131  0.3915  0.2755  0.0002
26975SOL    HW186761   6.713   4.661   5.097  0.8771  0.3436  1.1647
26975SOL    HW286762   6.582   4.599   5.053  1.1277  1.0789 -0.7258
26976SOL     OW86763   9.034   9.197  10.329  0.4281  0.0671  0.1099
26976SOL    HW186764   9.081   9.280  10.331 -0.5259  0.6979 -1.4036
26976SOL    HW286765   9.092   9.138  10.280  0.6717  0.1320  0.3173
26977SOL     OW86766   4.683   7.117   5.993  0.3481 -0.5724  0.0725
26977SOL    HW186767   4.602   7.146   6.035  0.5109  0.7304 -0.4978
26977SOL    HW286768   4.688   7.023   6.014 -0.9593 -0.5282  0.6643
26978SOL     OW86769  10.229   1.737   3.890  0.1355 -0.0466  0.1554
26978SOL    HW186770  10.295   1.677   3.855  0.3396 -0.4604  1.1910
26978SOL    HW286771  10.223   1.807   3.826  2.4605  0.6297  0.5954
26979SOL     OW86772   6.828   5.970   7.776  0.0583  0.5319  0.2444
26979SOL    HW186773   6.869   5.887   7.801  0.1720  0.3315 -0.5613
26979SOL    HW286774   6.765   5.989   7.846 -2.2025 -1.7903 -0.9994
26980SOL     OW86775   5.109   8.962   2.101  0.9837  0.2861 -0.0126
26980SOL    HW186776   5.077   8.937   2.015 -2.7524  0.6689  1.0652
26980SOL    HW286777   5.040   9.018   2.137  2.5195  0.4162  3.1006
26981SOL     OW86778   7.588   0.022  10.408  0.1165  0.4471  0.1075
26981SOL    HW186779   7.505   0.021  10.457  0.0757  0.5323  0.0403
26981SOL    HW286780   7.632   0.101  10.437 -0.2663  0.9316 -0.5847
26982SOL     OW86781  10.483   8.980   2.910 -0.2501 -0.2548 -0.3921
26982SOL    HW186782  10.486   8.885   2.920 -0.1089 -0.4982 -2.3605
26982SOL    HW286783  10.529   9.014   2.988 -2.1009 -1.6549  1.4297
26983SOL     OW86784   2.687   5.754   9.196 -0.4041 -0.1760  0.0936
26983SOL    HW186785   2.601   5.716   9.215 -1.8499  1.9478 -1.6959
26983SOL    HW286786   2.696   5.825   9.260 -0.2916  0.0034 -0.1195
26984SOL     OW86787   4.235   5.254   1.656  0.5678 -0.2629 -0.3547
26984SOL    HW186788   4.260   5.233   1.566  1.8612 -0.8932  0.1259
26984SOL    HW286789   4.257   5.346   1.666  0.2832 -0.1517 -0.7253
26985SOL     OW86790   5.503  10.238   5.201  0.5667 -0.4288  0.0369
26985SOL    HW186791   5.425  10.211   5.250  0.0939  0.2227 -0.3420
26985SOL    HW286792   5.564  10.165   5.212 -0.5975 -1.5899 -0.7819
26986SOL     OW86793   1.112   8.617   2.526  0.4192  0.4166  0.5703
26986SOL    HW186794   1.118   8.649   2.436  2.3470 -1.2235  0.0316
26986SOL    HW286795   1.027   8.648   2.557 -0.8100  0.1222 -2.1795
26987SOL     OW86796   6.302   2.143   6.011 -0.3259  0.2871 -0.1594
26987SOL    HW186797   6.362   2.111   6.078  0.0432 -0.1402 -0.6827
26987SOL    HW286798   6.230   2.182   6.060  0.4025  0.8742  0.4875
26988SOL     OW86799   0.814   6.463   8.777  0.3096  0.0191  0.0658
26988SOL    HW186800   0.782   6.404   8.708  0.2969 -0.0437  0.1245
26988SOL    HW286801   0.894   6.500   8.741 -0.2504  0.7914 -0.4161
26989SOL     OW86802   8.435   4.675   2.369 -0.4137  0.0688 -0.4311
26989SOL    HW186803   8.418   4.585   2.396 -0.1918  0.5243  1.3481
26989SOL    HW286804   8.362   4.725   2.404  0.2138  0.7900 -0.1247
26990SOL     OW86805   6.303   4.612   3.253 -0.2643 -0.7192  0.1339
26990SOL    HW186806   6.302   4.532   3.305 -1.3076 -0.8156 -0.0190
26990SOL    HW286807   6.286   4.582   3.163 -2.3632 -0.2078  0.2963
26991SOL     OW86808   7.497   1.437   0.339 -0.4275  0.0853  0.1283
26991SOL    HW186809   7.540   1.354   0.318  1.1677  0.9961 -0.3813
26991SOL    HW286810   7.490   1.437   0.435 -1.7895 -1.2382  0.0733
26992SOL     OW86811   0.123   7.591   9.778  0.2948  0.5432 -0.2531
26992SOL    HW186812   0.151   7.613   9.689  1.6435 -0.4773 -0.1074
26992SOL    HW286813   0.182   7.521   9.806 -2.5187 -1.9264  0.0310
26993SOL     OW86814   1.768   1.806   0.203 -0.4023 -0.1670 -0.9078
26993SOL    HW186815   1.781   1.899   0.184 -2.3456  0.4914  0.5429
26993SOL    HW286816   1.729   1.770   0.124  2.0437 -0.2411 -2.1608
26994SOL     OW86817   4.184   7.864   4.268  0.0159  0.1761  0.0261
26994SOL    HW186818   4.252   7.819   4.217  0.1260  1.0931 -0.6704
26994SOL    HW286819   4.231   7.903   4.341  0.1234  0.2267 -0.0698
26995SOL     OW86820   1.103   5.407   0.528 -0.0978 -0.0103 -0.2636
26995SOL    HW186821   1.096   5.371   0.440 -0.1909 -1.7800  0.4209
26995SOL    HW286822   1.032   5.471   0.534 -0.5561 -0.4084 -1.2181
26996SOL     OW86823   7.113   8.744   8.558  0.5727 -0.4733 -0.6658
26996SOL    HW186824   7.090   8.788   8.640  0.4915 -1.1872 -0.3048
26996SOL    HW286825   7.206   8.723   8.568  1.3072  1.8187 -1.8559
26997SOL     OW86826   9.905   7.714   2.817 -0.2024  0.3395  0.3417
26997SOL    HW186827  10.001   7.708   2.818 -0.1970  0.4595  0.5353
26997SOL    HW286828   9.879   7.668   2.737  0.0302  0.4741  0.1884
26998SOL     OW86829   0.420   1.367   7.605 -0.3067 -0.1974  0.6571
26998SOL    HW186830   0.486   1.429   7.575 -0.3414  0.1031  1.2005
26998SOL    HW286831   0.437   1.356   7.698  1.1873 -2.8024  0.1533
26999SOL     OW86832   3.563   0.190   3.697 -0.4066 -0.1508 -0.0388
26999SOL    HW186833   3.586   0.099   3.714 -0.0021  0.1247  0.9593
26999SOL    HW286834   3.632   0.241   3.739 -0.8857  0.6298 -0.1672
27000SOL     OW86835   9.393   1.775   2.228  0.0446 -0.3203 -0.0721
27000SOL    HW186836   9.352   1.714   2.289  0.1516  0.3182  0.6525
27000SOL    HW286837   9.481   1.786   2.261  0.6646 -1.2437 -1.3001
27001SOL     OW86838   1.342   8.967  10.187 -0.4148 -0.1934  0.0063
27001SOL    HW186839   1.410   8.964  10.120  0.3208 -1.2260  0.7562
27001SOL    HW286840   1.355   8.886  10.238 -0.9945  0.5069  1.3319
27002SOL     OW86841   4.822   6.342   5.396 -0.3590  0.6277  0.1433
27002SOL    HW186842   4.866   6.266   5.358 -2.0713  0.3096 -1.4134
27002SOL    HW286843   4.836   6.412   5.332  0.0475  1.2420  0.8926
27003SOL     OW86844   5.801   6.360   4.098  0.0661 -0.3089 -0.0396
27003SOL    HW186845   5.795   6.284   4.155  0.7706  0.8445  1.6342
27003SOL    HW286846   5.710   6.383   4.079 -0.1846 -0.5765  0.8133
27004SOL     OW86847   3.433   7.863   3.156  0.1589 -0.3461 -0.2008
27004SOL    HW186848   3.492   7.793   3.184  1.6547  0.5550 -0.9936
27004SOL    HW286849   3.375   7.876   3.231  0.6761 -1.5552  0.4399
27005SOL     OW86850  10.589   2.008   5.216  0.5659  0.1008 -0.0346
27005SOL    HW186851  10.588   1.962   5.132  0.3006 -1.7385  0.9410
27005SOL    HW286852  10.497   2.010   5.243  0.5063  1.6422 -0.2547
27006SOL     OW86853   4.860   7.263   5.820 -0.0375 -0.3795 -0.0596
27006SOL    HW186854   4.783   7.239   5.872  1.5628 -1.7868  1.8345
27006SOL    HW286855   4.851   7.357   5.806 -1.4202 -0.2655  1.2892
27007SOL     OW86856   8.417   7.387   6.377  0.0701  0.8267 -0.0213
27007SOL    HW186857   8.379   7.311   6.334 -0.8385  1.2681 -0.0170
27007SOL    HW286858   8.509   7.364   6.389 -0.4284 -0.7922  1.1387
27008SOL     OW86859   1.654   6.169   1.577  0.4711 -0.3124 -0.1801
27008SOL    HW186860   1.730   6.119   1.605  1.1924 -0.1532 -1.7382
27008SOL    HW286861   1.591   6.103   1.548  0.1313 -0.4287  0.7879
27009SOL     OW86862   0.447   0.339  10.333  0.1836 -0.1499 -0.2984
27009SOL    HW186863   0.389   0.392  10.279 -1.5623 -2.6027 -1.0161
27009SOL    HW286864   0.426   0.364  10.423 -1.0965 -0.0868 -0.6002
27010SOL     OW86865   3.530   3.648   1.124 -0.0895 -0.7192 -0.2922
27010SOL    HW186866   3.499   3.588   1.057 -3.4594 -0.8512  1.2082
27010SOL    HW286867   3.491   3.617   1.205 -2.1984  3.4251  0.5850
27011SOL     OW86868   6.178   1.388   1.972  0.2018 -0.1624 -0.4124
27011SOL    HW186869   6.235   1.344   2.035 -1.1552 -1.2738  0.0995
27011SOL    HW286870   6.211   1.361   1.886  1.1554  0.1822 -0.1704
27012SOL     OW86871   5.733  10.255   8.724 -0.1311 -0.3886 -0.2092
27012SOL    HW186872   5.810  10.223   8.678  1.1904  0.8921  1.0255
27012SOL    HW286873   5.743  10.223   8.813 -0.6235  0.4341  0.1530
27013SOL     OW86874   0.733   7.190   9.752 -0.1370  0.1511  0.2773
27013SOL    HW186875   0.816   7.170   9.794  0.0930  1.6126  0.5585
27013SOL    HW286876   0.741   7.281   9.723 -1.7001  0.3820  0.4743
27014SOL     OW86877   7.350   4.741   9.476 -0.3969 -0.1403  0.7680
27014SOL    HW186878   7.433   4.784   9.499 -0.1569 -1.0678  1.7446
27014SOL    HW286879   7.320   4.787   9.398  0.9289  0.3707  0.5255
27015SOL     OW86880   9.462   4.663   1.150 -0.0641  0.5391  0.4553
27015SOL    HW186881   9.395   4.607   1.111  0.3617  1.3756 -1.6111
27015SOL    HW286882   9.430   4.681   1.239 -0.8299 -1.8696  0.7257
27016SOL     OW86883   4.332  10.573   0.969  0.6214  0.6489 -0.2089
27016SOL    HW186884   4.423  10.579   0.999  0.7840 -1.5030 -0.1228
27016SOL    HW286885   4.305  10.664   0.956  2.4401  1.3816  0.7733
27017SOL     OW86886   9.528   4.821   5.109 -0.2571  0.2469  0.1150
27017SOL    HW186887   9.445   4.846   5.148  0.0909  1.1215  0.3417
27017SOL    HW286888   9.568   4.762   5.172  0.3352  1.7079  1.1766
27018SOL     OW86889   4.456   0.047  10.670  0.3196 -0.1131  0.0469
27018SOL    HW186890   4.389   0.026  10.734 -0.7568  2.2310 -0.2012
27018SOL    HW286891   4.438  -0.011  10.596 -0.0063 -1.0487  0.8416
27019SOL     OW86892   7.581   8.885   3.116 -0.3485 -0.3843 -0.1221
27019SOL    HW186893   7.575   8.972   3.156  1.0340 -0.0392 -0.6079
27019SOL    HW286894   7.560   8.899   3.024 -1.1368 -0.7600 -0.0089
27020SOL     OW86895   7.527   0.821   8.922  0.0841  0.2011  0.4600
27020SOL    HW186896   7.521   0.913   8.894  3.2973 -0.3692 -3.0630
27020SOL    HW286897   7.603   0.820   8.981  0.5329 -0.2521 -0.1157
27021SOL     OW86898   8.518   1.120   6.820 -0.1528 -0.1415  0.5631
27021SOL    HW186899   8.597   1.082   6.782 -0.7478 -0.9777  0.1437
27021SOL    HW286900   8.550   1.171   6.894  1.1545  2.3581 -1.5606
27022SOL     OW86901   8.952   4.111  10.216 -0.3489 -0.3649 -0.8080
27022SOL    HW186902   8.974   4.034  10.269 -1.0071  0.6900  1.1018
27022SOL    HW286903   8.986   4.185  10.267 -0.0145  0.6543 -2.4420
27023SOL     OW86904   1.058   8.604  10.710 -0.2338 -0.1903  0.2750
27023SOL    HW186905   1.135   8.624  10.658 -0.5356 -0.2829 -0.2128
27023SOL    HW286906   1.046   8.681  10.766 -0.4859  0.3414 -0.4954
27024SOL     OW86907   3.361   3.346   8.275  0.1178 -0.0663  0.7174
27024SOL    HW186908   3.334   3.429   8.235 -0.3070 -0.9457 -0.9077
27024SOL    HW286909   3.307   3.339   8.354 -0.8997  0.5239  0.0988
27025SOL     OW86910   2.364   7.090   2.186 -0.0858  0.2854  0.4699
27025SOL    HW186911   2.442   7.038   2.206 -0.4596  0.2182  1.8458
27025SOL    HW286912   2.291   7.033   2.208 -0.5203  0.7097  0.1456
27026SOL     OW86913   6.186  10.526   3.535 -0.0110  0.4962  0.2003
27026SOL    HW186914   6.194  10.616   3.568 -0.4755  1.5068 -2.2007
27026SOL    HW286915   6.092  10.509   3.535 -0.0086  0.4576 -0.3989
27027SOL     OW86916   4.972  10.715   8.605 -0.2929 -0.3369 -0.2096
27027SOL    HW186917   4.989  10.721   8.511 -0.3732 -1.4037 -0.3000
27027SOL    HW286918   4.884  10.678   8.612  0.2354 -1.5518  0.2780
27028SOL     OW86919   0.126   6.895   6.687 -0.3340 -0.4713  0.1611
27028SOL    HW186920   0.199   6.957   6.691 -0.5983 -0.0467 -1.1587
27028SOL    HW286921   0.082   6.905   6.771  0.2104  0.4198  0.3554
27029SOL     OW86922   2.517   3.526   2.719  0.0187 -0.2437 -0.6168
27029SOL    HW186923   2.590   3.487   2.673  1.3859 -1.0205  2.0195
27029SOL    HW286924   2.551   3.610   2.752 -0.2518 -0.5893  0.5981
27030SOL     OW86925   1.745   8.960   4.505 -0.1792  0.2529  0.0741
27030SOL    HW186926   1.798   8.884   4.480 -0.1697 -0.3959  1.8854
27030SOL    HW286927   1.657   8.939   4.472 -0.5394 -1.3302  1.8351
27031SOL     OW86928   2.716   8.542   5.423 -0.4326  0.2939  0.3228
27031SOL    HW186929   2.704   8.625   5.468  0.3485  0.4625  0.2362
27031SOL    HW286930   2.633   8.527   5.376 -0.8958  0.5805  1.0454
27032SOL     OW86931   2.900   5.974   1.421 -0.1442 -0.1212 -0.3895
27032SOL    HW186932   2.955   5.901   1.449 -0.4541 -0.7916 -1.4521
27032SOL    HW286933   2.861   6.007   1.502  0.7407 -0.5188  0.2172
27033SOL     OW86934   6.461   0.543   2.591  0.1435  0.0998 -0.2021
27033SOL    HW186935   6.418   0.599   2.656 -0.7507 -2.5440  1.6715
27033SOL    HW286936   6.517   0.485   2.642 -1.6185 -3.0198 -1.5181
27034SOL     OW86937  10.568   3.683   6.914 -0.1013 -0.0769  0.2680
27034SOL    HW186938  10.632   3.755   6.910 -0.3134  0.0831 -0.4275
27034SOL    HW286939  10.616   3.607   6.881 -0.1032 -0.0869  0.2869
27035SOL     OW86940   1.047   4.764   1.181  0.4651 -0.7651 -0.2194
27035SOL    HW186941   1.021   4.854   1.164  0.2555 -0.7955 -0.0601
27035SOL    HW286942   1.123   4.750   1.124 -0.7479 -1.1582 -1.8115
27036SOL     OW86943   8.054   9.621   0.064 -0.1195 -0.1111 -0.3915
27036SOL    HW186944   8.026   9.586  -0.021  1.9002 -0.4796 -0.9674
27036SOL    HW286945   7.983   9.679   0.090 -0.7944  0.0308 -2.3500
27037SOL     OW86946   1.714   0.549   9.167  0.3635  0.3610  0.3329
27037SOL    HW186947   1.738   0.488   9.236  1.7874  0.8238  0.2673
27037SOL    HW286948   1.675   0.494   9.099  1.1169 -0.4002  0.5087
27038SOL     OW86949   9.861   2.088   8.030 -0.1511  0.1699  0.0869
27038SOL    HW186950   9.872   2.038   7.950  0.8542  0.9496 -0.2869
27038SOL    HW286951   9.867   2.179   8.002 -1.1631  0.4810  0.8607
27039SOL     OW86952   1.901  10.111   1.591 -0.0999 -0.2828  0.3044
27039SOL    HW186953   1.883  10.193   1.637  0.0833 -1.0054  1.7299
27039SOL    HW286954   1.991  10.089   1.617 -0.8177 -1.9186  1.5560
27040SOL     OW86955   9.383   2.262   7.359  0.1828 -0.5485 -0.8687
27040SOL    HW186956   9.413   2.353   7.361  0.5944 -0.5925 -2.8926
27040SOL    HW286957   9.334   2.254   7.277 -0.6138 -1.9439 -0.3091
27041SOL     OW86958   2.640   8.142   7.327 -0.0477 -0.2634 -0.0199
27041SOL    HW186959   2.600   8.083   7.391  1.1160 -0.9239  0.1284
27041SOL    HW286960   2.734   8.128   7.337  0.3098  1.9864  0.3847
27042SOL     OW86961   0.776  10.580  10.349 -0.2769 -0.4018  0.2033
27042SOL    HW186962   0.768  10.650  10.284  1.1146  0.1348  0.5721
27042SOL    HW286963   0.686  10.554  10.367 -0.8127  1.0924 -0.1515
27043SOL     OW86964   3.229   9.706   9.121 -0.0414  0.0271  0.3785
27043SOL    HW186965   3.297   9.773   9.122 -0.9779  0.9879  0.8019
27043SOL    HW286966   3.245   9.655   9.201  0.6168 -0.2251  0.0979
27044SOL     OW86967   0.358   6.874   1.238  0.1387  0.1173  0.3691
27044SOL    HW186968   0.402   6.927   1.171  2.3932  1.7150  2.8892
27044SOL    HW286969   0.381   6.784   1.216  0.8372  0.5922 -0.9845
27045SOL     OW86970   4.293   1.011   4.740  0.4397 -0.2224  0.2428
27045SOL    HW186971   4.248   1.095   4.734 -0.0146 -0.2912  2.0959
27045SOL    HW286972   4.345   1.006   4.659 -2.3973  0.0928 -1.7606
27046SOL     OW86973   9.899   9.381  10.312  0.0764  0.0189  0.3698
27046SOL    HW186974   9.959   9.383  10.387 -0.0411 -1.8405  0.5822
27046SOL    HW286975   9.937   9.316  10.253 -1.4929 -0.9402  0.3440
27047SOL     OW86976   4.692   0.010   7.620  0.0885 -0.0286 -0.2214
27047SOL    HW186977   4.599   0.030   7.606  0.1414 -0.2662 -0.9575
27047SOL    HW286978   4.698  -0.085   7.607  0.2731 -0.1548  0.7616
27048SOL     OW86979   4.210   2.639   4.635 -0.0227  0.3424  0.6684
27048SOL    HW186980   4.267   2.711   4.661  2.3440 -2.2382  3.3494
27048SOL    HW286981   4.164   2.616   4.716 -2.0531 -0.1216 -0.5601
27049SOL     OW86982   0.828   4.526   1.525  0.3829  0.0361 -0.4708
27049SOL    HW186983   0.912   4.566   1.504  0.2262  0.3228 -0.5506
27049SOL    HW286984   0.848   4.465   1.597  0.3790  1.2598  0.6108
27050SOL     OW86985   7.675   7.711   4.740 -0.2833  0.4228 -0.0151
27050SOL    HW186986   7.764   7.734   4.712  0.4897 -0.4887  1.5390
27050SOL    HW286987   7.685   7.627   4.785 -2.0131  0.0962 -0.1729
27051SOL     OW86988   2.838   3.402   0.779 -0.4868  0.0388  0.7227
27051SOL    HW186989   2.928   3.370   0.788 -0.6946 -0.4997  0.9018
27051SOL    HW286990   2.806   3.410   0.868 -0.0671  1.8626  0.7551
27052SOL     OW86991   8.434   4.990   5.644  0.2131 -0.7892 -0.2373
27052SOL    HW186992   8.421   4.910   5.593  0.2842 -2.3838  2.0682
27052SOL    HW286993   8.413   4.965   5.734  1.2209  1.5355  0.7403
27053SOL     OW86994   2.861   2.154   4.774  0.3954 -0.3255  0.0662
27053SOL    HW186995   2.868   2.129   4.682  1.5272 -0.2122  0.1168
27053SOL    HW286996   2.780   2.112   4.804  0.6821 -1.4234 -0.6403
27054SOL     OW86997   8.616   4.750   1.391  0.0393 -0.2693 -0.0396
27054SOL    HW186998   8.693   4.729   1.444 -0.4408 -0.7395  0.4866
27054SOL    HW286999   8.643   4.732   1.301  0.7810  0.2835  0.0657
27055SOL     OW87000   8.112   4.880   8.306 -0.3440  0.2568 -0.0442
27055SOL    HW187001   8.117   4.847   8.216 -0.6352 -0.2542  0.1199
27055SOL    HW287002   8.075   4.967   8.298  0.4334  0.5529 -0.4940
27056SOL     OW87003   1.743   6.993   0.031 -0.2918  0.7671  0.4137
27056SOL    HW187004   1.813   7.056   0.050  0.2190 -0.1629  1.6847
27056SOL    HW287005   1.703   6.974   0.116 -1.2715  0.3183 -0.1268
27057SOL     OW87006   5.029   5.836   3.356  0.2938 -0.3309  0.2589
27057SOL    HW187007   5.068   5.749   3.365  1.4761 -0.0547 -1.5435
27057SOL    HW287008   5.082   5.879   3.289  0.2646  2.1039  1.6762
27058SOL     OW87009   2.804   7.687   7.627  0.1047  0.3104 -0.2920
27058SOL    HW187010   2.777   7.736   7.550  1.0035 -1.2141 -1.6292
27058SOL    HW287011   2.724   7.676   7.678 -0.6203  0.8258 -1.2967
27059SOL     OW87012   6.166   5.435   4.519  0.4120  0.0377  0.0189
27059SOL    HW187013   6.071   5.427   4.521  0.4957 -1.4221  2.5505
27059SOL    HW287014   6.197   5.355   4.477  0.5417 -0.5359  1.1659
27060SOL     OW87015   5.931   8.083  10.190 -0.0750  0.0805  0.0051
27060SOL    HW187016   5.958   8.151  10.252  1.1812 -1.6699  1.5047
27060SOL    HW287017   5.865   8.033  10.237  0.6044 -1.0387 -0.2059
27061SOL     OW87018   8.843   3.302   7.842  0.4898 -0.3326  0.6161
27061SOL    HW187019   8.879   3.276   7.758  0.0889  0.1651  0.2822
27061SOL    HW287020   8.920   3.318   7.897  0.9034  2.3947 -0.5964
27062SOL     OW87021   3.107   4.005   5.418 -0.0774  0.0914 -0.3195
27062SOL    HW187022   3.073   3.948   5.487 -0.4464  0.3965 -0.2425
27062SOL    HW287023   3.115   3.947   5.342  3.0274 -0.9426  0.6572
27063SOL     OW87024   9.815   2.414   3.833 -0.0672  0.0884  0.6570
27063SOL    HW187025   9.725   2.427   3.862 -0.7901 -0.8660 -1.0120
27063SOL    HW287026   9.833   2.322   3.851  0.9678  0.5025  1.9123
27064SOL     OW87027   0.668   0.532   3.286  0.1705 -0.0472 -0.2224
27064SOL    HW187028   0.587   0.572   3.316  1.5296  1.5658  1.6061
27064SOL    HW287029   0.661   0.441   3.313 -0.6457  0.2975  0.8108
27065SOL     OW87030   1.410   6.018   2.405  0.4028  0.0315 -0.4190
27065SOL    HW187031   1.339   5.967   2.365 -1.4588 -0.7540  3.3782
27065SOL    HW287032   1.442   5.962   2.476  2.5047  1.7717  0.0894
27066SOL     OW87033   5.447   3.709   1.584  0.3965  0.3590  0.4038
27066SOL    HW187034   5.474   3.617   1.575  0.7986  0.3907  1.2077
27066SOL    HW287035   5.527   3.759   1.564  0.1592  0.5374 -0.1030
27067SOL     OW87036   6.717   6.362   9.827  0.0695  0.0114  0.3436
27067SOL    HW187037   6.631   6.402   9.833 -0.0586 -0.0135 -0.9560
27067SOL    HW287038   6.700   6.269   9.812  0.3486 -0.1910  1.1920
27068SOL     OW87039   2.921   2.927   3.615 -0.1515 -0.0326  0.3064
27068SOL    HW187040   2.892   2.848   3.660 -0.0355  0.0861  0.5913
27068SOL    HW287041   2.841   2.970   3.586 -0.2002 -0.4654 -0.2117
27069SOL     OW87042   7.419   7.088   9.990  0.2775  0.1021  0.0687
27069SOL    HW187043   7.388   7.161   9.935  1.1075 -0.3174 -0.9861
27069SOL    HW287044   7.340   7.037  10.008 -0.1373  0.6803 -0.0687
27070SOL     OW87045   7.810   5.177   7.916  0.0131  0.0769 -0.0306
27070SOL    HW187046   7.802   5.273   7.919 -0.5131  0.0205  0.5833
27070SOL    HW287047   7.731   5.148   7.870 -0.1331 -0.1001  0.3341
27071SOL     OW87048   6.236   3.346   9.099 -0.6608 -0.2074  0.7912
27071SOL    HW187049   6.150   3.353   9.058 -0.5398 -1.6431  0.2154
27071SOL    HW287050   6.218   3.310   9.186 -0.6480 -0.6782  0.6050
27072SOL     OW87051   0.739   4.403   6.660  0.1372  0.5645 -0.3312
27072SOL    HW187052   0.681   4.334   6.692 -1.5124  1.6539 -0.7865
27072SOL    HW287053   0.815   4.357   6.624 -1.6373 -1.1425 -2.1601
27073SOL     OW87054   3.271   8.460   3.314  0.1341 -0.9813  0.2498
27073SOL    HW187055   3.202   8.488   3.374 -1.5067 -2.4119 -0.8683
27073SOL    HW287056   3.307   8.381   3.354 -0.7568 -1.7640 -0.4323
27074SOL     OW87057   0.863   6.847   3.135 -0.0494 -0.0891 -0.1302
27074SOL    HW187058   0.900   6.919   3.187 -0.3507  0.9057 -1.2635
27074SOL    HW287059   0.939   6.806   3.093 -0.0109  0.5901 -0.7453
27075SOL     OW87060   1.571  10.166   6.212  0.8335 -0.9843 -0.4779
27075SOL    HW187061   1.622  10.117   6.148  1.3421  0.0795 -0.8954
27075SOL    HW287062   1.602  10.134   6.297  1.8755 -0.6695 -0.7301
27076SOL     OW87063   2.766   2.982   4.190  0.0349  0.0124 -0.2090
27076SOL    HW187064   2.780   2.891   4.214 -0.5807  0.1021  0.5382
27076SOL    HW287065   2.742   3.025   4.272  0.3524  0.8554 -0.5421
27077SOL     OW87066   1.289   5.158   3.529 -0.5498  0.1300  0.3243
27077SOL    HW187067   1.300   5.063   3.524 -0.9294  0.0735  0.5257
27077SOL    HW287068   1.350   5.193   3.464 -2.2589 -0.3611 -1.6809
27078SOL     OW87069   5.047   2.591   2.993  0.0482  0.1697  0.2750
27078SOL    HW187070   5.047   2.686   2.981  0.8472  0.1407 -0.0103
27078SOL    HW287071   5.086   2.556   2.913  0.7255 -0.3400  0.8148
27079SOL     OW87072   4.177   3.200   7.196  0.2688  0.4282 -0.4313
27079SOL    HW187073   4.197   3.181   7.288 -1.6703  3.2913  0.6876
27079SOL    HW287074   4.083   3.189   7.188  0.1481  2.0275 -1.6093
27080SOL     OW87075   9.486   1.702   5.962 -0.5744  0.0346  0.7284
27080SOL    HW187076   9.551   1.650   6.009  0.4769  1.4210  0.8669
27080SOL    HW287077   9.444   1.640   5.903  1.5156 -0.7573 -0.0281
27081SOL     OW87078   0.319   4.796   8.958  0.0257  0.5799  0.2315
27081SOL    HW187079   0.400   4.802   9.008  0.5680 -0.0351 -0.5674
27081SOL    HW287080   0.341   4.745   8.881 -1.2071  0.1138  0.1635
27082SOL     OW87081   2.297   2.424   5.202  0.6360 -0.1067  0.2099
27082SOL    HW187082   2.273   2.332   5.213 -1.6138  0.3762 -0.1053
27082SOL    HW287083   2.261   2.467   5.279 -0.9101  0.9001 -1.0199
27083SOL     OW87084   3.247   8.823   7.197  0.1963 -0.3585 -0.0838
27083SOL    HW187085   3.197   8.862   7.269  0.6143 -1.3362  0.7661
27083SOL    HW287086   3.230   8.880   7.122 -2.9503 -1.1462 -0.0987
27084SOL     OW87087  10.040   8.874   8.121 -0.3338 -0.6624 -0.2084
27084SOL    HW187088  10.102   8.826   8.066  1.4237 -0.5828  1.5526
27084SOL    HW287089  10.095   8.931   8.174 -2.0856  0.5781  0.3531
27085SOL     OW87090   2.119   0.028   0.161 -0.1444 -0.3645  0.3879
27085SOL    HW187091   2.124   0.087   0.086  1.9196  0.3670  1.0309
27085SOL    HW287092   2.192   0.054   0.217  0.0742 -2.7221  1.3121
27086SOL     OW87093   4.756   7.009   6.888 -0.2015  0.5454 -0.6046
27086SOL    HW187094   4.703   6.990   6.810  0.9267  0.2878 -1.3292
27086SOL    HW287095   4.770   7.103   6.885  0.7086  0.4043 -1.3108
27087SOL     OW87096   6.197   4.210   5.127 -0.1904  0.0301  0.1086
27087SOL    HW187097   6.200   4.115   5.111  2.1487  0.2187 -1.0592
27087SOL    HW287098   6.239   4.248   5.050 -1.5324  2.0825  0.3283
27088SOL     OW87099  10.087   0.372   8.439 -0.6730  0.0532  0.4083
27088SOL    HW187100  10.136   0.316   8.499  2.2060  1.0503 -0.8416
27088SOL    HW287101  10.067   0.451   8.490  0.7349  0.4143  0.4341
27089SOL     OW87102   9.654   4.438   6.494  0.0833  0.8366  0.5246
27089SOL    HW187103   9.711   4.378   6.446 -1.1275 -0.4170  0.5907
27089SOL    HW287104   9.711   4.480   6.558  1.1377  0.3970 -0.1113
27090SOL     OW87105   2.516   8.710   1.084  0.2173 -0.1073 -0.2164
27090SOL    HW187106   2.561   8.759   1.014 -0.4836 -0.0224 -0.6132
27090SOL    HW287107   2.527   8.618   1.059  1.8211 -0.1980  0.7026
27091SOL     OW87108   8.337   7.381   3.064  0.5932 -0.0628 -0.8406
27091SOL    HW187109   8.302   7.458   3.109  1.8706  1.4146 -2.2309
27091SOL    HW287110   8.264   7.318   3.064 -0.6284  1.2878 -0.0135
27092SOL     OW87111   4.237   6.751   8.759  0.6588 -0.3770  0.3772
27092SOL    HW187112   4.282   6.810   8.698 -0.3853  0.1081  0.0572
27092SOL    HW287113   4.238   6.666   8.714  0.4382 -0.1608 -0.0434
27093SOL     OW87114   2.583   8.350   4.893 -0.6340  0.0540  0.1482
27093SOL    HW187115   2.664   8.311   4.861  0.5655  3.6509 -1.7170
27093SOL    HW287116   2.598   8.362   4.987  1.3329  1.2108 -0.2627
27094SOL     OW87117   0.845   2.230   9.258  0.0651 -0.4225 -0.2114
27094SOL    HW187118   0.876   2.172   9.189 -1.1625 -0.9773 -0.3301
27094SOL    HW287119   0.916   2.231   9.322  1.3674  0.3967 -1.6315
27095SOL     OW87120   1.599   3.927   3.925  0.3607 -0.5855  0.5145
27095SOL    HW187121   1.550   3.911   4.006 -0.4351 -0.9254 -0.0216
27095SOL    HW287122   1.642   4.011   3.940 -0.1365 -0.4278  1.1257
27096SOL     OW87123   8.191   6.409   0.627 -0.1465 -0.2153 -0.4583
27096SOL    HW187124   8.206   6.359   0.707 -0.2882 -0.7399 -0.7508
27096SOL    HW287125   8.103   6.445   0.637  0.1758  0.4624  0.0044
27097SOL     OW87126   1.169   0.237   7.101  0.1736 -0.2567 -0.5823
27097SOL    HW187127   1.242   0.231   7.161 -0.5113  1.7932  0.5434
27097SOL    HW287128   1.173   0.326   7.066 -1.8099 -0.0392 -0.4027
27098SOL     OW87129   5.457   3.721   0.745 -0.1164  0.4826  0.1052
27098SOL    HW187130   5.536   3.668   0.733  0.1350  0.4796  1.5357
27098SOL    HW287131   5.390   3.676   0.694  0.7367  0.3289 -0.9021
27099SOL     OW87132   2.021   2.487   2.819 -0.1987 -0.0242 -0.4828
27099SOL    HW187133   2.016   2.477   2.914  1.0779 -0.3215 -0.4241
27099SOL    HW287134   1.936   2.458   2.787 -1.0123  1.0337  0.6351
27100SOL     OW87135   8.869   8.709   6.199  0.5995  0.7378  0.0972
27100SOL    HW187136   8.941   8.771   6.187  1.3624 -0.4966 -2.8606
27100SOL    HW287137   8.828   8.703   6.112 -1.3531 -0.6485  1.0266
27101SOL     OW87138   7.921   6.199   4.382  0.3365  0.3503 -1.0037
27101SOL    HW187139   8.007   6.229   4.351  0.5775 -0.7521 -1.4614
27101SOL    HW287140   7.941   6.131   4.446 -0.1888  1.8178  0.8112
27102SOL     OW87141   6.046   5.101   4.805  0.3975  0.5653  0.4845
27102SOL    HW187142   6.087   5.148   4.732  0.3308  1.1843  0.8355
27102SOL    HW287143   6.105   5.028   4.822  0.4794  0.4840 -0.1091
27103SOL     OW87144   2.220   1.407   8.160 -0.2454  0.5790 -0.0052
27103SOL    HW187145   2.138   1.456   8.152 -0.4841  0.2952  0.6465
27103SOL    HW287146   2.193   1.317   8.177  0.1833  0.0678 -1.8430
27104SOL     OW87147   4.048  10.066   0.796 -0.7235 -0.2096 -0.7313
27104SOL    HW187148   4.073  10.122   0.869 -1.2438  0.4296 -1.0361
27104SOL    HW287149   3.966  10.025   0.824 -0.4570 -0.6585 -0.5977
27105SOL     OW87150   6.433   7.853   9.730  0.3371  0.4751 -0.1102
27105SOL    HW187151   6.338   7.855   9.720  0.2585  1.2269  0.6608
27105SOL    HW287152   6.457   7.944   9.750  1.1217  0.1333  0.5777
27106SOL     OW87153   6.205   3.896   5.931  0.5939 -0.4695 -0.3581
27106SOL    HW187154   6.224   3.869   6.020 -1.0564  0.2454  0.2484
27106SOL    HW287155   6.286   3.934   5.899  2.0593 -3.1325 -0.1484
27107SOL     OW87156   7.803   6.745   7.420 -0.3768 -0.5275 -0.2926
27107SOL    HW187157   7.725   6.724   7.473  2.2354 -3.8508  2.7183
27107SOL    HW287158   7.833   6.829   7.455 -1.3773 -0.2831  0.0314
27108SOL     OW87159   2.440   9.346   8.364 -0.3867 -0.1052 -0.5272
27108SOL    HW187160   2.485   9.378   8.286  0.5993  1.5360  0.6365
27108SOL    HW287161   2.390   9.422   8.395  1.4228  0.2150  1.9147
27109SOL     OW87162   1.114   1.052   5.114  0.1343  0.0259 -0.1912
27109SOL    HW187163   1.039   1.092   5.158 -0.2101 -0.3226 -0.4528
27109SOL    HW287164   1.114   0.961   5.144 -0.8905 -0.5879 -1.8599
27110SOL     OW87165   6.897   3.183   1.991 -0.6225  0.1601  0.2540
27110SOL    HW187166   6.941   3.124   2.052 -0.4301  1.5083  1.4479
27110SOL    HW287167   6.807   3.188   2.023 -0.2032  1.8954  1.2512
27111SOL     OW87168   1.169   6.190   2.734  0.2548 -0.2901 -0.6221
27111SOL    HW187169   1.255   6.178   2.774  1.4467 -0.1604 -2.9613
27111SOL    HW287170   1.155   6.110   2.683 -0.4727  0.2102 -1.2253
27112SOL     OW87171   3.578   6.939   5.423  0.4266 -0.7230 -0.8840
27112SOL    HW187172   3.518   6.917   5.352 -1.1892 -0.3194  0.2782
27112SOL    HW287173   3.544   6.890   5.498  1.2529 -0.0603 -0.0574
27113SOL     OW87174  10.606   9.363   0.839 -0.6160  0.4246 -0.2920
27113SOL    HW187175  10.607   9.366   0.744 -3.2567  2.0345 -0.3492
27113SOL    HW287176  10.638   9.449   0.866 -0.6058  0.2529  0.2598
27114SOL     OW87177   7.504   3.820   3.680  0.5842 -0.0135  0.7897
27114SOL    HW187178   7.561   3.884   3.722 -1.6115  1.0070  2.4530
27114SOL    HW287179   7.549   3.736   3.694  3.3120  1.0039 -1.0727
27115SOL     OW87180   7.561   1.975   0.960 -0.0910  0.7839  1.0834
27115SOL    HW187181   7.591   2.062   0.935 -0.8098  0.0959 -2.7524
27115SOL    HW287182   7.633   1.917   0.935 -1.6928 -0.1721 -1.6792
27116SOL     OW87183   2.719   7.072   7.525 -0.3273  0.4094  0.2074
27116SOL    HW187184   2.779   7.114   7.463  1.5762 -2.1215  0.1941
27116SOL    HW287185   2.730   7.122   7.607 -0.7627  2.0149 -0.6688
27117SOL     OW87186   9.759   6.984   8.642 -0.0406  0.0690 -0.2398
27117SOL    HW187187   9.713   6.905   8.614  1.5648 -0.8166 -0.4958
27117SOL    HW287188   9.777   6.970   8.734  0.1754  0.1867 -0.2637
27118SOL     OW87189   6.956   9.982   0.680  0.2551  0.4118  0.7462
27118SOL    HW187190   6.904   9.905   0.656  0.9588 -0.1432  0.9635
27118SOL    HW287191   6.927  10.050   0.619  0.7051 -0.4484 -0.4634
27119SOL     OW87192   9.195  10.631   2.350  0.4225  0.2000 -0.3157
27119SOL    HW187193   9.107  10.614   2.383  0.0901  1.0359 -0.7363
27119SOL    HW287194   9.253  10.599   2.419 -0.1815 -1.2299 -0.4394
27120SOL     OW87195  10.511   2.965   0.716 -0.3892 -0.2717  0.7551
27120SOL    HW187196  10.442   2.899   0.716 -0.4498 -0.2202 -0.2745
27120SOL    HW287197  10.542   2.967   0.806 -0.2883 -1.8092  0.7789
27121SOL     OW87198   9.281   4.265   8.413 -0.0408  0.1763 -0.2114
27121SOL    HW187199   9.257   4.356   8.432  0.6116  0.3226 -0.0647
27121SOL    HW287200   9.214   4.235   8.352 -0.2816  0.7444 -0.2355
27122SOL     OW87201   9.963   4.352   4.517  0.1384 -0.5740  0.3915
27122SOL    HW187202   9.922   4.417   4.574 -0.7321 -1.2359  0.5334
27122SOL    HW287203   9.891   4.297   4.488  0.5180 -0.1558 -1.4969
27123SOL     OW87204   1.474   3.855   9.476 -0.0652  0.0112 -0.1944
27123SOL    HW187205   1.452   3.860   9.569 -1.7002  0.8279 -0.5881
27123SOL    HW287206   1.553   3.801   9.473 -0.3920 -0.6319  1.5878
27124SOL     OW87207   5.759   9.538   0.842 -0.2328  0.0902 -0.0895
27124SOL    HW187208   5.725   9.625   0.820 -4.0629 -0.8538  1.2871
27124SOL    HW287209   5.732   9.483   0.768 -0.8643 -0.5145  0.5790
27125SOL     OW87210   5.473   8.174   2.131 -0.5424  0.4020  0.1716
27125SOL    HW187211   5.455   8.101   2.190 -0.2344  0.4267  0.2971
27125SOL    HW287212   5.400   8.234   2.144 -0.1577  0.7006  0.9833
27126SOL     OW87213   1.545   5.643   2.499 -0.1981  0.1301 -1.0170
27126SOL    HW187214   1.617   5.593   2.461 -0.9055 -1.1255 -0.7685
27126SOL    HW287215   1.470   5.626   2.441 -0.8488 -0.4118 -0.0562
27127SOL     OW87216   8.111   9.125   1.310  0.0941 -0.4618 -0.1730
27127SOL    HW187217   8.118   9.191   1.242  3.6222 -1.0708 -0.5978
27127SOL    HW287218   8.140   9.169   1.390  1.9291 -1.2287 -0.3531
27128SOL     OW87219   8.290   5.858   7.981 -0.9275 -0.1599 -0.3065
27128SOL    HW187220   8.213   5.814   7.945 -0.8601  0.1411 -0.8261
27128SOL    HW287221   8.268   5.951   7.978 -0.2044 -0.0034 -1.2869
27129SOL     OW87222   9.941   9.924   5.498 -0.1913  0.2781  0.2653
27129SOL    HW187223   9.922   9.885   5.412  1.1646 -1.4905  0.7001
27129SOL    HW287224   9.997   9.999   5.478 -0.5679  0.3823 -0.4471
27130SOL     OW87225   1.583   3.042  10.153 -0.1238 -0.2762 -0.0680
27130SOL    HW187226   1.633   3.036  10.071 -1.2995 -0.3459 -0.7917
27130SOL    HW287227   1.628   2.982  10.212 -0.1378 -1.3799 -1.1310
27131SOL     OW87228   3.545   4.213   4.599  0.5316 -0.5208 -0.6251
27131SOL    HW187229   3.524   4.206   4.505 -1.1172  0.6376 -0.3817
27131SOL    HW287230   3.543   4.306   4.618  2.1238 -0.6417  0.3388
27132SOL     OW87231   5.251   6.999   8.063 -0.0024  0.4754  0.6702
27132SOL    HW187232   5.290   7.060   8.127 -0.0636 -1.8612  3.0874
27132SOL    HW287233   5.298   6.917   8.077 -0.9970 -0.5044 -1.3960
27133SOL     OW87234   0.367  10.406   5.436  0.6302  0.4562  0.0986
27133SOL    HW187235   0.414  10.410   5.519 -0.5914 -1.2624  0.9366
27133SOL    HW287236   0.433  10.430   5.370  2.6825 -1.7510  1.2028
27134SOL     OW87237   1.531   5.306   3.009 -0.1949 -0.4469  0.0431
27134SOL    HW187238   1.449   5.257   3.015  0.2128 -1.1126  0.3246
27134SOL    HW287239   1.596   5.247   3.047  0.6102 -0.3881 -1.2194
27135SOL     OW87240   0.025  10.382   4.062 -0.0324  0.4649  0.2447
27135SOL    HW187241   0.102  10.326   4.059  0.2325  0.8367  0.0661
27135SOL    HW287242  -0.021  10.355   4.142  0.8847  1.0309  0.9960
27136SOL     OW87243   0.048   6.574   1.690 -0.1705  0.3988 -0.4649
27136SOL    HW187244   0.121   6.632   1.711  1.1390 -0.0710 -3.2408
27136SOL    HW287245  -0.006   6.626   1.630 -1.0620  0.0566  0.0390
27137SOL     OW87246   5.009   0.578   8.106  0.0200  0.2566 -0.2185
27137SOL    HW187247   4.938   0.626   8.148  0.1766  0.2603  0.0432
27137SOL    HW287248   5.032   0.632   8.030  0.5460  0.8793  0.3644
27138SOL     OW87249  10.170   6.721   1.662  0.1757 -0.9158 -0.1774
27138SOL    HW187250  10.236   6.654   1.647  2.0198  0.3599  1.7088
27138SOL    HW287251  10.210   6.803   1.632  0.4981  0.2418  2.9718
27139SOL     OW87252   7.172   1.860   3.930  0.3721  0.2263 -0.2432
27139SOL    HW187253   7.124   1.796   3.877  1.5320 -0.1343 -0.8926
27139SOL    HW287254   7.104   1.917   3.966 -0.4707  0.4782 -2.0895
27140SOL     OW87255   3.493   3.629   1.412 -0.6333  0.3620 -0.0386
27140SOL    HW187256   3.487   3.535   1.426  0.6274  0.3369  0.4793
27140SOL    HW287257   3.430   3.666   1.473  1.1046 -0.0320  2.1487
27141SOL     OW87258   8.706   4.440   0.733  0.6173 -0.6771 -0.0793
27141SOL    HW187259   8.759   4.401   0.664  0.2615 -1.1751 -0.0764
27141SOL    HW287260   8.619   4.448   0.694 -0.0778 -2.7040  0.8901
27142SOL     OW87261   9.217   0.340   6.850  0.4520  0.0182 -0.2569
27142SOL    HW187262   9.310   0.349   6.867  0.4316  0.5836 -0.4349
27142SOL    HW287263   9.195   0.252   6.882  1.2081 -0.4473 -0.9664
27143SOL     OW87264   4.114  10.445   7.445 -0.1719  0.5139 -0.3718
27143SOL    HW187265   4.201  10.404   7.451 -0.4114 -0.2448 -1.6625
27143SOL    HW287266   4.066  10.411   7.520 -0.0753 -0.9124 -0.9229
27144SOL     OW87267   3.445   8.558   0.453  0.2664 -0.2261 -0.0889
27144SOL    HW187268   3.367   8.540   0.505  0.1515 -0.0847 -0.2088
27144SOL    HW287269   3.469   8.648   0.475  0.0064 -0.0390 -0.5404
27145SOL     OW87270   8.758   2.647  10.578  0.5503  0.0797 -0.1400
27145SOL    HW187271   8.705   2.622  10.503 -0.0390 -2.2815  0.9737
27145SOL    HW287272   8.732   2.737  10.597 -0.3768  0.1990 -1.8190
27146SOL     OW87273   1.474   3.444   4.539 -0.4664  0.2233 -0.4999
27146SOL    HW187274   1.471   3.364   4.486 -0.1853  0.0529 -0.2590
27146SOL    HW287275   1.528   3.504   4.488  0.1296 -0.0740 -0.2307
27147SOL     OW87276   2.643   6.192   3.183 -0.0660 -0.1154 -0.0367
27147SOL    HW187277   2.710   6.158   3.243  2.4133  1.0730 -1.9474
27147SOL    HW287278   2.599   6.114   3.151 -0.2692 -0.8857  1.9349
27148SOL     OW87279   4.614   3.440   7.846 -0.5035  0.0415  0.0994
27148SOL    HW187280   4.553   3.511   7.827  0.0250  0.6490  0.6377
27148SOL    HW287281   4.666   3.430   7.766 -1.6809 -0.8845 -0.5816
27149SOL     OW87282   7.813   4.255   6.523 -0.2680  0.5282 -0.7195
27149SOL    HW187283   7.872   4.240   6.449 -0.2437 -1.8363 -0.2905
27149SOL    HW287284   7.802   4.350   6.525  0.6159  0.7640 -3.0535
27150SOL     OW87285   9.852   0.158   3.076 -0.2979  0.7260 -0.3651
27150SOL    HW187286   9.872   0.124   2.988 -2.2935 -2.3908  0.2411
27150SOL    HW287287   9.867   0.084   3.134 -2.3865  1.6364  1.4669
27151SOL     OW87288   5.872   1.937   8.982 -0.0926  0.0823  0.1922
27151SOL    HW187289   5.868   1.870   9.050 -0.2764  0.5109  0.6078
27151SOL    HW287290   5.909   1.892   8.906 -0.2564 -0.4994  0.4525
27152SOL     OW87291   5.704   5.314  10.382  0.0120 -0.3291  0.1235
27152SOL    HW187292   5.694   5.258  10.305 -1.4810 -1.3325  0.9885
27152SOL    HW287293   5.798   5.321  10.394  0.3071  0.4914 -2.2136
27153SOL     OW87294   3.357   8.998   3.206  0.4871  0.4314  0.0950
27153SOL    HW187295   3.394   9.084   3.184  0.1746  1.0603  1.8269
27153SOL    HW287296   3.264   9.005   3.184  0.3896  0.6698  0.5787
27154SOL     OW87297   7.887   1.654   8.481  0.6580  0.2837 -0.2610
27154SOL    HW187298   7.870   1.596   8.408  2.3917 -0.7112  0.0508
27154SOL    HW287299   7.854   1.607   8.558  0.8758  0.2908 -0.1609
27155SOL     OW87300   5.112   6.450   5.963  0.0414 -0.0247 -0.5909
27155SOL    HW187301   5.039   6.394   5.989  1.3987 -2.6679 -2.0556
27155SOL    HW287302   5.158   6.468   6.045 -0.7773 -0.5752  0.0029
27156SOL     OW87303   8.392   2.718   3.755  0.3187  0.3559 -0.3062
27156SOL    HW187304   8.433   2.639   3.720  0.8074  0.4503  0.0255
27156SOL    HW287305   8.312   2.687   3.797  0.1589  0.1320 -0.7744
27157SOL     OW87306   1.422   4.676   5.809 -0.1791 -0.0541 -0.1463
27157SOL    HW187307   1.485   4.604   5.800 -0.0511  0.3045 -3.2492
27157SOL    HW287308   1.438   4.731   5.732 -2.7056  1.3172  0.2180
27158SOL     OW87309   4.643   0.093   6.564  0.2916 -0.0151 -0.3856
27158SOL    HW187310   4.701   0.090   6.641  0.3028 -0.2957 -0.4044
27158SOL    HW287311   4.564   0.137   6.596 -0.2492 -1.3303  0.1572
27159SOL     OW87312   2.180   9.766   7.768  0.0168  0.2153 -0.2455
27159SOL    HW187313   2.235   9.800   7.839  2.4460 -0.2211 -1.7834
27159SOL    HW287314   2.124   9.840   7.743  0.2891  0.8725  1.0070
27160SOL     OW87315  10.332   0.357   7.694  0.1394  0.2529 -0.1842
27160SOL    HW187316  10.419   0.397   7.704  0.9651 -1.7370  1.1898
27160SOL    HW287317  10.279   0.399   7.762  0.2133  0.8976 -0.5086
27161SOL     OW87318   3.614   3.729   6.351 -0.0462 -0.9140  0.2329
27161SOL    HW187319   3.636   3.812   6.310 -0.9527 -0.4816  0.5817
27161SOL    HW287320   3.527   3.707   6.316  0.1230 -1.6442  0.2487
27162SOL     OW87321   6.681  10.252   1.547  0.6957 -0.2890 -0.3408
27162SOL    HW187322   6.634  10.300   1.478 -0.2796 -0.7525 -0.0158
27162SOL    HW287323   6.624  10.179   1.569  1.5753 -0.8618  0.0901
27163SOL     OW87324   5.300   8.724   3.262 -0.6289 -0.0135  0.5492
27163SOL    HW187325   5.335   8.811   3.282  0.2050 -0.5598  1.5542
27163SOL    HW287326   5.375   8.666   3.271 -1.6714 -1.1639  2.2713
27164SOL     OW87327   7.929   2.836   0.105 -0.1817  0.2596 -0.8805
27164SOL    HW187328   7.936   2.908   0.042 -0.3477  0.0442 -1.1518
27164SOL    HW287329   7.878   2.769   0.058  2.1722 -1.1279 -1.6740
27165SOL     OW87330   5.113   9.666   4.193 -0.1082 -0.2563  0.6346
27165SOL    HW187331   5.038   9.723   4.174  0.2303 -0.9143 -3.8837
27165SOL    HW287332   5.091   9.583   4.152  2.7460 -0.6842 -0.2731
27166SOL     OW87333   3.424   7.269  10.115  0.3781  0.0492 -0.2254
27166SOL    HW187334   3.469   7.200  10.066  0.9943  0.4267 -0.2060
27166SOL    HW287335   3.465   7.350  10.085  0.6491  0.3001  0.7874
27167SOL     OW87336   8.785   9.788  10.644 -0.2637  0.4980 -0.2074
27167SOL    HW187337   8.781   9.695  10.666 -1.5642  0.5519 -0.1470
27167SOL    HW287338   8.708   9.826  10.685 -0.4721  1.3576 -1.3415
27168SOL     OW87339  10.137   9.061   5.979 -0.0820  0.2887  0.1341
27168SOL    HW187340  10.146   9.149   6.016 -1.4338  0.5604 -0.1394
27168SOL    HW287341  10.058   9.064   5.926 -0.7056 -1.3618  0.8892
27169SOL     OW87342   0.676   4.462   8.920 -0.0197  0.0275  0.3660
27169SOL    HW187343   0.739   4.401   8.958 -0.4705  0.3157  1.6631
27169SOL    HW287344   0.717   4.548   8.929 -0.0110  0.0700 -0.0771
27170SOL     OW87345   8.709   8.551   4.779  0.3804 -0.0928  0.1340
27170SOL    HW187346   8.792   8.575   4.736  0.3313 -1.5854 -0.8897
27170SOL    HW287347   8.649   8.623   4.757  0.8109 -0.0560 -0.9973
27171SOL     OW87348   0.933   0.161  10.353  0.0351 -0.0209 -0.0557
27171SOL    HW187349   1.027   0.178  10.343 -0.1543  0.8233 -0.4302
27171SOL    HW287350   0.913   0.187  10.443  0.3430 -1.1373  0.3612
27172SOL     OW87351   3.264   4.602   2.781 -0.0716 -0.0564  0.3649
27172SOL    HW187352   3.206   4.582   2.854 -0.5016  0.3685  0.1499
27172SOL    HW287353   3.329   4.532   2.781 -0.3495 -0.3161  0.8584
27173SOL     OW87354   9.044   2.787  10.000 -0.1694 -0.1110 -0.0695
27173SOL    HW187355   9.021   2.876   9.974  2.4599  0.7243  0.2389
27173SOL    HW287356   9.040   2.736   9.919 -0.6600  0.5019 -0.4403
27174SOL     OW87357   0.041   2.803   4.245 -0.2158 -0.0799  0.6202
27174SOL    HW187358  -0.002   2.760   4.318  0.1325 -0.2405  0.7307
27174SOL    HW287359   0.134   2.793   4.262 -0.1322  0.0926  0.2791
27175SOL     OW87360   1.662   9.815   1.994  0.2326  0.6424  0.3748
27175SOL    HW187361   1.626   9.731   1.965  0.2356  0.7071  0.1803
27175SOL    HW287362   1.591   9.878   1.981  1.1741  1.2519 -2.4089
27176SOL     OW87363   5.232   6.214   0.295  0.0674 -0.3548  0.4462
27176SOL    HW187364   5.215   6.126   0.327  0.3636  0.4095  2.9204
27176SOL    HW287365   5.178   6.270   0.351  0.6270  1.1243 -0.4379
27177SOL     OW87366   0.964   0.718   7.369 -0.1990  0.5954 -0.2546
27177SOL    HW187367   1.060   0.708   7.369  0.0267  1.8210  2.5084
27177SOL    HW287368   0.938   0.693   7.281  2.6101 -0.3088 -0.9511
27178SOL     OW87369   2.258   5.697   8.254  0.3263  0.0192 -0.5355
27178SOL    HW187370   2.308   5.700   8.336 -0.9601 -0.2470  0.2821
27178SOL    HW287371   2.209   5.615   8.259 -0.1201  0.2276 -1.3608
27179SOL     OW87372  10.362   5.861   3.289  0.6049 -0.2332  0.3596
27179SOL    HW187373  10.426   5.900   3.230 -0.2220 -0.8314 -0.9781
27179SOL    HW287374  10.278   5.872   3.244 -0.1085 -0.3299  1.6240
27180SOL     OW87375   9.247   5.831   4.294 -0.1482 -0.1887 -0.1846
27180SOL    HW187376   9.276   5.910   4.247  0.7708 -1.4428 -1.8333
27180SOL    HW287377   9.168   5.803   4.249  0.4102 -1.0775 -0.6411
27181SOL     OW87378   4.677   0.070   1.715  0.0419  0.0972 -0.0347
27181SOL    HW187379   4.601   0.115   1.678 -0.2413  0.1582  0.6048
27181SOL    HW287380   4.724   0.139   1.762  0.3879  0.0190 -0.2664
27182SOL     OW87381   9.277   9.521   6.292  0.3841 -0.0963 -0.0235
27182SOL    HW187382   9.329   9.527   6.212  0.8032 -0.0149  0.2516
27182SOL    HW287383   9.191   9.556   6.267  0.2862 -0.7240 -0.6241
27183SOL     OW87384   6.682   6.562   6.153  0.3684  0.3602  0.2243
27183SOL    HW187385   6.711   6.595   6.068 -0.4538  0.3261 -0.0760
27183SOL    HW287386   6.759   6.516   6.188  1.0236  1.2182 -0.0507
27184SOL     OW87387   3.871   1.859   9.137 -0.0223  0.2164  0.7224
27184SOL    HW187388   3.950   1.910   9.154 -0.2779  1.0327 -0.4086
27184SOL    HW287389   3.888   1.815   9.054  0.8606 -2.9705  2.4075
27185SOL     OW87390   2.606   9.108   8.346 -0.0295  0.0898  0.1128
27185SOL    HW187391   2.515   9.137   8.347 -0.0274  0.0961  0.1643
27185SOL    HW287392   2.656   9.185   8.319 -0.0260  0.1284  0.2273
27186SOL     OW87393   4.087   3.170   3.498 -1.0292 -0.0962 -0.1381
27186SOL    HW187394   4.048   3.150   3.583 -0.5792 -0.5870 -0.0384
27186SOL    HW287395   4.055   3.102   3.440 -1.6427  0.4593 -0.4621
27187SOL     OW87396   7.339   2.335   8.052 -0.3425  0.0491 -0.3815
27187SOL    HW187397   7.398   2.408   8.076  0.4662 -0.1764 -1.5810
27187SOL    HW287398   7.388   2.287   7.985 -1.3918 -0.8861 -0.4887
27188SOL     OW87399   6.374  10.560   5.905  0.4419 -0.1083  0.0942
27188SOL    HW187400   6.346  10.488   5.848  1.4931 -1.4322  1.1849
27188SOL    HW287401   6.457  10.589   5.868  0.0181  0.5763 -0.3458
27189SOL     OW87402   4.570   1.504   0.358 -0.1553 -0.1949 -0.6312
27189SOL    HW187403   4.552   1.411   0.366  0.3466 -0.2728 -0.3402
27189SOL    HW287404   4.665   1.510   0.351 -0.0939  0.3575  0.4316
27190SOL     OW87405   9.351   0.004   7.078  0.2311  0.0883  0.0672
27190SOL    HW187406   9.263   0.041   7.082  0.3234  0.3040  0.1041
27190SOL    HW287407   9.341  -0.086   7.108 -0.0554 -0.0215 -0.3628
27191SOL     OW87408   1.127   3.389   7.716  0.1177  0.1968 -0.8895
27191SOL    HW187409   1.051   3.426   7.762  1.2882  0.1750  1.1601
27191SOL    HW287410   1.097   3.304   7.684 -0.2414 -0.6046  1.4359
27192SOL     OW87411  10.082   4.993   4.694 -0.1236 -0.7457 -0.3534
27192SOL    HW187412  10.159   4.949   4.732  0.7521 -0.0383 -1.2715
27192SOL    HW287413  10.026   5.011   4.769  0.5022 -1.4627  0.3117
27193SOL     OW87414  10.578   4.740   5.073  0.2456  0.3804  0.2848
27193SOL    HW187415  10.490   4.717   5.045  0.1172  1.0865  0.0783
27193SOL    HW287416  10.587   4.832   5.048  0.5550  0.6915  1.5115
27194SOL     OW87417   4.068   0.874   9.865  0.5000  0.3022  0.1084
27194SOL    HW187418   4.121   0.952   9.850  1.9225 -0.2115  2.1044
27194SOL    HW287419   4.061   0.833   9.778  3.2489  0.4732 -0.2652
27195SOL     OW87420  10.133  10.286   2.111 -0.1650 -0.3370  0.2890
27195SOL    HW187421  10.176  10.368   2.136  2.7601 -1.9846  1.2088
27195SOL    HW287422  10.147  10.279   2.017  1.5737 -0.7798  0.5556
27196SOL     OW87423   4.618   8.849   7.151 -0.2558 -0.5876 -0.1262
27196SOL    HW187424   4.574   8.917   7.101  1.5929  0.1889 -0.7742
27196SOL    HW287425   4.616   8.772   7.094 -2.4653 -1.2085  0.6609
27197SOL     OW87426   5.883   5.443   4.518  0.4932  0.0690 -0.5748
27197SOL    HW187427   5.877   5.424   4.612  1.4007  2.4299  0.0184
27197SOL    HW287428   5.857   5.361   4.476 -1.4676 -0.5891  1.7071
27198SOL     OW87429   8.575   4.593   8.970  0.1937 -0.3247 -0.0211
27198SOL    HW187430   8.543   4.505   8.949 -2.2090  0.6963 -1.1416
27198SOL    HW287431   8.596   4.631   8.885  0.2363  0.5148  0.3566
27199SOL     OW87432   6.971   1.587   2.528  0.3144 -0.0773  0.0404
27199SOL    HW187433   7.019   1.668   2.512  1.2948 -0.4301  0.9993
27199SOL    HW287434   6.893   1.593   2.474  0.3701  1.5075  0.1018
27200SOL     OW87435   5.347   3.531   0.411  0.1313 -0.3487 -0.2057
27200SOL    HW187436   5.415   3.597   0.397 -0.0939  0.1929  1.1429
27200SOL    HW287437   5.267   3.571   0.378  0.2118 -0.4524 -0.5357
27201SOL     OW87438   9.016   9.876   2.363  0.0047 -0.1820  0.2500
27201SOL    HW187439   8.950   9.891   2.296  0.6384 -2.3204 -0.9622
27201SOL    HW287440   9.096   9.916   2.327  0.3839 -1.4696 -0.4258
27202SOL     OW87441   6.397   7.325   7.669 -0.1376 -0.4655 -0.2489
27202SOL    HW187442   6.303   7.326   7.654 -0.0991 -0.2353 -0.4757
27202SOL    HW287443   6.421   7.417   7.680  0.0732 -0.5174 -0.2663
27203SOL     OW87444   1.700   6.255   2.702  0.1068  0.7630  0.4418
27203SOL    HW187445   1.757   6.305   2.759  0.8375 -1.3615  1.6986
27203SOL    HW287446   1.700   6.303   2.619  0.1927  3.1362  1.7535
27204SOL     OW87447   1.287   1.218   4.749 -0.1429  0.5578 -0.6262
27204SOL    HW187448   1.358   1.184   4.695  0.9380  0.2793  0.9194
27204SOL    HW287449   1.213   1.228   4.688  0.7274 -0.6715 -1.9357
27205SOL     OW87450   1.683   1.303   5.072 -0.1657 -0.6433 -0.1528
27205SOL    HW187451   1.612   1.360   5.041 -0.6294 -1.0505  0.1442
27205SOL    HW287452   1.639   1.222   5.099  0.5738 -1.4633 -1.3437
27206SOL     OW87453   3.315   6.914   7.742  0.7870 -0.3672 -0.5257
27206SOL    HW187454   3.370   6.853   7.693  2.2362  1.1072 -0.8300
27206SOL    HW287455   3.331   6.999   7.700  0.4027  0.5727  1.1371
27207SOL     OW87456   5.075   0.640   6.497  0.1364 -0.2677 -0.4410
27207SOL    HW187457   5.073   0.545   6.485 -0.8580 -0.3595  0.3365
27207SOL    HW287458   4.989   0.662   6.532 -0.1739  1.1192 -1.9146
27208SOL     OW87459   1.080   8.276   9.537  0.1279 -0.0410 -0.1356
27208SOL    HW187460   1.028   8.205   9.500  0.7893 -0.0245 -1.1288
27208SOL    HW287461   1.080   8.259   9.632  0.2964 -1.3706 -0.3586
27209SOL     OW87462   7.532   3.013   0.745  0.1492 -0.7802 -0.1598
27209SOL    HW187463   7.565   2.931   0.708  0.7595 -1.8722  2.5873
27209SOL    HW287464   7.610   3.059   0.775 -0.3789 -0.4866  0.7913
27210SOL     OW87465   1.474   6.351   8.135 -0.3908  0.3384  0.3043
27210SOL    HW187466   1.516   6.431   8.167  3.8393 -0.9159 -1.4661
27210SOL    HW287467   1.428   6.378   8.056  0.6670  1.1309 -0.0698
27211SOL     OW87468   0.464   4.154   4.353  0.2810  0.1548  0.3908
27211SOL    HW187469   0.433   4.074   4.394 -0.8682  0.2153 -0.3095
27211SOL    HW287470   0.387   4.189   4.307  1.2417  0.6150 -0.9513
27212SOL     OW87471   4.705   4.244   3.411 -0.4946  0.2367 -0.3846
27212SOL    HW187472   4.690   4.202   3.495  0.5252  1.2186  0.3184
27212SOL    HW287473   4.799   4.236   3.396 -0.7023 -0.1656 -1.5672
27213SOL     OW87474   6.017   4.753  10.110 -0.0489  0.1141 -0.6389
27213SOL    HW187475   6.102   4.784  10.078 -0.7092  2.3406 -0.4052
27213SOL    HW287476   6.029   4.745  10.204  0.3387 -1.1869 -0.7763
27214SOL     OW87477   3.489   2.826   2.758  0.1895  0.4304  0.1057
27214SOL    HW187478   3.403   2.835   2.716  0.0546  1.5430  0.5845
27214SOL    HW287479   3.484   2.744   2.807 -0.1322 -0.1787 -0.8968
27215SOL     OW87480   7.975  10.482   0.357 -0.3946  0.9458  0.3293
27215SOL    HW187481   8.039  10.521   0.417 -1.5311  2.7458  0.4441
27215SOL    HW287482   7.890  10.499   0.398 -1.1509  1.5934 -1.4029
27216SOL     OW87483   6.795   2.814   2.377  0.3446 -0.0753 -0.2209
27216SOL    HW187484   6.721   2.843   2.323  1.0370  0.6852 -0.7837
27216SOL    HW287485   6.782   2.719   2.386 -1.4190  0.2290  0.8168
27217SOL     OW87486   2.159   5.284   1.911  0.6407 -0.4470 -0.5460
27217SOL    HW187487   2.154   5.344   1.837  0.3210 -1.0193 -0.9906
27217SOL    HW287488   2.248   5.249   1.907  1.1815  0.7658  0.3312
27218SOL     OW87489   4.156   7.966   6.951  0.6605  0.8060  0.5394
27218SOL    HW187490   4.095   8.038   6.935  0.2457  0.7093  1.5937
27218SOL    HW287491   4.238   7.994   6.913  0.4158  1.7047  0.6606
27219SOL     OW87492  10.517   2.339   1.114  0.1831  0.1908  0.1022
27219SOL    HW187493  10.563   2.287   1.049  0.5633 -0.0229  0.5394
27219SOL    HW287494  10.527   2.429   1.084  0.7319  0.1307  0.0877
27220SOL     OW87495   8.413   5.493   0.248 -0.2239  0.0731  0.1300
27220SOL    HW187496   8.374   5.408   0.269 -0.8483  0.6869  1.6366
27220SOL    HW287497   8.349   5.536   0.192 -0.0881 -0.2874 -0.3072
27221SOL     OW87498   4.856  10.202   5.813 -0.8187 -0.1441 -0.0012
27221SOL    HW187499   4.846  10.252   5.894 -0.3855 -0.8924  0.5313
27221SOL    HW287500   4.810  10.120   5.830 -0.6347 -0.3518 -0.4830
27222SOL     OW87501   9.898   5.315   3.574 -0.4173  0.3317 -0.3461
27222SOL    HW187502   9.944   5.397   3.593  0.4245 -0.0393 -0.7068
27222SOL    HW287503   9.808   5.330   3.603 -0.4106  1.5735 -0.9138
27223SOL     OW87504   1.646   3.492  10.676  0.5353  0.5025  0.0602
27223SOL    HW187505   1.678   3.404  10.695  1.5804  0.5875 -1.1379
27223SOL    HW287506   1.579   3.509  10.742  0.0937 -1.3118  0.1196
27224SOL     OW87507  10.248   8.571   2.799 -0.2083  0.0669 -0.5721
27224SOL    HW187508  10.165   8.601   2.837  0.8374  2.3911  0.0732
27224SOL    HW287509  10.246   8.606   2.709  0.7007  1.5574 -0.0511
27225SOL     OW87510   9.502   2.653  10.370 -0.0613 -0.0410  0.1531
27225SOL    HW187511   9.509   2.560  10.391 -0.0361  0.0183  0.4112
27225SOL    HW287512   9.449   2.655  10.290 -0.0134 -0.2802  0.1146
27226SOL     OW87513   7.394   3.288   3.888 -0.6373 -0.3518  0.3982
27226SOL    HW187514   7.350   3.362   3.931 -0.4844 -0.2269  0.3398
27226SOL    HW287515   7.468   3.269   3.945  0.9852  1.3728 -1.0227
27227SOL     OW87516   9.344   2.043   4.841  0.0275  0.1495 -0.2087
27227SOL    HW187517   9.397   2.074   4.767 -1.7789  0.5948 -1.3791
27227SOL    HW287518   9.280   1.985   4.801 -0.9645  0.3539  1.0344
27228SOL     OW87519   5.848   9.099   5.401  0.8652  0.7838  0.1878
27228SOL    HW187520   5.790   9.159   5.448  2.5601  1.0371  2.0639
27228SOL    HW287521   5.809   9.013   5.414  1.0220  0.9127  1.6899
27229SOL     OW87522   9.107   2.795   1.096 -0.6118 -0.0191  0.0326
27229SOL    HW187523   9.180   2.741   1.123  0.7117  1.4698 -0.4093
27229SOL    HW287524   9.034   2.767   1.151  0.2369 -1.6235  0.3899
27230SOL     OW87525   2.799   8.528   2.052 -0.0348 -0.5521 -0.2186
27230SOL    HW187526   2.731   8.594   2.058 -0.6466 -0.8475 -2.8009
27230SOL    HW287527   2.861   8.562   1.988  1.0501 -1.3262  0.3703
27231SOL     OW87528   4.305   6.489   9.010 -0.0438 -0.3598  0.3259
27231SOL    HW187529   4.329   6.491   8.918 -1.3607 -2.2084 -0.1263
27231SOL    HW287530   4.320   6.578   9.042 -1.0719  0.7428 -2.0581
27232SOL     OW87531   8.486  10.023  10.565  0.4262  0.3213 -0.2181
27232SOL    HW187532   8.567  10.066  10.536  0.2809  0.2276 -0.7793
27232SOL    HW287533   8.510   9.980  10.647  0.8559  0.5812 -0.2004
27233SOL     OW87534   3.774   1.943   9.890 -0.1066  0.1995  0.6611
27233SOL    HW187535   3.793   1.999   9.815  1.0843 -0.0507  0.7566
27233SOL    HW287536   3.743   1.861   9.852  1.9008 -0.4696  0.3346
27234SOL     OW87537   6.046   3.151  10.233 -0.2236  0.3185 -0.1156
27234SOL    HW187538   5.997   3.158  10.151 -2.5247  0.2758  1.1552
27234SOL    HW287539   6.061   3.058  10.244  2.4419  0.4856 -1.7077
27235SOL     OW87540   4.878  10.324   9.789 -0.1594 -0.5748 -0.2303
27235SOL    HW187541   4.945  10.373   9.837  0.0964 -0.9311 -0.2191
27235SOL    HW287542   4.796  10.345   9.834 -0.1562  0.3671 -0.6261
27236SOL     OW87543   7.162   2.655   5.731 -0.4409  0.1988  0.5598
27236SOL    HW187544   7.168   2.569   5.773 -0.2453  0.3595  0.8654
27236SOL    HW287545   7.126   2.636   5.644 -1.6137 -0.0428  1.0755
27237SOL     OW87546   4.896   8.491  10.527  0.0487 -0.4118  0.3633
27237SOL    HW187547   4.938   8.574  10.504 -0.5134 -0.0324  0.6728
27237SOL    HW287548   4.840   8.513  10.602 -3.0313 -0.2206 -1.8314
27238SOL     OW87549   3.008   0.492   1.332 -0.3103 -0.0184 -0.1192
27238SOL    HW187550   3.039   0.404   1.311  0.5680  0.2307  0.1206
27238SOL    HW287551   3.087   0.541   1.353 -0.7800  0.8652 -0.3717
27239SOL     OW87552   5.365   8.735   7.741 -0.1726  0.8665  0.2735
27239SOL    HW187553   5.458   8.730   7.765  0.0816 -0.6873 -0.8319
27239SOL    HW287554   5.325   8.661   7.786 -0.5034  0.4508 -0.6720
27240SOL     OW87555   9.210   1.951   2.130  0.2421  0.2206 -0.6770
27240SOL    HW187556   9.275   1.887   2.161 -0.4584 -0.7654 -1.1866
27240SOL    HW287557   9.234   1.966   2.039  1.3308  1.8929 -0.1564
27241SOL     OW87558   8.403   1.568   0.863  0.0590  0.2802  0.8426
27241SOL    HW187559   8.332   1.630   0.845 -0.4384 -0.2971  0.7853
27241SOL    HW287560   8.418   1.524   0.779 -2.3673 -2.5345  1.7085
27242SOL     OW87561  10.720   2.478   7.156  0.5524 -0.1100  0.0235
27242SOL    HW187562  10.778   2.526   7.098  0.8984 -0.6155 -0.0539
27242SOL    HW287563  10.678   2.546   7.210 -1.7026  0.6458 -2.4840
27243SOL     OW87564   9.678   7.216   2.444 -0.4135 -0.1325  0.3183
27243SOL    HW187565   9.699   7.152   2.376  0.8496 -0.2339  0.7660
27243SOL    HW287566   9.760   7.225   2.493 -0.4030  2.1377  0.0037
27244SOL     OW87567   7.860   7.558  10.243 -0.2677  0.2124 -0.1172
27244SOL    HW187568   7.862   7.489  10.310  3.6057  0.9713  0.8019
27244SOL    HW287569   7.909   7.521  10.170 -1.4300  0.7095 -1.1918
27245SOL     OW87570   5.863   1.886   2.722  0.3378  0.0241 -0.0689
27245SOL    HW187571   5.941   1.920   2.677  0.2656 -0.7245 -0.7805
27245SOL    HW287572   5.872   1.791   2.717 -0.7253 -0.0710 -0.3334
27246SOL     OW87573  10.708   3.300   7.093 -0.0254 -0.3322 -0.2143
27246SOL    HW187574  10.658   3.224   7.065  0.3063 -0.1041 -1.4682
27246SOL    HW287575  10.652   3.344   7.158  0.2362 -2.2179  1.3646
27247SOL     OW87576   3.332   3.025   8.614 -0.3208  0.7617  0.0817
27247SOL    HW187577   3.403   3.075   8.573 -1.4213  1.8261 -0.5907
27247SOL    HW287578   3.283   3.090   8.664 -0.8864  0.0665  0.4474
27248SOL     OW87579   6.631   7.758  10.357  0.2719 -0.3051 -0.3273
27248SOL    HW187580   6.544   7.718  10.350  0.6350 -0.8579 -2.2141
27248SOL    HW287581   6.613   7.852  10.360 -0.4606 -0.4527  1.6245
27249SOL     OW87582   1.731   2.095   4.337  0.0111  0.4957  0.6930
27249SOL    HW187583   1.657   2.055   4.293 -0.6044  2.4723 -0.1996
27249SOL    HW287584   1.804   2.036   4.320 -0.8147 -0.2077 -0.5919
27250SOL     OW87585   7.689   0.130   1.403  0.0487  0.4056  0.4585
27250SOL    HW187586   7.712   0.037   1.405  1.0041  0.6276  0.2498
27250SOL    HW287587   7.649   0.147   1.488 -0.5528 -0.2965  0.3239
27251SOL     OW87588  10.639  10.634   2.757 -0.1479  0.0966  0.1203
27251SOL    HW187589  10.618  10.595   2.672 -0.9396  2.1097 -0.6496
27251SOL    HW287590  10.721  10.681   2.741 -1.0844  1.7468  0.0191
27252SOL     OW87591   9.794   2.426   4.736 -0.1563  0.1073  0.6076
27252SOL    HW187592   9.766   2.372   4.662  0.1707  0.3784  0.2790
27252SOL    HW287593   9.736   2.502   4.735  0.2376  0.4079  0.2537
27253SOL     OW87594   6.625   4.579   4.391 -0.2010  0.3122 -0.1781
27253SOL    HW187595   6.704   4.619   4.428  0.6686 -1.7170  0.2462
27253SOL    HW287596   6.578   4.653   4.351  1.1942  1.7882  0.7846
27254SOL     OW87597   3.965   7.310   0.818 -0.3961  0.3782 -0.5284
27254SOL    HW187598   4.016   7.293   0.739 -0.8227 -0.2320 -0.6850
27254SOL    HW287599   3.970   7.228   0.868 -1.2789  0.2794 -0.5856
27255SOL     OW87600   1.072   0.355   7.894  0.3889 -0.7864 -0.1053
27255SOL    HW187601   1.044   0.378   7.805  1.7377  2.5004  0.1826
27255SOL    HW287602   1.117   0.271   7.884  0.1578 -0.6974 -2.4645
27256SOL     OW87603   5.391  10.588   7.061 -0.7485 -0.1287  0.3290
27256SOL    HW187604   5.360  10.508   7.018 -2.0108  1.1035 -1.1606
27256SOL    HW287605   5.324  10.606   7.128 -0.6810 -0.0893  0.3864
27257SOL     OW87606   9.810   2.911   6.667 -0.0446 -0.5888 -0.5780
27257SOL    HW187607   9.810   2.997   6.623 -0.4518  0.1051  0.7311
27257SOL    HW287608   9.898   2.903   6.703 -0.9004  0.8010  2.0729
27258SOL     OW87609   3.217   8.523   7.768  0.0558 -0.2848 -0.1120
27258SOL    HW187610   3.144   8.462   7.763 -1.5684  1.4680  0.7158
27258SOL    HW287611   3.286   8.476   7.814  0.0110 -2.4604 -2.1273
27259SOL     OW87612   7.390   2.049   6.027  0.2221 -0.2353  0.5024
27259SOL    HW187613   7.312   2.096   5.998  1.4301  1.1842 -0.6077
27259SOL    HW287614   7.408   2.084   6.115 -0.4924 -0.7109  0.8396
27260SOL     OW87615   1.203   8.447   6.134  0.3505  0.9452  0.5013
27260SOL    HW187616   1.215   8.356   6.107 -1.2709  0.6087  0.8587
27260SOL    HW287617   1.146   8.485   6.067  0.1262  1.3903  0.9371
27261SOL     OW87618   0.950   3.025   7.936 -0.1876  0.1414 -0.4207
27261SOL    HW187619   1.016   2.956   7.927  0.2738  0.0865  2.3847
27261SOL    HW287620   0.889   2.991   8.001 -1.7257  1.1313 -1.2947
27262SOL     OW87621   8.433   9.768   9.721 -0.1170 -0.5808  0.2592
27262SOL    HW187622   8.413   9.804   9.807 -0.5592 -1.7475  0.6619
27262SOL    HW287623   8.515   9.719   9.734 -0.6705 -1.5275  0.2469
27263SOL     OW87624   2.021   5.053   7.480  0.3500  0.5867 -0.4557
27263SOL    HW187625   2.108   5.017   7.496  0.8281  2.6667  2.4306
27263SOL    HW287626   2.037   5.140   7.444 -0.6769 -0.0448 -2.6350
27264SOL     OW87627   2.330   2.047   2.827  0.1280  0.4998 -0.2261
27264SOL    HW187628   2.262   1.989   2.861  0.9485 -0.4494 -0.1335
27264SOL    HW287629   2.382   2.072   2.904 -0.1146  1.2226 -0.2915
27265SOL     OW87630   0.626   0.643   6.353 -0.0768 -0.2147  0.1417
27265SOL    HW187631   0.542   0.667   6.392 -0.8486  0.1244 -1.6401
27265SOL    HW287632   0.644   0.712   6.289 -0.4437 -2.2487 -2.3381
27266SOL     OW87633   0.334   1.135   7.493  0.4385  0.3512  0.1836
27266SOL    HW187634   0.373   1.217   7.522 -0.1312  0.4560  0.6814
27266SOL    HW287635   0.248   1.160   7.460  0.3182 -0.0314  0.2043
27267SOL     OW87636  10.646  10.405   6.973 -0.6936 -0.8527  0.2431
27267SOL    HW187637  10.615  10.466   6.906 -0.2395  0.6234  1.3111
27267SOL    HW287638  10.741  10.406   6.963 -0.7216 -1.9350 -0.1714
27268SOL     OW87639   0.734   5.008   6.711  0.1516  0.3171 -0.2611
27268SOL    HW187640   0.646   4.993   6.677  0.5073 -2.2365 -0.2820
27268SOL    HW287641   0.788   4.943   6.667  2.1741  2.1223 -0.5767
27269SOL     OW87642   6.520   5.875   8.432 -0.3024 -0.3758 -0.1496
27269SOL    HW187643   6.474   5.959   8.440  1.2449  0.4511  0.3057
27269SOL    HW287644   6.600   5.886   8.482  0.8238 -1.4976 -1.6197
27270SOL     OW87645   5.203   7.972   2.693  0.4008  0.1266  0.3350
27270SOL    HW187646   5.261   8.032   2.739  0.2175  1.6812 -1.3563
27270SOL    HW287647   5.145   8.028   2.642  0.6967 -1.4863 -1.9213
27271SOL     OW87648   6.219   6.179   6.146 -0.1876  0.0298 -0.3757
27271SOL    HW187649   6.147   6.241   6.136 -0.5208  0.0931  1.7912
27271SOL    HW287650   6.200   6.109   6.084 -1.6479  0.4626 -0.4527
27272SOL     OW87651   9.382   9.680   2.173 -0.0585 -0.2593  0.2474
27272SOL    HW187652   9.300   9.700   2.127  0.5550  1.5786 -0.0878
27272SOL    HW287653   9.435   9.634   2.108  0.2709  1.0976 -0.4606
27273SOL     OW87654   4.103   5.671   2.034 -0.1599 -0.1896 -0.3636
27273SOL    HW187655   4.132   5.694   1.946  0.2330 -0.9807 -0.4491
27273SOL    HW287656   4.156   5.726   2.092 -0.2996  0.2102 -0.6156
27274SOL     OW87657   6.544   3.215   8.556 -0.3227 -0.1889  0.1057
27274SOL    HW187658   6.482   3.148   8.586 -0.1464  0.2847  1.6653
27274SOL    HW287659   6.489   3.280   8.513 -0.6922 -0.6099 -0.0674
27275SOL     OW87660   9.831   1.892   8.229 -0.1925 -0.2456  0.5381
27275SOL    HW187661   9.799   1.879   8.140 -0.6053 -0.1934  0.6782
27275SOL    HW287662   9.876   1.810   8.251 -0.2188 -0.3126  0.3375
27276SOL     OW87663   6.944   4.686   3.298 -0.3870  0.0982  0.3695
27276SOL    HW187664   6.940   4.781   3.303 -2.1750  0.0977 -0.3704
27276SOL    HW287665   7.028   4.667   3.256 -1.1794  1.4898 -1.9984
27277SOL     OW87666   1.725   6.567   5.391 -0.3493  0.2702  0.0203
27277SOL    HW187667   1.722   6.532   5.479 -1.7857 -0.7753 -0.4115
27277SOL    HW287668   1.809   6.613   5.386  0.1629 -0.4385  1.6125
27278SOL     OW87669   8.914   7.546   0.806 -0.6578  0.2566 -0.1739
27278SOL    HW187670   8.953   7.604   0.740 -0.0493  0.3317  0.2441
27278SOL    HW287671   8.983   7.535   0.872 -0.7212 -1.0400 -0.2942
27279SOL     OW87672   0.343   5.071   8.904  0.1210  0.0968  0.0005
27279SOL    HW187673   0.330   4.982   8.938  1.9195 -1.0538 -2.0731
27279SOL    HW287674   0.314   5.066   8.813 -1.1078  2.0843  0.2350
27280SOL     OW87675   6.031   9.682   0.010 -0.1042 -0.2274  0.6313
27280SOL    HW187676   6.053   9.613  -0.052  0.0750 -0.1713  0.6335
27280SOL    HW287677   6.017   9.760  -0.044 -0.4469 -0.2957  0.6152
27281SOL     OW87678   8.774   8.310   8.448  0.5335  0.4327 -0.0837
27281SOL    HW187679   8.856   8.358   8.455  1.3565 -0.8845 -0.4417
27281SOL    HW287680   8.719   8.346   8.518  2.2791 -0.3356  1.7526
27282SOL     OW87681   9.089   0.751   5.476  0.6728 -0.2765 -0.2752
27282SOL    HW187682   9.058   0.748   5.386  0.8076 -2.2305 -0.3075
27282SOL    HW287683   9.109   0.843   5.492 -1.0401  0.3940 -1.6402
27283SOL     OW87684   3.346   8.007   1.204  0.0176 -0.3353 -0.2153
27283SOL    HW187685   3.278   7.953   1.164  1.1265 -0.7068 -1.7164
27283SOL    HW287686   3.345   7.983   1.296 -2.6577  0.5506  0.0597
27284SOL     OW87687   7.979   4.331   2.152  0.1521 -0.1336  0.5911
27284SOL    HW187688   8.009   4.391   2.220  2.2707  2.8503 -2.6591
27284SOL    HW287689   8.016   4.246   2.177  0.4400  0.7140  3.3275
27285SOL     OW87690   9.503   8.886   4.112 -0.1717 -0.4666  0.0095
27285SOL    HW187691   9.530   8.974   4.139 -0.6803 -0.1311 -0.5435
27285SOL    HW287692   9.576   8.830   4.137  0.7803  0.3183 -0.9103
27286SOL     OW87693   1.158   6.809   1.092 -0.2247  0.1238 -0.1543
27286SOL    HW187694   1.120   6.772   1.012 -2.4500  1.7341  0.0631
27286SOL    HW287695   1.186   6.733   1.143 -1.3694 -1.0696 -1.2493
27287SOL     OW87696   7.659   1.103   4.992 -0.3412 -0.4270  0.2722
27287SOL    HW187697   7.703   1.114   5.077 -1.3389 -3.2936  1.3065
27287SOL    HW287698   7.729   1.109   4.927  0.7637 -0.0166  1.4614
27288SOL     OW87699   9.438   8.401   4.440  0.2000 -0.0594  0.2653
27288SOL    HW187700   9.438   8.492   4.470  0.0354  0.1462 -0.3459
27288SOL    HW287701   9.515   8.362   4.482  0.1720  0.3115  0.6662
27289SOL     OW87702   6.090   3.350   6.280 -0.0188 -0.8124 -0.1474
27289SOL    HW187703   6.093   3.258   6.257 -0.6155 -0.4299 -1.9251
27289SOL    HW287704   6.141   3.394   6.212 -3.2876  0.5481 -1.9560
27290SOL     OW87705   7.127   3.081   8.951  0.1816 -0.1385 -0.0264
27290SOL    HW187706   7.045   3.032   8.943  0.6229 -0.9507  0.3633
27290SOL    HW287707   7.100   3.166   8.987 -0.6158  0.0126 -0.9016
27291SOL     OW87708   8.269   7.278   9.716  0.2843  0.4662 -0.5072
27291SOL    HW187709   8.252   7.235   9.801  1.6116 -1.3490 -1.0842
27291SOL    HW287710   8.182   7.303   9.684 -0.5831 -1.6398  0.0090
27292SOL     OW87711   1.238   4.700   1.906  0.2016  0.0833  0.6206
27292SOL    HW187712   1.200   4.658   1.982  1.3958 -0.7891  0.7609
27292SOL    HW287713   1.189   4.782   1.896 -2.0112 -1.1909  0.4881
27293SOL     OW87714   5.443   7.714   1.978  0.2203  0.3461  0.2088
27293SOL    HW187715   5.496   7.791   1.956 -0.5782  0.7764 -0.2539
27293SOL    HW287716   5.498   7.663   2.038  0.9986  0.9701  0.0397
27294SOL     OW87717   4.809   6.651   9.181  0.0201  0.0192  0.2479
27294SOL    HW187718   4.812   6.627   9.088 -0.9648  0.6483  0.0431
27294SOL    HW287719   4.844   6.574   9.227 -2.0747 -1.4516 -0.4558
27295SOL     OW87720   9.682   1.082   1.812  0.2951 -0.5256 -0.4373
27295SOL    HW187721   9.698   1.055   1.903 -0.2247 -2.7667 -0.9614
27295SOL    HW287722   9.635   1.165   1.821 -0.8344 -1.2896  1.4137
27296SOL     OW87723  10.175   5.199  10.576  0.6040  0.8367  0.2830
27296SOL    HW187724  10.237   5.190  10.504 -0.4890  1.8811 -0.8461
27296SOL    HW287725  10.095   5.233  10.535 -0.9779 -1.1026  1.5537
27297SOL     OW87726   7.413   2.024   8.096 -0.0289  0.0372 -0.2464
27297SOL    HW187727   7.450   1.940   8.122 -1.8947 -0.4783  0.9692
27297SOL    HW287728   7.421   2.079   8.174 -2.3111 -0.3120  0.3019
27298SOL     OW87729   8.683   8.763   5.536  0.3613 -0.1601  0.3256
27298SOL    HW187730   8.638   8.843   5.507  2.4811  0.7884 -0.5196
27298SOL    HW287731   8.752   8.793   5.595  0.6748 -1.4560  0.6559
27299SOL     OW87732  10.196   5.575   4.789  0.3904 -0.1135  0.1848
27299SOL    HW187733  10.171   5.530   4.709 -1.9962 -0.4795  1.0694
27299SOL    HW287734  10.243   5.509   4.840  1.7844  0.0793 -0.7862
27300SOL     OW87735   6.572   3.660   8.529  0.0059 -0.2049 -0.1872
27300SOL    HW187736   6.665   3.670   8.511  0.2147 -2.6401 -0.9308
27300SOL    HW287737   6.547   3.739   8.575  2.9497 -0.3791  1.9773
27301SOL     OW87738   2.871   0.320   0.233 -0.0807  0.2929 -0.5247
27301SOL    HW187739   2.783   0.297   0.263 -0.2078  1.5104  0.0835
27301SOL    HW287740   2.858   0.359   0.147 -0.1495  0.5347 -0.4060
27302SOL     OW87741   9.158   9.046   7.716 -0.0149 -0.4082  1.1244
27302SOL    HW187742   9.170   8.978   7.650 -0.0805  0.5628  0.0641
27302SOL    HW287743   9.109   9.115   7.670  0.9146  0.7797  1.8357
27303SOL     OW87744   4.213   6.848   2.633 -0.1068  0.1323 -0.2970
27303SOL    HW187745   4.233   6.755   2.618  0.7149  0.2194  0.1801
27303SOL    HW287746   4.163   6.874   2.556 -2.4125 -1.2807  0.5889
27304SOL     OW87747   4.850   0.737   0.449  0.2319  0.2872  0.6720
27304SOL    HW187748   4.845   0.832   0.457  1.1019  0.4385 -0.3071
27304SOL    HW287749   4.934   0.721   0.405 -0.6499 -0.8264 -0.7139
27305SOL     OW87750   4.670   6.908   2.593  0.5028 -0.2863  0.4447
27305SOL    HW187751   4.668   6.855   2.514  0.2647 -0.3658  0.5041
27305SOL    HW287752   4.752   6.884   2.636 -0.1724 -1.4956  1.0856
27306SOL     OW87753   3.664   6.940   5.851 -0.0082 -0.6481  0.0910
27306SOL    HW187754   3.676   6.853   5.814 -0.5701 -0.8663  0.4097
27306SOL    HW287755   3.634   6.994   5.777 -0.1500 -0.8467  0.0026
27307SOL     OW87756   3.889   6.120   7.160  0.3633 -0.1817  0.4098
27307SOL    HW187757   3.946   6.058   7.206 -0.8749 -1.1722  0.6650
27307SOL    HW287758   3.800   6.095   7.187 -0.2400  0.7937 -0.6156
27308SOL     OW87759  10.141  10.123  10.050 -0.3653  0.4088 -0.4262
27308SOL    HW187760  10.106  10.136   9.962 -1.3869  0.2435 -0.0580
27308SOL    HW287761  10.085  10.176  10.107  0.2414  0.4621  0.1424
27309SOL     OW87762   7.034   7.107   8.438 -0.7447 -0.1220  0.1499
27309SOL    HW187763   7.033   7.167   8.363  0.7145  0.1680  0.3333
27309SOL    HW287764   6.958   7.049   8.423 -0.2122 -0.4025 -1.8236
27310SOL     OW87765   2.932   1.303   3.694  1.2870  0.5192 -0.3051
27310SOL    HW187766   2.906   1.343   3.611  2.0731  0.5482 -0.5354
27310SOL    HW287767   2.848   1.283   3.737  0.8217 -1.1816 -1.8886
27311SOL     OW87768   7.656   7.466   4.525 -0.0654  0.3363  0.0413
27311SOL    HW187769   7.707   7.468   4.444  0.5292 -1.4579  0.3301
27311SOL    HW287770   7.721   7.470   4.595 -0.3160 -1.3056  0.4062
27312SOL     OW87771   3.326   6.291   1.642 -0.5262  0.1342 -0.4181
27312SOL    HW187772   3.264   6.244   1.585  0.5657  0.2810 -1.7878
27312SOL    HW287773   3.326   6.380   1.608 -2.9646  1.3967  2.4848
27313SOL     OW87774   8.928   3.434   3.802  0.5500 -0.4535 -0.2916
27313SOL    HW187775   8.923   3.429   3.707  0.8857  1.1336 -0.4177
27313SOL    HW287776   9.015   3.469   3.820  0.5836 -0.9658  0.6298
27314SOL     OW87777   3.653   3.930   5.287 -0.5895 -0.1280 -0.1168
27314SOL    HW187778   3.573   3.961   5.329 -0.1723  0.7866  0.0283
27314SOL    HW287779   3.663   3.985   5.209  0.2841  0.2744  0.2618
27315SOL     OW87780   6.273   5.207   4.419 -0.6050 -0.2211 -0.1985
27315SOL    HW187781   6.303   5.148   4.488 -0.7876  0.0021  0.0704
27315SOL    HW287782   6.295   5.161   4.338  1.3057  0.3227 -0.0342
27316SOL     OW87783   5.820   0.733   1.505  0.1494 -0.2219 -0.3861
27316SOL    HW187784   5.777   0.649   1.519 -1.0161  0.5505  1.0538
27316SOL    HW287785   5.910   0.720   1.538 -0.3255 -0.6456  0.8130
27317SOL     OW87786   4.541  10.110   0.315 -0.1065 -0.1210  0.0648
27317SOL    HW187787   4.507  10.031   0.273 -0.1078  0.7478 -1.6694
27317SOL    HW287788   4.598  10.078   0.385  1.4365 -1.7387 -1.7952
27318SOL     OW87789   6.140   8.658   1.423  0.3846  0.6731  0.0706
27318SOL    HW187790   6.215   8.675   1.366  0.9510  0.5857  0.7751
27318SOL    HW287791   6.065   8.694   1.375  0.7899  0.3043 -0.8832
27319SOL     OW87792   6.091   5.890   5.188  0.1072 -0.1741 -0.2124
27319SOL    HW187793   6.092   5.851   5.275  0.4804  0.7670  0.2117
27319SOL    HW287794   6.051   5.976   5.200  1.4503  0.5479 -0.6948
27320SOL     OW87795   5.349   1.753   4.210 -0.0666 -0.0201  0.0555
27320SOL    HW187796   5.349   1.788   4.121  3.1141 -1.6103 -0.7356
27320SOL    HW287797   5.416   1.804   4.256  0.9120 -1.5228  0.3907
27321SOL     OW87798   0.501   3.345   4.823  0.0809  0.2232  0.2087
27321SOL    HW187799   0.557   3.360   4.747  1.8339 -2.1974  0.8961
27321SOL    HW287800   0.422   3.397   4.805  0.4297 -0.1527 -3.2093
27322SOL     OW87801   4.848   6.886   3.318  0.7467 -0.2030  0.2521
27322SOL    HW187802   4.791   6.958   3.344  0.6936  0.0816 -0.6441
27322SOL    HW287803   4.876   6.847   3.401 -0.5626 -0.2110  0.7071
27323SOL     OW87804   1.643   4.746   3.809 -0.3500 -0.0438  0.2697
27323SOL    HW187805   1.608   4.765   3.722  0.2514  1.1387  0.2673
27323SOL    HW287806   1.615   4.656   3.827 -1.5289  0.1210 -0.6213
27324SOL     OW87807   5.834  10.141   6.592 -0.8412  0.3019  0.0355
27324SOL    HW187808   5.905  10.079   6.574 -2.3551 -1.3736 -0.5602
27324SOL    HW287809   5.813  10.127   6.684 -1.5929 -0.5985 -0.2489
27325SOL     OW87810  10.705   0.633   8.794  0.1578  0.4982 -0.1271
27325SOL    HW187811  10.735   0.612   8.882  0.5272  1.4762 -0.0106
27325SOL    HW287812  10.766   0.587   8.736 -1.4197 -2.0219  0.0841
27326SOL     OW87813   2.537   9.438   8.132  0.4094  0.1346  0.0711
27326SOL    HW187814   2.482   9.414   8.057  0.5764 -0.2954  0.0837
27326SOL    HW287815   2.574   9.523   8.108 -1.6897  1.3409  0.8310
27327SOL     OW87816   5.275   9.452   5.939  0.4892 -0.5404 -0.3777
27327SOL    HW187817   5.242   9.474   5.851 -0.9570 -1.9994 -0.2528
27327SOL    HW287818   5.197   9.450   5.994  1.3523  0.1225  0.9154
27328SOL     OW87819   5.482   2.690   5.104  0.2178  0.3950  0.4607
27328SOL    HW187820   5.557   2.643   5.141  2.2507  2.2028 -1.1134
27328SOL    HW287821   5.457   2.638   5.027 -1.0978 -0.9245  1.7094
27329SOL     OW87822   4.641   7.848   9.266  0.5141 -0.8729  0.7989
27329SOL    HW187823   4.571   7.795   9.303 -2.5351  1.8740 -0.5221
27329SOL    HW287824   4.634   7.835   9.172  0.3842  0.9482  0.5190
27330SOL     OW87825   6.834   5.107   3.203  0.1493 -0.1305 -0.1987
27330SOL    HW187826   6.794   5.026   3.172  0.8325 -1.1084  1.3314
27330SOL    HW287827   6.820   5.106   3.298 -0.7339  2.0867 -0.2527
27331SOL     OW87828   5.839   5.720   6.915 -0.5433  0.0156  0.9330
27331SOL    HW187829   5.876   5.667   6.985 -1.9810 -0.2860  1.5087
27331SOL    HW287830   5.799   5.794   6.960 -0.3473  0.5021  0.3150
27332SOL     OW87831   8.092   3.264   6.403 -0.0467 -0.4450 -0.2982
27332SOL    HW187832   8.119   3.192   6.346  0.5513 -2.0329  1.8761
27332SOL    HW287833   8.103   3.230   6.492 -1.5533  1.6957  0.7953
27333SOL     OW87834  10.461   2.971   3.465 -0.0040  0.2329 -0.4831
27333SOL    HW187835  10.406   3.014   3.400  0.8623  1.8436 -0.1893
27333SOL    HW287836  10.457   3.028   3.542  2.1677  0.4822 -0.4958
27334SOL     OW87837   0.698   3.704   9.033  0.1856  0.2451 -0.6144
27334SOL    HW187838   0.783   3.679   8.997 -0.3650 -1.2781 -0.9296
27334SOL    HW287839   0.704   3.680   9.126 -0.6299 -1.9788 -1.0840
27335SOL     OW87840   5.547   4.189   3.450 -0.5940  0.1433 -0.4075
27335SOL    HW187841   5.458   4.217   3.472 -0.4069  1.2776 -1.0487
27335SOL    HW287842   5.590   4.268   3.419  0.1003 -0.7597 -1.8503
27336SOL     OW87843   9.590   4.222   5.867  0.9530  0.2101  0.3697
27336SOL    HW187844   9.632   4.138   5.887 -0.5681 -0.4420  0.9516
27336SOL    HW287845   9.632   4.250   5.785  0.8971 -1.5358 -0.3006
27337SOL     OW87846   8.896   4.344   6.593 -0.2632  0.0808  0.0343
27337SOL    HW187847   8.983   4.330   6.555 -0.1623 -1.4494  0.7445
27337SOL    HW287848   8.836   4.325   6.521 -0.0446 -1.4605  0.2259
27338SOL     OW87849   4.602   0.819   0.794 -0.1030 -0.1245 -0.5573
27338SOL    HW187850   4.619   0.853   0.706  0.6521 -0.9256 -0.7416
27338SOL    HW287851   4.681   0.841   0.843 -0.7807  0.8713  0.1051
27339SOL     OW87852   6.895   2.286   9.612 -0.3308  0.1446  0.2525
27339SOL    HW187853   6.856   2.253   9.692 -1.0506  2.9082  1.1554
27339SOL    HW287854   6.826   2.336   9.570  0.7658  0.8598 -0.7755
27340SOL     OW87855   3.736   7.007   1.351 -0.4380 -0.7965  0.1890
27340SOL    HW187856   3.797   7.079   1.366  0.0249 -0.5802 -2.3137
27340SOL    HW287857   3.674   7.040   1.285 -2.8859 -1.2642  2.1043
27341SOL     OW87858   2.288   0.602   7.960  0.2623  0.0235 -0.6320
27341SOL    HW187859   2.337   0.674   7.921  0.5320 -0.3612 -1.0168
27341SOL    HW287860   2.354   0.552   8.009 -0.0688  0.4962  0.3244
27342SOL     OW87861   5.881   5.915   9.414 -0.1381  0.6678  0.7003
27342SOL    HW187862   5.876   5.900   9.319 -0.4904  1.8225  0.5188
27342SOL    HW287863   5.914   6.004   9.422 -1.8390  1.2589  1.6169
27343SOL     OW87864   3.712   1.021   1.516 -0.2198 -0.2176  0.4064
27343SOL    HW187865   3.644   1.054   1.575  0.5559  0.3450  1.0150
27343SOL    HW287866   3.794   1.055   1.553  0.1561  2.3447 -2.4297
27344SOL     OW87867   8.011   0.095  10.552  0.5685  0.4846  0.1069
27344SOL    HW187868   7.982   0.073  10.641  1.6615  0.8221  0.5634
27344SOL    HW287869   7.932   0.126  10.508 -0.0816 -0.1067  0.8192
27345SOL     OW87870   9.727   1.533   8.865 -0.4530  0.4212 -0.3591
27345SOL    HW187871   9.665   1.470   8.902 -0.9564  0.5376 -0.9849
27345SOL    HW287872   9.812   1.489   8.871 -0.8894 -0.6367 -1.4398
27346SOL     OW87873   6.843   8.035   6.501  1.0883 -0.4070  0.2282
27346SOL    HW187874   6.864   8.097   6.431  0.7481 -0.6839 -0.1233
27346SOL    HW287875   6.750   8.048   6.518  0.7739 -1.5083 -0.5399
27347SOL     OW87876   8.895   1.353   3.051 -0.8595 -0.5285  0.2070
27347SOL    HW187877   8.953   1.414   3.007  0.4041 -0.4528  1.8842
27347SOL    HW287878   8.833   1.325   2.983 -0.2427  1.0772 -1.0676
27348SOL     OW87879   0.388   1.776   9.170 -0.6746  0.7158 -0.3591
27348SOL    HW187880   0.465   1.742   9.124 -0.4769  2.3484 -1.2947
27348SOL    HW287881   0.333   1.814   9.102 -2.5941 -0.8222  0.2164
27349SOL     OW87882   4.367   3.259   3.424  0.3801  0.2270  0.7713
27349SOL    HW187883   4.312   3.214   3.489  1.2610 -1.9410  0.1032
27349SOL    HW287884   4.336   3.226   3.340  1.1887  0.7754  0.2482
27350SOL     OW87885   4.234   2.491   8.414  0.2085  0.3059  0.7418
27350SOL    HW187886   4.302   2.484   8.346  0.6798 -1.2842  1.3375
27350SOL    HW287887   4.262   2.429   8.482 -1.2181  0.5219  1.5480
27351SOL     OW87888   7.310   9.291   2.907  0.3159 -0.1438  0.0611
27351SOL    HW187889   7.344   9.216   2.857 -0.7058  0.2542 -1.2918
27351SOL    HW287890   7.221   9.265   2.931  0.1519  0.4228  0.0631
27352SOL     OW87891   9.501   1.610   1.768  0.3782 -0.1347  0.6266
27352SOL    HW187892   9.585   1.653   1.785  0.0247  0.2045  1.5762
27352SOL    HW287893   9.438   1.660   1.819 -0.3838 -0.4893  0.0548
27353SOL     OW87894  10.051   3.873   7.651  0.4713 -0.2669 -0.4543
27353SOL    HW187895  10.063   3.811   7.723 -0.3620  2.2450  2.0155
27353SOL    HW287896  10.138   3.909   7.636  0.2615  1.0132  1.1373
27354SOL     OW87897   2.199   6.713   4.402  0.2788  0.1680 -0.0092
27354SOL    HW187898   2.284   6.700   4.445  0.5959 -1.8845 -1.0854
27354SOL    HW287899   2.135   6.678   4.464 -0.0608  3.1339  1.4909
27355SOL     OW87900   0.533   1.287   5.413  0.2850 -0.2221 -0.3852
27355SOL    HW187901   0.603   1.349   5.395  0.5769 -0.5064 -0.2445
27355SOL    HW287902   0.557   1.247   5.497 -0.8283  0.7757  0.4486
27356SOL     OW87903  10.014   8.124   4.573  0.4752 -0.2725 -0.7522
27356SOL    HW187904  10.065   8.058   4.621  0.8645  0.2632 -0.4133
27356SOL    HW287905   9.926   8.086   4.567  1.1141 -1.6393 -2.1824
27357SOL     OW87906   8.208   8.287   5.539 -0.0355 -0.3254 -0.1779
27357SOL    HW187907   8.210   8.378   5.508 -1.8444 -0.3041 -0.3294
27357SOL    HW287908   8.248   8.290   5.626  0.9335  0.4054 -0.6241
27358SOL     OW87909   8.687   4.873   0.758 -0.4985 -0.7602  0.1877
27358SOL    HW187910   8.698   4.858   0.852  1.6542 -0.3812  0.0522
27358SOL    HW287911   8.740   4.805   0.716  1.1512  0.9038 -0.6211
27359SOL     OW87912   8.262   8.546   0.773  0.6808 -0.0592 -0.2929
27359SOL    HW187913   8.249   8.453   0.788  0.0355 -0.0403 -0.6802
27359SOL    HW287914   8.241   8.558   0.680 -2.0973  0.9310  0.3474
27360SOL     OW87915   8.997   2.789   6.324  0.2718  0.3484  0.5354
27360SOL    HW187916   8.954   2.822   6.403  0.4961 -0.7356  1.1363
27360SOL    HW287917   9.088   2.777   6.351  0.5587  0.8769 -0.1814
27361SOL     OW87918   2.076   6.502   8.299  0.2597 -0.0353 -0.0092
27361SOL    HW187919   2.165   6.523   8.328  0.1043  0.4905  0.0936
27361SOL    HW287920   2.073   6.406   8.297  0.8406 -0.0533 -0.0547
27362SOL     OW87921   5.575  10.153   6.048 -0.5238 -0.0567  0.1730
27362SOL    HW187922   5.508  10.202   5.999  0.0997  0.5611 -0.0782
27362SOL    HW287923   5.530  10.073   6.076 -1.4893  0.5357  0.3639
27363SOL     OW87924   6.757   2.983  10.000  0.5860  0.7729 -0.3530
27363SOL    HW187925   6.681   2.935  10.031  1.0781  1.1968  1.7173
27363SOL    HW287926   6.722   3.059   9.955 -0.2019  0.1902 -0.7282
27364SOL     OW87927   8.325   6.413   0.118 -0.2203  0.1940 -0.8821
27364SOL    HW187928   8.384   6.489   0.110 -0.8058  0.6899 -0.5584
27364SOL    HW287929   8.299   6.394   0.028 -0.8768  1.0356 -0.8834
27365SOL     OW87930  10.145   4.990   0.042  0.1292 -0.0409 -0.6454
27365SOL    HW187931  10.220   4.949  -0.000 -0.5091  0.1239 -1.9797
27365SOL    HW287932  10.125   5.066  -0.012  0.0699  0.9273  0.6860
27366SOL     OW87933  10.161   8.028   9.490  0.1572 -0.0220 -0.2826
27366SOL    HW187934  10.072   8.060   9.477  0.0435 -0.2361 -0.0482
27366SOL    HW287935  10.164   7.945   9.442 -1.0712 -2.1936  2.9672
27367SOL     OW87936   7.396   4.226   1.490  0.1325  0.0250  0.4026
27367SOL    HW187937   7.330   4.172   1.534  0.3128 -0.9303 -0.4514
27367SOL    HW287938   7.465   4.164   1.468 -0.6683  0.1003 -2.7066
27368SOL     OW87939   0.160   2.235   3.927 -0.8270  0.0016  0.1431
27368SOL    HW187940   0.203   2.231   3.842 -0.8744 -1.3353  0.1660
27368SOL    HW287941   0.192   2.158   3.974 -0.8376  0.6891  1.3271
27369SOL     OW87942   2.092   4.589   7.916  0.4456 -0.0774 -0.6600
27369SOL    HW187943   2.124   4.631   7.996  0.6807 -0.6697 -0.4400
27369SOL    HW287944   2.101   4.657   7.849  0.4627  0.3511 -0.2320
27370SOL     OW87945   6.784   8.032   5.903 -0.4602  0.1207  0.3606
27370SOL    HW187946   6.870   8.016   5.865  0.0334  0.1440  1.4526
27370SOL    HW287947   6.742   8.092   5.841  0.7401  1.0280  0.3999
27371SOL     OW87948   4.049   2.372   0.473  0.0647 -0.4560  0.3310
27371SOL    HW187949   3.976   2.398   0.528 -0.5486 -1.0404 -0.1855
27371SOL    HW287950   4.127   2.388   0.527 -0.2456  2.1677  0.1415
27372SOL     OW87951  10.713   3.383   3.968 -0.4612 -0.1334  0.0847
27372SOL    HW187952  10.641   3.367   4.029  0.4892 -0.0924  1.2418
27372SOL    HW287953  10.762   3.455   4.007  1.2186 -1.3102  0.2214
27373SOL     OW87954   6.034   1.560   7.469  0.2337  0.8255  0.1647
27373SOL    HW187955   6.111   1.516   7.434  1.4033  2.6571  0.3048
27373SOL    HW287956   5.975   1.489   7.493  1.0971 -0.5853 -1.6340
27374SOL     OW87957   9.404   3.529   4.622  0.6527 -0.2048 -0.3087
27374SOL    HW187958   9.376   3.479   4.699 -1.9666 -0.9941 -1.6381
27374SOL    HW287959   9.322   3.561   4.584  1.7678 -0.4797 -3.1663
27375SOL     OW87960   6.702   7.479   7.990 -0.0993 -0.0961 -0.0973
27375SOL    HW187961   6.696   7.456   8.083 -0.7570  0.1455 -0.0743
27375SOL    HW287962   6.688   7.574   7.988  3.5976  0.6120 -0.0706
27376SOL     OW87963   2.829   3.643   5.768 -0.1426  1.0869  0.0551
27376SOL    HW187964   2.741   3.681   5.777 -1.0216 -0.9776  0.7918
27376SOL    HW287965   2.814   3.548   5.765  1.9321  0.7422 -1.7754
27377SOL     OW87966   4.546   6.511   0.306 -0.0770  0.2303 -0.1055
27377SOL    HW187967   4.617   6.527   0.244 -0.0063 -2.3136 -0.8107
27377SOL    HW287968   4.587   6.520   0.392  0.8556 -0.1500 -0.4944
27378SOL     OW87969   4.725   6.592   0.108 -0.3359  0.6368 -0.0402
27378SOL    HW187970   4.765   6.652   0.045  0.8132 -0.4174 -0.3517
27378SOL    HW287971   4.715   6.510   0.059 -0.7400  0.2137  0.7371
27379SOL     OW87972   7.782   0.308   5.616 -0.4877 -0.0536  0.2367
27379SOL    HW187973   7.706   0.318   5.674 -1.5753 -0.2373 -1.0909
27379SOL    HW287974   7.834   0.239   5.656  0.0769  1.4426  2.2700
27380SOL     OW87975   0.516  10.678   9.086 -0.3026  0.5129  0.1103
27380SOL    HW187976   0.597  10.629   9.089 -1.4919 -1.5312  0.9683
27380SOL    HW287977   0.525  10.744   9.155  0.9440  0.9147 -0.4122
27381SOL     OW87978   3.961   4.023  10.002  0.5852 -0.3918 -0.6004
27381SOL    HW187979   3.959   4.057  10.092  1.0581 -0.9630 -0.3676
27381SOL    HW287980   4.050   4.038   9.973 -0.0237  1.4373 -1.6360
27382SOL     OW87981   7.632  10.259   1.816  0.1093  0.1379 -0.4653
27382SOL    HW187982   7.716  10.226   1.785 -0.6460 -2.3804 -0.0065
27382SOL    HW287983   7.585  10.286   1.736  1.2665  1.4923 -0.7262
27383SOL     OW87984   2.354   0.906   8.491  0.1689  0.6367 -0.1218
27383SOL    HW187985   2.338   0.999   8.501 -0.1850  0.6104 -0.4168
27383SOL    HW287986   2.431   0.888   8.546 -2.0479  0.3479  3.1932
27384SOL     OW87987   0.240   8.212   0.237 -0.0912  0.5297 -0.0465
27384SOL    HW187988   0.286   8.230   0.156 -0.4542  0.2347 -0.3266
27384SOL    HW287989   0.307   8.215   0.305  1.0093 -2.9059 -0.7794
27385SOL     OW87990   4.279   0.899   0.830  0.5345  0.0007 -0.3634
27385SOL    HW187991   4.191   0.890   0.865  1.8527 -0.0343  3.5379
27385SOL    HW287992   4.294   0.818   0.781 -0.7905 -1.1438  1.0206
27386SOL     OW87993   9.049   5.415   5.503  0.0411 -0.4559 -0.6299
27386SOL    HW187994   9.128   5.362   5.491 -0.5672 -1.2501 -1.1688
27386SOL    HW287995   9.029   5.408   5.597  0.7340 -0.0632 -0.4471
27387SOL     OW87996   1.632   7.664   1.247 -0.1686  0.6455 -0.2100
27387SOL    HW187997   1.603   7.696   1.333 -0.7327  0.4562 -0.3276
27387SOL    HW287998   1.717   7.707   1.233  0.0483  0.4857  0.5558
27388SOL     OW87999   4.841  10.318   1.953  0.9479 -0.5020  0.5146
27388SOL    HW188000   4.784  10.325   2.030  0.9989 -0.5112  0.5536
27388SOL    HW288001   4.925  10.354   1.983  0.1566  2.4044 -0.4033
27389SOL     OW88002   2.673   5.397   2.475  0.6765 -0.1091  0.0159
27389SOL    HW188003   2.730   5.466   2.509 -0.3185  1.4822 -1.3769
27389SOL    HW288004   2.650   5.427   2.388 -0.8293 -1.6076 -0.1360
27390SOL     OW88005  10.700   1.277   2.029 -0.9618  0.4884 -0.0210
27390SOL    HW188006  10.716   1.320   2.113 -1.9676 -1.1788  1.0962
27390SOL    HW288007  10.690   1.184   2.052 -3.2318  0.2402 -1.7142
27391SOL     OW88008   3.784  10.048  10.164 -0.1891 -0.7582  0.6105
27391SOL    HW188009   3.764  10.126  10.215 -0.5393 -1.1893  1.1337
27391SOL    HW288010   3.793  10.081  10.074  1.2501  0.1308  1.0459
27392SOL     OW88011   7.402  10.302   2.911 -0.4506  0.4746 -0.1342
27392SOL    HW188012   7.387  10.376   2.970  3.3094 -0.0132  1.6728
27392SOL    HW288013   7.411  10.343   2.824 -0.2112  1.9287  0.5476
27393SOL     OW88014   9.826   1.368   0.080  0.7859  0.0060  0.4668
27393SOL    HW188015   9.887   1.340   0.149 -0.5560 -0.4244  1.5143
27393SOL    HW288016   9.804   1.287   0.034  0.1673 -0.0121  0.7906
27394SOL     OW88017   5.126   2.137   4.595 -0.5074  0.0908 -0.2147
27394SOL    HW188018   5.054   2.113   4.537 -1.1659  1.8436 -0.1892
27394SOL    HW288019   5.103   2.101   4.680 -0.1437 -1.4254 -0.7276
27395SOL     OW88020  10.186   5.652   5.170  0.0877  0.4705  0.0323
27395SOL    HW188021  10.153   5.724   5.116  0.1768 -0.1639 -0.8923
27395SOL    HW288022  10.134   5.657   5.251  1.7625  3.0816  1.0789
27396SOL     OW88023   7.857   6.683   8.649  0.0140 -0.0515 -0.0647
27396SOL    HW188024   7.824   6.705   8.562 -0.4829 -0.4002  0.0294
27396SOL    HW288025   7.847   6.588   8.654  0.2855 -0.0613  0.2734
27397SOL     OW88026   8.962  10.073   8.355  0.4257  0.1812 -0.5155
27397SOL    HW188027   8.880  10.111   8.384  0.5332  0.1469 -0.1710
27397SOL    HW288028   8.938  10.022   8.277 -0.5505 -2.7660  1.5330
27398SOL     OW88029   4.187   2.430   7.691  0.0917  0.0625 -0.6494
27398SOL    HW188030   4.175   2.497   7.623 -1.6541 -1.9671 -2.4896
27398SOL    HW288031   4.213   2.351   7.644  0.9222 -0.9226  1.3207
27399SOL     OW88032   9.814   7.570   8.940 -0.2343 -0.1163 -0.0103
27399SOL    HW188033   9.740   7.542   8.993 -0.7488 -0.3555 -0.8383
27399SOL    HW288034   9.865   7.490   8.926  0.8091  0.2286  1.4647
27400SOL     OW88035   0.819   6.623   7.302 -0.3491  0.0153  0.1241
27400SOL    HW188036   0.841   6.701   7.353 -1.4817  0.0220  0.6263
27400SOL    HW288037   0.840   6.550   7.360  2.2469 -0.1826 -0.9164
27401SOL     OW88038   1.144   5.136   8.548 -0.1182  0.4136 -0.4260
27401SOL    HW188039   1.201   5.061   8.568 -0.8689 -0.8014 -2.5256
27401SOL    HW288040   1.062   5.116   8.594  0.1542  0.7134  0.2110
27402SOL     OW88041  10.458   9.578   6.594  0.3762  0.3254  0.6963
27402SOL    HW188042  10.546   9.543   6.607 -0.3415 -2.4092 -1.0925
27402SOL    HW288043  10.464   9.631   6.515  0.3608 -0.1233  0.3925
27403SOL     OW88044   3.749   7.208   4.252  0.4004 -0.1996 -0.0256
27403SOL    HW188045   3.798   7.130   4.224 -0.5297 -0.9828  0.4464
27403SOL    HW288046   3.715   7.184   4.339  1.8121  1.5209  1.0874
27404SOL     OW88047   7.670   3.009   7.566 -0.1099  0.1980 -0.2639
27404SOL    HW188048   7.631   3.090   7.533 -1.5460 -0.2542  0.2574
27404SOL    HW288049   7.648   2.943   7.500  0.9062  0.1718 -0.6012
27405SOL     OW88050   3.495   3.893   0.197  0.1689  0.4519  0.1764
27405SOL    HW188051   3.461   3.804   0.200 -1.0781  0.8846 -0.1647
27405SOL    HW288052   3.447   3.939   0.267 -0.4521  1.2356 -0.7271
27406SOL     OW88053   9.148   8.281   2.326 -0.7253 -0.2887 -0.3178
27406SOL    HW188054   9.151   8.350   2.259 -0.3546  0.8998  0.8800
27406SOL    HW288055   9.240   8.256   2.339 -0.4296  1.5782  1.7743
27407SOL     OW88056   5.913   9.103   8.128 -0.0650 -0.0399 -0.1114
27407SOL    HW188057   5.976   9.174   8.119 -1.7730  1.3918 -1.2478
27407SOL    HW288058   5.850   9.135   8.192 -0.7972 -0.5700 -0.5527
27408SOL     OW88059   3.435   9.995   0.497  0.2785  0.1496  0.4234
27408SOL    HW188060   3.373   9.929   0.465 -1.6367  2.0335 -0.0213
27408SOL    HW288061   3.506   9.994   0.433 -0.8341  0.0524 -0.8665
27409SOL     OW88062   6.057   3.362   3.294 -0.2445  0.3268  0.0901
27409SOL    HW188063   6.036   3.451   3.265 -1.1678  0.2659  0.5230
27409SOL    HW288064   6.152   3.361   3.302 -0.3183  1.8797  1.8839
27410SOL     OW88065   5.540   8.399   4.396  0.0348 -0.2563  0.7083
27410SOL    HW188066   5.602   8.472   4.403  0.4987 -0.7233  1.7214
27410SOL    HW288067   5.570   8.336   4.461 -0.9750 -0.8977  0.5794
27411SOL     OW88068   5.658   7.609   1.562 -0.2507  0.1864 -0.1832
27411SOL    HW188069   5.581   7.655   1.529  0.6601  0.3564 -2.1607
27411SOL    HW288070   5.675   7.649   1.647 -0.7264  2.0472 -0.9278
27412SOL     OW88071   5.307   7.938   6.467  0.2885  1.0080 -0.1059
27412SOL    HW188072   5.281   8.022   6.430 -0.0567  1.3665  0.9036
27412SOL    HW288073   5.237   7.916   6.529  0.3913 -0.0096 -0.3337
27413SOL     OW88074   6.084  10.333   1.756 -0.5260  0.2187 -0.1230
27413SOL    HW188075   6.092  10.261   1.694  0.2351 -0.3494  0.6119
27413SOL    HW288076   6.019  10.303   1.820 -0.1510  0.1576  0.2283
27414SOL     OW88077   6.579   7.220   4.567 -0.4638 -0.2075 -0.4579
27414SOL    HW188078   6.599   7.268   4.486 -2.5802  2.4678  0.4594
27414SOL    HW288079   6.504   7.165   4.544 -1.7914  1.4003 -0.0925
27415SOL     OW88080  10.358   1.551   4.080  0.4976 -0.3650 -0.5208
27415SOL    HW188081  10.287   1.604   4.044  1.0172  1.5683  1.1083
27415SOL    HW288082  10.322   1.462   4.086 -2.2036  0.7161  1.2488
27416SOL     OW88083   6.290   8.439   7.343 -0.2406  0.2263 -0.1269
27416SOL    HW188084   6.377   8.443   7.383 -1.1116  1.5138  1.8031
27416SOL    HW288085   6.248   8.520   7.371 -2.9555 -1.5136  1.1836
27417SOL     OW88086   0.899   7.664   3.537 -0.6192  0.2193 -0.1789
27417SOL    HW188087   0.986   7.686   3.570 -1.0953  0.4909  0.9638
27417SOL    HW288088   0.867   7.745   3.498  0.0815 -0.1940 -1.6855
27418SOL     OW88089   1.848   2.276  10.344 -0.0889  0.7269  0.4933
27418SOL    HW188090   1.863   2.266  10.438 -0.2178 -0.2206  0.4184
27418SOL    HW288091   1.913   2.218  10.304 -0.5431  0.5496  0.0166
27419SOL     OW88092   9.621   0.867   3.481 -0.0336  0.0569  0.1764
27419SOL    HW188093   9.555   0.892   3.546 -0.6029 -1.1532  0.0932
27419SOL    HW288094   9.574   0.866   3.398  0.5848  1.1515 -0.2081
27420SOL     OW88095   2.986   9.462   0.800 -0.3481  0.0215  0.2330
27420SOL    HW188096   2.892   9.478   0.793 -0.4317 -0.0465  1.1221
27420SOL    HW288097   3.025   9.549   0.794 -0.4994  0.1011  0.3982
27421SOL     OW88098  10.436   3.440   3.622  0.3470 -0.3796  0.1899
27421SOL    HW188099  10.476   3.527   3.625  1.1132 -0.6932 -0.5769
27421SOL    HW288100  10.510   3.379   3.620 -0.1094 -0.9542 -1.8059
27422SOL     OW88101   8.021   1.014   0.396  0.2914  0.3297 -0.1704
27422SOL    HW188102   8.097   1.070   0.379  0.4310  0.1691 -0.0768
27422SOL    HW288103   7.948   1.058   0.352  0.4610  0.4236 -0.3594
27423SOL     OW88104   7.665   5.808   6.840 -0.2336  0.0827 -0.4838
27423SOL    HW188105   7.686   5.806   6.747 -1.8771  0.3672 -0.8980
27423SOL    HW288106   7.732   5.753   6.881 -0.4825 -1.4786 -2.0523
27424SOL     OW88107   2.917   1.076   0.911 -0.1069 -0.1041 -0.4661
27424SOL    HW188108   2.891   0.990   0.880  0.2838 -0.4429  0.1198
27424SOL    HW288109   2.837   1.129   0.907 -0.8398 -1.0375  1.0514
27425SOL     OW88110   3.274   0.659   6.284  0.6177 -0.0915 -0.1302
27425SOL    HW188111   3.186   0.660   6.323 -0.0463 -1.0233 -1.5432
27425SOL    HW288112   3.266   0.715   6.207  1.6819  0.9967  0.5135
27426SOL     OW88113   5.100   3.212   1.171  0.4200 -0.2070 -0.0603
27426SOL    HW188114   5.065   3.298   1.149  1.3056 -0.0892 -1.0921
27426SOL    HW288115   5.195   3.220   1.155  0.1058 -2.6621 -5.0094
27427SOL     OW88116  10.437   0.008   2.385 -1.0286  1.3271 -0.5160
27427SOL    HW188117  10.461  -0.026   2.471 -1.9821 -1.1026 -1.1385
27427SOL    HW288118  10.495   0.083   2.371  2.2840 -0.8806  0.3649
27428SOL     OW88119   7.891   5.087   6.186 -0.0606  0.5087  0.0177
27428SOL    HW188120   7.967   5.048   6.230  0.8205 -1.1270 -2.7342
27428SOL    HW288121   7.816   5.053   6.234  0.8758  0.0336  1.2027
27429SOL     OW88122   6.329  10.633   8.107 -0.0638  0.4246  0.4016
27429SOL    HW188123   6.298  10.548   8.076 -0.6385  0.9589 -0.5439
27429SOL    HW288124   6.347  10.619   8.200  0.9273 -1.0140  0.0221
27430SOL     OW88125   1.416   8.751   6.092  0.5280 -0.4928 -0.2149
27430SOL    HW188126   1.496   8.799   6.069  1.7606 -2.2375  0.1786
27430SOL    HW288127   1.390   8.786   6.177 -0.1551  1.2810 -1.1103
27431SOL     OW88128   4.971   6.062   9.978  0.3863  0.2329  0.4127
27431SOL    HW188129   4.909   6.127  10.011  0.8391  1.3955 -0.9101
27431SOL    HW288130   4.990   6.007  10.053 -0.8757  0.9455  1.2997
27432SOL     OW88131   8.939   0.214   6.040  0.1616  0.8761 -0.7061
27432SOL    HW188132   8.882   0.237   5.967 -0.9676  1.0816  0.2116
27432SOL    HW288133   8.927   0.121   6.053 -2.1032  1.3578  1.1949
27433SOL     OW88134   7.615   8.663   2.654  0.0712  0.2621 -0.3723
27433SOL    HW188135   7.662   8.592   2.610  1.1657  0.8143 -0.1374
27433SOL    HW288136   7.565   8.705   2.584 -0.7977 -0.8881 -0.4599
27434SOL     OW88137   4.009   8.825   4.390  0.0013 -0.2104 -0.0603
27434SOL    HW188138   4.098   8.814   4.421  1.1571 -0.5988 -3.1975
27434SOL    HW288139   3.977   8.736   4.374 -1.0942 -0.0930  1.2654
27435SOL     OW88140   8.733   7.637   3.518 -0.3345  0.3562  0.3199
27435SOL    HW188141   8.814   7.643   3.569  0.3455  0.9961 -0.8021
27435SOL    HW288142   8.668   7.603   3.580  0.5399  0.8064  1.5183
27436SOL     OW88143   2.289   7.231   1.252 -0.0492 -0.7002  0.5536
27436SOL    HW188144   2.340   7.271   1.182  0.5980 -0.1226  1.3281
27436SOL    HW288145   2.339   7.154   1.278 -0.0151 -0.6232  0.7217
27437SOL     OW88146   9.244   1.623   3.912  0.7490 -0.5391  0.3629
27437SOL    HW188147   9.279   1.608   3.824  1.1177  0.1122  0.3862
27437SOL    HW288148   9.278   1.550   3.964  1.5655 -0.2594  0.2367
27438SOL     OW88149   2.901   4.224   1.703  0.4307 -0.1780  0.0357
27438SOL    HW188150   2.828   4.233   1.642  0.3525 -0.6207  0.0549
27438SOL    HW288151   2.864   4.246   1.789  0.4050 -0.0764 -0.0012
27439SOL     OW88152   9.925  10.494   9.067  0.4414  0.1708  0.2228
27439SOL    HW188153  10.019  10.480   9.075  0.3990  0.4491  1.2024
27439SOL    HW288154   9.889  10.405   9.057  0.8190  0.0811 -0.4187
27440SOL     OW88155   5.956   8.173   0.371 -0.1134  0.5116 -0.1761
27440SOL    HW188156   5.943   8.190   0.465 -0.3484  0.2739 -0.1655
27440SOL    HW288157   5.867   8.162   0.336  0.0017  0.0250 -0.3193
27441SOL     OW88158   8.698   6.142   9.738  0.1358  0.5617  0.1191
27441SOL    HW188159   8.660   6.104   9.817 -0.7188  0.8783 -0.1225
27441SOL    HW288160   8.674   6.082   9.668 -0.8598  1.2897 -0.1985
27442SOL     OW88161   4.130   0.488   0.347  0.1002  0.1541 -0.2356
27442SOL    HW188162   4.060   0.540   0.387  0.5279  0.4696  0.1177
27442SOL    HW288163   4.158   0.428   0.416 -1.1005 -1.3147 -0.9490
27443SOL     OW88164   2.411   4.533   8.963  0.4677 -0.2564  0.7269
27443SOL    HW188165   2.371   4.578   8.889  0.3595  2.4887  2.3181
27443SOL    HW288166   2.337   4.498   9.013  0.3817  0.0480  0.8146
27444SOL     OW88167   3.003   5.592  10.258 -0.3122  0.3936  0.0258
27444SOL    HW188168   2.973   5.501  10.255 -3.2066  1.2335  0.2438
27444SOL    HW288169   3.012   5.612  10.351 -1.9479  0.9157  0.1132
27445SOL     OW88170   6.529   9.908   5.850 -0.3696  0.5846  0.4236
27445SOL    HW188171   6.561   9.944   5.767  1.6190 -0.6474  0.5844
27445SOL    HW288172   6.506   9.817   5.830 -2.9369  1.1184  0.5782
27446SOL     OW88173   5.099   2.862   3.594 -0.2925  0.5179  0.9827
27446SOL    HW188174   5.135   2.846   3.680 -0.1251 -0.1116  0.7997
27446SOL    HW288175   5.048   2.943   3.604  0.4657  0.9480  1.4385
27447SOL     OW88176   9.700   6.173   3.445 -0.0976 -0.5055 -0.6678
27447SOL    HW188177   9.643   6.180   3.369  0.9286  1.8980 -1.2913
27447SOL    HW288178   9.645   6.198   3.519 -0.4683 -0.5580 -0.9262
27448SOL     OW88179   8.803   2.827   7.130  0.1614 -0.2232  0.0250
27448SOL    HW188180   8.745   2.804   7.203  1.1881  1.6930  1.5442
27448SOL    HW288181   8.754   2.803   7.052 -1.1838 -1.9367  1.3134
27449SOL     OW88182   3.171   5.029   3.231  0.8208 -0.3291  0.0016
27449SOL    HW188183   3.160   5.007   3.139  2.3105 -0.7240 -0.1021
27449SOL    HW288184   3.265   5.045   3.241  0.3733  2.2186  0.9010
27450SOL     OW88185  10.456  10.677   1.805 -0.0013 -0.1158 -0.0252
27450SOL    HW188186  10.426  10.768   1.801 -1.2118 -0.5114 -0.2484
27450SOL    HW288187  10.380  10.625   1.778  0.4148 -1.2452  0.9078
27451SOL     OW88188   6.956   2.183   3.354  0.0115  0.7443 -0.2308
27451SOL    HW188189   6.974   2.235   3.276  0.0066 -0.6905 -1.2151
27451SOL    HW288190   7.038   2.137   3.372 -0.3984 -0.0043 -0.2366
27452SOL     OW88191   5.698   2.590   9.074 -0.0873  0.4684 -0.1935
27452SOL    HW188192   5.629   2.559   9.015  0.4041 -1.0250 -0.0233
27452SOL    HW288193   5.779   2.561   9.033  0.3136  0.2517  0.7339
27453SOL     OW88194   5.438   5.635   3.416 -0.5165 -0.2201  0.5211
27453SOL    HW188195   5.405   5.643   3.505 -0.1882 -0.8446  0.7072
27453SOL    HW288196   5.482   5.550   3.415  0.4536  0.2751  0.0838
27454SOL     OW88197   9.006   9.575  10.458 -0.0423 -0.5910  0.4157
27454SOL    HW188198   9.043   9.560  10.545  1.1280 -1.8332 -0.2519
27454SOL    HW288199   8.937   9.509  10.449  1.2541 -1.9338 -0.3394
27455SOL     OW88200   0.704   0.636   0.940  0.5890  0.2710  0.2990
27455SOL    HW188201   0.657   0.553   0.949 -1.4372  1.4580  1.4642
27455SOL    HW288202   0.710   0.650   0.846 -3.5513  1.0747 -0.0429
27456SOL     OW88203   3.873   7.573   0.352  0.1249 -0.3337 -0.3160
27456SOL    HW188204   3.961   7.580   0.314  0.4900 -0.2428  0.5133
27456SOL    HW288205   3.833   7.499   0.307 -0.0861  0.7898 -2.0540
27457SOL     OW88206   5.149   6.290   0.001  0.0685 -0.2050 -0.1146
27457SOL    HW188207   5.206   6.253  -0.067  0.4663  0.8536 -0.3771
27457SOL    HW288208   5.193   6.270   0.083  0.4183 -0.0657 -0.2693
27458SOL     OW88209   8.014   9.072  10.434 -0.1582  0.0462 -0.4273
27458SOL    HW188210   7.971   9.133  10.374 -1.0511 -1.4662 -1.3770
27458SOL    HW288211   7.945   9.046  10.495  0.5582  0.9925  0.8254
27459SOL     OW88212   2.828   0.578   9.272  0.1844 -0.8546  0.2024
27459SOL    HW188213   2.867   0.576   9.185  3.3200  1.5051  1.3798
27459SOL    HW288214   2.819   0.485   9.296 -1.2686 -1.5758 -2.7362
27460SOL     OW88215   9.905   2.786   3.606  1.0446  0.6460 -0.4437
27460SOL    HW188216   9.895   2.810   3.698  0.2220  0.8798 -0.5891
27460SOL    HW288217   9.877   2.695   3.602  2.0421  0.3138 -0.2956
27461SOL     OW88218   0.943   2.798   5.795  0.1834  0.1394 -0.0182
27461SOL    HW188219   0.990   2.723   5.758  0.7282  1.0987 -1.3194
27461SOL    HW288220   1.008   2.845   5.845 -0.2520 -0.4376  1.1289
27462SOL     OW88221   7.976   1.961   9.221 -0.3199 -0.1585  0.2139
27462SOL    HW188222   8.054   1.986   9.271 -0.1647 -0.5900  0.1883
27462SOL    HW288223   7.952   1.875   9.255  0.3812 -0.9179 -1.1436
27463SOL     OW88224   3.445   7.969  10.153 -0.3805  0.3015 -0.1994
27463SOL    HW188225   3.389   7.895  10.177 -0.4994 -0.1722 -1.8153
27463SOL    HW288226   3.485   7.996  10.235 -1.9332 -0.2128  0.7709
27464SOL     OW88227   2.449   4.101   9.105 -0.0154 -0.7339  0.1936
27464SOL    HW188228   2.448   4.171   9.171 -1.9927  1.5366 -2.0138
27464SOL    HW288229   2.454   4.020   9.155  1.4506  0.9025  2.9502
27465SOL     OW88230   0.502   8.282  10.443 -0.1843  0.0932  0.3536
27465SOL    HW188231   0.433   8.218  10.429  0.8317 -1.2342  1.1666
27465SOL    HW288232   0.582   8.239  10.412  0.6441  0.6157  1.6814
27466SOL     OW88233   5.860   0.701   2.708  0.4765 -0.1183  0.1818
27466SOL    HW188234   5.784   0.720   2.652  1.0779 -0.9962 -0.9739
27466SOL    HW288235   5.824   0.694   2.796 -0.6914  0.1144 -0.2620
27467SOL     OW88236   9.173   7.143  10.698 -0.0231 -0.2294  0.3752
27467SOL    HW188237   9.258   7.181  10.676 -0.9540  2.3891  0.9922
27467SOL    HW288238   9.182   7.050  10.676  2.9445 -0.0258  0.3531
27468SOL     OW88239   2.628   5.158   9.452  0.4734 -0.0447 -0.4908
27468SOL    HW188240   2.619   5.108   9.533  0.5389  1.1247  0.2556
27468SOL    HW288241   2.575   5.109   9.388 -0.9926 -0.0544  0.6788
27469SOL     OW88242   1.407   6.579   8.868  0.1354 -0.8730  0.4193
27469SOL    HW188243   1.413   6.488   8.895 -1.0244 -0.3534  2.6327
27469SOL    HW288244   1.419   6.629   8.949  1.0679  0.9683 -0.7829
27470SOL     OW88245   5.483  10.044   3.300  0.0668 -0.1583 -0.4096
27470SOL    HW188246   5.445  10.129   3.281  0.3140 -0.1588 -0.9119
27470SOL    HW288247   5.566  10.064   3.344 -1.1787 -0.1525  2.1437
27471SOL     OW88248   2.842  10.568   8.017  0.6334 -0.0740 -0.1499
27471SOL    HW188249   2.840  10.518   7.935 -0.1257 -0.3242  0.0164
27471SOL    HW288250   2.750  10.582   8.040  0.8252 -0.7181  1.0897
27472SOL     OW88251   7.372   5.334   1.881 -0.2473 -0.5199  0.3826
27472SOL    HW188252   7.328   5.291   1.953 -0.3077  1.7230  1.7795
27472SOL    HW288253   7.437   5.391   1.923 -1.8401  2.6156 -1.0940
27473SOL     OW88254   8.538   0.023   3.389  0.9395  0.4715  0.3408
27473SOL    HW188255   8.490  -0.049   3.349  3.5695 -1.6619  0.7849
27473SOL    HW288256   8.503   0.028   3.478  0.4878  0.0089  0.1953
27474SOL     OW88257   4.410   3.295   5.031 -0.4015 -0.0619  0.3584
27474SOL    HW188258   4.442   3.376   5.071 -2.0354 -0.1694  2.0517
27474SOL    HW288259   4.465   3.283   4.954  0.9989  1.7472  0.9884
27475SOL     OW88260   7.659  10.251   0.667  0.3379 -0.0799  0.0745
27475SOL    HW188261   7.566  10.229   0.669  0.2109  0.4440  1.4900
27475SOL    HW288262   7.674  10.299   0.749  1.7245  0.3782 -0.4126
27476SOL     OW88263   7.983   9.509   7.901 -0.2300 -0.0026 -0.2769
27476SOL    HW188264   7.908   9.450   7.906  0.0214 -0.2630  0.6307
27476SOL    HW288265   7.961   9.580   7.961 -0.2588  0.5255 -0.8998
27477SOL     OW88266   0.681   8.849   2.086  0.2301 -0.0557 -0.0555
27477SOL    HW188267   0.627   8.899   2.148 -0.6044  0.5028 -1.1970
27477SOL    HW288268   0.758   8.824   2.137  0.1004  1.3481  0.9046
27478SOL     OW88269   4.976   3.357   4.815  0.1997  0.0013  0.0102
27478SOL    HW188270   4.967   3.278   4.762 -0.4044 -0.3390  0.6045
27478SOL    HW288271   5.065   3.387   4.798  0.5786 -1.0442  0.1033
27479SOL     OW88272   9.969  10.565  10.067  0.3990  0.0352 -0.4191
27479SOL    HW188273   9.914  10.492  10.038  0.6404 -0.5103  0.4504
27479SOL    HW288274   9.929  10.593  10.149  0.6046  0.5562 -0.4940
27480SOL     OW88275   6.195   1.501   2.640 -0.6016  0.4693  0.2523
27480SOL    HW188276   6.223   1.534   2.555 -0.9938 -1.7587 -0.8165
27480SOL    HW288277   6.249   1.422   2.653 -1.0229  0.4082  1.7477
27481SOL     OW88278   0.519   8.274   9.371 -0.4418  0.1561  0.4851
27481SOL    HW188279   0.557   8.309   9.452 -1.7363 -1.5036  1.9008
27481SOL    HW288280   0.433   8.317   9.365 -0.9988 -0.8427  0.8961
27482SOL     OW88281   0.729   3.564   5.772  0.0224 -0.1260 -0.0174
27482SOL    HW188282   0.762   3.477   5.794  1.3920  0.5875  0.8857
27482SOL    HW288283   0.677   3.551   5.693  0.2002 -1.7577  0.1059
27483SOL     OW88284   2.062   8.411   6.871  0.2804 -0.4653 -0.2125
27483SOL    HW188285   2.061   8.317   6.853  0.9557 -0.2860 -1.2352
27483SOL    HW288286   1.984   8.444   6.828  0.4555 -0.4429 -0.5137
27484SOL     OW88287   7.046   8.228  10.041 -0.5768  0.3752 -0.6084
27484SOL    HW188288   7.054   8.133  10.046 -3.0449  0.1547  0.1964
27484SOL    HW288289   7.067   8.258  10.130  1.3360  0.7577 -1.1308
27485SOL     OW88290   1.411   0.953   7.652  0.2960 -0.0812 -0.7433
27485SOL    HW188291   1.468   0.889   7.611 -0.1287 -0.9410 -0.0336
27485SOL    HW288292   1.389   0.915   7.737 -2.1692 -0.2839 -1.3977
27486SOL     OW88293   4.189   0.347   5.016  0.1559 -0.2619  0.2557
27486SOL    HW188294   4.219   0.257   5.002 -1.4332 -0.6048 -1.2833
27486SOL    HW288295   4.263   0.401   4.988  0.4251 -1.0826 -0.6904
27487SOL     OW88296   5.616   2.125   9.255 -0.4522 -0.2053 -0.6419
27487SOL    HW188297   5.672   2.159   9.184  0.9879  2.3360  1.5070
27487SOL    HW288298   5.654   2.040   9.276  1.4693  0.6269 -0.5197
27488SOL     OW88299   5.805   9.584   4.534 -0.1055 -0.1673  0.3957
27488SOL    HW188300   5.867   9.561   4.603 -1.3279 -2.1246  0.9355
27488SOL    HW288301   5.846   9.553   4.453  0.2038 -0.2303  0.5747
27489SOL     OW88302   1.912   9.229   0.040 -0.2347 -0.1225 -0.2700
27489SOL    HW188303   1.879   9.269   0.120 -1.5068 -2.8407  0.6881
27489SOL    HW288304   1.845   9.245  -0.026  0.0085  0.6397 -0.3368
27490SOL     OW88305   8.863   8.723   1.735 -0.3128  0.7594  1.2692
27490SOL    HW188306   8.939   8.775   1.760 -0.4647  0.3553  2.6046
27490SOL    HW288307   8.859   8.732   1.639  3.1855 -1.6851  0.7395
27491SOL     OW88308   1.658   2.866   5.368  0.4619  0.1101 -0.2366
27491SOL    HW188309   1.716   2.871   5.444  0.6185 -0.8549 -0.2677
27491SOL    HW288310   1.659   2.954   5.331  2.0883  0.0757 -0.3649
27492SOL     OW88311   6.619   0.663  10.293 -0.2306 -0.0237  0.0256
27492SOL    HW188312   6.697   0.654  10.348  0.4681  0.2842 -0.8811
27492SOL    HW288313   6.642   0.618  10.211 -0.3599  1.4781 -0.8826
27493SOL     OW88314   2.963   5.430   7.632  0.0303 -0.3040 -0.1646
27493SOL    HW188315   3.040   5.483   7.652  0.9927 -1.1551 -1.4276
27493SOL    HW288316   2.891   5.493   7.625  0.6475  0.5289  0.7714
27494SOL     OW88317  10.636   5.122   4.272  0.4847 -0.1254  0.4195
27494SOL    HW188318  10.680   5.180   4.210  1.2168 -0.4070  0.6676
27494SOL    HW288319  10.700   5.109   4.342 -0.8363  1.3303  1.9590
27495SOL     OW88320   3.985   3.109   0.545 -0.9245 -0.1497 -0.1490
27495SOL    HW188321   4.016   3.198   0.559  2.0354 -1.0838 -0.0792
27495SOL    HW288322   3.956   3.108   0.454 -2.2976  1.1696  0.2259
27496SOL     OW88323   3.730   6.209   1.783  0.1895  0.3541 -0.5358
27496SOL    HW188324   3.796   6.265   1.823 -0.0169  1.1602 -1.2888
27496SOL    HW288325   3.685   6.266   1.720 -0.3297 -0.5371 -0.9932
27497SOL     OW88326   7.727   3.308   5.906  0.4620  0.7857 -0.1677
27497SOL    HW188327   7.761   3.247   5.971  0.2827 -0.5093 -1.2353
27497SOL    HW288328   7.632   3.295   5.909  0.5631 -1.5598 -2.6849
27498SOL     OW88329   1.611   2.705   8.425 -0.1884 -0.3762 -0.4545
27498SOL    HW188330   1.685   2.759   8.452 -0.1691 -1.4840  2.0299
27498SOL    HW288331   1.550   2.765   8.384  0.8424  1.0810  0.0813
27499SOL     OW88332   5.885   6.489   5.739 -0.5787 -0.1952 -0.5974
27499SOL    HW188333   5.801   6.505   5.781 -0.2866 -0.6455  0.1631
27499SOL    HW288334   5.950   6.531   5.796 -0.2937  0.3546 -1.2960
27500SOL     OW88335   8.078   4.616   4.677  0.5432 -0.1936  0.8040
27500SOL    HW188336   8.081   4.539   4.619  0.0491  0.0289  0.4697
27500SOL    HW288337   7.985   4.637   4.683  0.4923 -0.7304  2.3799
27501SOL     OW88338   4.557   4.951  10.078 -0.0272  0.3417  0.5890
27501SOL    HW188339   4.627   5.012  10.055 -0.3185  1.1472  1.7536
27501SOL    HW288340   4.543   4.965  10.172  0.1474 -1.7641  0.9955
27502SOL     OW88341   4.759   2.270   7.069  0.1781 -0.0823  0.1973
27502SOL    HW188342   4.717   2.340   7.119 -0.1758 -0.8124  0.9563
27502SOL    HW288343   4.694   2.245   7.004  0.3296  0.3313 -0.1163
27503SOL     OW88344   1.723   4.764   0.019  0.1982  0.0158 -0.3051
27503SOL    HW188345   1.708   4.852   0.053  0.1966  0.5679 -1.6538
27503SOL    HW288346   1.640   4.718   0.034  0.3400  0.1049  0.7835
27504SOL     OW88347   9.578   3.040   3.147  0.2075 -0.3840 -0.0017
27504SOL    HW188348   9.574   2.960   3.198  0.3064 -2.2029 -2.6603
27504SOL    HW288349   9.671   3.065   3.150  0.1028 -0.0670  1.1926
27505SOL     OW88350   8.030   1.058   3.068  0.3445  0.1687 -0.0439
27505SOL    HW188351   8.014   1.137   3.017  0.6960  1.3860  1.6582
27505SOL    HW288352   7.989   1.075   3.153  1.4269 -1.0063  0.7532
27506SOL     OW88353   2.966   6.430   6.800 -0.6639  0.0877 -0.1596
27506SOL    HW188354   2.973   6.525   6.802 -0.0580  0.0879 -1.6946
27506SOL    HW288355   2.910   6.409   6.876 -0.5213  1.6143  0.4020
27507SOL     OW88356   1.739   0.167   3.049  0.0390  0.3860 -0.1660
27507SOL    HW188357   1.645   0.155   3.033 -0.2098  1.1046  0.7195
27507SOL    HW288358   1.769   0.080   3.076 -0.6734  0.4741  0.9754
27508SOL     OW88359   6.678   8.068   0.737 -0.1060  0.2347  0.0081
27508SOL    HW188360   6.647   8.032   0.654 -0.0679 -1.4637  0.6959
27508SOL    HW288361   6.712   8.155   0.714  1.2551 -0.7586 -2.0048
27509SOL     OW88362   0.963   8.240   8.517 -0.3762 -0.1691  0.0728
27509SOL    HW188363   0.948   8.326   8.558  1.3037  0.0237  0.3457
27509SOL    HW288364   1.045   8.209   8.556 -0.0836 -1.1419 -1.2745
27510SOL     OW88365   9.998   2.553   7.602 -0.0598 -0.4220  0.2707
27510SOL    HW188366   9.995   2.573   7.508  0.5541  0.0367  0.3433
27510SOL    HW288367  10.025   2.461   7.605  0.6566 -0.2288  0.0073
27511SOL     OW88368  10.179   3.027   0.572  0.0522  0.4593  0.3099
27511SOL    HW188369  10.222   3.090   0.513 -0.2671 -0.0621 -0.5007
27511SOL    HW288370  10.231   2.948   0.565 -0.8344 -0.0817 -0.4514
27512SOL     OW88371   2.111  10.303   2.863 -0.3512  0.1027 -0.8725
27512SOL    HW188372   2.183  10.294   2.800 -0.4939 -0.0345 -1.0147
27512SOL    HW288373   2.033  10.276   2.815 -0.2283 -1.6638 -0.1356
27513SOL     OW88374   9.838   1.364   7.020 -0.3742 -0.2630 -0.1805
27513SOL    HW188375   9.754   1.392   7.056 -1.0852 -2.4357  0.0592
27513SOL    HW288376   9.903   1.415   7.068 -1.5320  0.9462  0.1484
27514SOL     OW88377   4.767   1.195   3.369  0.1976  0.2344 -0.5935
27514SOL    HW188378   4.742   1.188   3.277  0.1392  0.2088 -0.5755
27514SOL    HW288379   4.844   1.140   3.377  0.1181  0.1240 -0.5945
27515SOL     OW88380   3.553   1.096  10.187 -0.3546  0.1860  0.2764
27515SOL    HW188381   3.534   1.146  10.267  1.1858  2.1679 -0.5185
27515SOL    HW288382   3.586   1.012  10.218  3.0764  1.9449  1.9329
27516SOL     OW88383   4.894   9.475   6.945 -0.8119 -0.1010 -0.2554
27516SOL    HW188384   4.832   9.487   7.016  1.1610  0.5540  1.4687
27516SOL    HW288385   4.938   9.392   6.965  0.1304  0.3525 -0.3782
27517SOL     OW88386   8.512   9.528   3.439 -0.2815 -0.1368  0.2540
27517SOL    HW188387   8.480   9.461   3.379  0.9776  0.9975 -1.7944
27517SOL    HW288388   8.604   9.539   3.416  0.4596 -0.1478  2.9322
27518SOL     OW88389   9.391  10.049   0.471  0.1803 -0.1393 -0.2229
27518SOL    HW188390   9.364   9.963   0.439 -0.8646  0.0849  0.0459
27518SOL    HW288391   9.316  10.082   0.521  0.4466  1.0637 -0.5722
27519SOL     OW88392   4.638   0.160   9.090  0.3032 -0.4314 -0.3813
27519SOL    HW188393   4.566   0.212   9.127  0.3225 -0.2719 -0.5623
27519SOL    HW288394   4.641   0.081   9.143 -1.9159 -1.8062 -2.1139
27520SOL     OW88395   7.303   7.582   2.248  0.4686 -0.1359 -0.6926
27520SOL    HW188396   7.326   7.523   2.175 -0.2746 -0.1644 -0.9097
27520SOL    HW288397   7.382   7.585   2.301  0.7937 -0.6741 -1.1269
27521SOL     OW88398   4.917   7.601   7.814 -0.0415 -0.3217  0.4276
27521SOL    HW188399   4.860   7.671   7.845  0.7889  0.5899 -0.0380
27521SOL    HW288400   4.857   7.533   7.784 -0.8918  0.5259  0.1283
27522SOL     OW88401   1.524   3.897   2.461  0.1860  0.0726  0.7303
27522SOL    HW188402   1.460   3.891   2.532 -1.7872 -2.2062 -1.0718
27522SOL    HW288403   1.530   3.808   2.427  2.3977  0.7552 -0.8592
27523SOL     OW88404   3.372   4.387   1.411  0.2798  0.4272 -0.7886
27523SOL    HW188405   3.299   4.326   1.407  0.2741  0.4177 -0.5661
27523SOL    HW288406   3.330   4.474   1.409  0.1948  0.4261  0.3214
27524SOL     OW88407  10.587   2.242   8.156  0.0114  0.2541  0.5521
27524SOL    HW188408  10.584   2.160   8.107 -0.9071 -0.3701  1.6063
27524SOL    HW288409  10.672   2.280   8.133  0.3164 -0.8174 -0.2093
27525SOL     OW88410  10.128   0.013  10.302 -0.2047 -0.7299  0.8496
27525SOL    HW188411  10.187   0.028  10.376  0.0034  0.8235  0.4138
27525SOL    HW288412  10.186   0.006  10.226 -0.5450  0.9242  0.4004
27526SOL     OW88413   1.782   7.905   8.945  0.1525  0.1289 -0.4372
27526SOL    HW188414   1.776   7.844   8.872  1.0689 -1.3789  0.7018
27526SOL    HW288415   1.861   7.880   8.992 -0.4617  0.9735  1.1412
27527SOL     OW88416   4.904   2.902   8.006  0.4553  0.0298  0.3388
27527SOL    HW188417   4.880   2.847   7.932 -0.4024  1.1399 -0.2426
27527SOL    HW288418   4.844   2.977   8.000 -0.4816 -0.4148  2.8342
27528SOL     OW88419   0.931   3.067   5.672 -0.1669 -0.1050 -0.5205
27528SOL    HW188420   0.920   2.972   5.678  1.1438 -0.3215 -1.1539
27528SOL    HW288421   0.892   3.090   5.588 -0.4280 -0.0931 -0.3961
27529SOL     OW88422  10.203   4.544   4.500  0.4435  0.4339  0.1279
27529SOL    HW188423  10.133   4.480   4.513 -0.1487  1.2205  1.0317
27529SOL    HW288424  10.281   4.503   4.536  0.2063 -0.0158  0.1362
27530SOL     OW88425   0.857   7.338  10.716  0.2591 -0.3000 -0.0288
27530SOL    HW188426   0.787   7.371  10.659  0.2820  1.3904  0.8829
27530SOL    HW288427   0.828   7.249  10.739 -0.1487 -0.7241 -1.9664
27531SOL     OW88428   1.547   4.184   1.926  0.2515 -0.1809 -0.7113
27531SOL    HW188429   1.516   4.268   1.959  1.8056 -0.3178  1.3256
27531SOL    HW288430   1.539   4.191   1.831  1.2226  2.6884 -0.6968
27532SOL     OW88431   9.415   5.760   5.742  0.3600  0.5360  0.3657
27532SOL    HW188432   9.463   5.789   5.820 -2.0971 -0.8547  2.5603
27532SOL    HW288433   9.396   5.668   5.759 -0.3099  0.1876 -1.9016
27533SOL     OW88434   1.997   8.316   7.844  0.8712  0.1487 -0.1632
27533SOL    HW188435   2.068   8.304   7.907 -0.3394  1.2327  1.4911
27533SOL    HW288436   2.030   8.381   7.783  1.2102  0.8748  0.7711
27534SOL     OW88437   4.470   6.482   8.790  0.3103 -0.7170  0.6897
27534SOL    HW188438   4.536   6.413   8.785  0.8402 -0.2260  0.7670
27534SOL    HW288439   4.518   6.559   8.820 -0.2424 -0.2760  0.4651
27535SOL     OW88440   7.495   9.587   0.409 -0.5826  0.0248 -0.1544
27535SOL    HW188441   7.556   9.600   0.336 -0.1413  0.9478  0.3589
27535SOL    HW288442   7.523   9.651   0.474 -1.6591 -0.0455  0.3851
27536SOL     OW88443   9.984   6.373  10.604  0.1166 -0.2131 -0.5894
27536SOL    HW188444   9.918   6.359  10.536 -0.6325  0.7334 -0.0700
27536SOL    HW288445  10.028   6.288  10.612 -1.2274 -0.9465 -0.7245
27537SOL     OW88446   1.003   2.124   9.464 -0.3797 -0.2081  0.6626
27537SOL    HW188447   1.020   2.136   9.558  1.5677  1.0936  0.2132
27537SOL    HW288448   0.989   2.030   9.454  0.1094 -0.4740  2.1679
27538SOL     OW88449  10.298   4.732   6.975 -0.3357  0.5121 -0.4912
27538SOL    HW188450  10.329   4.822   6.961  1.3452  0.0704  0.1800
27538SOL    HW288451  10.343   4.680   6.909  2.3918 -0.4987  1.9048
27539SOL     OW88452   7.694  10.284   6.109 -0.4308  0.5280 -0.6703
27539SOL    HW188453   7.785  10.313   6.104 -0.2660 -0.0384 -1.0050
27539SOL    HW288454   7.647  10.343   6.049 -0.2365  0.6246 -0.7289
27540SOL     OW88455   6.844   9.416   5.119  0.1455 -0.0399 -0.1591
27540SOL    HW188456   6.826   9.385   5.207  0.1034  0.5579  0.0488
27540SOL    HW288457   6.828   9.341   5.063 -0.2063 -0.3153  0.3064
27541SOL     OW88458   0.432   2.994   6.680  0.3120  0.3004  0.6791
27541SOL    HW188459   0.479   3.035   6.753 -0.4643  0.1773  1.2602
27541SOL    HW288460   0.371   2.933   6.722  0.8858 -0.8805 -0.1309
27542SOL     OW88461  10.079   9.758   3.884  0.6128 -0.1713  0.0654
27542SOL    HW188462   9.990   9.724   3.888  0.6846 -0.4813 -0.7674
27542SOL    HW288463  10.122   9.707   3.816  1.5268 -0.2290  0.6670
27543SOL     OW88464   8.027   4.581   5.429  0.1305 -0.5200  0.0923
27543SOL    HW188465   8.050   4.493   5.460  0.8547 -0.3960 -0.0687
27543SOL    HW288466   8.067   4.587   5.342  0.8552  0.2723  0.4531
27544SOL     OW88467   9.832   0.784   5.028 -0.3962  0.2753 -0.0099
27544SOL    HW188468   9.823   0.855   4.964  0.9609 -2.1145 -3.1548
27544SOL    HW288469   9.902   0.813   5.087 -0.6700  1.9835 -0.4788
27545SOL     OW88470   2.374   4.502   9.808  0.0698 -0.0161 -0.3105
27545SOL    HW188471   2.418   4.563   9.868  0.0862  0.6324 -0.9635
27545SOL    HW288472   2.390   4.539   9.721 -0.8853 -0.3485 -0.6349
27546SOL     OW88473   7.264  10.674   0.878  0.3270  0.0485 -0.0608
27546SOL    HW188474   7.170  10.678   0.896 -0.0514  0.0143 -1.8410
27546SOL    HW288475   7.298  10.755   0.915 -0.9251  1.5225 -1.8964
27547SOL     OW88476   5.951   8.230   8.338  0.2089  0.3619  0.0976
27547SOL    HW188477   6.030   8.235   8.284 -0.2348  0.9375 -0.5163
27547SOL    HW288478   5.938   8.320   8.369 -0.3077  0.3102  0.0348
27548SOL     OW88479   3.932   7.520   5.441  0.3241 -0.1263  0.6295
27548SOL    HW188480   3.976   7.537   5.524 -0.0467 -1.5446  1.1494
27548SOL    HW288481   3.998   7.536   5.374  0.4518  1.6382  1.1349
27549SOL     OW88482   8.521   0.895   7.009  0.1516  0.2129 -0.6815
27549SOL    HW188483   8.555   0.980   7.038  1.3141  0.0683 -1.5472
27549SOL    HW288484   8.567   0.878   6.927 -2.4926  0.2857 -2.2945
27550SOL     OW88485   1.500   0.965   9.572  0.4120 -0.0744 -0.3545
27550SOL    HW188486   1.425   1.006   9.529  0.2592 -0.1689 -0.1824
27550SOL    HW288487   1.542   0.913   9.504  0.2320 -0.1410 -0.4151
27551SOL     OW88488   9.946   1.420   5.030 -0.2815  0.1865  0.2085
27551SOL    HW188489   9.919   1.468   4.952  0.3329  0.3148  0.0651
27551SOL    HW288490   9.995   1.484   5.082  0.8123 -0.3383 -0.1246
27552SOL     OW88491   6.956   2.112   1.337 -0.3118  0.2353  0.4429
27552SOL    HW188492   6.994   2.168   1.270 -2.2306 -1.3054 -2.1180
27552SOL    HW288493   6.912   2.042   1.288 -2.1478 -0.7953  3.3071
27553SOL     OW88494   4.621   6.050   7.746 -0.1081  0.1923 -0.7390
27553SOL    HW188495   4.553   6.080   7.806  1.1467 -0.1065  0.9128
27553SOL    HW288496   4.617   5.955   7.749  1.4374  0.1219  0.7348
27554SOL     OW88497   5.071   0.956   0.829 -0.2532  0.0845 -0.1279
27554SOL    HW188498   5.131   0.961   0.904  0.0679  0.6432 -0.4150
27554SOL    HW288499   5.118   0.902   0.765 -1.5419 -2.5312  0.9740
27555SOL     OW88500   0.191  10.403   3.117  0.6053 -0.5004 -0.4548
27555SOL    HW188501   0.197  10.344   3.193 -2.7412 -0.4195  0.0471
27555SOL    HW288502   0.272  10.453   3.119  1.4624 -1.8137  1.9500
27556SOL     OW88503   5.266   1.248   8.057 -0.1459 -0.4520 -0.1966
27556SOL    HW188504   5.180   1.208   8.071  0.5898 -2.0647 -0.0009
27556SOL    HW288505   5.328   1.185   8.094  1.0772  1.1120  0.5312
27557SOL     OW88506   3.338   3.795   2.064 -0.0667  0.0339  0.2010
27557SOL    HW188507   3.308   3.795   1.973 -1.6807 -0.6730  0.7007
27557SOL    HW288508   3.405   3.727   2.068 -0.6167 -0.5437 -0.2701
27558SOL     OW88509   9.279   1.312  10.384  0.2921 -0.2668  0.1597
27558SOL    HW188510   9.279   1.404  10.410  1.2801 -0.0558 -0.5131
27558SOL    HW288511   9.354   1.305  10.325  0.2303 -1.5092  0.2189
27559SOL     OW88512   1.307   6.765   2.828 -0.3339  0.0457  0.0721
27559SOL    HW188513   1.281   6.831   2.765  0.4029 -0.9447 -1.3289
27559SOL    HW288514   1.368   6.810   2.887  0.5775  0.5031 -1.1817
27560SOL     OW88515   6.497   5.764   8.827 -0.1285 -0.2575  0.0714
27560SOL    HW188516   6.421   5.823   8.835 -0.8077 -0.9698 -0.8836
27560SOL    HW288517   6.492   5.708   8.905  0.5333  0.9232  0.9999
27561SOL     OW88518   2.445  10.723   0.860  0.6470  0.5800 -0.5015
27561SOL    HW188519   2.362  10.684   0.886  0.3984  2.1639  1.2779
27561SOL    HW288520   2.434  10.746   0.768 -0.3166 -0.5876 -0.7006
27562SOL     OW88521   2.494   9.182   7.823 -0.3190  0.5298  0.1276
27562SOL    HW188522   2.418   9.175   7.881  0.8482 -1.9840  1.5383
27562SOL    HW288523   2.466   9.142   7.741 -1.1597  1.6476 -0.1483
27563SOL     OW88524   8.768   2.054   0.991  0.0605 -0.3007  0.4794
27563SOL    HW188525   8.745   1.992   0.922  0.2443  1.0956 -0.9156
27563SOL    HW288526   8.822   2.004   1.052  1.9661 -1.0359 -1.6900
27564SOL     OW88527   9.819   6.830  10.260  0.2830 -0.5739 -0.1902
27564SOL    HW188528   9.782   6.743  10.275  0.1510 -0.3172  1.1024
27564SOL    HW288529   9.746   6.890  10.277  0.5655 -0.1706 -0.3715
27565SOL     OW88530   0.425   9.487   0.847  0.5379  0.6055  0.4687
27565SOL    HW188531   0.492   9.546   0.812  0.5108  0.4927  0.2266
27565SOL    HW288532   0.444   9.403   0.805  0.0091  0.6666  0.1077
27566SOL     OW88533   8.983   2.659   8.599 -0.1528  0.5730  0.3112
27566SOL    HW188534   9.032   2.629   8.676  1.2646  0.2075 -0.6913
27566SOL    HW288535   9.018   2.747   8.581 -2.6577  2.0174  1.8572
27567SOL     OW88536   9.824  10.668   3.882 -0.2058  0.5478  0.2787
27567SOL    HW188537   9.819  10.707   3.795 -0.6842 -0.9685 -0.4063
27567SOL    HW288538   9.779  10.584   3.874  1.0716 -0.3197  1.5954
27568SOL     OW88539   7.742   7.705  10.461  0.4812  0.0189 -0.5939
27568SOL    HW188540   7.678   7.678  10.528  0.3755  0.5041 -0.4923
27568SOL    HW288541   7.827   7.693  10.503  0.4011  0.6870 -0.2273
27569SOL     OW88542   1.560   2.580   0.958  0.1090  0.0908 -0.0115
27569SOL    HW188543   1.535   2.599   1.048  1.9419 -0.5418  0.6660
27569SOL    HW288544   1.578   2.665   0.919 -1.4845  0.4336 -0.0593
27570SOL     OW88545   8.084   8.296   8.833 -0.3187  0.4325 -0.3110
27570SOL    HW188546   8.169   8.324   8.866  0.1948 -0.5043 -0.8038
27570SOL    HW288547   8.071   8.345   8.753  0.2615 -0.2035 -0.8050
27571SOL     OW88548   7.290   5.726   6.420  0.0468 -0.4173  0.2577
27571SOL    HW188549   7.240   5.807   6.427 -0.6581 -0.6751 -1.2348
27571SOL    HW288550   7.338   5.720   6.502  1.9689  2.7030 -0.4780
27572SOL     OW88551   9.414   7.230  10.623 -0.0106  0.4611 -0.0929
27572SOL    HW188552   9.429   7.221  10.529  1.3277  0.2208  0.1172
27572SOL    HW288553   9.460   7.310  10.647 -3.2061  2.4562 -0.1791
27573SOL     OW88554   5.318   7.664   3.777 -0.7282  0.3316 -0.6204
27573SOL    HW188555   5.410   7.649   3.755 -1.2885 -2.2070 -1.6052
27573SOL    HW288556   5.317   7.747   3.824  1.9108  0.9714 -1.5410
27574SOL     OW88557   1.754   3.293   3.449  0.6631  0.2688 -0.1126
27574SOL    HW188558   1.670   3.252   3.426  0.7245  0.0304  0.0880
27574SOL    HW288559   1.819   3.224   3.436  0.6287 -0.0775  1.3763
27575SOL     OW88560   7.154  10.659   5.538 -0.0973 -0.0982  0.1919
27575SOL    HW188561   7.160  10.667   5.633  0.1802  1.9843  0.0421
27575SOL    HW288562   7.096  10.731   5.511  1.7510  0.8997 -1.4035
27576SOL     OW88563   8.295   5.341   1.193  0.6064  0.1667  0.1189
27576SOL    HW188564   8.272   5.249   1.207 -0.9359  0.4640 -0.2950
27576SOL    HW288565   8.263   5.386   1.271 -1.7960  0.8176 -1.1451
27577SOL     OW88566   2.704   2.056   0.494 -0.0216  0.1400 -0.1133
27577SOL    HW188567   2.776   2.009   0.453  0.8385  1.0482  0.3141
27577SOL    HW288568   2.670   2.113   0.425 -0.2750 -0.2293 -0.2923
27578SOL     OW88569   7.948   6.362   0.206 -0.0513  0.0468 -0.2503
27578SOL    HW188570   7.868   6.311   0.193  0.5464 -0.5830 -1.7548
27578SOL    HW288571   7.921   6.453   0.190 -0.6886 -0.0163  0.3996
27579SOL     OW88572   5.963   2.564   6.613 -0.0303 -0.2642 -0.0949
27579SOL    HW188573   5.937   2.492   6.556  1.1394 -0.5203 -0.3327
27579SOL    HW288574   5.989   2.523   6.695 -4.1989  0.2535  1.7374
27580SOL     OW88575  10.256   7.479   2.326 -1.0838 -0.5628 -0.1756
27580SOL    HW188576  10.254   7.413   2.256  1.5279 -1.8374  0.7945
27580SOL    HW288577  10.253   7.428   2.407 -1.2192  0.6779  0.6251
27581SOL     OW88578   9.097   2.590   7.724  0.0071 -0.1063 -0.0264
27581SOL    HW188579   9.085   2.573   7.630 -2.0757 -0.7606  0.3110
27581SOL    HW288580   9.141   2.512   7.757  0.1275 -0.1706 -0.3318
27582SOL     OW88581   0.447  10.080   3.846  0.1803 -0.1826  0.6529
27582SOL    HW188582   0.487  10.002   3.806  0.5983  1.3667 -2.1658
27582SOL    HW288583   0.354  10.073   3.822  0.1202 -0.0747  0.8596
27583SOL     OW88584   0.537   0.177   2.705  0.0935 -0.8023  0.1861
27583SOL    HW188585   0.578   0.103   2.749  1.7602  0.8749  1.6537
27583SOL    HW288586   0.602   0.206   2.641  0.0014  0.1393  0.5042
27584SOL     OW88587   2.120   3.790   0.113 -0.2518 -0.3329 -0.1749
27584SOL    HW188588   2.130   3.858   0.046 -1.5019  1.2090  1.1464
27584SOL    HW288589   2.118   3.708   0.063  1.0098  0.5776 -1.8331
27585SOL     OW88590   2.550   0.776   7.424  0.6008 -0.0743  0.0751
27585SOL    HW188591   2.558   0.840   7.495 -2.9035  1.4931 -0.6919
27585SOL    HW288592   2.578   0.824   7.346 -0.3806 -0.0495 -0.2688
27586SOL     OW88593   9.262  10.137   2.141 -0.0696 -0.8386  0.1350
27586SOL    HW188594   9.335  10.075   2.142  0.3875 -0.2996  0.0231
27586SOL    HW288595   9.257  10.169   2.231 -0.1982 -0.9103  0.1535
27587SOL     OW88596   2.068   9.516   5.101  0.1730 -0.4786 -0.2229
27587SOL    HW188597   1.978   9.486   5.092  0.6483 -2.0912  0.1259
27587SOL    HW288598   2.093   9.544   5.013  0.1661 -2.5188 -0.9155
27588SOL     OW88599   7.810   5.521   5.681 -0.1024  0.1742 -0.3249
27588SOL    HW188600   7.793   5.427   5.675  0.3858 -0.0190  0.9224
27588SOL    HW288601   7.881   5.528   5.745 -0.1475  1.3926 -0.3923
27589SOL     OW88602   1.334   5.691   0.616  0.0572  0.1263 -0.1574
27589SOL    HW188603   1.374   5.717   0.534 -0.2050 -2.0267 -1.0465
27589SOL    HW288604   1.342   5.595   0.617 -0.1320  0.0777  2.2343
27590SOL     OW88605   6.310   6.390   2.980 -0.0360  0.1218 -0.1703
27590SOL    HW188606   6.244   6.435   2.927  0.5411 -0.1639 -1.1635
27590SOL    HW288607   6.333   6.312   2.928  1.1118  0.2465  0.1255
27591SOL     OW88608   4.723   0.141   0.704  0.0426  0.1963 -0.3746
27591SOL    HW188609   4.662   0.208   0.676 -1.6646 -0.0400  2.4729
27591SOL    HW288610   4.778   0.183   0.770 -1.0047 -1.0944  1.3986
27592SOL     OW88611   8.956   5.471   5.126 -0.0349  0.1044 -0.4885
27592SOL    HW188612   8.924   5.471   5.036 -1.5988 -1.8935 -0.0024
27592SOL    HW288613   8.906   5.540   5.170 -0.2699  0.1479 -0.8235
27593SOL     OW88614   7.142   8.730   9.347 -0.2946 -0.1263 -0.1375
27593SOL    HW188615   7.202   8.804   9.350 -0.6581  0.6052 -4.5993
27593SOL    HW288616   7.167   8.682   9.269 -1.9593 -3.1314  1.0236
27594SOL     OW88617   2.972   4.685  10.366  0.4489  0.1024  0.4058
27594SOL    HW188618   3.032   4.629  10.414  1.6654  0.2400 -0.8903
27594SOL    HW288619   3.024   4.761  10.341 -0.8750  1.3171  1.1612
27595SOL     OW88620   3.284   5.728   2.109  0.3613 -0.0697  0.3625
27595SOL    HW188621   3.296   5.674   2.031 -0.5915  0.8789 -0.4779
27595SOL    HW288622   3.352   5.699   2.169  1.4193 -0.5056 -0.9964
27596SOL     OW88623   0.242   5.344   0.372 -0.0036 -0.5648  0.4916
27596SOL    HW188624   0.170   5.290   0.338 -0.0805  0.4998 -1.1681
27596SOL    HW288625   0.272   5.394   0.296  0.8351  0.8570  1.7050
27597SOL     OW88626   3.900   4.047   1.234 -0.1106  0.4892  0.4223
27597SOL    HW188627   3.859   3.961   1.232  0.4763  0.0048  3.6894
27597SOL    HW288628   3.970   4.042   1.169 -0.8869 -1.0321 -0.3370
27598SOL     OW88629   5.733   1.814   4.036  0.4092  0.0187  0.4694
27598SOL    HW188630   5.791   1.751   3.994  1.6753  0.4565  1.5008
27598SOL    HW288631   5.782   1.845   4.113 -0.7378  1.2323  0.7570
27599SOL     OW88632   7.005   8.160   2.183 -0.3480  0.1678 -0.1439
27599SOL    HW188633   7.088   8.123   2.215  0.3644  0.5602 -1.4328
27599SOL    HW288634   7.016   8.255   2.194  0.0660  0.3369 -1.8110
27600SOL     OW88635   8.858   7.973   9.968  0.0369  0.1575 -0.2612
27600SOL    HW188636   8.799   7.921  10.023 -1.1359  0.5612 -1.0905
27600SOL    HW288637   8.894   7.909   9.905  1.0981 -0.2315  0.6964
27601SOL     OW88638   3.838   6.543   5.451  0.5844 -0.0414  0.0688
27601SOL    HW188639   3.925   6.534   5.413  0.5047 -1.3629  0.1270
27601SOL    HW288640   3.780   6.552   5.376  0.5589 -1.3768 -0.0945
27602SOL     OW88641   8.277   1.875   7.585 -0.0359 -0.1205 -0.7078
27602SOL    HW188642   8.340   1.921   7.640 -2.0378  1.7182  0.1920
27602SOL    HW288643   8.279   1.784   7.616  1.2250  0.1908  0.1528
27603SOL     OW88644   3.536   8.114   3.186  0.7155  0.0308  0.1291
27603SOL    HW188645   3.488   8.034   3.163  0.2616  0.4932 -0.5776
27603SOL    HW288646   3.628   8.089   3.182  0.5598 -0.6649  0.7193
27604SOL     OW88647   4.816   1.346   5.938  0.2149 -0.2521 -0.2747
27604SOL    HW188648   4.823   1.437   5.965  0.1523 -0.3458  0.0586
27604SOL    HW288649   4.730   1.318   5.970  0.8546 -0.8653  0.9553
27605SOL     OW88650   3.906   8.143   2.344  0.0302  0.4740 -0.2674
27605SOL    HW188651   3.931   8.204   2.274  2.1724 -0.9953 -0.8974
27605SOL    HW288652   3.825   8.179   2.379  0.5586  3.0070 -1.3881
27606SOL     OW88653   6.857   3.868   9.169 -0.5164  0.0730 -0.6045
27606SOL    HW188654   6.951   3.851   9.159 -0.2532  1.2673 -0.3063
27606SOL    HW288655   6.843   3.873   9.263 -0.9190 -0.2636 -0.6422
27607SOL     OW88656   7.994   4.801   1.115 -0.1807 -0.3546 -0.4925
27607SOL    HW188657   8.012   4.885   1.073 -1.2543 -0.0163 -0.3095
27607SOL    HW288658   8.068   4.746   1.092 -0.4272  0.0168 -2.3026
27608SOL     OW88659   0.400   0.199  10.674 -0.0732 -0.3482 -0.1323
27608SOL    HW188660   0.428   0.289  10.656 -1.9662 -0.0571 -1.9837
27608SOL    HW288661   0.470   0.163  10.729  0.3883  2.4620  1.3212
27609SOL     OW88662   5.754   1.458   0.076 -0.4985 -0.4301  0.0936
27609SOL    HW188663   5.747   1.510  -0.005 -0.9450  1.0242  1.0351
27609SOL    HW288664   5.686   1.492   0.133 -0.4193 -1.6846  0.9717
27610SOL     OW88665   9.975   3.012   0.360  0.3894  0.4251  0.0048
27610SOL    HW188666  10.048   3.061   0.396  1.4603 -1.4686  0.5410
27610SOL    HW288667  10.008   2.976   0.278 -0.5632  1.0453 -0.6666
27611SOL     OW88668   8.089   4.256   3.006  0.2860 -0.1721  0.0538
27611SOL    HW188669   8.177   4.219   2.998  0.0236 -1.1388  1.2718
27611SOL    HW288670   8.053   4.253   2.918  1.4054  0.0983 -0.4379
27612SOL     OW88671   8.697   3.120   8.239  0.0541  0.0866  0.0746
27612SOL    HW188672   8.627   3.067   8.278  0.4454  0.4954  1.3938
27612SOL    HW288673   8.678   3.209   8.268 -0.8569  0.8199 -2.4893
27613SOL     OW88674   4.768   2.624   6.831  0.7044  0.3662 -0.1168
27613SOL    HW188675   4.853   2.587   6.856  0.6669 -0.2652 -0.8878
27613SOL    HW288676   4.789   2.705   6.784  0.8093  1.0367  1.0444
27614SOL     OW88677   2.993   6.177   6.680  0.4696 -0.8814  0.3879
27614SOL    HW188678   2.987   6.263   6.721  0.6854 -0.7597  0.1627
27614SOL    HW288679   3.017   6.118   6.752 -0.9517 -0.9757  0.8167
27615SOL     OW88680   7.854   1.184   4.777  0.1964 -0.1330 -0.2959
27615SOL    HW188681   7.944   1.210   4.798 -0.5882  1.0117  2.0447
27615SOL    HW288682   7.853   1.175   4.682  2.2566  1.9251 -0.6024
27616SOL     OW88683   9.210  10.269   0.943 -0.5679  0.4071  0.3622
27616SOL    HW188684   9.232  10.216   1.019 -2.4218 -3.5634 -1.5831
27616SOL    HW288685   9.122  10.301   0.961 -1.5715 -1.6799 -0.5267
27617SOL     OW88686   0.528   9.868   9.203 -0.2645  0.0146  0.2166
27617SOL    HW188687   0.623   9.872   9.208 -0.0451 -2.0127 -1.0039
27617SOL    HW288688   0.497   9.891   9.290  1.3804 -0.0973  0.8523
27618SOL     OW88689   8.188   3.733   7.367 -0.4029  0.6686  0.2313
27618SOL    HW188690   8.126   3.693   7.306  0.4697  0.1984 -0.3661
27618SOL    HW288691   8.136   3.751   7.445 -0.7831 -1.9794  0.6733
27619SOL     OW88692   7.106   3.749   9.874  0.1732 -0.5719  0.1728
27619SOL    HW188693   7.081   3.665   9.914  0.9842 -0.2905  1.3328
27619SOL    HW288694   7.162   3.790   9.940 -0.8263  1.2204 -0.0357
27620SOL     OW88695   7.230  10.033   6.436 -0.1209 -0.0363  0.1827
27620SOL    HW188696   7.285  10.070   6.506 -0.8998  0.7853  0.3759
27620SOL    HW288697   7.290   9.976   6.387  1.2255  1.6932 -0.3063
27621SOL     OW88698  10.000   7.315   8.857  0.0473 -0.3595 -0.2981
27621SOL    HW188699   9.930   7.257   8.889 -0.1213  0.2000  0.3752
27621SOL    HW288700  10.077   7.288   8.907  0.1050 -0.3847 -0.4010
27622SOL     OW88701   1.819  10.245   0.208  0.1692 -0.1517  0.0521
27622SOL    HW188702   1.915  10.239   0.210  0.1336 -1.1649 -0.9134
27622SOL    HW288703   1.799  10.317   0.268  1.5365  0.1154  0.2194
27623SOL     OW88704   7.937   6.003   9.143 -0.4560  0.0498  0.1562
27623SOL    HW188705   7.988   5.935   9.099  0.4386 -0.3229  1.6624
27623SOL    HW288706   7.933   5.974   9.234 -2.6468  0.5389  0.2595
27624SOL     OW88707   7.029   2.007   7.633 -0.4316 -0.2267  0.0112
27624SOL    HW188708   7.093   2.070   7.666 -0.6862 -0.3309  0.7287
27624SOL    HW288709   7.045   2.004   7.539  0.1659  0.2532  0.0869
27625SOL     OW88710   2.740   4.249  10.040 -0.4152 -0.0757  0.3422
27625SOL    HW188711   2.781   4.263   9.954 -0.0603 -1.7088  0.2247
27625SOL    HW288712   2.813   4.246  10.101 -0.6907  1.4212  0.7780
27626SOL     OW88713   2.775   1.549   7.661  0.1831  0.4909  0.7028
27626SOL    HW188714   2.843   1.483   7.650 -0.2134  0.1873 -0.0023
27626SOL    HW288715   2.697   1.500   7.686 -0.5203  0.4784 -1.3287
27627SOL     OW88716   2.171   1.265   1.428 -0.2403 -0.1181 -0.5571
27627SOL    HW188717   2.135   1.326   1.363 -1.5261 -0.3644 -0.1171
27627SOL    HW288718   2.234   1.317   1.477 -2.7211  1.5832  1.1255
27628SOL     OW88719   8.870   8.237   4.236  0.1181 -0.0412 -0.9083
27628SOL    HW188720   8.911   8.151   4.232  1.0243  0.3972 -1.3769
27628SOL    HW288721   8.891   8.278   4.152  0.5872  1.0183 -0.3010
27629SOL     OW88722   3.544  10.414   0.019 -0.5915 -0.2036  0.2678
27629SOL    HW188723   3.528  10.338  -0.037 -1.5797 -0.0529  0.3316
27629SOL    HW288724   3.464  10.424   0.071 -0.3777  0.7196  0.4486
27630SOL     OW88725   2.260   7.338  10.691 -0.1912  0.2777  0.8289
27630SOL    HW188726   2.243   7.255  10.647 -2.1244  0.9281  0.2495
27630SOL    HW288727   2.353   7.355  10.675 -0.1885 -0.8882 -0.6076
27631SOL     OW88728   0.003   1.074   6.431  0.4526  0.4091  0.4239
27631SOL    HW188729   0.000   0.981   6.405  1.8492 -0.1005  1.9392
27631SOL    HW288730   0.063   1.114   6.368  1.6272 -0.2182  1.1145
27632SOL     OW88731   6.294   0.258   1.479  0.0985 -0.5561  0.0825
27632SOL    HW188732   6.244   0.269   1.560 -0.1584  0.6300 -0.2240
27632SOL    HW288733   6.329   0.169   1.485  0.2248 -0.4371  1.5805
27633SOL     OW88734   5.787   2.060   6.697 -0.0941  0.8853  0.5256
27633SOL    HW188735   5.800   1.984   6.641 -2.5832 -0.9022  2.1777
27633SOL    HW288736   5.876   2.091   6.717  0.9206 -0.2258 -1.8772
27634SOL     OW88737   7.200   1.156   6.032 -0.1072  0.2094 -0.1043
27634SOL    HW188738   7.232   1.233   5.984 -0.3120 -0.2391 -0.9973
27634SOL    HW288739   7.111   1.144   6.000 -0.8299  0.8106  1.5664
27635SOL     OW88740   3.858   0.307   3.674  0.5894  0.1073  0.3566
27635SOL    HW188741   3.865   0.387   3.622 -0.3719 -0.0702 -0.0869
27635SOL    HW288742   3.928   0.251   3.641  0.0875  0.0556 -0.6807
27636SOL     OW88743   4.932   2.682   2.656  0.1008 -0.1277 -0.0109
27636SOL    HW188744   5.004   2.679   2.719 -1.1151 -2.5644  1.4533
27636SOL    HW288745   4.969   2.645   2.575  1.9487  3.9116 -1.2613
27637SOL     OW88746   2.052   5.279   2.983 -0.0081 -0.6733 -0.0422
27637SOL    HW188747   2.117   5.209   2.986  0.5317 -0.1540  1.0118
27637SOL    HW288748   2.026   5.283   2.891  0.8610 -1.4286 -0.3456
27638SOL     OW88749   8.743   5.720   2.256 -0.1050  0.3653 -0.4849
27638SOL    HW188750   8.676   5.656   2.281  0.3860 -0.6303 -1.5794
27638SOL    HW288751   8.698   5.780   2.197 -0.3754  0.5487 -0.0926
27639SOL     OW88752   5.129   6.159   5.184  0.0814 -0.1329  0.4232
27639SOL    HW188753   5.186   6.169   5.260  0.1685  1.2526  0.1923
27639SOL    HW288754   5.041   6.148   5.221  0.0236  1.2320  0.7350
27640SOL     OW88755   3.144   9.830   6.446 -0.7537 -0.6640  0.2535
27640SOL    HW188756   3.216   9.881   6.408 -0.1812 -1.4239  0.3014
27640SOL    HW288757   3.065   9.874   6.415 -0.2788  0.2683  0.3141
27641SOL     OW88758   2.727   5.549   2.820  0.1265 -0.0135 -0.8571
27641SOL    HW188759   2.763   5.467   2.855  0.3871 -0.4596 -2.0812
27641SOL    HW288760   2.642   5.557   2.862  0.0484 -0.9825 -0.7920
27642SOL     OW88761   3.943   7.091   7.623  0.7576 -0.0105 -0.0350
27642SOL    HW188762   3.958   7.074   7.716  0.9093  0.7113  0.0768
27642SOL    HW288763   4.022   7.058   7.580  0.4019 -0.9605  0.0118
27643SOL     OW88764   7.843   4.789   2.226 -0.1331 -0.0589 -0.3104
27643SOL    HW188765   7.773   4.728   2.203  0.1997 -0.6009  0.0899
27643SOL    HW288766   7.921   4.751   2.186  0.2896 -0.5317  0.9156
27644SOL     OW88767   9.668   9.626   7.410 -0.4183 -0.3877  0.6898
27644SOL    HW188768   9.603   9.582   7.355  0.0463  0.9769 -1.0330
27644SOL    HW288769   9.752   9.596   7.377 -0.0576  2.1780 -1.0074
27645SOL     OW88770   7.416   3.527   0.565  0.2858  0.1328  0.1710
27645SOL    HW188771   7.413   3.611   0.612  0.4777  1.2440 -1.6876
27645SOL    HW288772   7.328   3.518   0.528  0.5329 -0.0270 -0.3875
27646SOL     OW88773   4.411  10.157   1.615  0.3113 -0.1514 -0.3658
27646SOL    HW188774   4.457  10.075   1.598 -1.9724 -1.1803 -2.0794
27646SOL    HW288775   4.458  10.223   1.564 -0.4036 -1.2922 -2.6088
27647SOL     OW88776  10.312   4.878   4.796  0.1368 -0.3828  0.4176
27647SOL    HW188777  10.326   4.843   4.708  3.2563  1.4065  0.0859
27647SOL    HW288778  10.325   4.802   4.854 -0.4942 -1.2664 -0.5607
27648SOL     OW88779   3.703  10.281  10.243  0.4259  0.3851  0.3312
27648SOL    HW188780   3.612  10.310  10.248  0.3880  0.5908 -1.0608
27648SOL    HW288781   3.751  10.359  10.216  1.0395  0.2994  1.1493
27649SOL     OW88782   5.245   7.547   2.191  0.5145 -0.4253  0.2667
27649SOL    HW188783   5.264   7.480   2.125 -0.5885  0.1838 -0.6834
27649SOL    HW288784   5.210   7.621   2.142  1.5048  0.7996  1.3279
27650SOL     OW88785   5.440   1.123   0.012  0.3019 -0.5586  0.3120
27650SOL    HW188786   5.501   1.114   0.085  1.1184 -1.6560 -0.4757
27650SOL    HW288787   5.391   1.203   0.031  1.5261 -0.0138  1.3040
27651SOL     OW88788   4.361   0.214   8.854  0.2529 -0.2249  0.3886
27651SOL    HW188789   4.450   0.183   8.871  0.1674 -1.3086 -0.9642
27651SOL    HW288790   4.306   0.165   8.914  0.6431  1.3416  2.1156
27652SOL     OW88791   9.162   1.775   5.607  0.1473  0.4876  0.6601
27652SOL    HW188792   9.135   1.789   5.698  0.7677  1.2138  0.7379
27652SOL    HW288793   9.092   1.815   5.555 -0.0929  0.2740  0.8120
27653SOL     OW88794   8.306   8.297   3.815 -0.0073  0.1524 -0.0044
27653SOL    HW188795   8.375   8.260   3.760  0.5051  2.2211 -0.8558
27653SOL    HW288796   8.352   8.362   3.869 -0.1231 -2.8522  4.2521
27654SOL     OW88797   1.495   0.386  10.656 -0.1323 -0.0745  0.2019
27654SOL    HW188798   1.444   0.308  10.634 -0.4249  0.2713 -0.3578
27654SOL    HW288799   1.464   0.412  10.743  0.5468 -1.0530  0.7563
27655SOL     OW88800   7.647   1.333  10.267 -0.1230  0.2255  0.1761
27655SOL    HW188801   7.626   1.396  10.197  1.1416  1.1835  0.6068
27655SOL    HW288802   7.663   1.388  10.344  1.1899 -0.6075  0.5231
27656SOL     OW88803   1.022   3.661   1.560 -0.0701 -0.0698  0.3175
27656SOL    HW188804   1.019   3.713   1.480 -0.4142  0.1274  0.4551
27656SOL    HW288805   0.959   3.590   1.544 -0.2097  0.0241  0.4501
27657SOL     OW88806   9.125   1.313   2.764 -0.8670  0.0908 -0.0983
27657SOL    HW188807   9.117   1.387   2.824 -1.4790  0.8847 -1.1233
27657SOL    HW288808   9.188   1.254   2.807 -2.2903 -0.0486  1.9576
27658SOL     OW88809   7.128  10.495   4.463 -0.0936  0.3975  0.3610
27658SOL    HW188810   7.207  10.483   4.515 -0.2710  2.3281  1.1716
27658SOL    HW288811   7.159  10.530   4.380  0.1269 -1.9953 -0.6430
27659SOL     OW88812   3.550   1.265   8.651  0.1206  0.0416  0.7356
27659SOL    HW188813   3.456   1.279   8.656  0.0143 -0.7240  1.0571
27659SOL    HW288814   3.587   1.327   8.713 -0.0480  1.3514 -0.4262
27660SOL     OW88815   3.691   9.000   7.734  0.3929 -0.5319 -0.2193
27660SOL    HW188816   3.660   8.960   7.652  1.0597  0.3192 -0.8986
27660SOL    HW288817   3.662   9.091   7.729  1.1003 -0.2832  0.1410
27661SOL     OW88818   1.415   3.918   5.175  0.1969  0.0646  0.4231
27661SOL    HW188819   1.338   3.877   5.135 -0.5888  1.3859  0.4979
27661SOL    HW288820   1.413   3.888   5.266  1.3219 -2.0117 -0.1791
27662SOL     OW88821   4.210   6.712  10.322 -0.1486 -0.5071 -0.1659
27662SOL    HW188822   4.298   6.716  10.285  0.6478 -0.8607  1.5986
27662SOL    HW288823   4.200   6.796  10.367 -0.0716 -1.0888  0.9703
27663SOL     OW88824   1.822  10.413   0.411 -0.4691 -0.6297 -0.5218
27663SOL    HW188825   1.872  10.475   0.358  0.7486  1.3739  2.6692
27663SOL    HW288826   1.770  10.467   0.469 -1.7205 -2.6722  0.3704
27664SOL     OW88827   6.291   7.973   0.611  0.6913 -0.1104 -0.7792
27664SOL    HW188828   6.274   8.044   0.673 -0.5823 -1.9606  1.1273
27664SOL    HW288829   6.206   7.934   0.596  1.6812 -3.1545  0.7379
27665SOL     OW88830   7.361   4.084   7.783 -0.0748 -0.1592  0.1588
27665SOL    HW188831   7.395   4.058   7.698 -1.8699 -0.0410 -0.6562
27665SOL    HW288832   7.270   4.054   7.783 -0.4564  0.8574  1.5761
27666SOL     OW88833   3.640   3.731   6.907  0.5215 -0.3969 -0.3322
27666SOL    HW188834   3.672   3.821   6.908  0.4789 -0.3678 -0.9693
27666SOL    HW288835   3.638   3.707   6.814 -1.6013 -0.2947 -0.3530
27667SOL     OW88836   7.232   5.431   7.534  0.7169  0.0555 -0.2625
27667SOL    HW188837   7.249   5.463   7.445  0.8649  2.1564  0.4656
27667SOL    HW288838   7.294   5.480   7.589  0.3505 -0.9117  1.0550
27668SOL     OW88839   7.759   7.721   1.064  0.4792  0.3565 -0.3241
27668SOL    HW188840   7.835   7.733   1.008  0.3861  3.3652  0.0612
27668SOL    HW288841   7.795   7.688   1.147  1.6112  2.8816  0.2673
27669SOL     OW88842   7.558   8.866   6.354  0.9735  0.3329  0.0174
27669SOL    HW188843   7.616   8.794   6.330  1.3597  1.0355 -1.1962
27669SOL    HW288844   7.589   8.893   6.440  1.5102 -0.2454  0.0165
27670SOL     OW88845   5.068   6.456   0.964 -0.1580  0.2056  0.4945
27670SOL    HW188846   5.076   6.551   0.978 -1.2657  0.7710 -2.2239
27670SOL    HW288847   5.107   6.418   1.043 -0.6285  2.8983  2.1840
27671SOL     OW88848   2.181   7.005   0.706  0.1892 -0.4011 -0.3111
27671SOL    HW188849   2.103   6.951   0.704 -1.0560  1.2788  0.4915
27671SOL    HW288850   2.192   7.029   0.798  0.3377  1.1556 -0.6948
27672SOL     OW88851   2.296   2.989   8.657  0.4418 -0.5153 -0.1390
27672SOL    HW188852   2.382   2.975   8.697 -0.2469 -0.6932  1.3841
27672SOL    HW288853   2.264   2.901   8.638  0.2654 -0.4987  0.0703
27673SOL     OW88854   0.172  10.107   1.646  0.2003 -0.6375  0.9093
27673SOL    HW188855   0.242  10.155   1.603 -0.7916  0.8167  0.8456
27673SOL    HW288856   0.196  10.015   1.636  1.8452 -0.1905  0.4894
27674SOL     OW88857   7.482   4.104   9.853  0.1724 -0.3304  0.3394
27674SOL    HW188858   7.427   4.111   9.931  0.1957  0.5606  0.2838
27674SOL    HW288859   7.515   4.192   9.839  2.2256 -0.9705  0.8167
27675SOL     OW88860   7.014   3.816   3.240 -0.1627  0.4468  0.2848
27675SOL    HW188861   7.071   3.767   3.181  0.8892  1.1237  0.7060
27675SOL    HW288862   7.056   3.808   3.326 -0.1387  1.7980  0.4211
27676SOL     OW88863   6.902   0.483   9.059  0.0056 -0.5111  0.0429
27676SOL    HW188864   6.827   0.435   9.095 -0.0178  0.3393  1.1957
27676SOL    HW288865   6.866   0.566   9.031  0.6615  0.3535  1.6262
27677SOL     OW88866   3.450   0.880   6.593  0.1297 -0.2651 -0.5795
27677SOL    HW188867   3.419   0.911   6.508 -2.5078  0.1059  0.4381
27677SOL    HW288868   3.438   0.786   6.590  1.8445 -0.5129 -1.2327
27678SOL     OW88869   3.918   0.302   4.208 -0.5041  0.4863  0.4197
27678SOL    HW188870   3.988   0.244   4.240 -1.8938 -0.2045  2.4198
27678SOL    HW288871   3.931   0.306   4.113  1.6450 -0.3888  0.6232
27679SOL     OW88872   3.540   6.181   5.581  0.1784 -0.1979  0.2026
27679SOL    HW188873   3.598   6.257   5.588  0.3882 -0.1899 -1.2851
27679SOL    HW288874   3.469   6.199   5.643  0.3126  1.1334  0.0036
27680SOL     OW88875   0.547  10.092   1.086 -0.0320 -0.3671 -0.4399
27680SOL    HW188876   0.623  10.117   1.139  0.0012 -0.6228 -0.3652
27680SOL    HW288877   0.505  10.175   1.063  0.5769 -0.1927 -0.9361
27681SOL     OW88878   2.790   4.549   8.401 -0.3024 -0.7803 -0.5033
27681SOL    HW188879   2.882   4.570   8.383 -0.3965 -0.6692 -0.8687
27681SOL    HW288880   2.793   4.477   8.464  0.0431 -1.0890 -0.8658
27682SOL     OW88881   0.744   5.498   0.939  0.0908  0.0871  0.1916
27682SOL    HW188882   0.674   5.457   0.889 -1.0855  1.7122  0.4161
27682SOL    HW288883   0.699   5.545   1.009  1.4816  0.4247  0.8879
27683SOL     OW88884   4.973   6.579   5.087  0.0341 -0.2832 -0.3482
27683SOL    HW188885   5.065   6.553   5.092  0.0226 -0.3632 -0.5694
27683SOL    HW288886   4.949   6.566   4.996 -1.1054 -3.3379  0.2809
27684SOL     OW88887   4.502   7.577   9.185 -0.1240 -0.5106 -0.5067
27684SOL    HW188888   4.489   7.615   9.272  1.0273  0.9730 -0.9345
27684SOL    HW288889   4.430   7.515   9.174 -0.1820 -0.8784  1.5730
27685SOL     OW88890   9.928   3.018  10.057 -0.8576 -0.2867 -0.2661
27685SOL    HW188891   9.975   2.950  10.011  2.5201  1.2371  0.6365
27685SOL    HW288892   9.884   3.068   9.988 -2.0938 -2.3123 -1.0488
27686SOL     OW88893   4.516   7.191   8.699 -0.2228 -0.1899 -0.2863
27686SOL    HW188894   4.546   7.268   8.650  0.6675  0.4286  1.1545
27686SOL    HW288895   4.539   7.210   8.790  1.5313 -2.8565 -0.0532
27687SOL     OW88896   8.693   0.599   0.538  0.3989 -0.1529  0.3722
27687SOL    HW188897   8.641   0.529   0.578  0.3417 -1.1383 -1.3214
27687SOL    HW288898   8.773   0.602   0.590  0.7858 -2.1176 -0.0145
27688SOL     OW88899   7.525   4.505   6.708  0.4893 -0.2240  0.0090
27688SOL    HW188900   7.580   4.581   6.693  1.3902 -0.9995 -0.6908
27688SOL    HW288901   7.502   4.474   6.621 -3.0136  1.4005  0.1787
27689SOL     OW88902   1.588   7.637   8.482 -0.5779 -0.2373 -0.2136
27689SOL    HW188903   1.605   7.633   8.388  3.3100  0.3631  0.2690
27689SOL    HW288904   1.555   7.726   8.497 -2.4858 -0.7531 -1.0788
27690SOL     OW88905   2.459   4.552   4.366  0.0207 -0.5412 -0.3966
27690SOL    HW188906   2.553   4.566   4.371 -0.1113 -0.1256  2.1011
27690SOL    HW288907   2.422   4.640   4.353 -0.1492 -0.1568  2.2547
27691SOL     OW88908   6.143   2.532   5.007  0.3549  0.2713  0.3178
27691SOL    HW188909   6.097   2.546   4.924 -0.5948  0.3821  0.8437
27691SOL    HW288910   6.184   2.616   5.026 -2.3779  1.4057  1.6982
27692SOL     OW88911   9.862  10.619   6.539 -0.2510  0.2389  0.8069
27692SOL    HW188912   9.830  10.646   6.625 -0.0522  1.0536  0.6335
27692SOL    HW288913   9.871  10.524   6.545  2.3216  0.4955  2.5864
27693SOL     OW88914   5.841   2.557   6.982  0.3086 -0.2929  0.0731
27693SOL    HW188915   5.780   2.485   6.967 -1.2375  1.3313 -2.0658
27693SOL    HW288916   5.802   2.607   7.054  0.2880 -0.4467  0.1701
27694SOL     OW88917   4.270   4.780   7.240  0.2865  0.3997  0.2904
27694SOL    HW188918   4.188   4.804   7.282 -0.4962 -0.0279 -0.9296
27694SOL    HW288919   4.264   4.685   7.229  0.3512  0.5179 -0.9587
27695SOL     OW88920   5.612   6.116   5.826 -0.8011 -0.0452 -0.3435
27695SOL    HW188921   5.624   6.022   5.808  0.3981 -0.1796  0.9008
27695SOL    HW288922   5.655   6.160   5.753 -1.2207 -0.4736 -0.8533
27696SOL     OW88923   5.815   9.810   7.310  0.1025 -0.0225  0.2312
27696SOL    HW188924   5.857   9.888   7.348 -0.9759  0.8984 -0.3808
27696SOL    HW288925   5.880   9.775   7.249 -0.3311  1.9829 -1.4971
27697SOL     OW88926   2.628   9.245   1.488 -0.0642  0.3962  0.3932
27697SOL    HW188927   2.587   9.227   1.404  1.4377  0.2767 -0.3464
27697SOL    HW288928   2.603   9.170   1.543 -0.5665  0.1824 -0.1145
27698SOL     OW88929   0.473   8.778   9.147 -0.2871 -0.3181 -1.2391
27698SOL    HW188930   0.505   8.798   9.059 -0.0398 -1.9332 -1.5448
27698SOL    HW288931   0.552   8.759   9.197 -0.3758  1.1631 -0.4738
27699SOL     OW88932   1.791   7.485   3.732 -0.5950 -0.5234 -0.3825
27699SOL    HW188933   1.759   7.474   3.821  1.2142 -0.8531  0.2731
27699SOL    HW288934   1.849   7.410   3.718  1.2287  0.8966 -0.8521
27700SOL     OW88935   0.055   3.368   1.853  0.1483  0.2189 -0.0598
27700SOL    HW188936   0.062   3.277   1.826  1.4080  0.5207 -0.8432
27700SOL    HW288937   0.020   3.413   1.777  1.3211  0.6736 -0.3546
27701SOL     OW88938   9.376   5.590   0.696  0.2339 -0.2419  0.0380
27701SOL    HW188939   9.296   5.568   0.744  0.3504 -0.7924 -0.0077
27701SOL    HW288940   9.381   5.523   0.627  0.1062  0.4994 -0.6997
27702SOL     OW88941   9.680   2.710   9.760  0.1220  0.3429  0.0064
27702SOL    HW188942   9.721   2.742   9.680  0.0204 -0.3169 -0.3169
27702SOL    HW288943   9.586   2.709   9.740  0.1853 -0.9531 -0.2918
27703SOL     OW88944   3.858   6.086   6.479  0.0986  0.1702 -0.4888
27703SOL    HW188945   3.782   6.030   6.494 -0.1009  0.6611  0.3626
27703SOL    HW288946   3.923   6.028   6.439 -0.3023 -0.5293 -0.1370
27704SOL     OW88947   8.048   4.311   4.014  0.2312 -0.2560  0.2125
27704SOL    HW188948   8.106   4.380   4.047  0.0711  0.4073 -0.8415
27704SOL    HW288949   7.967   4.357   3.992  0.8879 -0.2768 -2.6967
27705SOL     OW88950   4.768   6.149   3.667 -0.2783 -0.1759 -0.2871
27705SOL    HW188951   4.756   6.178   3.577  1.5707  0.2164 -0.4312
27705SOL    HW288952   4.840   6.087   3.664  0.3709  0.4653  1.0298
27706SOL     OW88953   3.159   2.152   4.675  0.4618 -0.4455  0.6127
27706SOL    HW188954   3.138   2.220   4.740  1.3039  0.3594  0.0576
27706SOL    HW288955   3.158   2.198   4.591  0.2692 -1.2945  0.1423
27707SOL     OW88956   2.162   9.901   1.968 -0.1528  0.3846 -0.1965
27707SOL    HW188957   2.240   9.864   2.009  0.0613  0.2319 -0.7276
27707SOL    HW288958   2.100   9.913   2.039  0.1682  0.0117  0.1487
27708SOL     OW88959   7.854   1.518   8.252  0.1632  0.0005 -0.4513
27708SOL    HW188960   7.874   1.580   8.182  0.5713 -0.7068 -0.9730
27708SOL    HW288961   7.812   1.444   8.208 -0.3561 -0.0936  0.1687
27709SOL     OW88962  10.450  10.165   9.450 -0.1575  0.1966  0.4459
27709SOL    HW188963  10.441  10.258   9.469 -2.5463  0.7499 -2.5605
27709SOL    HW288964  10.517  10.161   9.381  0.6325 -0.4513  1.2344
27710SOL     OW88965   0.417   0.904   0.020  0.0543 -0.3045 -0.1788
27710SOL    HW188966   0.472   0.826   0.010 -0.9170 -1.0928  0.4103
27710SOL    HW288967   0.396   0.906   0.114 -1.9333 -0.7561 -0.5770
27711SOL     OW88968   6.470   4.012   8.919 -0.0118 -0.2550  0.2616
27711SOL    HW188969   6.427   4.096   8.899  0.1769  0.1326  1.4062
27711SOL    HW288970   6.546   4.036   8.971  0.7259 -1.0651 -0.4263
27712SOL     OW88971   7.013   4.267   1.740  0.1463  0.3305 -0.9044
27712SOL    HW188972   7.084   4.234   1.685 -1.0433 -1.4765 -1.4491
27712SOL    HW288973   6.934   4.229   1.702 -1.0743  1.9064 -0.0244
27713SOL     OW88974   4.296  10.633   9.510  0.0267 -0.3530  0.0860
27713SOL    HW188975   4.328  10.722   9.492 -0.8562  0.4809  2.2309
27713SOL    HW288976   4.375  10.582   9.528  0.4415  0.7198  1.5355
27714SOL     OW88977   9.696   7.220   5.729  0.3431  0.2559 -0.3117
27714SOL    HW188978   9.765   7.271   5.688  0.5207 -0.2518 -0.6534
27714SOL    HW288979   9.742   7.148   5.772  0.1940  0.9347  1.0558
27715SOL     OW88980  10.521  10.495   3.833 -0.1426  0.1041  0.5415
27715SOL    HW188981  10.550  10.546   3.910  0.7526 -1.8696  1.5864
27715SOL    HW288982  10.435  10.462   3.857  0.4361 -1.1081  1.0521
27716SOL     OW88983   4.388   4.866   6.176  0.2050  0.2848  0.1051
27716SOL    HW188984   4.383   4.954   6.212  1.5040  1.2075 -1.8106
27716SOL    HW288985   4.338   4.869   6.095 -0.7727 -1.1179  0.6055
27717SOL     OW88986   9.572   2.645   4.222 -0.5374 -0.1308 -0.0681
27717SOL    HW188987   9.522   2.610   4.296  1.0255  0.6721  1.4381
27717SOL    HW288988   9.649   2.590   4.216 -1.8524 -1.9294 -2.9549
27718SOL     OW88989   2.395   6.815   9.729  0.0974 -0.4129 -0.1508
27718SOL    HW188990   2.328   6.755   9.763 -0.7422  0.1440 -0.7828
27718SOL    HW288991   2.422   6.777   9.646 -0.2118 -0.0889 -0.4044
27719SOL     OW88992   0.491  10.303   8.380 -0.2144  0.3251  0.5410
27719SOL    HW188993   0.496  10.269   8.291  0.4478  0.3998  0.5411
27719SOL    HW288994   0.404  10.341   8.387 -0.5551 -0.3666  0.1804
27720SOL     OW88995   2.389   7.115   8.464 -0.6160  0.0472 -0.1269
27720SOL    HW188996   2.468   7.068   8.439  0.9842  1.4888  1.8375
27720SOL    HW288997   2.412   7.208   8.453 -1.4958  0.5468  1.8138
27721SOL     OW88998   6.034   1.168   5.011  0.0500 -0.5588 -0.3821
27721SOL    HW188999   5.999   1.084   5.039 -0.7208 -0.4258 -0.9207
27721SOL    HW289000   5.960   1.212   4.969  0.3266  0.5495  0.2419
27722SOL     OW89001   6.617   0.514   6.977 -0.2937  0.2662  0.3087
27722SOL    HW189002   6.687   0.450   6.960 -0.2725  0.3765 -0.0236
27722SOL    HW289003   6.602   0.508   7.071 -0.9995 -0.9712  0.1375
27723SOL     OW89004   7.237   3.790   1.681 -0.9846  0.0439  0.2253
27723SOL    HW189005   7.292   3.718   1.712  0.1942  1.4721  1.6005
27723SOL    HW289006   7.243   3.784   1.585  0.3149 -0.7641  0.3250
27724SOL     OW89007   7.435   6.176   5.783  0.1047  0.0374 -0.5760
27724SOL    HW189008   7.468   6.087   5.791  2.4212  0.7921 -1.0693
27724SOL    HW289009   7.462   6.204   5.695 -1.4807  0.9071 -0.8346
27725SOL     OW89010   9.610   3.874   6.741  0.4731  0.1777 -0.2897
27725SOL    HW189011   9.665   3.888   6.665  1.9577  0.7164  0.8359
27725SOL    HW289012   9.663   3.902   6.815 -0.7237 -0.8129  1.0104
27726SOL     OW89013   0.112  10.514   9.456  0.2723 -0.1464  0.0323
27726SOL    HW189014   0.033  10.548   9.497 -0.5125 -0.3438 -1.2541
27726SOL    HW289015   0.131  10.433   9.503  0.1258  0.2720  0.8193
27727SOL     OW89016   4.185   3.286   5.610  0.0121 -0.2607 -0.6433
27727SOL    HW189017   4.213   3.230   5.683 -0.1983  0.2546 -0.1605
27727SOL    HW289018   4.143   3.226   5.549  0.0874 -0.6835 -0.2882
27728SOL     OW89019   9.439   8.300   8.160 -0.4109  0.4788  0.1444
27728SOL    HW189020   9.422   8.207   8.148 -0.5575  0.1236  2.5412
27728SOL    HW289021   9.514   8.304   8.219 -0.5822  1.8711  0.3138
27729SOL     OW89022   6.399   2.311   5.287 -0.1278  0.4844 -0.4905
27729SOL    HW189023   6.437   2.396   5.309  2.2085 -0.6178  0.0408
27729SOL    HW289024   6.464   2.247   5.316 -1.6999 -1.4974 -1.0869
27730SOL     OW89025   8.003   5.314   9.059  0.4799  0.0588  0.0324
27730SOL    HW189026   8.017   5.293   8.967  0.4798 -2.2925  0.5219
27730SOL    HW289027   7.970   5.233   9.098  1.5716  0.6341  2.3445
27731SOL     OW89028  10.346   1.588   7.100 -0.2729  0.1676  0.6620
27731SOL    HW189029  10.272   1.620   7.151 -0.8241 -0.7245  0.4492
27731SOL    HW289030  10.388   1.667   7.067 -0.1971  0.7346  2.0732
27732SOL     OW89031   9.706   5.526   0.202 -0.3624 -0.5317 -0.2373
27732SOL    HW189032   9.630   5.552   0.254  0.6985  1.6846  0.3676
27732SOL    HW289033   9.692   5.569   0.117  0.1347 -0.2142 -0.1629
27733SOL     OW89034   3.481   4.750   2.256 -0.3976 -0.3765  0.0298
27733SOL    HW189035   3.542   4.805   2.207 -0.5591  1.4866  1.8113
27733SOL    HW289036   3.400   4.751   2.205 -0.5905  1.5708  0.3301
27734SOL     OW89037  10.449   9.391   5.871  0.2740 -0.5047 -0.3728
27734SOL    HW189038  10.437   9.312   5.924 -0.4609  0.0177  0.2441
27734SOL    HW289039  10.540   9.385   5.842  1.3452  0.1186  2.5123
27735SOL     OW89040   5.027   7.884   1.906 -0.0314 -0.7669 -0.0881
27735SOL    HW189041   5.074   7.871   1.824  0.5451 -0.9887  0.2775
27735SOL    HW289042   5.093   7.875   1.974 -0.0477  1.6361  0.3277
27736SOL     OW89043   4.550   0.322   7.465 -0.1272 -0.3680 -0.2743
27736SOL    HW189044   4.482   0.265   7.499 -3.5849  3.2242 -0.4439
27736SOL    HW289045   4.533   0.326   7.370 -0.1709  1.0204 -0.2373
27737SOL     OW89046   6.249   1.443   5.348 -0.0418  0.3962 -0.4065
27737SOL    HW189047   6.204   1.400   5.421  0.4836  1.0233  0.3062
27737SOL    HW289048   6.233   1.385   5.273  1.1172 -1.3717  0.6282
27738SOL     OW89049   8.280   1.471   3.290 -0.4768  0.2961 -0.0037
27738SOL    HW189050   8.339   1.401   3.318  1.3084  2.3558  1.7582
27738SOL    HW289051   8.194   1.430   3.285  0.2045 -1.7016  2.5573
27739SOL     OW89052   8.697   4.862   3.681  1.1532 -0.0201 -0.3755
27739SOL    HW189053   8.647   4.786   3.648 -1.0027  1.1199  0.0627
27739SOL    HW289054   8.786   4.829   3.693  0.6319 -2.0720 -1.6170
27740SOL     OW89055   2.392   9.177   5.166 -0.1477  0.0384  0.1759
27740SOL    HW189056   2.374   9.146   5.077 -0.9703  0.9448  0.0152
27740SOL    HW289057   2.373   9.101   5.221 -0.0389 -0.4074 -0.3828
27741SOL     OW89058   3.643   9.052   2.898 -0.1726  0.3203 -0.4649
27741SOL    HW189059   3.646   9.032   2.991 -0.6974 -0.3174 -0.5832
27741SOL    HW289060   3.558   9.095   2.885 -1.2750 -1.8904 -1.0796
27742SOL     OW89061   4.065  10.308   9.409 -0.2811 -0.4047  0.2964
27742SOL    HW189062   4.048  10.287   9.501 -0.4431 -0.2145  0.3110
27742SOL    HW289063   4.052  10.403   9.403 -0.7751 -0.4933 -0.0390
27743SOL     OW89064   8.895   7.500   3.728  0.7619  0.2242  0.0339
27743SOL    HW189065   8.950   7.525   3.802  1.6952 -0.9034 -0.2436
27743SOL    HW289066   8.953   7.448   3.672 -0.2204  0.1719 -0.9621
27744SOL     OW89067   3.743   8.284   5.454  0.5057  0.3022  0.1730
27744SOL    HW189068   3.824   8.321   5.489  0.3646  0.7045  0.0856
27744SOL    HW289069   3.735   8.323   5.367 -0.9183  2.0465  1.0158
27745SOL     OW89070   0.747   1.417   5.346 -0.0657  0.7606  0.5096
27745SOL    HW189071   0.767   1.470   5.268 -0.8761 -0.0369 -0.2701
27745SOL    HW289072   0.829   1.414   5.395  0.7752  0.4038 -0.8488
27746SOL     OW89073   9.315   2.806   9.421 -0.0594 -0.4393  0.2376
27746SOL    HW189074   9.352   2.867   9.484 -0.5267  2.1861 -1.8551
27746SOL    HW289075   9.241   2.853   9.382  0.0308 -2.0265 -2.0665
27747SOL     OW89076   4.602   6.255   1.696 -0.0102 -0.3219 -0.3656
27747SOL    HW189077   4.657   6.326   1.663 -0.1176  0.9244  1.9052
27747SOL    HW289078   4.519   6.298   1.717 -0.2334 -1.1947  0.6186
27748SOL     OW89079   6.410   8.957   8.473  0.6457 -0.0363  0.3662
27748SOL    HW189080   6.502   8.947   8.499  0.3771 -1.6432  0.7933
27748SOL    HW289081   6.414   8.996   8.386  1.6881  1.1659  0.9281
27749SOL     OW89082   7.703   7.163   3.212  0.7232  0.0003 -0.4716
27749SOL    HW189083   7.649   7.108   3.156  1.1734 -1.0878  0.1433
27749SOL    HW289084   7.685   7.132   3.301  2.2158 -0.2789 -0.2395
27750SOL     OW89085   9.487   9.046   4.847  0.6620  0.0552 -0.9419
27750SOL    HW189086   9.561   9.092   4.808  2.1385 -1.1674  0.2787
27750SOL    HW289087   9.516   8.955   4.854 -1.6477 -0.8549 -2.0369
27751SOL     OW89088   1.407   4.687  10.456  0.3103  0.2631  0.1553
27751SOL    HW189089   1.476   4.621  10.463  1.1115  1.0616  0.0194
27751SOL    HW289090   1.371   4.695  10.544 -0.0562 -0.6184  0.0933
27752SOL     OW89091   9.966   8.153  10.571 -0.4393  0.3820  0.0645
27752SOL    HW189092   9.941   8.110  10.653  0.3463 -1.1377 -0.4498
27752SOL    HW289093   9.954   8.246  10.588 -1.0497  0.0485  1.6398
27753SOL     OW89094   5.265  10.493   9.216  0.4966 -0.6333 -0.4121
27753SOL    HW189095   5.357  10.512   9.234  0.5305 -0.0755 -1.1300
27753SOL    HW289096   5.266  10.441   9.135  0.1050  0.7230 -1.3189
27754SOL     OW89097   4.969   1.792   4.538 -0.0834  0.5411  0.2771
27754SOL    HW189098   5.033   1.779   4.608 -0.6031 -1.6677  0.4283
27754SOL    HW289099   5.021   1.811   4.460  0.9517 -2.4882  0.0972
27755SOL     OW89100   5.419   6.963   8.992 -0.1393  0.4145 -0.2429
27755SOL    HW189101   5.392   6.871   8.991  2.1654 -0.3354  0.6912
27755SOL    HW289102   5.427   6.986   8.899 -0.5672 -0.3814 -0.4870
27756SOL     OW89103   7.248   3.621   0.885 -0.6077  0.0784  0.1385
27756SOL    HW189104   7.255   3.714   0.863 -0.9656 -0.1305 -0.9136
27756SOL    HW289105   7.154   3.603   0.883 -0.6000 -0.1363  1.1234
27757SOL     OW89106   8.853   1.611   9.301 -0.0687 -0.1855  0.5347
27757SOL    HW189107   8.806   1.572   9.374  1.9215 -1.2608  1.2952
27757SOL    HW289108   8.869   1.539   9.241 -1.5459  0.6545 -0.9693
27758SOL     OW89109   2.466   3.350   2.189  0.1284 -0.7031 -0.1852
27758SOL    HW189110   2.435   3.279   2.245 -2.4618  1.1830  0.9956
27758SOL    HW289111   2.525   3.400   2.245 -2.5490  1.2480  1.1442
27759SOL     OW89112   9.104   3.447  10.117 -0.1059 -0.3435 -0.7769
27759SOL    HW189113   9.109   3.541  10.132  0.6967 -0.5011  0.0395
27759SOL    HW289114   9.012   3.430  10.098 -0.4147  0.4762 -0.0627
27760SOL     OW89115   1.809   7.648   8.250  0.2006  0.3649  0.1126
27760SOL    HW189116   1.849   7.643   8.164 -1.3548 -0.3496 -0.6190
27760SOL    HW289117   1.734   7.707   8.238 -0.2069  0.0259  0.8831
27761SOL     OW89118   7.016   3.651   2.123  0.5045 -0.0628 -0.6453
27761SOL    HW189119   7.073   3.698   2.184 -0.1727  1.1478 -0.9150
27761SOL    HW289120   7.019   3.704   2.042  0.0689 -0.7272 -1.1034
27762SOL     OW89121   1.046   1.699   1.367  0.0693  0.4049  0.4616
27762SOL    HW189122   1.033   1.744   1.451  1.1542 -0.8684  1.3526
27762SOL    HW289123   0.997   1.752   1.304  0.5226  2.3024  1.6140
27763SOL     OW89124   1.296   7.322   4.168 -0.1755  0.5288  0.2156
27763SOL    HW189125   1.343   7.310   4.086  0.5877 -0.3093  0.7610
27763SOL    HW289126   1.347   7.274   4.233  0.6544  3.2079  1.7096
27764SOL     OW89127   6.322   5.150   3.471 -0.9040  0.0192  0.0728
27764SOL    HW189128   6.228   5.136   3.457 -1.5575  2.6561  1.1145
27764SOL    HW289129   6.328   5.243   3.493  1.8342 -0.3586  1.2361
27765SOL     OW89130  10.067   1.655   6.524 -0.0612 -0.0300  0.0085
27765SOL    HW189131  10.005   1.598   6.478  0.9192 -0.2079 -1.1469
27765SOL    HW289132  10.074   1.732   6.469 -0.9708  1.0302  1.3022
27766SOL     OW89133   4.804   2.746   3.458 -0.2562 -0.1848 -0.0003
27766SOL    HW189134   4.807   2.726   3.552 -0.5731  1.8477  0.4943
27766SOL    HW289135   4.896   2.749   3.432 -0.1541 -0.4634  0.3120
27767SOL     OW89136   7.628   9.924   6.071 -0.4220  0.1749  0.0653
27767SOL    HW189137   7.558   9.989   6.067 -1.3691 -0.8417 -0.3200
27767SOL    HW289138   7.649   9.917   6.164 -2.0548 -0.7468  0.4009
27768SOL     OW89139  10.337   8.499   9.159 -0.2078 -0.2194 -0.3832
27768SOL    HW189140  10.324   8.423   9.103 -0.3183 -0.2058 -0.3772
27768SOL    HW289141  10.374   8.565   9.101  0.0733 -0.3416 -0.3458
27769SOL     OW89142   0.824   1.871   9.567  0.1416 -0.4153 -0.3704
27769SOL    HW189143   0.896   1.856   9.629 -0.6944  0.8494  0.9769
27769SOL    HW289144   0.767   1.795   9.578 -0.9051  0.5926  1.8000
27770SOL     OW89145   3.222   4.457   5.629 -0.4311 -0.5556 -0.5443
27770SOL    HW189146   3.217   4.543   5.588 -0.9098 -0.1837  0.2645
27770SOL    HW289147   3.135   4.443   5.666 -0.1767 -1.1213 -0.1396
27771SOL     OW89148   9.654   3.342   0.292 -0.6127  0.2687 -0.0008
27771SOL    HW189149   9.746   3.318   0.282 -0.5101  1.0221 -1.0466
27771SOL    HW289150   9.627   3.372   0.205 -2.3133 -1.4486 -0.1445
27772SOL     OW89151   3.887   6.054   8.831  0.0791  0.2326 -0.3650
27772SOL    HW189152   3.911   5.964   8.854  0.2106  0.6750  1.3146
27772SOL    HW289153   3.801   6.045   8.788  0.7881 -0.8196 -1.6189
27773SOL     OW89154   6.324   3.725   4.339 -0.0551 -0.0006 -0.2266
27773SOL    HW189155   6.332   3.795   4.274 -1.8007  0.1208 -0.3565
27773SOL    HW289156   6.230   3.708   4.345  0.1577 -0.8359  1.4045
27774SOL     OW89157  10.643   1.588   7.959  0.7012  0.1345 -0.1837
27774SOL    HW189158  10.561   1.635   7.979  0.3820 -0.8212  0.8781
27774SOL    HW289159  10.704   1.657   7.934 -0.5230  0.8379 -1.3773
27775SOL     OW89160   6.978   8.457  10.327 -0.0652  0.1607 -0.2218
27775SOL    HW189161   7.039   8.385  10.346  1.1637  1.1343 -0.3456
27775SOL    HW289162   6.963   8.499  10.412 -1.0591 -0.4228 -0.0882
27776SOL     OW89163   4.156   3.258   6.935  0.1072 -0.1450  0.3598
27776SOL    HW189164   4.180   3.260   7.028  1.1961  2.6226  0.1195
27776SOL    HW289165   4.189   3.174   6.903  1.1441 -0.4546  2.1385
27777SOL     OW89166   7.035   5.770   1.171  0.9481  0.4494 -0.2307
27777SOL    HW189167   7.013   5.847   1.223 -2.4422 -0.3311 -0.2779
27777SOL    HW289168   7.040   5.698   1.234  0.4313  0.1233 -0.5446
27778SOL     OW89169   3.116   5.471   8.827  0.3273 -0.3349  0.3683
27778SOL    HW189170   3.022   5.480   8.847  0.5460 -0.5808  1.5623
27778SOL    HW289171   3.123   5.496   8.735 -0.5332  2.2360  0.9142
27779SOL     OW89172   9.058   1.403   5.391 -1.0656  0.8000  0.1897
27779SOL    HW189173   9.007   1.484   5.380 -0.6448  1.1451  0.7448
27779SOL    HW289174   9.147   1.427   5.365 -0.4755  1.0944  2.3152
27780SOL     OW89175   1.300   7.606   1.524  0.3445 -0.3175  0.2367
27780SOL    HW189176   1.221   7.658   1.541  0.8876 -0.0368  2.0251
27780SOL    HW289177   1.337   7.588   1.610  1.7410 -1.2475 -0.5173
27781SOL     OW89178   9.332   4.650   2.537 -0.2991 -0.2006 -0.6018
27781SOL    HW189179   9.365   4.576   2.589 -0.9854 -0.7266 -0.9086
27781SOL    HW289180   9.348   4.625   2.446  0.2104  0.3904 -0.6774
27782SOL     OW89181   4.200   0.478   7.398 -0.0206 -0.2165  0.4639
27782SOL    HW189182   4.290   0.509   7.390  0.9784 -2.8483  0.4557
27782SOL    HW289183   4.197   0.433   7.482 -0.1957 -3.2336 -1.0038
27783SOL     OW89184   9.593   1.989   6.961 -0.1530  0.3582 -0.0187
27783SOL    HW189185   9.670   2.021   6.913  0.6010 -1.8919 -0.4398
27783SOL    HW289186   9.574   2.058   7.025  0.6634  2.0761 -1.5490
27784SOL     OW89187   1.694   4.960   9.454  0.7878 -0.3153 -0.2357
27784SOL    HW189188   1.640   4.992   9.382 -0.0429 -2.0297 -0.4395
27784SOL    HW289189   1.657   4.874   9.474  1.4493 -0.1809  1.7730
27785SOL     OW89190   9.997   1.743   7.940 -0.0990 -0.5217  0.1230
27785SOL    HW189191   9.948   1.660   7.944  0.8450 -1.0717  0.5133
27785SOL    HW289192   9.983   1.774   7.850  0.0512 -1.4336 -0.2257
27786SOL     OW89193   4.776   1.947  10.576  0.4030  0.5114 -0.1949
27786SOL    HW189194   4.751   1.959  10.667  1.3932 -0.0306  0.1684
27786SOL    HW289195   4.812   1.858  10.572  0.9884  0.7655 -0.9622
27787SOL     OW89196   1.199   0.059   6.502 -0.5664 -0.0253 -0.4249
27787SOL    HW189197   1.137  -0.015   6.500  1.1062 -1.5158 -0.0561
27787SOL    HW289198   1.174   0.109   6.579 -0.4049 -1.4814  0.6194
27788SOL     OW89199   6.721   3.579   9.409  0.5580 -0.8707 -0.1414
27788SOL    HW189200   6.737   3.664   9.368 -0.1974 -0.8321 -0.3680
27788SOL    HW289201   6.707   3.600   9.502 -0.9024 -0.5864 -0.4057
27789SOL     OW89202   0.514   0.674   4.070 -0.0607  0.4765 -0.4230
27789SOL    HW189203   0.494   0.652   3.979 -0.2370 -2.0593  0.1531
27789SOL    HW289204   0.453   0.622   4.122  2.3499 -0.9721  1.1929
27790SOL     OW89205   6.782   5.557   8.507 -0.2530  0.2930 -0.1359
27790SOL    HW189206   6.877   5.562   8.505 -0.0811 -1.8391  0.2121
27790SOL    HW289207   6.753   5.603   8.428  1.0545  0.8182 -0.3281
27791SOL     OW89208   5.103  10.320   8.478  0.3097  0.3386  1.0915
27791SOL    HW189209   5.022  10.362   8.507  0.3138  0.1629  1.3605
27791SOL    HW289210   5.172  10.371   8.521  0.2682 -1.2066  3.1818
27792SOL     OW89211   3.808   0.404   0.300 -0.2788 -0.2712  0.2868
27792SOL    HW189212   3.886   0.447   0.337  0.0072 -0.8413  0.3557
27792SOL    HW289213   3.775   0.466   0.235 -1.2299  1.1022  1.9836
27793SOL     OW89214   4.640   6.386   5.833  0.4193  0.1121  0.8728
27793SOL    HW189215   4.692   6.333   5.773  1.1528  0.0720  1.5283
27793SOL    HW289216   4.559   6.403   5.786  0.2589 -1.3905  0.5628
27794SOL     OW89217   4.488   7.013   1.741  0.5938 -0.3126  0.5132
27794SOL    HW189218   4.444   6.962   1.673  1.4304 -1.7389  1.0043
27794SOL    HW289219   4.523   6.948   1.801  0.5531  0.8981  1.9078
27795SOL     OW89220   0.518  10.002   8.924  0.1247 -0.4652  0.0889
27795SOL    HW189221   0.475   9.963   9.001 -1.0574 -0.6268 -0.6370
27795SOL    HW289222   0.602  10.033   8.958 -0.0698 -1.1675  1.2984
27796SOL     OW89223   6.905  10.082   5.401 -0.3750 -0.6711 -0.6023
27796SOL    HW189224   6.851  10.007   5.425 -0.3250 -0.9294 -1.2875
27796SOL    HW289225   6.872  10.153   5.455 -1.6177 -0.7425 -1.2425
27797SOL     OW89226   6.805   0.848   7.756 -0.1085 -0.1708  0.5393
27797SOL    HW189227   6.745   0.829   7.828  0.1554  0.7024  1.0039
27797SOL    HW289228   6.747   0.869   7.682 -0.4398  1.7339  1.2641
27798SOL     OW89229   4.976  10.687   2.119  0.7827  0.2700  0.1757
27798SOL    HW189230   4.980  10.616   2.183  1.0511 -0.6914 -0.8724
27798SOL    HW289231   4.925  10.756   2.162  1.5001 -0.0883  1.6527
27799SOL     OW89232   1.054   3.366   1.069  0.1336 -0.0103  0.0451
27799SOL    HW189233   1.149   3.373   1.055 -0.2413  0.6927 -2.5578
27799SOL    HW289234   1.024   3.457   1.073 -0.5163 -0.2316  0.2671
27800SOL     OW89235   0.033   1.175   8.415  0.4766 -0.3273 -0.2726
27800SOL    HW189236   0.040   1.086   8.378  1.3053 -0.0901 -0.7182
27800SOL    HW289237  -0.043   1.213   8.372 -0.1934 -0.9882  0.2942
27801SOL     OW89238   2.216   9.062   3.309 -0.6565 -0.1364 -0.1766
27801SOL    HW189239   2.239   9.139   3.257 -1.5480 -0.0536 -0.4524
27801SOL    HW289240   2.123   9.073   3.328 -1.2267 -2.0140 -1.6955
27802SOL     OW89241   7.629   3.043   2.150 -0.4276 -0.1929 -0.0268
27802SOL    HW189242   7.627   3.074   2.060  2.2536  0.4218  0.0542
27802SOL    HW289243   7.651   2.950   2.143  4.0454  0.6484 -0.0784
27803SOL     OW89244   5.554  10.446   6.462  0.2511 -0.0347 -0.1900
27803SOL    HW189245   5.511  10.512   6.516 -0.2786 -0.6185  0.1197
27803SOL    HW289246   5.506  10.449   6.379 -0.2579 -0.5327  0.0791
27804SOL     OW89247   4.532   8.135   6.189  0.4928  0.2669  0.1674
27804SOL    HW189248   4.565   8.090   6.268 -0.9524  0.2432  0.7875
27804SOL    HW289249   4.549   8.227   6.206  2.0080  0.1321 -0.4066
27805SOL     OW89250   2.841  10.511   1.678  0.1094 -0.2299 -0.0110
27805SOL    HW189251   2.888  10.434   1.645  0.8574 -0.4873  1.6006
27805SOL    HW289252   2.897  10.546   1.747 -1.0676  0.7189  0.4897
27806SOL     OW89253   8.284   1.320   9.604 -0.1440  0.1005  0.1207
27806SOL    HW189254   8.249   1.385   9.665  1.0851  1.0926 -0.1802
27806SOL    HW289255   8.213   1.305   9.541 -0.1058  1.9677 -0.4182
27807SOL     OW89256   0.655  10.609   6.151 -0.0148  0.1276  0.1488
27807SOL    HW189257   0.565  10.589   6.176 -0.2232  2.7231  1.9548
27807SOL    HW289258   0.708  10.575   6.223  0.7085 -2.5363 -1.4977
27808SOL     OW89259   9.027   3.891   9.296  0.3492 -0.4712 -0.2349
27808SOL    HW189260   9.059   3.919   9.382  0.1473 -1.0064  0.0202
27808SOL    HW289261   9.097   3.834   9.262  0.3585 -0.3872 -0.3559
27809SOL     OW89262   6.811   9.263   5.669 -0.1066 -0.2035  0.5787
27809SOL    HW189263   6.716   9.267   5.672 -0.1961 -2.0683  2.1294
27809SOL    HW289264   6.840   9.315   5.744 -0.0466 -1.5774  1.5493
27810SOL     OW89265   6.390   6.769   9.428 -0.0768  0.0775  0.4304
27810SOL    HW189266   6.393   6.862   9.454  2.2457  0.3951 -0.6932
27810SOL    HW289267   6.473   6.733   9.461  0.7251 -0.6833 -2.2145
27811SOL     OW89268   1.929   0.674   2.752 -0.3696 -0.3153 -0.3325
27811SOL    HW189269   1.870   0.625   2.695 -3.2485  1.1846  1.0971
27811SOL    HW289270   1.960   0.610   2.816 -1.1581 -1.0098 -0.6264
27812SOL     OW89271   3.910   6.382   1.934  0.0634 -0.1502  0.6049
27812SOL    HW189272   3.985   6.430   1.901 -1.0057  0.8803 -0.4241
27812SOL    HW289273   3.857   6.447   1.980  0.4078 -1.1158  2.5079
27813SOL     OW89274   9.800   9.376   4.757 -0.3552  0.3047  0.4441
27813SOL    HW189275   9.875   9.357   4.701  0.8698  1.6352  1.5461
27813SOL    HW289276   9.730   9.318   4.725  1.8051 -2.7984  0.9291
27814SOL     OW89277   4.422   4.504  10.157  0.4165  0.0326  0.1884
27814SOL    HW189278   4.385   4.531  10.241  0.3546 -1.9158  0.8253
27814SOL    HW289279   4.516   4.503  10.171  0.6964  2.8879 -0.8002
27815SOL     OW89280   8.486   4.098   1.816  0.3625  0.2271 -0.1967
27815SOL    HW189281   8.440   4.177   1.786  1.5427  1.4904  1.1473
27815SOL    HW289282   8.470   4.096   1.910  1.5889 -0.3109  0.0089
27816SOL     OW89283   5.466   9.189   0.264  0.2867  0.2645 -0.1563
27816SOL    HW189284   5.417   9.147   0.335 -0.3394  0.8969 -0.2075
27816SOL    HW289285   5.510   9.116   0.219  0.2510 -0.1939  0.5443
27817SOL     OW89286  10.007   3.330   3.446 -0.0971 -0.0899  0.0981
27817SOL    HW189287   9.938   3.304   3.385 -0.2120  0.2156  0.0984
27817SOL    HW289288   9.961   3.374   3.517 -0.1029 -1.5269  1.0298
27818SOL     OW89289   2.141   6.777   0.223 -0.0009  0.2230 -0.1032
27818SOL    HW189290   2.185   6.853   0.185 -0.4392  0.1322 -0.8221
27818SOL    HW289291   2.209   6.733   0.274  0.3581  0.8772  0.0026
27819SOL     OW89292   9.844   1.139   7.722  0.2644  0.9115 -0.1154
27819SOL    HW189293   9.934   1.111   7.735  0.2182  0.8187  0.0090
27819SOL    HW289294   9.819   1.106   7.636  0.5345  1.4248 -0.3958
27820SOL     OW89295   1.054   5.987   0.069  0.1581 -0.9078  1.0441
27820SOL    HW189296   1.014   5.943  -0.006  0.3579 -0.3082  0.5827
27820SOL    HW289297   1.148   5.985   0.051  0.0757  1.1824  0.1847
27821SOL     OW89298   8.788   0.126   3.891 -0.5579  0.0576 -0.3292
27821SOL    HW189299   8.696   0.150   3.886 -0.7291 -0.8087 -1.9416
27821SOL    HW289300   8.801   0.062   3.821  1.0833 -0.4812  0.3949
27822SOL     OW89301   2.674  10.146   1.138 -0.3307  0.1326 -0.6657
27822SOL    HW189302   2.618  10.075   1.170 -0.1898 -0.0842 -0.8931
27822SOL    HW289303   2.682  10.205   1.213 -0.3190 -0.1711 -0.4226
27823SOL     OW89304  10.510   9.440   2.170  0.2648 -0.1639  0.4654
27823SOL    HW189305  10.482   9.491   2.095  0.4567  0.2647  0.6831
27823SOL    HW289306  10.543   9.358   2.133 -3.0412 -1.5806  0.2781
27824SOL     OW89307   1.261   9.358  10.283 -0.3750 -0.3373 -0.5214
27824SOL    HW189308   1.187   9.391  10.232 -0.8578  0.4066  0.5955
27824SOL    HW289309   1.294   9.435  10.330 -0.8703 -1.1963  1.3535
27825SOL     OW89310   5.579   4.839  10.154 -0.1009  0.5858  0.2600
27825SOL    HW189311   5.512   4.833  10.086  0.5259 -1.8715 -0.2191
27825SOL    HW289312   5.655   4.793  10.117  1.6499  2.6372  1.0744
27826SOL     OW89313   6.869   2.240   0.398 -0.0752  0.2587 -0.1291
27826SOL    HW189314   6.824   2.177   0.342  1.6275 -0.2195 -1.0490
27826SOL    HW289315   6.940   2.274   0.343  0.1891  1.5646  0.9744
27827SOL     OW89316   4.847   6.898   6.413  0.4366  0.2814 -0.4881
27827SOL    HW189317   4.859   6.803   6.404  0.3448  0.3614 -1.4962
27827SOL    HW289318   4.771   6.918   6.359 -1.3657  0.5275  1.9796
27828SOL     OW89319   5.093   5.130   9.170  0.2826  0.1893  0.0268
27828SOL    HW189320   5.000   5.150   9.162 -0.4001 -2.0081  1.6319
27828SOL    HW289321   5.105   5.050   9.120  0.7634 -0.8520  1.7335
27829SOL     OW89322   6.309   9.144   9.297  0.4429  0.4225 -0.0820
27829SOL    HW189323   6.386   9.165   9.350  0.1956 -0.7694  0.7934
27829SOL    HW289324   6.340   9.076   9.237 -0.2040 -1.0809  1.1958
27830SOL     OW89325   6.653   8.859   1.382  0.0095 -0.2129 -0.1865
27830SOL    HW189326   6.673   8.767   1.364  0.9239 -0.3333  1.3260
27830SOL    HW289327   6.714   8.907   1.327  1.6377 -0.5625  1.2378
27831SOL     OW89328   3.642   2.542   5.785  0.1549  0.3712 -0.5605
27831SOL    HW189329   3.699   2.479   5.830 -0.1998 -0.4941 -1.3022
27831SOL    HW289330   3.702   2.595   5.732  0.4103  0.3975 -0.2521
27832SOL     OW89331   3.018   6.222   7.286 -0.8619  0.0524  0.4643
27832SOL    HW189332   2.935   6.230   7.334 -1.3367 -1.6735 -0.0006
27832SOL    HW289333   3.083   6.262   7.344 -1.9704  1.2575  0.9252
27833SOL     OW89334   0.391  10.591   6.175  0.4902 -0.7247  0.5913
27833SOL    HW189335   0.341  10.526   6.126  1.9536 -1.7341  0.3668
27833SOL    HW289336   0.386  10.561   6.266  0.7161 -0.8392  0.5650
27834SOL     OW89337   5.978   7.410   3.952  0.0346 -0.6405 -0.8901
27834SOL    HW189338   5.988   7.414   4.048  0.3573  0.3510 -0.9500
27834SOL    HW289339   6.034   7.336   3.925 -0.3704 -1.1785 -0.2815
27835SOL     OW89340   0.074   0.401   3.659  0.1674  0.4144  0.8575
27835SOL    HW189341  -0.004   0.433   3.615 -1.0147 -2.5270  0.5408
27835SOL    HW289342   0.050   0.398   3.752  0.0444 -0.0238  0.8169
27836SOL     OW89343   6.103   8.475   6.021 -0.1703 -0.2176 -0.4940
27836SOL    HW189344   6.094   8.520   6.104  0.6604  0.4586 -0.7540
27836SOL    HW289345   6.171   8.410   6.036 -0.0318 -0.1075 -0.6337
27837SOL     OW89346   1.297   2.406   2.684 -0.0415 -0.2157  0.4260
27837SOL    HW189347   1.330   2.493   2.662 -0.8119 -0.0322 -0.0482
27837SOL    HW289348   1.355   2.375   2.753 -0.3613  1.1025  1.3276
27838SOL     OW89349   2.717   3.094   4.418 -0.0960 -0.2696  0.3997
27838SOL    HW189350   2.756   3.168   4.464  0.7389 -1.0032  0.8877
27838SOL    HW289351   2.641   3.069   4.471 -0.3681  0.2119  0.2427
27839SOL     OW89352   7.213   5.884   8.756 -1.1766  0.0746  0.0494
27839SOL    HW189353   7.279   5.952   8.773 -0.8313 -0.0489 -0.7439
27839SOL    HW289354   7.259   5.819   8.702 -1.5303 -0.7522  0.7196
27840SOL     OW89355   2.713   3.899  10.606 -0.0036  0.4883 -0.3269
27840SOL    HW189356   2.619   3.881  10.607  0.0332  0.3014  1.0291
27840SOL    HW289357   2.754   3.814  10.616  0.4087  0.2847 -2.9505
27841SOL     OW89358   2.843   7.057   4.827  0.5210  0.2403 -0.1897
27841SOL    HW189359   2.888   7.020   4.752  0.5113 -0.3904  0.1109
27841SOL    HW289360   2.758   7.086   4.792  0.4771 -0.1398 -0.4052
27842SOL     OW89361  10.363   1.113   7.267 -0.1809 -0.1982 -0.2963
27842SOL    HW189362  10.336   1.173   7.198  0.9338 -1.8123 -2.2165
27842SOL    HW289363  10.307   1.037   7.256  1.1345 -1.1651 -0.5579
27843SOL     OW89364  10.465   1.459   0.185  0.0876 -0.5767 -0.2300
27843SOL    HW189365  10.414   1.540   0.189  1.2617  0.2269 -0.7774
27843SOL    HW289366  10.497   1.447   0.275  0.2245 -0.2028 -0.2245
27844SOL     OW89367   3.912   2.819  10.366 -0.0509 -0.0928  0.2302
27844SOL    HW189368   3.834   2.767  10.344 -0.5199  0.0868  1.3452
27844SOL    HW289369   3.927   2.875  10.290 -0.0833 -1.2202 -0.6208
27845SOL     OW89370   2.342   3.380   6.272 -0.0744 -0.4264 -0.0733
27845SOL    HW189371   2.436   3.368   6.283  0.0579 -0.0091 -0.7040
27845SOL    HW289372   2.334   3.453   6.210 -0.8063 -0.7371 -0.3556
27846SOL     OW89373   8.104   4.823   2.090  0.3040  0.4982 -0.4877
27846SOL    HW189374   8.121   4.913   2.063 -0.6386  0.9385  0.3097
27846SOL    HW289375   8.118   4.823   2.185 -0.2229 -0.0494 -0.4005
27847SOL     OW89376   2.960   7.931   2.567 -0.6234  0.6222  0.3132
27847SOL    HW189377   2.933   7.980   2.489 -0.5693  1.6090  0.8984
27847SOL    HW289378   2.962   7.996   2.637 -0.2670 -0.1663  1.0576
27848SOL     OW89379   7.153   6.558   2.592  0.4521 -0.0486  0.5022
27848SOL    HW189380   7.083   6.599   2.643 -0.0905 -1.6925  1.1325
27848SOL    HW289381   7.228   6.557   2.651  1.3667  2.5204 -0.4665
27849SOL     OW89382   5.752   9.355   0.612 -0.6062 -0.2098  0.2653
27849SOL    HW189383   5.844   9.337   0.597 -0.8484 -0.1435 -1.5279
27849SOL    HW289384   5.712   9.348   0.525 -2.1274  0.6733  0.8604
27850SOL     OW89385   8.123   9.654   7.720  0.9295  0.0368 -0.4351
27850SOL    HW189386   8.049   9.707   7.688  1.7861  0.8266 -1.1475
27850SOL    HW289387   8.087   9.608   7.795 -0.6839 -0.6091 -1.5288
27851SOL     OW89388   0.937  10.170   4.886 -0.3397 -0.0231 -0.0444
27851SOL    HW189389   1.010  10.212   4.931  0.6635 -1.1765 -0.5599
27851SOL    HW289390   0.903  10.107   4.950  1.4604 -2.0865 -1.0240
27852SOL     OW89391   1.250   0.988   4.018 -0.3583  0.0443 -0.1843
27852SOL    HW189392   1.196   1.050   3.969 -1.4982 -1.6721 -1.2001
27852SOL    HW289393   1.208   0.982   4.104  0.5437  1.6360  0.4035
27853SOL     OW89394   5.657   6.397   2.487 -0.6579  0.2580 -0.0198
27853SOL    HW189395   5.666   6.490   2.507 -0.3989 -0.1977  2.2202
27853SOL    HW289396   5.669   6.353   2.571 -0.6796 -1.8177 -1.0442
27854SOL     OW89397   3.962   7.426   6.252 -0.0545 -0.1306 -0.3407
27854SOL    HW189398   3.870   7.447   6.238 -0.0852 -0.2624 -0.3349
27854SOL    HW289399   4.009   7.503   6.220 -0.2098  0.3985  0.6755
27855SOL     OW89400   5.651   7.578   9.681  0.2563  0.2697 -0.8383
27855SOL    HW189401   5.662   7.622   9.596 -1.7577  0.2705 -1.1380
27855SOL    HW289402   5.622   7.490   9.659 -0.0443  0.1904 -0.1468
27856SOL     OW89403   5.297   9.630   9.409 -1.2062  0.0624  0.4087
27856SOL    HW189404   5.209   9.608   9.379 -0.7384  0.5071 -1.4720
27856SOL    HW289405   5.354   9.608   9.335  0.1524  0.6186  1.2404
27857SOL     OW89406   8.431   7.840   0.946  0.5240  0.2013  0.2850
27857SOL    HW189407   8.493   7.786   0.898  1.5079 -0.1930  1.9081
27857SOL    HW289408   8.398   7.902   0.881  0.3309 -1.4882 -1.3124
27858SOL     OW89409   9.939   8.051   8.573  0.0407  0.6353  0.0480
27858SOL    HW189410   9.860   7.999   8.560  0.4805 -0.2369  0.7311
27858SOL    HW289411   9.938   8.072   8.667 -0.3113  2.1885 -0.2735
27859SOL     OW89412   3.100   8.802   2.134  0.3007  0.1314 -0.4106
27859SOL    HW189413   3.097   8.706   2.137  0.2698 -0.0115 -2.8239
27859SOL    HW289414   3.172   8.821   2.074  1.1520  1.6857  1.0348
27860SOL     OW89415  10.439   1.079   0.717 -0.2761 -0.0661 -0.2645
27860SOL    HW189416  10.442   0.988   0.688  1.0150 -0.6086  1.3846
27860SOL    HW289417  10.370   1.120   0.664  0.1829 -1.5900 -2.1313
27861SOL     OW89418   4.728   2.954   3.904 -0.5116  0.1358  0.2402
27861SOL    HW189419   4.644   2.944   3.950 -3.2626 -1.2328 -4.4024
27861SOL    HW289420   4.733   3.047   3.883 -1.3334  0.0948 -0.1652
27862SOL     OW89421   0.485   1.782  10.330  0.0319 -0.2280  0.1470
27862SOL    HW189422   0.393   1.776  10.356  0.2384 -2.1370  0.5987
27862SOL    HW289423   0.498   1.706  10.273  1.5942 -0.6574  1.0299
27863SOL     OW89424   2.772   7.090   3.070 -0.4625  0.0614  0.5284
27863SOL    HW189425   2.808   7.065   2.985  0.1657 -1.9506  1.3187
27863SOL    HW289426   2.688   7.130   3.050 -0.9862 -1.6599 -1.0044
27864SOL     OW89427   3.797   1.936   6.752 -0.3028 -0.3784  1.0732
27864SOL    HW189428   3.724   1.896   6.799  0.9169 -1.2015  2.3382
27864SOL    HW289429   3.813   2.019   6.797 -3.2815  2.1523 -1.9670
27865SOL     OW89430  10.650   0.833   6.738 -0.2680 -0.4371 -0.0702
27865SOL    HW189431  10.614   0.796   6.657  1.3094  0.0008 -1.0173
27865SOL    HW289432  10.578   0.827   6.801 -1.1165 -2.0161 -1.1168
27866SOL     OW89433   4.676   8.629   6.389 -0.2547  0.3306 -0.0113
27866SOL    HW189434   4.684   8.545   6.435 -0.4776 -1.2170 -2.6396
27866SOL    HW289435   4.586   8.657   6.407  0.0894  0.5295  1.6222
27867SOL     OW89436   3.032   4.390   4.298  1.3508 -0.4622  0.0031
27867SOL    HW189437   3.112   4.436   4.324  1.8100  0.1683 -2.2847
27867SOL    HW289438   3.043   4.301   4.332  1.7804  0.2967  1.9843
27868SOL     OW89439   2.673   8.888   8.648 -0.1235 -0.3266 -0.2514
27868SOL    HW189440   2.755   8.841   8.661  1.8258  3.1472  1.4768
27868SOL    HW289441   2.618   8.863   8.722  1.4039  0.9490  1.4004
27869SOL     OW89442   0.508   5.383   2.543 -0.5609  0.0641  0.0466
27869SOL    HW189443   0.539   5.372   2.633  0.1286  0.6136 -0.1221
27869SOL    HW289444   0.425   5.334   2.541  0.2619 -1.4342  0.4914
27870SOL     OW89445   3.172   7.427   0.897 -0.1179  0.3995  0.0512
27870SOL    HW189446   3.090   7.378   0.903 -0.1617  0.5702  0.8832
27870SOL    HW289447   3.232   7.367   0.853 -0.5895  0.1508 -0.2611
27871SOL     OW89448   5.377   3.253   8.959 -0.1662 -0.3249 -0.1768
27871SOL    HW189449   5.400   3.161   8.976 -2.6959 -1.3248 -1.6274
27871SOL    HW289450   5.314   3.249   8.887 -2.4967  2.3169  1.5093
27872SOL     OW89451   3.512   2.871   4.215  0.2557  0.7925 -0.3116
27872SOL    HW189452   3.522   2.778   4.197  0.3273  0.4563  1.3687
27872SOL    HW289453   3.429   2.894   4.173 -0.6674 -0.4532  0.7604
27873SOL     OW89454   3.717   2.259   1.678 -0.1091  1.0126 -0.2949
27873SOL    HW189455   3.625   2.286   1.673 -1.0381 -1.7923 -0.3670
27873SOL    HW289456   3.734   2.219   1.593  0.3001 -0.8296  0.5966
27874SOL     OW89457   8.008   1.913   8.663  0.3631 -0.3095  0.0363
27874SOL    HW189458   8.064   1.990   8.673  0.1291 -0.1041 -0.2321
27874SOL    HW289459   7.926   1.937   8.704  0.4124 -0.5533  0.2836
27875SOL     OW89460   6.647   6.200   1.202  0.9564 -0.0252  0.0057
27875SOL    HW189461   6.713   6.232   1.264  1.8411  0.4036 -1.1186
27875SOL    HW289462   6.598   6.278   1.178  0.7670 -0.1504 -0.0140
27876SOL     OW89463   3.732   4.119   6.531  0.0907 -0.0893  0.0926
27876SOL    HW189464   3.687   4.168   6.462 -2.2051 -0.6593  1.0856
27876SOL    HW289465   3.790   4.183   6.572  2.2169  0.0594 -2.8253
27877SOL     OW89466   0.663   0.962   8.142 -0.0539 -0.1307  0.0464
27877SOL    HW189467   0.707   1.031   8.092 -3.2701  1.2855 -1.0968
27877SOL    HW289468   0.572   0.966   8.113 -1.0382 -2.7083  2.3812
27878SOL     OW89469   1.922   7.723   1.310  0.0961  0.1465  0.1484
27878SOL    HW189470   2.017   7.729   1.299  0.2951 -1.1550  0.9732
27878SOL    HW289471   1.908   7.734   1.404 -0.4165 -1.1118  0.2433
27879SOL     OW89472   9.671  10.363  10.496  0.0627  0.6922  0.3664
27879SOL    HW189473   9.623  10.445  10.486  0.3601  0.8133 -0.0675
27879SOL    HW289474   9.679  10.329  10.407  0.1083  0.2844  0.5233
27880SOL     OW89475   3.245   3.920  10.411 -0.0735 -0.2332  0.1170
27880SOL    HW189476   3.202   4.000  10.381  1.1411  0.0962 -0.8109
27880SOL    HW289477   3.328   3.949  10.449  0.0045 -0.9826  0.5390
27881SOL     OW89478  10.070   5.597   0.863 -0.5843 -0.1193 -0.5320
27881SOL    HW189479   9.984   5.639   0.858 -1.0964 -1.1595 -0.8614
27881SOL    HW289480  10.053   5.513   0.906  0.4213  0.0135  0.1575
27882SOL     OW89481   5.514   1.505   1.535  0.5942  0.3528 -0.0510
27882SOL    HW189482   5.490   1.594   1.560  0.2404 -0.0365  1.0461
27882SOL    HW289483   5.430   1.459   1.528  0.7855  0.0504 -0.4188
27883SOL     OW89484   5.086   6.210  10.282 -0.5084 -0.1582 -1.0630
27883SOL    HW189485   5.145   6.135  10.283  0.1118  0.3172 -1.0898
27883SOL    HW289486   4.999   6.172  10.290 -0.2007 -0.8748 -0.9970
27884SOL     OW89487   2.216   0.355   7.796 -0.1904  0.2695  0.1374
27884SOL    HW189488   2.222   0.349   7.700 -1.9622  0.1177  0.0048
27884SOL    HW289489   2.247   0.444   7.816 -0.1010  0.4153 -0.6237
27885SOL     OW89490   5.609   5.222   7.523 -0.2164 -0.0612 -0.0794
27885SOL    HW189491   5.612   5.133   7.487 -1.5310 -1.9470  3.8622
27885SOL    HW289492   5.527   5.258   7.490  0.0245 -0.4930 -1.2279
27886SOL     OW89493   6.158   5.830   7.593 -0.2432 -0.1662 -0.6194
27886SOL    HW189494   6.252   5.810   7.597 -0.0015  0.8655 -0.9123
27886SOL    HW289495   6.117   5.748   7.569  0.6809 -0.4040 -1.4340
27887SOL     OW89496   5.343   9.108   8.595  0.2828  0.3177  0.7568
27887SOL    HW189497   5.316   9.042   8.531  2.1636 -0.0302  0.2683
27887SOL    HW289498   5.340   9.191   8.548 -1.1389  0.4789  1.0904
27888SOL     OW89499  10.070   9.883   2.002  0.5297 -0.2011  0.2024
27888SOL    HW189500  10.149   9.920   1.964 -0.2147  0.3633 -0.8605
27888SOL    HW289501  10.008   9.877   1.929 -0.3834 -0.6892  0.9841
27889SOL     OW89502   4.174   5.160  10.537  0.2686  0.4220 -0.2670
27889SOL    HW189503   4.239   5.211  10.586  0.2192 -1.0838  1.4955
27889SOL    HW289504   4.108   5.224  10.512 -0.5287  1.1654  3.1320
27890SOL     OW89505   4.702   6.990   5.174 -0.2125  0.1413 -0.3262
27890SOL    HW189506   4.716   7.081   5.202  1.4833  0.0537 -0.7939
27890SOL    HW289507   4.668   6.946   5.253 -1.0159  1.1523 -0.0854
27891SOL     OW89508   4.139  10.644   5.407 -0.5164  0.1102 -0.1367
27891SOL    HW189509   4.079  10.710   5.441 -1.4902 -1.3843  1.1780
27891SOL    HW289510   4.166  10.594   5.483  1.2496 -0.2002 -0.9258
27892SOL     OW89511   0.731   0.838   3.999  0.2770 -0.1296 -0.0077
27892SOL    HW189512   0.654   0.784   4.017  0.5628 -0.3350  0.6228
27892SOL    HW289513   0.776   0.794   3.927  1.3785 -1.6514  1.5450
27893SOL     OW89514   9.745   0.219   7.593  0.4395  0.3406  0.5331
27893SOL    HW189515   9.785   0.246   7.511 -0.9421 -1.1112 -0.6840
27893SOL    HW289516   9.651   0.217   7.575  0.1439 -0.6031  1.9697
27894SOL     OW89517   0.261   1.913   8.927  0.0700 -0.5508  0.2338
27894SOL    HW189518   0.282   1.998   8.965 -0.2411 -0.9843  1.4394
27894SOL    HW289519   0.290   1.919   8.836  0.5505  0.6493  0.4479
27895SOL     OW89520   3.042   6.894  10.670  0.2580 -0.0757  0.1952
27895SOL    HW189521   3.130   6.924  10.693  0.4511 -0.2225 -0.3485
27895SOL    HW289522   3.004   6.866  10.754  1.0570 -0.8549  0.3161
27896SOL     OW89523   9.063   9.812   7.233 -0.1590  0.4707  0.5472
27896SOL    HW189524   9.088   9.836   7.143 -0.4732  1.4540  0.7060
27896SOL    HW289525   9.010   9.733   7.223  0.6038  0.0143 -0.0445
27897SOL     OW89526   5.027   4.424  10.193 -0.5425  0.0413 -0.0820
27897SOL    HW189527   4.979   4.486  10.247  0.6286  1.2807 -0.4130
27897SOL    HW289528   5.117   4.428  10.227 -0.1318 -0.3635 -1.0869
27898SOL     OW89529   3.273   6.362   9.306 -0.5804 -0.0781 -0.7415
27898SOL    HW189530   3.276   6.436   9.246  1.2170 -1.5976 -2.6677
27898SOL    HW289531   3.187   6.368   9.348 -0.2676  3.3917 -0.3323
27899SOL     OW89532   0.497   8.777   8.538  0.2593 -0.6284  0.2419
27899SOL    HW189533   0.538   8.843   8.481  0.3827  0.1528  1.2041
27899SOL    HW289534   0.519   8.693   8.497 -1.5529 -0.0701 -2.1148
27900SOL     OW89535   9.297   9.856   2.628 -0.8010  0.1722 -0.3392
27900SOL    HW189536   9.237   9.929   2.610  0.5313  1.0851 -1.2516
27900SOL    HW289537   9.378   9.880   2.583 -0.3988 -2.0122 -0.8726
27901SOL     OW89538  10.477   7.295   2.491  0.3858  0.2647 -0.1618
27901SOL    HW189539  10.537   7.266   2.422 -1.0084 -0.3641 -1.1647
27901SOL    HW289540  10.392   7.259   2.466 -0.2471  0.3061  1.7215
27902SOL     OW89541   9.818   6.623   0.468  0.1881  0.0033  0.5720
27902SOL    HW189542   9.748   6.588   0.413 -0.8364  0.7007  1.4139
27902SOL    HW289543   9.886   6.650   0.406  0.7628 -2.8106 -0.1603
27903SOL     OW89544   7.658   5.436   1.332  0.2426  0.1987 -0.0990
27903SOL    HW189545   7.739   5.467   1.293 -0.0484  0.1667 -0.7416
27903SOL    HW289546   7.600   5.419   1.258  0.2230 -1.4029  0.2429
27904SOL     OW89547   8.904   1.425   9.590  0.1929 -0.3367 -0.0879
27904SOL    HW189548   8.825   1.464   9.551  1.5038  0.9245 -1.6411
27904SOL    HW289549   8.920   1.478   9.668 -0.6678 -0.8286  0.4393
27905SOL     OW89550   3.047   5.164   1.362 -0.3438 -0.3330 -0.6300
27905SOL    HW189551   3.125   5.215   1.382 -1.5361  1.2355  0.3191
27905SOL    HW289552   3.044   5.161   1.267  0.6376 -0.0287 -0.6819
27906SOL     OW89553   1.460   9.831   7.659  0.1188  0.1466 -0.5302
27906SOL    HW189554   1.386   9.870   7.614 -0.2031 -0.5629 -0.6154
27906SOL    HW289555   1.422   9.765   7.717  0.5637  0.6849  0.4092
27907SOL     OW89556   3.880   7.770   6.419  0.3513  0.0443 -0.1233
27907SOL    HW189557   3.850   7.698   6.476 -0.4166  2.4056  2.7172
27907SOL    HW289558   3.970   7.787   6.449  0.8278 -0.2138 -1.3516
27908SOL     OW89559   3.758   2.148   1.422 -0.4784 -0.6266 -0.3854
27908SOL    HW189560   3.691   2.120   1.360 -1.3861  1.6396 -0.5065
27908SOL    HW289561   3.832   2.175   1.366 -0.0793 -1.5303 -0.3158
27909SOL     OW89562   1.677   7.442   2.978 -0.6779 -1.3844  0.0701
27909SOL    HW189563   1.619   7.492   3.036 -1.0017 -1.0691 -0.5168
27909SOL    HW289564   1.730   7.508   2.934 -0.4594 -1.6189 -0.0192
27910SOL     OW89565  10.707   0.732   1.711 -0.2427 -0.1539 -0.1710
27910SOL    HW189566  10.620   0.714   1.675 -0.3165 -1.7711  0.7052
27910SOL    HW289567  10.697   0.815   1.757 -1.1319  0.0414 -0.6998
27911SOL     OW89568   3.419   3.401   5.424 -0.4077 -0.6751 -0.3979
27911SOL    HW189569   3.477   3.397   5.499 -2.5397  0.5106  1.4525
27911SOL    HW289570   3.449   3.476   5.374  0.4397 -0.8796 -0.2026
27912SOL     OW89571   1.291   7.248   8.972 -0.3291  0.0194  0.3972
27912SOL    HW189572   1.269   7.193   9.047 -2.3863 -0.1567 -0.2793
27912SOL    HW289573   1.208   7.262   8.927  0.5538  1.6249 -0.8488
27913SOL     OW89574   4.356   6.103   5.015  0.2850  0.2321  0.4794
27913SOL    HW189575   4.383   6.142   4.931 -2.1443  0.3914 -0.3041
27913SOL    HW289576   4.395   6.160   5.081 -1.0167  2.5643 -0.6296
27914SOL     OW89577   2.048   1.335   8.487  0.3636  0.2216 -0.4622
27914SOL    HW189578   2.081   1.255   8.446 -1.3853 -2.0902  2.2744
27914SOL    HW289579   1.963   1.351   8.446 -0.7351 -1.2657  1.1041
27915SOL     OW89580   3.810   8.664   4.845  0.0917 -0.2561  0.1297
27915SOL    HW189581   3.755   8.733   4.881  0.6654  0.8459 -1.0291
27915SOL    HW289582   3.846   8.619   4.922 -0.2910  0.7198  0.9001
27916SOL     OW89583  10.278   4.189   2.738 -0.6847 -0.0367 -0.5931
27916SOL    HW189584  10.299   4.220   2.649  0.3599 -1.6054 -0.9456
27916SOL    HW289585  10.188   4.157   2.731 -1.4726  2.0192 -0.4357
27917SOL     OW89586   8.993   2.416   2.599  0.1060  0.3072  1.0791
27917SOL    HW189587   9.073   2.404   2.650  0.1141  1.3839  1.3304
27917SOL    HW289588   9.005   2.358   2.523  0.6075 -0.4104  1.6868
27918SOL     OW89589   5.229  10.386   3.877  0.1242  0.1370 -0.1699
27918SOL    HW189590   5.291  10.363   3.808 -0.3964  0.1314 -0.6433
27918SOL    HW289591   5.215  10.304   3.925  0.4031  0.1165 -0.1227
27919SOL     OW89592   3.446   1.580   9.451 -0.2582 -0.5545  0.6323
27919SOL    HW189593   3.447   1.556   9.543  1.8075 -2.0238  0.2965
27919SOL    HW289594   3.519   1.641   9.441 -0.9308  0.1773  0.0942
27920SOL     OW89595   8.248   9.552   9.687 -0.2174  0.2455  0.7637
27920SOL    HW189596   8.322   9.611   9.700  1.0598 -1.6164  2.6990
27920SOL    HW289597   8.281   9.485   9.627 -0.3197 -0.5309  1.5469
27921SOL     OW89598   3.935   9.061   5.592 -0.4772 -0.2537  0.8787
27921SOL    HW189599   3.998   9.045   5.522 -1.4652  0.4067 -0.1826
27921SOL    HW289600   3.862   9.002   5.572  0.3373 -2.0836  2.8953
27922SOL     OW89601   2.401   6.872   5.081  0.5789 -0.2766 -0.1667
27922SOL    HW189602   2.384   6.844   4.991 -3.2828  0.1998  0.2464
27922SOL    HW289603   2.361   6.959   5.087 -1.2439 -1.1749  2.4830
27923SOL     OW89604   1.297   5.638   8.518  0.6992  0.2432  0.0369
27923SOL    HW189605   1.243   5.558   8.523 -0.1402  0.7708 -0.3164
27923SOL    HW289606   1.249   5.702   8.570  0.4875  0.9911 -1.0491
27924SOL     OW89607   2.275   1.426   8.607 -0.0994 -0.3433  0.1628
27924SOL    HW189608   2.200   1.388   8.562 -1.6221  0.2235  2.0699
27924SOL    HW289609   2.328   1.464   8.537 -0.8406 -1.9729 -1.3665
27925SOL     OW89610   5.720   7.406   2.203  0.2858  0.2714  0.5420
27925SOL    HW189611   5.781   7.480   2.191  1.2997 -0.3058  1.8439
27925SOL    HW289612   5.690   7.386   2.114  0.4905  1.8145  0.0797
27926SOL     OW89613   5.541   7.783   3.109  0.8905  0.1969 -0.5437
27926SOL    HW189614   5.574   7.785   3.019 -0.0721 -0.0057 -0.9059
27926SOL    HW289615   5.447   7.797   3.101  0.6630 -0.6779  0.3690
27927SOL     OW89616  10.127   7.785   3.479 -0.5114  0.7056  0.5463
27927SOL    HW189617  10.157   7.797   3.389 -1.4152 -0.2468  0.0889
27927SOL    HW289618  10.205   7.759   3.527 -0.2144  0.1401 -0.2109
27928SOL     OW89619   7.596   6.130  10.672 -0.1034 -0.1814  0.2449
27928SOL    HW189620   7.606   6.097  10.583  2.2389  1.5407 -0.1986
27928SOL    HW289621   7.504   6.157  10.677 -0.2198 -0.0897 -1.7061
27929SOL     OW89622   9.031   8.378   1.208 -0.7761 -0.6726  0.1613
27929SOL    HW189623   8.943   8.414   1.216 -0.9951 -1.3204  0.7162
27929SOL    HW289624   9.027   8.319   1.132 -0.7865 -0.6182  0.1195
27930SOL     OW89625   9.481   0.858   0.248 -0.2440 -0.7188 -0.3154
27930SOL    HW189626   9.463   0.878   0.340  2.5196  0.5071  0.0657
27930SOL    HW289627   9.553   0.795   0.251 -0.9892 -1.6790 -1.6663
27931SOL     OW89628   9.613   7.272   1.403  0.3184 -0.1190 -0.3748
27931SOL    HW189629   9.667   7.293   1.327 -0.7060 -1.1474 -1.4248
27931SOL    HW289630   9.628   7.344   1.464  1.3370  0.6100 -1.4545
27932SOL     OW89631   1.161   4.600   6.287 -0.1165 -0.4630  0.6506
27932SOL    HW189632   1.074   4.640   6.290  0.5645  1.5258 -1.7584
27932SOL    HW289633   1.218   4.666   6.326  0.5729 -0.7128  0.0842
27933SOL     OW89634   8.837   4.554   0.199  0.2048 -0.5603 -0.1726
27933SOL    HW189635   8.801   4.471   0.168 -1.5555  0.1226 -0.0447
27933SOL    HW289636   8.761   4.607   0.223  1.2923  0.9816  0.0750
27934SOL     OW89637  10.200   2.122  10.376  0.2358  0.3576  0.2803
27934SOL    HW189638  10.293   2.102  10.386  0.6266  1.7882 -0.1867
27934SOL    HW289639  10.167   2.130  10.466  1.0124  1.6206  0.4822
27935SOL     OW89640   5.515   2.392   9.156 -0.4376  0.0573  0.5556
27935SOL    HW189641   5.593   2.436   9.189 -0.3662 -0.3372  0.9255
27935SOL    HW289642   5.501   2.429   9.069  2.3112 -2.4227 -1.1433
27936SOL     OW89643   8.892   0.004   7.588 -0.3043 -0.1467  0.2823
27936SOL    HW189644   8.854   0.055   7.516  0.7485 -0.1524 -0.2888
27936SOL    HW289645   8.816  -0.030   7.635 -1.0141  0.3733 -0.4527
27937SOL     OW89646   1.996   2.409   7.877 -0.2317 -0.1622 -0.4998
27937SOL    HW189647   1.920   2.352   7.865 -0.6172  0.0340  0.8655
27937SOL    HW289648   1.972   2.467   7.949  1.6583 -0.9023  0.8170
27938SOL     OW89649   3.943  10.319   4.163 -0.4177 -0.3486 -0.1033
27938SOL    HW189650   3.973  10.278   4.244  0.7498  0.7773  0.0656
27938SOL    HW289651   4.012  10.300   4.099 -1.3069 -1.1898 -0.8408
27939SOL     OW89652   6.289   5.941   3.010  0.0406  0.0027 -0.1604
27939SOL    HW189653   6.348   5.929   3.084 -0.0128  1.0480  0.0599
27939SOL    HW289654   6.231   6.013   3.036 -1.1417 -0.7995 -0.4923
27940SOL     OW89655   5.950   6.675   2.100 -0.1499  0.2019  0.1793
27940SOL    HW189656   6.004   6.702   2.175  0.1468  0.6934 -0.2057
27940SOL    HW289657   6.013   6.659   2.030 -0.3003 -1.6998  0.4400
27941SOL     OW89658   9.242   6.342  10.501  0.1701  0.5130  0.3871
27941SOL    HW189659   9.206   6.431  10.504  1.2178  0.9177  2.1950
27941SOL    HW289660   9.327   6.352  10.459 -0.9132 -0.1588 -2.1580
27942SOL     OW89661   7.776   8.984   9.981 -0.0652 -0.5330 -0.3178
27942SOL    HW189662   7.800   8.994   9.889 -1.1660  0.6273 -0.5022
27942SOL    HW289663   7.807   8.896  10.004  0.6258 -0.6690 -1.6556
27943SOL     OW89664   4.990   5.204   2.550  0.2421 -0.2739 -0.0128
27943SOL    HW189665   4.955   5.292   2.563 -1.1766 -0.9001  0.6278
27943SOL    HW289666   4.957   5.177   2.465  1.6835  0.2315 -0.7770
27944SOL     OW89667   6.684   1.722   5.231 -0.0141  0.2218 -0.1256
27944SOL    HW189668   6.615   1.670   5.190 -0.5854  1.2200 -0.4760
27944SOL    HW289669   6.638   1.770   5.300  0.4686  0.3920  0.0770
27945SOL     OW89670   2.460   2.352   7.556  0.4881 -0.0502  0.0502
27945SOL    HW189671   2.410   2.385   7.631 -0.6483  0.5516 -0.9311
27945SOL    HW289672   2.465   2.258   7.570  2.8873  0.3002  2.3786
27946SOL     OW89673   9.935   5.910   4.043 -0.4764  0.0603 -0.1337
27946SOL    HW189674  10.014   5.888   4.091 -1.0774 -1.9349  0.0516
27946SOL    HW289675   9.918   6.001   4.064  1.4156  0.3568  0.3025
27947SOL     OW89676   4.042   4.282   2.950 -0.2435  0.7862  0.6870
27947SOL    HW189677   4.028   4.263   3.043  0.9469 -0.7830  0.5951
27947SOL    HW289678   4.059   4.196   2.911  1.9264  1.6540 -0.4675
27948SOL     OW89679   4.357   7.527   2.721 -0.0951  0.0860  0.1728
27948SOL    HW189680   4.275   7.496   2.683 -0.3897  2.1206 -0.9778
27948SOL    HW289681   4.413   7.449   2.724 -0.9919 -0.7142 -1.9982
27949SOL     OW89682   4.732   1.892   0.733  0.1315 -0.2178 -0.1698
27949SOL    HW189683   4.713   1.975   0.689 -0.9239 -0.0405  0.5722
27949SOL    HW289684   4.703   1.905   0.823  2.6738 -0.4206  0.7554
27950SOL     OW89685   5.701   6.188   9.089  0.0503 -0.4537 -0.4369
27950SOL    HW189686   5.739   6.244   9.022  0.8900 -0.8134 -0.2729
27950SOL    HW289687   5.710   6.238   9.170  3.2481 -1.7869  0.2045
27951SOL     OW89688   8.661   3.933   6.739 -0.3786 -0.9040 -0.7675
27951SOL    HW189689   8.567   3.920   6.751 -0.5107 -0.1847 -1.0339
27951SOL    HW289690   8.673   3.943   6.645 -0.1222 -0.3273 -0.6775
27952SOL     OW89691   4.371   6.781   8.991  0.6593 -0.1277  0.2409
27952SOL    HW189692   4.458   6.757   8.959  1.0483  2.1681 -0.6027
27952SOL    HW289693   4.319   6.790   8.911  0.8811  2.8929  0.3401
27953SOL     OW89694   7.921   1.325   6.772  0.1283  0.6295 -0.2445
27953SOL    HW189695   7.879   1.401   6.732  0.8508  1.3024  0.2460
27953SOL    HW289696   8.009   1.324   6.735 -0.2211 -0.6597 -1.1186
27954SOL     OW89697   1.686   7.897   3.465 -0.0964  0.0180 -0.4295
27954SOL    HW189698   1.609   7.949   3.486  0.6154  1.0639 -0.3406
27954SOL    HW289699   1.758   7.960   3.462  0.5119 -0.6810 -2.0521
27955SOL     OW89700   9.486   6.395   2.565  0.5152  0.0571  0.5724
27955SOL    HW189701   9.530   6.451   2.501  1.9526 -0.1307  1.3577
27955SOL    HW289702   9.527   6.417   2.648 -0.8734 -0.1668  1.3483
27956SOL     OW89703   2.401   0.856   9.500  0.4756  0.2744  0.1979
27956SOL    HW189704   2.316   0.820   9.477  0.3620 -0.8644  2.1234
27956SOL    HW289705   2.459   0.780   9.503  0.9964  0.6922  1.2192
27957SOL     OW89706   3.484   5.859  10.583 -0.2733  0.4123  0.4493
27957SOL    HW189707   3.574   5.827  10.587 -0.3444 -0.2890 -2.0067
27957SOL    HW289708   3.485   5.938  10.636  2.0777  0.9950 -0.3148
27958SOL     OW89709   5.616   6.317   0.340  0.0457 -0.0486 -0.4555
27958SOL    HW189710   5.700   6.362   0.345  0.0302 -0.1393  1.5617
27958SOL    HW289711   5.630   6.233   0.385 -1.4227  0.5165  1.2009
27959SOL     OW89712   1.800   4.701   3.255 -0.1675 -0.5340  0.0979
27959SOL    HW189713   1.800   4.750   3.173  0.6557  1.2788  1.1236
27959SOL    HW289714   1.755   4.619   3.234 -1.0500  0.3840 -1.8485
27960SOL     OW89715   9.417  10.667   5.266  0.1296 -0.3849 -0.3262
27960SOL    HW189716   9.503  10.670   5.223  0.8821  1.0198  1.1734
27960SOL    HW289717   9.373  10.747   5.236 -0.3364 -0.6939 -0.4630
27961SOL     OW89718   0.874   9.270   1.415 -0.2439  0.4570 -0.5959
27961SOL    HW189719   0.963   9.235   1.408 -0.9807 -1.3667 -1.4680
27961SOL    HW289720   0.876   9.326   1.493  2.0904  1.8711 -1.5866
27962SOL     OW89721   0.199   3.843   0.103  0.5529 -0.2354  0.1133
27962SOL    HW189722   0.248   3.925   0.098  0.1992 -0.0113  0.2877
27962SOL    HW289723   0.243   3.794   0.172 -0.0140  0.3418  0.9079
27963SOL     OW89724   4.375   1.067   1.057 -0.1314 -0.2605  0.3112
27963SOL    HW189725   4.296   1.038   1.101  0.2060 -1.0622  0.3978
27963SOL    HW289726   4.386   1.006   0.984  1.5310 -1.4585  1.5058
27964SOL     OW89727   6.066   4.081   8.419 -0.3347  0.5129 -0.7514
27964SOL    HW189728   6.157   4.052   8.410 -0.3058  0.5297 -0.5244
27964SOL    HW289729   6.016   4.022   8.363 -0.4844 -1.0522  0.9198
27965SOL     OW89730   6.736   0.830   3.817 -0.2112 -0.6903 -0.1505
27965SOL    HW189731   6.642   0.824   3.805 -0.6093  1.4935  1.3573
27965SOL    HW289732   6.766   0.888   3.747 -0.1821 -0.3071  0.1818
27966SOL     OW89733  10.514   7.755   8.499  0.4323  0.7239 -0.5127
27966SOL    HW189734  10.437   7.736   8.446  0.3640  1.9537 -0.8960
27966SOL    HW289735  10.563   7.673   8.500  0.4786  0.6579 -2.5689
27967SOL     OW89736   7.565   6.781   0.868  0.1743 -0.3167 -0.4432
27967SOL    HW189737   7.498   6.850   0.859  1.0476  0.5794 -0.2533
27967SOL    HW289738   7.641   6.816   0.822  1.6049  0.1793  2.1142
27968SOL     OW89739   4.922   3.270   1.728 -0.2560 -0.1549  0.1709
27968SOL    HW189740   5.014   3.295   1.719 -0.5191  1.6394  1.6964
27968SOL    HW289741   4.909   3.201   1.663  1.5090  1.3065 -1.8999
27969SOL     OW89742   5.046   1.441   6.626 -0.2318  0.3078  0.2474
27969SOL    HW189743   5.024   1.533   6.615 -0.8119  0.2221  0.6339
27969SOL    HW289744   4.969   1.403   6.668 -0.2794 -0.5009 -0.5494
27970SOL     OW89745  10.513   1.199   9.819  0.7932  0.0954 -0.5290
27970SOL    HW189746  10.464   1.237   9.746 -0.5688  1.6548  1.1159
27970SOL    HW289747  10.537   1.274   9.873  2.6179 -0.9337  0.1722
27971SOL     OW89748   0.914   9.242   9.748 -0.2628  0.6003 -0.1453
27971SOL    HW189749   0.953   9.236   9.835  2.3072  1.2062 -1.1688
27971SOL    HW289750   0.844   9.177   9.749 -1.0952  1.3779  2.6990
27972SOL     OW89751   0.876   8.781   6.482 -0.2725 -0.3196  0.2864
27972SOL    HW189752   0.895   8.798   6.575 -1.7973 -0.7164  0.6973
27972SOL    HW289753   0.820   8.854   6.456  0.8126  0.2368 -0.5896
27973SOL     OW89754   8.225   0.386   2.392 -0.1947  0.1107 -0.4685
27973SOL    HW189755   8.175   0.330   2.332 -0.1515 -0.8393  0.3434
27973SOL    HW289756   8.186   0.473   2.383 -0.2490 -0.0395 -1.7833
27974SOL     OW89757   4.348   5.512   8.082  0.0315 -0.0637  0.5771
27974SOL    HW189758   4.293   5.561   8.021 -0.9218 -0.8003  0.8263
27974SOL    HW289759   4.295   5.502   8.161  1.2043  0.7623  1.5094
27975SOL     OW89760   5.597  10.603  10.316  0.4389  0.0303 -0.1763
27975SOL    HW189761   5.589  10.663  10.242 -1.0878 -0.2017 -0.2394
27975SOL    HW289762   5.517  10.551  10.313 -0.1991  0.7214  2.2429
27976SOL     OW89763  10.186   0.261   9.441  0.4064  0.6221 -0.1768
27976SOL    HW189764  10.259   0.322   9.433  1.0188  0.0337  0.7739
27976SOL    HW289765  10.217   0.193   9.500 -1.6377  1.4289  1.9624
27977SOL     OW89766   2.687   1.522   6.100  0.1399 -0.1424  0.2218
27977SOL    HW189767   2.753   1.570   6.050  2.0145 -1.4230  1.3801
27977SOL    HW289768   2.678   1.439   6.054 -3.5986  1.2913 -2.1818
27978SOL     OW89769   9.669   0.419   4.530 -0.1718 -0.1069  0.3609
27978SOL    HW189770   9.749   0.438   4.578  0.3475 -0.6718 -0.2585
27978SOL    HW289771   9.599   0.438   4.592  0.4434  0.2626  0.9596
27979SOL     OW89772   9.299   5.122   0.359  0.2240  0.0286 -0.2705
27979SOL    HW189773   9.315   5.059   0.288  1.3219  0.8456 -0.7730
27979SOL    HW289774   9.273   5.203   0.314 -1.3350 -0.0672  0.3717
27980SOL     OW89775  10.579   8.462   2.530 -0.2882 -0.0485 -0.0547
27980SOL    HW189776  10.516   8.390   2.534 -0.0675 -0.3132 -1.0831
27980SOL    HW289777  10.652   8.432   2.584 -0.6944 -0.0722  0.5030
27981SOL     OW89778   4.296   0.107   2.098 -0.3138  0.7415 -0.3258
27981SOL    HW189779   4.249   0.183   2.132  0.0479 -0.2172  2.6243
27981SOL    HW289780   4.273   0.036   2.158  0.8202 -1.0180 -1.8683
27982SOL     OW89781   1.448   4.113   2.207  0.5127  0.2303  1.1950
27982SOL    HW189782   1.516   4.145   2.265  1.1602  1.5728 -0.2390
27982SOL    HW289783   1.488   4.038   2.161  0.8186  0.6263  0.8090
27983SOL     OW89784   4.031   9.323   2.062 -0.6077  0.4719 -0.5249
27983SOL    HW189785   4.067   9.412   2.058 -1.8743  0.9595 -2.4638
27983SOL    HW289786   3.952   9.332   2.116 -1.4444  0.8564 -1.7511
27984SOL     OW89787   5.918   3.848   7.207  0.0018  0.0215  0.4493
27984SOL    HW189788   5.979   3.865   7.136 -0.4251  1.8107  0.4594
27984SOL    HW289789   5.855   3.786   7.171  1.2006 -1.0281  0.1089
27985SOL     OW89790   4.967   3.319   0.503 -0.1650  0.5553  0.5192
27985SOL    HW189791   4.978   3.411   0.481  0.2281  0.9294  2.1082
27985SOL    HW289792   5.055   3.290   0.527 -0.7283  0.6800  3.0855
27986SOL     OW89793   9.843   8.607   9.866 -0.3596  0.0239  0.4957
27986SOL    HW189794   9.887   8.539   9.917 -0.8770 -0.8774 -0.2136
27986SOL    HW289795   9.914   8.660   9.830  0.0227  0.4342  1.8107
27987SOL     OW89796   6.133   8.361   1.171  0.0428 -0.5876 -0.6659
27987SOL    HW189797   6.215   8.337   1.214 -0.2192 -1.5544 -0.6880
27987SOL    HW289798   6.160   8.418   1.099  0.6495 -0.4671 -0.3486
27988SOL     OW89799   5.739   2.450   6.030  0.3032 -0.2383 -0.1126
27988SOL    HW189800   5.711   2.527   5.980 -0.6175 -0.1437  0.5288
27988SOL    HW289801   5.683   2.379   5.998  0.0080 -0.2704  0.4711
27989SOL     OW89802   3.916   7.732   1.179 -0.5212 -0.0085  0.1687
27989SOL    HW189803   3.992   7.758   1.128 -0.1568  0.4125  0.9171
27989SOL    HW289804   3.939   7.753   1.270 -1.3966 -0.1751  0.4387
27990SOL     OW89805   0.910   0.934   5.486 -0.5997 -0.8897  0.3729
27990SOL    HW189806   0.878   0.993   5.419  1.3321 -0.8349 -0.5621
27990SOL    HW289807   0.937   0.992   5.558  2.2531 -0.4338 -0.9417
27991SOL     OW89808   9.219  10.179   8.461 -0.9916  0.2317  0.1547
27991SOL    HW189809   9.275  10.217   8.393 -0.2941 -0.7926  0.1320
27991SOL    HW289810   9.132  10.175   8.421 -0.6603 -0.0297 -0.5481
27992SOL     OW89811   8.447   8.179   1.768 -0.3946  0.1978  0.0115
27992SOL    HW189812   8.495   8.096   1.774  2.8620  1.7945 -1.4634
27992SOL    HW289813   8.411   8.180   1.679  1.4419  1.1812 -0.7777
27993SOL     OW89814   1.631   9.074   3.541  0.1860 -0.2663 -0.2005
27993SOL    HW189815   1.621   9.034   3.455  1.2316  0.3294 -0.6222
27993SOL    HW289816   1.615   9.003   3.603  1.6624 -1.2746 -0.9222
27994SOL     OW89817   9.179   3.517   7.870 -0.5928 -0.0653  0.9497
27994SOL    HW189818   9.252   3.572   7.899 -1.4228  1.0011  1.0699
27994SOL    HW289819   9.117   3.520   7.942 -1.4771  0.3807  0.1813
27995SOL     OW89820   5.379   8.737   3.960 -0.5780  0.3921  0.1257
27995SOL    HW189821   5.379   8.821   3.914 -0.0055  0.2391 -0.1648
27995SOL    HW289822   5.467   8.729   3.996  0.4200 -1.4273 -2.3946
27996SOL     OW89823   9.876  10.335   7.715  0.3216 -0.0451 -0.4087
27996SOL    HW189824   9.969  10.319   7.698  0.6233  1.3337 -0.1761
27996SOL    HW289825   9.843  10.371   7.632  0.3779  0.9186 -0.0322
27997SOL     OW89826   3.150   3.373   7.055  0.4105 -0.6687 -0.4806
27997SOL    HW189827   3.152   3.295   7.110  1.1954 -1.4160 -1.5202
27997SOL    HW289828   3.242   3.387   7.030  0.1303 -0.1197 -1.2652
27998SOL     OW89829   1.264   5.454  10.653 -0.1632 -0.3134  0.2938
27998SOL    HW189830   1.248   5.537  10.607  0.2438 -0.5006 -0.1949
27998SOL    HW289831   1.355   5.433  10.632 -0.4654 -1.2285 -0.1432
27999SOL     OW89832   2.328   5.007   0.977  0.0803 -0.2859  0.0722
27999SOL    HW189833   2.366   4.975   0.896 -3.3103 -2.3583 -0.9225
27999SOL    HW289834   2.352   4.942   1.043  1.2902  0.4250  0.3667
28000SOL     OW89835   8.030   2.179   1.419 -0.7615  0.1474 -0.0991
28000SOL    HW189836   7.949   2.230   1.428 -0.4606  0.3291  1.9690
28000SOL    HW289837   8.012   2.098   1.466 -0.4776 -0.7682 -1.5198
28001SOL     OW89838   8.525   6.164   8.510  0.1179 -0.1570 -0.2431
28001SOL    HW189839   8.484   6.193   8.428 -0.8274 -0.9259 -0.0513
28001SOL    HW289840   8.563   6.079   8.489 -0.3101 -0.4511  0.1760
28002SOL     OW89841   9.559   8.109   3.722 -0.5093 -0.0512  0.0702
28002SOL    HW189842   9.476   8.153   3.704 -0.3059  1.8151  2.9214
28002SOL    HW289843   9.537   8.043   3.788  0.2319  0.5072  0.9040
28003SOL     OW89844  10.331   1.134   9.601  0.1156 -0.6877 -0.2549
28003SOL    HW189845  10.326   1.186   9.521 -0.1807  0.1628  0.3061
28003SOL    HW289846  10.401   1.071   9.585 -0.2210 -0.7965 -1.3377
28004SOL     OW89847   6.262   1.263   7.650 -0.0976 -0.2423  0.1647
28004SOL    HW189848   6.311   1.344   7.663  0.8297 -0.6193 -0.8266
28004SOL    HW289849   6.278   1.240   7.558 -1.9280 -0.5311 -0.1163
28005SOL     OW89850   1.463   7.899   9.236  0.2971  0.5381 -0.2246
28005SOL    HW189851   1.535   7.958   9.258  0.5625  1.8447 -3.9156
28005SOL    HW289852   1.385   7.953   9.243  0.3203  0.7758 -1.5468
28006SOL     OW89853   9.287   1.216   2.240  0.0519 -0.3740  0.5034
28006SOL    HW189854   9.369   1.177   2.270 -0.0477 -0.4386  0.6980
28006SOL    HW289855   9.223   1.191   2.307 -0.0972 -0.2148  0.4213
28007SOL     OW89856   5.881  10.234   2.014  0.0380  0.2089  0.0525
28007SOL    HW189857   5.787  10.235   2.033 -0.2462 -0.4927 -1.1841
28007SOL    HW289858   5.909  10.145   2.036  0.7897  0.8534  1.9442
28008SOL     OW89859  10.008   3.945   5.548  0.4550  0.1813  0.5234
28008SOL    HW189860  10.074   3.916   5.484  1.1577 -0.1648  1.3734
28008SOL    HW289861   9.924   3.933   5.504  0.7878 -2.0402  0.3906
28009SOL     OW89862   4.845   0.245   5.319 -0.1764 -0.5232  0.4625
28009SOL    HW189863   4.879   0.207   5.400 -0.9325  1.1351  1.6214
28009SOL    HW289864   4.750   0.236   5.326 -0.2657 -0.0961 -0.0994
28010SOL     OW89865   3.678   6.224   1.164 -0.0936  0.2497 -0.0982
28010SOL    HW189866   3.591   6.256   1.189  0.3107  2.2773 -1.0796
28010SOL    HW289867   3.699   6.158   1.231 -2.0351  0.2804  0.6160
28011SOL     OW89868   1.870   3.052   2.018 -0.1646  0.1969 -0.6856
28011SOL    HW189869   1.873   3.118   1.948  0.9731  1.8337  0.8095
28011SOL    HW289870   1.918   3.092   2.090  0.5512 -2.3125  0.3203
28012SOL     OW89871   3.794   6.604   2.605  0.3810  0.8216  0.6576
28012SOL    HW189872   3.805   6.595   2.511  2.4823 -0.2719  0.9256
28012SOL    HW289873   3.741   6.528   2.631 -0.8398  1.5316  0.2953
28013SOL     OW89874   4.311   1.345   0.987 -0.0280  0.2040 -0.1856
28013SOL    HW189875   4.248   1.345   0.915  0.0159  1.5867 -0.2346
28013SOL    HW289876   4.304   1.256   1.024 -2.8921  0.6437  0.5930
28014SOL     OW89877  10.682   2.800   6.143  0.7751 -0.3477  0.6232
28014SOL    HW189878  10.668   2.788   6.049 -1.8281  0.9339  0.7607
28014SOL    HW289879  10.722   2.887   6.150  0.9293 -0.4253  0.7043
28015SOL     OW89880   7.447   7.290   5.862  0.0623  0.4227  0.4208
28015SOL    HW189881   7.538   7.262   5.876  0.5548  2.0954  0.7308
28015SOL    HW289882   7.421   7.330   5.944 -0.8366  0.2896  0.2050
28016SOL     OW89883   7.433   5.641   3.039  0.6820  0.6774 -0.1245
28016SOL    HW189884   7.483   5.689   3.105  0.4184  0.0360  0.5633
28016SOL    HW289885   7.351   5.618   3.084 -0.7183  2.5980 -1.5364
28017SOL     OW89886   0.494   2.087   5.681 -0.0468 -0.2281 -0.2439
28017SOL    HW189887   0.464   2.120   5.765  0.1597  1.6835 -0.8781
28017SOL    HW289888   0.421   2.101   5.621  0.3610 -0.0818 -0.7246
28018SOL     OW89889   0.055   3.062   9.255 -0.9808  0.6142 -0.2277
28018SOL    HW189890   0.106   3.098   9.328  0.0157  0.1750 -0.6917
28018SOL    HW289891   0.119   3.015   9.201 -1.9404 -0.2607 -0.6396
28019SOL     OW89892   3.260   9.516   5.549 -0.4535 -0.1118  0.1834
28019SOL    HW189893   3.322   9.586   5.569 -1.8338  1.0874  0.4358
28019SOL    HW289894   3.206   9.551   5.478 -0.0492 -1.6315 -0.9301
28020SOL     OW89895   7.919   6.803   6.949  0.0963  0.0276  0.2091
28020SOL    HW189896   7.951   6.750   7.022 -2.3891 -2.0231 -0.0349
28020SOL    HW289897   7.913   6.742   6.876 -0.7682  1.1984 -0.7339
28021SOL     OW89898   6.998   4.750   7.393  0.1443  0.1354 -0.2117
28021SOL    HW189899   6.981   4.797   7.311  0.5148  0.7649  0.0660
28021SOL    HW289900   6.972   4.660   7.375 -1.4170  0.6243 -0.4704
28022SOL     OW89901   4.205   9.837   6.325 -0.0485  0.1318 -0.2501
28022SOL    HW189902   4.177   9.780   6.253 -1.6208 -2.0301  1.8973
28022SOL    HW289903   4.134   9.901   6.334 -1.1929 -1.2473  0.9810
28023SOL     OW89904   9.657   1.012   3.802  0.0664  0.0965 -0.4464
28023SOL    HW189905   9.613   1.032   3.884  0.2690 -0.1323 -0.2796
28023SOL    HW289906   9.588   0.982   3.744 -0.1716  0.8257 -0.5541
28024SOL     OW89907   4.032   6.528   2.707  0.3933 -0.6603 -0.6732
28024SOL    HW189908   3.950   6.546   2.661  0.6648  0.3339 -0.7930
28024SOL    HW289909   4.031   6.588   2.782  1.6824  0.4557 -1.5088
28025SOL     OW89910   0.276   1.800   5.115 -0.6058  0.4385  0.2230
28025SOL    HW189911   0.262   1.858   5.040  1.0996  0.2736 -0.2574
28025SOL    HW289912   0.344   1.739   5.086  0.5699  0.7767  2.1009
28026SOL     OW89913   4.595   8.318   4.351  0.0421 -0.1627 -0.0193
28026SOL    HW189914   4.511   8.354   4.378 -0.5914 -0.8118 -1.0412
28026SOL    HW289915   4.588   8.309   4.256  0.5943 -1.8549  0.0640
28027SOL     OW89916   4.757   3.438   4.970 -0.2563 -0.6616  0.0510
28027SOL    HW189917   4.680   3.406   4.922 -0.2364  2.6653 -2.5362
28027SOL    HW289918   4.829   3.383   4.939 -0.8631 -0.8583 -1.0557
28028SOL     OW89919   3.474   5.271   4.397 -0.2036  0.5281  0.2164
28028SOL    HW189920   3.529   5.346   4.373  1.7557 -0.1970  2.1519
28028SOL    HW289921   3.401   5.310   4.445 -0.2901  1.3301 -0.5229
28029SOL     OW89922   5.783   3.983  10.314  0.9154 -0.0052 -0.1334
28029SOL    HW189923   5.755   4.032  10.391  0.6535 -0.3199 -0.0258
28029SOL    HW289924   5.705   3.937  10.284  1.3421 -1.0149  0.2626
28030SOL     OW89925   6.885   0.218   3.777 -0.6727  0.4622  0.1521
28030SOL    HW189926   6.833   0.289   3.814  0.2925  1.5425 -0.4825
28030SOL    HW289927   6.973   0.233   3.811 -0.0041  0.8370 -1.6428
28031SOL     OW89928   0.160   6.238   1.940  0.4753 -0.1060 -0.5077
28031SOL    HW189929   0.090   6.192   1.894  0.4184 -1.2235  0.6509
28031SOL    HW289930   0.115   6.294   2.003  0.5839  0.6824 -1.1139
28032SOL     OW89931   5.254   4.705   0.245  0.6186  0.5339 -0.2938
28032SOL    HW189932   5.250   4.752   0.328 -1.0698  2.7421 -1.4925
28032SOL    HW289933   5.281   4.771   0.181  2.0317 -1.1372 -1.5138
28033SOL     OW89934   4.175  10.562   3.306 -0.0106  0.2155  0.2910
28033SOL    HW189935   4.096  10.605   3.339 -0.2425  0.0874 -0.0986
28033SOL    HW289936   4.187  10.486   3.362 -1.2118 -0.8130 -0.7822
28034SOL     OW89937   9.714   8.531   8.582  0.1192  0.2265  0.0177
28034SOL    HW189938   9.719   8.498   8.672  1.6900 -1.5146 -0.6311
28034SOL    HW289939   9.673   8.460   8.533 -1.3206  1.4211 -0.5534
28035SOL     OW89940   1.971   5.440   0.118 -0.4971 -0.1282 -0.0090
28035SOL    HW189941   1.881   5.408   0.108 -1.2295  1.7764 -0.1350
28035SOL    HW289942   2.008   5.434   0.030 -0.5740 -0.7068 -0.0054
28036SOL     OW89943   1.246   4.266  10.337  0.2366 -0.3846 -0.1040
28036SOL    HW189944   1.235   4.172  10.326  1.3015 -0.4831 -0.4890
28036SOL    HW289945   1.341   4.279  10.334  0.1159  0.6622  0.2701
28037SOL     OW89946   5.270   6.937   2.171  0.3810  0.3080 -0.2086
28037SOL    HW189947   5.198   6.874   2.175 -1.3270  2.1613 -0.3587
28037SOL    HW289948   5.326   6.914   2.245 -0.9213 -0.5252  0.5496
28038SOL     OW89949   2.470   2.514   8.128 -0.3849 -0.0547  0.2454
28038SOL    HW189950   2.546   2.501   8.071 -0.8917  2.8106 -1.2744
28038SOL    HW289951   2.504   2.559   8.205 -0.2122 -0.9660  0.7173
28039SOL     OW89952   1.570   6.795   0.074  0.5066  0.2924  0.0790
28039SOL    HW189953   1.508   6.743   0.022  0.0758 -1.1414  1.9044
28039SOL    HW289954   1.621   6.843   0.010 -0.1239 -1.2467 -1.6608
28040SOL     OW89955   2.391   8.982   7.665 -0.4864 -0.4905 -0.5929
28040SOL    HW189956   2.406   8.892   7.693  0.0445  0.5026  2.8393
28040SOL    HW289957   2.300   9.000   7.690 -0.3745  0.1215 -0.6051
28041SOL     OW89958   9.428   8.701   2.440 -0.4379 -0.2792  0.2019
28041SOL    HW189959   9.469   8.647   2.373 -0.0316 -0.9030  0.9307
28041SOL    HW289960   9.367   8.642   2.485 -1.7269  0.4846 -0.4871
28042SOL     OW89961   0.655   3.987   1.675  0.2092 -0.0873 -0.1544
28042SOL    HW189962   0.693   4.051   1.734 -0.2260 -0.4597  0.5366
28042SOL    HW289963   0.597   3.935   1.730 -0.1782 -0.4572 -0.9024
28043SOL     OW89964   0.191   5.453   3.484  0.0790 -0.4572 -0.4854
28043SOL    HW189965   0.251   5.455   3.409  0.3905 -0.3373 -0.2371
28043SOL    HW289966   0.234   5.508   3.550 -0.6967  0.2782 -0.5892
28044SOL     OW89967   7.684  10.596   1.376  0.2581  0.3925  0.3863
28044SOL    HW189968   7.597  10.559   1.392  0.5662 -0.0791  1.0091
28044SOL    HW289969   7.742  10.548   1.436  0.9013  0.8953  0.1755
28045SOL     OW89970   8.816   2.154   0.601 -0.1492 -0.0129 -0.1828
28045SOL    HW189971   8.730   2.190   0.626  0.0436  0.7729 -0.6166
28045SOL    HW289972   8.842   2.099   0.676 -1.1996 -0.5766 -0.2114
28046SOL     OW89973   5.155   2.703   4.606  0.2261 -0.0422 -0.4269
28046SOL    HW189974   5.067   2.734   4.586 -0.5138 -1.5744  0.2312
28046SOL    HW289975   5.213   2.773   4.578 -1.1390  0.5876 -1.8157
28047SOL     OW89976   7.026   6.937   3.730  0.2400  0.2602  0.0664
28047SOL    HW189977   6.956   6.972   3.784 -0.1647 -0.3306 -0.0708
28047SOL    HW289978   7.054   7.011   3.676 -0.6218  0.3683 -0.2366
28048SOL     OW89979   8.250   3.244   6.688  0.0746  0.2369 -0.0988
28048SOL    HW189980   8.157   3.261   6.705 -0.3066 -1.3712 -0.4059
28048SOL    HW289981   8.288   3.229   6.774  0.1402  1.2445  0.0586
28049SOL     OW89982   4.356   4.969   7.876 -0.0218 -0.0865 -0.4061
28049SOL    HW189983   4.296   4.916   7.823  0.6604 -0.7347 -0.5422
28049SOL    HW289984   4.355   5.055   7.834 -0.5005 -0.2217 -0.6781
28050SOL     OW89985  10.502   8.764   1.835  0.2000  0.1788  0.6650
28050SOL    HW189986  10.412   8.733   1.828  0.5307 -0.5115 -1.5846
28050SOL    HW289987  10.552   8.704   1.779  1.6313  1.9900 -0.1269
28051SOL     OW89988   1.822   1.118   2.587  0.1876  0.1542  0.0915
28051SOL    HW189989   1.795   1.026   2.579 -1.5732  0.5560  0.8707
28051SOL    HW289990   1.802   1.156   2.502 -2.7122  0.6271  0.8697
28052SOL     OW89991   9.743   7.689   0.631 -0.2858  0.2989 -0.1269
28052SOL    HW189992   9.661   7.731   0.658 -0.6942  1.8386 -3.4019
28052SOL    HW289993   9.718   7.599   0.610 -0.6259  0.1052  1.0170
28053SOL     OW89994   7.423   6.289   9.187  0.5184  0.0691 -0.0532
28053SOL    HW189995   7.485   6.224   9.219  0.8671  1.3002  1.8910
28053SOL    HW289996   7.339   6.263   9.225  0.3421 -0.1103 -0.5527
28054SOL     OW89997   4.860   4.691   2.962 -0.3940 -0.6094 -0.3629
28054SOL    HW189998   4.786   4.632   2.952 -1.2251  0.4591 -0.5915
28054SOL    HW289999   4.864   4.709   3.056 -0.4234 -0.6774 -0.3489
28055SOL     OW90000   5.947   3.154   2.019 -0.3017  0.6227 -0.1833
28055SOL    HW190001   5.953   3.099   2.098  1.9729 -0.8679 -1.2726
28055SOL    HW290002   5.971   3.241   2.049  0.4359  0.1003  0.8485
28056SOL     OW90003   7.168   0.258   1.702  0.6323 -0.2815 -0.3574
28056SOL    HW190004   7.176   0.232   1.794  0.3320  0.5207 -0.0869
28056SOL    HW290005   7.247   0.309   1.684  0.4363  0.0170 -0.3800
28057SOL     OW90006   9.536   3.202   9.440 -0.0434  0.4462 -0.6675
28057SOL    HW190007   9.629   3.217   9.456 -0.2152  0.4513  0.4151
28057SOL    HW290008   9.531   3.178   9.348  1.4167 -2.5037 -0.1027
28058SOL     OW90009   3.174   4.732   7.349 -0.8421 -0.0323  0.1246
28058SOL    HW190010   3.236   4.773   7.410 -1.4988  3.9637 -1.6038
28058SOL    HW290011   3.225   4.662   7.307  1.8116  1.5932  0.4139
28059SOL     OW90012  10.712   6.521   9.840 -0.1151  0.2205  0.0883
28059SOL    HW190013  10.667   6.587   9.786  0.8930  0.3446 -0.6302
28059SOL    HW290014  10.759   6.572   9.906 -0.8204  0.1016  0.7003
28060SOL     OW90015   4.001   9.953   8.009 -0.1569  0.1381  0.9289
28060SOL    HW190016   4.057  10.018   7.967 -0.5809  0.3279  0.6604
28060SOL    HW290017   4.059   9.910   8.073  0.0914  0.8604  1.1969
28061SOL     OW90018  10.159   3.201   5.207 -0.3669 -0.1332  0.5570
28061SOL    HW190019  10.107   3.199   5.126 -0.6627 -0.3065  0.7449
28061SOL    HW290020  10.107   3.150   5.269 -1.2632  1.8614  1.5360
28062SOL     OW90021   2.546   4.447  10.190  0.1269  0.6565 -0.3359
28062SOL    HW190022   2.564   4.354  10.202 -0.8616  0.2862 -1.4739
28062SOL    HW290023   2.523   4.455  10.097 -1.8487  1.6543  0.1805
28063SOL     OW90024   3.496   8.322   0.342 -0.3721  0.1842  0.3574
28063SOL    HW190025   3.516   8.261   0.413  0.4820 -0.9614 -0.7992
28063SOL    HW290026   3.497   8.408   0.383 -0.8025 -0.4981  1.8926
28064SOL     OW90027   8.752  10.709   4.697 -0.7318  0.1942 -0.1798
28064SOL    HW190028   8.678  10.762   4.665 -0.4210 -0.8759 -2.9561
28064SOL    HW290029   8.804  10.691   4.619  0.3868 -2.3072  1.0306
28065SOL     OW90030   4.424   0.230   8.479  0.3967 -0.0902 -0.0406
28065SOL    HW190031   4.414   0.306   8.536 -0.7291 -0.2397 -0.0165
28065SOL    HW290032   4.438   0.268   8.392 -0.8891  0.1676 -0.1522
28066SOL     OW90033   6.037   8.676   0.112 -0.0708  0.1432 -0.3267
28066SOL    HW190034   6.110   8.732   0.137  0.9032  0.1551 -2.9250
28066SOL    HW290035   6.078   8.603   0.066 -1.6221 -0.5821 -0.6056
28067SOL     OW90036   3.051   7.790   7.777 -0.2013  0.1503 -0.0208
28067SOL    HW190037   2.987   7.761   7.712  0.6942  1.5165 -1.5868
28067SOL    HW290038   3.094   7.710   7.806 -1.9366 -0.6941  0.3832
28068SOL     OW90039   8.768   4.295   9.267 -0.3936  0.1567  0.2711
28068SOL    HW190040   8.709   4.223   9.288  0.4609  0.1049  2.8928
28068SOL    HW290041   8.849   4.253   9.239 -0.8222  0.2047 -1.1448
28069SOL     OW90042   1.759   4.377   0.695  0.3101  0.2280  0.5659
28069SOL    HW190043   1.749   4.290   0.657  0.1185  0.3319  0.3746
28069SOL    HW290044   1.711   4.435   0.635 -0.1219  0.3705  1.0394
28070SOL     OW90045  10.616   6.100   9.504  0.4811  0.3694  0.1155
28070SOL    HW190046  10.555   6.027   9.500  0.2958  0.5598 -0.9980
28070SOL    HW290047  10.686   6.070   9.562  0.9578 -1.1457 -1.1560
28071SOL     OW90048   4.617   5.133   5.216  0.6296  0.2551 -0.1028
28071SOL    HW190049   4.657   5.155   5.132 -1.1354  2.4177 -0.4965
28071SOL    HW290050   4.603   5.218   5.258 -1.1253 -0.5677  1.0864
28072SOL     OW90051   8.657   5.717   9.097  0.7464  0.0039  0.1994
28072SOL    HW190052   8.657   5.693   9.004 -1.6393  0.4080  0.0483
28072SOL    HW290053   8.634   5.636   9.143  0.9386  0.0472  0.3764
28073SOL     OW90054   7.553   9.952   3.911  0.0831  0.3564 -0.2112
28073SOL    HW190055   7.611  10.023   3.939  0.6731  0.1201 -0.8074
28073SOL    HW290056   7.605   9.902   3.849  0.4058 -1.7902  1.6632
28074SOL     OW90057   0.036   4.668   3.926 -0.1119 -0.2190 -0.0238
28074SOL    HW190058   0.115   4.690   3.877  0.7744  2.0356  2.2119
28074SOL    HW290059  -0.014   4.749   3.929 -0.6704 -0.5770  1.7673
28075SOL     OW90060   2.146   4.348   9.824 -0.0210  0.2719  0.0524
28075SOL    HW190061   2.226   4.394   9.848 -0.0122  0.2083  0.1431
28075SOL    HW290062   2.091   4.416   9.784 -0.3976  0.5806  1.0784
28076SOL     OW90063   6.231   8.078   1.279 -0.3262  0.4310  0.1507
28076SOL    HW190064   6.297   8.126   1.229  0.6808 -1.9688 -0.9607
28076SOL    HW290065   6.160   8.064   1.217 -1.2923  1.6868  0.9126
28077SOL     OW90066   8.624   1.716   0.287  0.1208 -0.2206  0.1148
28077SOL    HW190067   8.713   1.741   0.314 -0.2237  1.0709  0.1324
28077SOL    HW290068   8.583   1.798   0.261 -1.3857 -0.6411  1.0160
28078SOL     OW90069   6.125   7.557  10.167 -0.1358 -0.5439  0.1576
28078SOL    HW190070   6.170   7.622  10.113  0.3113 -0.5916  0.4678
28078SOL    HW290071   6.176   7.477  10.155 -2.6303 -1.8715 -3.0290
28079SOL     OW90072   6.642   2.975   1.594  0.0353  0.4701 -0.0203
28079SOL    HW190073   6.571   2.976   1.529 -0.1528  4.4177 -0.0186
28079SOL    HW290074   6.722   2.981   1.542  0.1776 -0.5645  0.0618
28080SOL     OW90075   3.182  10.509  10.020  0.0813 -0.1044  0.4707
28080SOL    HW190076   3.095  10.532   9.986  0.3954  0.1102 -0.1926
28080SOL    HW290077   3.242  10.525   9.947  0.4280 -2.2888  0.2050
28081SOL     OW90078   6.492   7.167   5.144 -0.0331 -0.4465 -0.0169
28081SOL    HW190079   6.428   7.138   5.208 -0.4469 -0.3353 -0.3761
28081SOL    HW290080   6.491   7.099   5.076 -0.4542  0.0203 -0.4847
28082SOL     OW90081   6.391   6.200   9.659 -0.1372 -0.0485  0.2798
28082SOL    HW190082   6.394   6.111   9.697  0.7393 -0.5192 -0.8388
28082SOL    HW290083   6.406   6.258   9.734  2.6635 -0.9952  0.5672
28083SOL     OW90084   1.167   8.638  10.110  0.0972  0.6078 -0.0765
28083SOL    HW190085   1.141   8.695  10.182  1.0707  1.0448 -0.0533
28083SOL    HW290086   1.247   8.594  10.141 -0.7411 -0.9512 -0.0081
28084SOL     OW90087   7.368   2.174   4.763  0.3915 -0.0086  0.4160
28084SOL    HW190088   7.309   2.239   4.800 -0.8293 -0.0534 -1.3187
28084SOL    HW290089   7.319   2.092   4.766 -0.2380  0.1683 -2.1629
28085SOL     OW90090   7.765  10.578   6.619 -0.2254 -0.0260 -0.7283
28085SOL    HW190091   7.669  10.571   6.618 -0.2617 -0.0253  0.7503
28085SOL    HW290092   7.784  10.641   6.689  0.8931 -1.3021  0.1691
28086SOL     OW90093   5.974   3.263   1.320 -0.0992 -0.0429  0.6325
28086SOL    HW190094   5.982   3.170   1.344 -0.3164  0.0939  1.2603
28086SOL    HW290095   5.993   3.310   1.401 -0.4187  0.4504  0.4254
28087SOL     OW90096   9.216   7.895   7.789  0.0217  0.5845 -0.0604
28087SOL    HW190097   9.161   7.817   7.782 -0.1315  0.7904 -1.2769
28087SOL    HW290098   9.280   7.873   7.857 -0.8365 -0.0923  0.5530
28088SOL     OW90099   0.935   0.398   7.646 -0.5952  0.3184 -0.4142
28088SOL    HW190100   0.851   0.431   7.677 -0.7511 -0.9586  0.6441
28088SOL    HW290101   0.914   0.348   7.567 -0.7157  0.6203 -0.5747
28089SOL     OW90102   6.505   6.111   0.872  0.0113  0.4007 -0.3517
28089SOL    HW190103   6.509   6.074   0.784  0.2659  0.6277 -0.4362
28089SOL    HW290104   6.496   6.205   0.858  0.9840  0.5335 -0.1364
28090SOL     OW90105   7.187   5.033   2.735 -0.1471 -0.3194  0.3234
28090SOL    HW190106   7.193   5.110   2.791  0.7030  0.0019 -0.1830
28090SOL    HW290107   7.203   4.959   2.794  0.0151 -0.0375  0.6351
28091SOL     OW90108   6.521  10.686   0.414 -0.0504  0.1068 -0.3830
28091SOL    HW190109   6.433  10.651   0.399 -0.2059  0.6836 -0.8369
28091SOL    HW290110   6.521  10.770   0.369  0.9162 -0.1472 -0.8850
28092SOL     OW90111   0.753  10.017   7.099 -0.5116  0.2071 -0.2664
28092SOL    HW190112   0.674  10.019   7.152 -1.0359  0.2243 -1.0338
28092SOL    HW290113   0.807  10.089   7.133 -1.6512  1.4400 -0.9761
28093SOL     OW90114   6.043   8.315   2.039 -0.2420 -0.4591  0.1975
28093SOL    HW190115   6.123   8.280   2.000 -0.3793  0.1122 -0.6237
28093SOL    HW290116   6.058   8.308   2.133  0.1040 -1.8300  0.0556
28094SOL     OW90117   3.902   2.011   8.615 -0.0615  0.7246 -0.3327
28094SOL    HW190118   3.935   1.930   8.575  2.2983  0.6252  1.5433
28094SOL    HW290119   3.845   1.980   8.685 -0.1724  0.7245 -0.4229
28095SOL     OW90120   5.904   7.317   0.560  0.1382 -0.0794 -0.4678
28095SOL    HW190121   5.904   7.402   0.605 -2.7497 -0.2396  0.0174
28095SOL    HW290122   5.931   7.254   0.627 -0.2808  0.1496 -0.0819
28096SOL     OW90123   0.059   2.272   6.613  0.3458  0.3432  0.3344
28096SOL    HW190124   0.086   2.182   6.599  1.5722  0.7554 -0.1243
28096SOL    HW290125  -0.029   2.266   6.649 -0.6494 -0.9522 -2.1007
28097SOL     OW90126   6.734   9.216   6.018 -0.1146 -0.5501 -0.3470
28097SOL    HW190127   6.786   9.269   5.958 -0.1056  2.1493  1.8138
28097SOL    HW290128   6.649   9.207   5.976  0.3373 -0.0068 -1.3999
28098SOL     OW90129   4.822   1.133   6.359  0.7480 -0.1789  0.2277
28098SOL    HW190130   4.861   1.071   6.298  2.7265  0.0577  1.1980
28098SOL    HW290131   4.875   1.212   6.351 -1.0925  1.0855 -0.2329
28099SOL     OW90132   2.767   6.191   8.018  0.6716  0.6461 -0.2085
28099SOL    HW190133   2.717   6.272   8.015  0.3986  0.4574 -1.1116
28099SOL    HW290134   2.728   6.136   7.950  0.4684 -0.4715  0.7710
28100SOL     OW90135   0.689   5.835   0.509  0.0099 -0.0738  0.3800
28100SOL    HW190136   0.610   5.886   0.525 -0.3393  0.0025 -1.3991
28100SOL    HW290137   0.660   5.761   0.456  1.1512  0.1397 -0.6134
28101SOL     OW90138   5.445   5.605   6.362 -0.0218  0.1483 -0.4915
28101SOL    HW190139   5.380   5.586   6.295  0.1226 -0.0379 -0.5789
28101SOL    HW290140   5.430   5.697   6.384  0.4123  0.4201 -1.3076
28102SOL     OW90141   1.311   9.366   8.406 -0.4368  0.4292  0.0256
28102SOL    HW190142   1.240   9.392   8.348  0.0063 -0.1436 -0.7881
28102SOL    HW290143   1.391   9.382   8.356  0.0457  1.3187  1.0205
28103SOL     OW90144   5.689   3.396   5.114  0.2187  0.0325 -0.0917
28103SOL    HW190145   5.604   3.369   5.150 -0.2472  0.0272 -1.1410
28103SOL    HW290146   5.668   3.470   5.057  1.0121  0.4182  0.1126
28104SOL     OW90147   6.650   5.323   0.635  0.1507  0.2601  0.4079
28104SOL    HW190148   6.596   5.360   0.705  0.2659 -2.3463  1.9946
28104SOL    HW290149   6.713   5.392   0.614 -1.2998  1.9201  1.2525
28105SOL     OW90150   0.667   8.764   4.915  0.1575 -0.5045  0.1767
28105SOL    HW190151   0.642   8.672   4.912  1.4876 -0.8682 -0.1798
28105SOL    HW290152   0.743   8.767   4.973  0.1242  0.3684  0.1892
28106SOL     OW90153   4.268   1.933   8.699  0.6207 -0.6228 -0.2625
28106SOL    HW190154   4.251   2.018   8.659  0.0570 -0.3035  0.6159
28106SOL    HW290155   4.324   1.888   8.636 -1.6167 -0.8260 -2.2314
28107SOL     OW90156   3.897   2.924   8.043  0.1888  0.1134  0.4163
28107SOL    HW190157   3.802   2.919   8.051 -0.0243 -0.5400 -1.8394
28107SOL    HW290158   3.927   2.834   8.062  0.0461 -0.4073 -1.6108
28108SOL     OW90159   3.011   9.770   6.112  0.2716 -0.2008 -0.2275
28108SOL    HW190160   2.931   9.812   6.081  0.6975  0.9373  0.1512
28108SOL    HW290161   3.081   9.831   6.088  1.4128 -2.3819 -3.0268
28109SOL     OW90162   7.882   5.109   5.221 -0.3393 -0.6224  0.2730
28109SOL    HW190163   7.888   5.200   5.191  1.4714 -0.7157  0.2085
28109SOL    HW290164   7.950   5.102   5.289 -0.4411 -1.9358  0.2664
28110SOL     OW90165   6.682   5.902   8.669  0.0665 -0.4558  0.1408
28110SOL    HW190166   6.622   5.861   8.731 -0.0179 -1.1637 -0.3988
28110SOL    HW290167   6.770   5.882   8.703  0.0319 -1.3152 -0.2547
28111SOL     OW90168   8.661   9.716   1.925 -0.6598  0.7146 -0.2547
28111SOL    HW190169   8.684   9.738   2.015 -0.9976 -1.0991  0.3200
28111SOL    HW290170   8.743   9.727   1.876 -0.1171  0.4041  0.5519
28112SOL     OW90171   4.621   7.955   2.051  0.8009  0.3284  0.4697
28112SOL    HW190172   4.655   7.960   2.141 -0.1089  1.3280  0.7672
28112SOL    HW290173   4.561   8.029   2.044  0.8896  0.2775 -0.9857
28113SOL     OW90174   2.141   4.734   2.752 -0.1480 -0.4965  0.0285
28113SOL    HW190175   2.127   4.703   2.663 -1.1016  0.0968 -0.0452
28113SOL    HW290176   2.220   4.688   2.782 -0.3964 -1.4630 -0.7572
28114SOL     OW90177   1.514   8.396   6.216  0.1901 -0.8495  0.3063
28114SOL    HW190178   1.519   8.474   6.272 -1.6951  0.9267 -1.7965
28114SOL    HW290179   1.464   8.425   6.140  1.1136 -3.6358 -1.4912
28115SOL     OW90180   8.834   3.236  10.287 -0.5579  0.4793  0.2749
28115SOL    HW190181   8.788   3.166  10.240  0.3613 -0.9107  1.3596
28115SOL    HW290182   8.813   3.315  10.238 -4.3758  0.0579  0.8634
28116SOL     OW90183   0.712   2.207   5.721 -0.4696 -0.6735  0.2739
28116SOL    HW190184   0.625   2.169   5.728 -0.5488 -0.4822  0.3323
28116SOL    HW290185   0.712   2.252   5.637 -0.8979  0.5008  0.8845
28117SOL     OW90186   5.432   0.130   3.214 -0.1255 -0.2938  0.1928
28117SOL    HW190187   5.488   0.195   3.171 -0.3282 -0.3338 -0.1367
28117SOL    HW290188   5.472   0.117   3.300  1.1087 -1.2479 -0.4873
28118SOL     OW90189   4.005   2.029   5.038  0.3453  0.2208  0.4895
28118SOL    HW190190   4.024   2.112   4.994 -0.2467 -1.0480 -2.3642
28118SOL    HW290191   3.949   2.054   5.112 -2.1262  2.2185 -1.8406
28119SOL     OW90192   1.675   4.148   6.224  0.4229  0.1141 -0.0016
28119SOL    HW190193   1.697   4.058   6.197  0.5554  0.0089  0.4424
28119SOL    HW290194   1.693   4.201   6.147  2.1708  0.0232  0.2977
28120SOL     OW90195   6.159   7.591   6.148 -0.3432 -0.3868  0.3495
28120SOL    HW190196   6.198   7.541   6.077  0.8505 -0.0264  0.7274
28120SOL    HW290197   6.191   7.681   6.136 -1.9491  0.1828  0.0395
28121SOL     OW90198   2.797   3.834   1.999 -0.1424 -0.2478 -0.5409
28121SOL    HW190199   2.854   3.824   2.075 -2.3824 -2.2389  1.0142
28121SOL    HW290200   2.791   3.929   1.987  0.5127  0.1182  1.5956
28122SOL     OW90201   0.956   8.774   0.158 -0.1720 -0.1111 -0.3188
28122SOL    HW190202   0.926   8.708   0.221 -1.2963  0.7522  0.0766
28122SOL    HW290203   0.877   8.801   0.112  0.4724  0.0963 -1.3171
28123SOL     OW90204   6.483   0.585   1.754 -0.1743 -0.9189 -0.5493
28123SOL    HW190205   6.399   0.541   1.766 -0.7003 -0.1178 -1.1447
28123SOL    HW290206   6.514   0.603   1.843  0.2181 -2.7429 -0.2830
28124SOL     OW90207   8.592   1.746   9.725  0.2321 -0.3367  0.0076
28124SOL    HW190208   8.560   1.743   9.635  0.3509 -0.4184 -0.0329
28124SOL    HW290209   8.598   1.654   9.752  2.9481 -0.5102 -0.8908
28125SOL     OW90210   8.915   1.407   6.642  0.0109  0.2867  0.0901
28125SOL    HW190211   8.975   1.441   6.576  1.7646 -0.5780  1.1632
28125SOL    HW290212   8.913   1.312   6.626  0.1129  0.1267  0.9958
28126SOL     OW90213   3.889   4.733   7.630 -0.2452  0.6317 -0.4432
28126SOL    HW190214   3.841   4.698   7.555  1.2653  1.9062 -2.0681
28126SOL    HW290215   3.821   4.760   7.691 -1.5705  1.2276 -2.1274
28127SOL     OW90216   3.074   2.453   6.676  0.1533  0.6973 -0.4500
28127SOL    HW190217   3.144   2.452   6.742 -2.2875 -0.0677  2.3439
28127SOL    HW290218   3.023   2.531   6.696 -0.6578  0.4373 -1.4344
28128SOL     OW90219   0.039  10.097   9.690 -0.2224  0.0001 -0.8163
28128SOL    HW190220  -0.034  10.159   9.698 -1.0797 -1.0693  0.1018
28128SOL    HW290221   0.114  10.151   9.665 -0.8137  1.4922  0.4520
28129SOL     OW90222   3.456   0.033   9.469 -0.2227 -0.6705 -0.2192
28129SOL    HW190223   3.505   0.001   9.393  0.1657 -1.7145  0.4519
28129SOL    HW290224   3.522   0.074   9.524 -0.4889  0.0036 -0.3954
28130SOL     OW90225   9.096   3.350   6.096 -0.0818 -0.0081 -0.0816
28130SOL    HW190226   9.062   3.361   6.007  0.0053  1.6537  0.0536
28130SOL    HW290227   9.176   3.298   6.086 -0.4306 -0.3896 -0.8927
28131SOL     OW90228   2.328   5.412   2.769 -1.3009  0.7048 -0.3864
28131SOL    HW190229   2.275   5.454   2.701 -0.6355  1.6854 -0.3137
28131SOL    HW290230   2.344   5.481   2.833  0.1990  0.4710 -0.4769
28132SOL     OW90231   1.403   1.420   1.148  0.1319  0.1393 -0.7174
28132SOL    HW190232   1.427   1.340   1.195  1.5570 -0.1634 -1.9034
28132SOL    HW290233   1.478   1.478   1.158  0.0890  0.4082 -1.8511
28133SOL     OW90234   2.699  10.648   0.557 -0.6629 -0.0266  0.1232
28133SOL    HW190235   2.730  10.700   0.631  0.5515  0.2110 -0.5385
28133SOL    HW290236   2.603  10.651   0.564 -0.5898 -1.1403  2.4653
28134SOL     OW90237   9.141   5.223   0.071 -0.1854  0.1119 -0.0236
28134SOL    HW190238   9.137   5.206  -0.023  0.3276 -1.3762  0.1943
28134SOL    HW290239   9.052   5.207   0.102  0.0834 -1.4409  0.0294
28135SOL     OW90240   2.740   6.261   2.326  0.4358  0.8364  0.6870
28135SOL    HW190241   2.752   6.248   2.420  0.9896 -0.5394  0.4413
28135SOL    HW290242   2.815   6.218   2.286 -1.1257 -0.9182 -0.5052
28136SOL     OW90243   7.064   6.636   3.546 -0.1353  0.1792 -0.0130
28136SOL    HW190244   7.032   6.703   3.606 -0.3154 -1.1045  1.3525
28136SOL    HW290245   7.152   6.665   3.523 -0.1987  0.8712  0.5785
28137SOL     OW90246   6.007   6.741   7.921 -0.4458  0.0864 -0.3904
28137SOL    HW190247   6.094   6.753   7.883 -0.1830  0.4918  0.3164
28137SOL    HW290248   5.947   6.780   7.857  0.0680  1.6924  0.0538
28138SOL     OW90249   1.854   8.125   3.503 -0.1354  0.1564  0.1905
28138SOL    HW190250   1.903   8.154   3.426 -0.4687  0.3847  0.0608
28138SOL    HW290251   1.921   8.107   3.569  0.0924  1.3560  0.3262
28139SOL     OW90252   1.496   3.210   6.736 -0.4647  0.1391 -0.2548
28139SOL    HW190253   1.460   3.146   6.674 -0.6675  1.5601 -1.6580
28139SOL    HW290254   1.422   3.269   6.754 -0.2022  0.1665  0.8082
28140SOL     OW90255   6.091   7.958   2.611  0.4503  0.0121  0.0153
28140SOL    HW190256   6.150   7.901   2.561 -0.9714 -0.9231 -0.6727
28140SOL    HW290257   6.103   7.931   2.702  0.0309 -1.2110 -0.2727
28141SOL     OW90258   0.274   5.135   2.500  0.0712  0.5337  0.0251
28141SOL    HW190259   0.194   5.113   2.452  0.8973 -0.6148 -0.8919
28141SOL    HW290260   0.254   5.114   2.591 -0.6882  0.3045 -0.1871
28142SOL     OW90261   5.117   2.194   1.406 -0.5858 -0.0735 -0.1535
28142SOL    HW190262   5.207   2.209   1.379  0.2664 -0.2542  2.3012
28142SOL    HW290263   5.086   2.280   1.436 -1.4243  0.0936 -1.4519
28143SOL     OW90264  10.260   7.590   6.959  0.5511 -0.3457 -0.1930
28143SOL    HW190265  10.284   7.651   7.029  0.4678 -0.7763  0.2180
28143SOL    HW290266  10.319   7.516   6.971  1.1310 -0.0419 -1.1341
28144SOL     OW90267   6.980   0.461   5.537  0.2216 -0.0159  0.1178
28144SOL    HW190268   6.934   0.472   5.621 -0.7906  1.0821 -0.5535
28144SOL    HW290269   7.064   0.505   5.550  0.5019 -0.7259  0.8642
28145SOL     OW90270   4.022   4.265   3.387  0.5437 -0.0876 -0.2962
28145SOL    HW190271   4.023   4.210   3.465 -0.6196 -0.2734 -0.3982
28145SOL    HW290272   4.106   4.312   3.389  2.0440 -2.5967 -0.7561
28146SOL     OW90273   1.808   1.507   7.448  0.6378  0.0326 -0.2646
28146SOL    HW190274   1.739   1.573   7.442 -2.7082 -3.0734  0.6617
28146SOL    HW290275   1.806   1.477   7.539  1.5285 -1.7698 -0.7841
28147SOL     OW90276   4.138  10.562   0.580  0.8647 -0.1883  0.5964
28147SOL    HW190277   4.123  10.471   0.552  0.7548 -0.3796  1.2571
28147SOL    HW290278   4.065  10.611   0.543 -1.5089 -1.0906  3.7150
28148SOL     OW90279   8.691   0.824   4.729 -0.3833  0.0495  0.2136
28148SOL    HW190280   8.769   0.787   4.689 -0.4987 -0.9317  0.8748
28148SOL    HW290281   8.723   0.901   4.778 -0.0811  0.5837 -0.7974
28149SOL     OW90282   1.773   5.135   1.730  0.2860  0.3319 -1.0231
28149SOL    HW190283   1.773   5.225   1.762 -1.6606 -0.2159  0.7657
28149SOL    HW290284   1.781   5.082   1.809  2.2466 -1.1264 -2.0977
28150SOL     OW90285   2.739  10.715   0.287  0.1009 -0.1342  0.0768
28150SOL    HW190286   2.710  10.678   0.370  1.7937 -1.1209  0.2823
28150SOL    HW290287   2.729  10.809   0.298  2.8624  0.0128  2.5315
28151SOL     OW90288   7.554   7.094   7.524 -0.3079  0.1433  0.1046
28151SOL    HW190289   7.647   7.114   7.526  0.0028 -1.2116  0.1605
28151SOL    HW290290   7.528   7.109   7.433  0.4162 -1.2658 -0.3731
28152SOL     OW90291   1.264   2.954   9.284 -0.3648  0.3424  0.1487
28152SOL    HW190292   1.274   3.000   9.201 -1.0814  0.0701 -0.0951
28152SOL    HW290293   1.353   2.928   9.308  0.0774  1.8924  0.3276
28153SOL     OW90294   3.299   3.726   5.777 -0.0240  0.0739  0.3664
28153SOL    HW190295   3.251   3.680   5.708 -1.2116  0.5043  0.8989
28153SOL    HW290296   3.244   3.801   5.799  1.4142  1.2307  0.2057
28154SOL     OW90297   3.056   9.699  10.630 -0.4059 -0.3939 -0.0810
28154SOL    HW190298   3.095   9.681  10.716 -0.0054 -0.1070 -0.1997
28154SOL    HW290299   2.987   9.762  10.649  0.0030  0.0500 -0.0244
28155SOL     OW90300   9.725   1.600   0.174 -0.0674 -0.2464 -0.2475
28155SOL    HW190301   9.714   1.592   0.269  4.4356  0.3145  0.5176
28155SOL    HW290302   9.758   1.514   0.147  1.0937  0.3738 -0.8347
28156SOL     OW90303   8.087   3.237   2.702 -0.0341  0.1516  0.0997
28156SOL    HW190304   8.098   3.173   2.772  1.2555  0.1525 -0.0711
28156SOL    HW290305   8.023   3.198   2.643 -0.6437 -0.1380  0.9480
28157SOL     OW90306   9.395   2.292   6.442  0.2067  0.2949  0.1129
28157SOL    HW190307   9.363   2.332   6.523  0.8263 -0.2265  0.6311
28157SOL    HW290308   9.370   2.200   6.449 -1.5532  0.6309 -1.2511
28158SOL     OW90309   4.537   1.115   6.377 -0.3113 -0.3981 -0.2403
28158SOL    HW190310   4.614   1.127   6.322 -1.6660  2.9803 -1.7058
28158SOL    HW290311   4.525   1.020   6.382  1.8770 -0.9346 -2.8963
28159SOL     OW90312   7.778   9.992   3.109  0.2283  0.4656 -0.1252
28159SOL    HW190313   7.699  10.019   3.157 -0.9307 -0.6882 -1.2932
28159SOL    HW290314   7.769  10.032   3.023 -0.8890 -2.3383 -1.4515
28160SOL     OW90315   6.567  10.290   9.256  0.2592  0.4225  0.0509
28160SOL    HW190316   6.579  10.254   9.168  0.4745 -1.3507  0.7625
28160SOL    HW290317   6.523  10.374   9.242 -0.2892 -0.1178 -1.7056
28161SOL     OW90318   5.592   0.597   0.171  0.4643  0.9242 -0.0984
28161SOL    HW190319   5.674   0.644   0.158  1.3398 -0.6140 -0.4311
28161SOL    HW290320   5.525   0.665   0.176  1.7862  2.2383  0.4690
28162SOL     OW90321   8.924   5.292   0.309 -0.0007 -0.2997  0.4833
28162SOL    HW190322   8.905   5.226   0.375 -1.1672 -0.8438 -0.3608
28162SOL    HW290323   8.963   5.365   0.358  0.1063 -1.0876  1.6086
28163SOL     OW90324   5.522   0.650   1.535 -0.0688  0.5322  0.3452
28163SOL    HW190325   5.434   0.686   1.548 -0.6940 -0.9027  0.2409
28163SOL    HW290326   5.574   0.688   1.605 -0.9662  0.7830  0.8933
28164SOL     OW90327   5.889   2.119   5.907  0.5850 -0.3065  0.5380
28164SOL    HW190328   5.805   2.144   5.945 -0.0443 -1.2316 -0.1878
28164SOL    HW290329   5.899   2.177   5.831  0.1216 -0.8401  0.0593
28165SOL     OW90330   6.870   4.432   9.332  0.1996 -0.4262 -0.1418
28165SOL    HW190331   6.932   4.497   9.365 -2.3422  0.8970  2.3870
28165SOL    HW290332   6.905   4.348   9.361  1.2531  0.2080  0.4731
28166SOL     OW90333   3.633   7.647   4.116 -0.1220  0.3226 -0.9090
28166SOL    HW190334   3.708   7.588   4.114  0.8824  1.5576 -3.0737
28166SOL    HW290335   3.602   7.650   4.025 -2.5201  0.2519 -0.1699
28167SOL     OW90336   8.970   8.984   3.899  0.3605 -0.2808  0.0226
28167SOL    HW190337   8.877   8.973   3.878 -0.1060  1.3228  1.0843
28167SOL    HW290338   8.981   9.078   3.912  1.7468 -0.6090  1.5962
28168SOL     OW90339   8.365  10.392   5.971 -0.1276  0.6375 -0.2597
28168SOL    HW190340   8.304  10.465   5.972 -1.1899 -0.2217 -0.1670
28168SOL    HW290341   8.348  10.345   6.052 -0.2264 -0.3099 -0.8065
28169SOL     OW90342   6.517   0.263   7.146 -0.5356  0.0226 -0.8062
28169SOL    HW190343   6.485   0.174   7.155 -1.2255  0.3112 -0.3341
28169SOL    HW290344   6.516   0.298   7.235  0.0416  0.3990 -0.9423
28170SOL     OW90345   9.714   1.644   3.693 -0.0707  0.2150 -0.4026
28170SOL    HW190346   9.771   1.586   3.643  0.0106  1.0703 -1.3193
28170SOL    HW290347   9.673   1.700   3.627  2.0809  3.2156  0.6401
28171SOL     OW90348  10.381   9.749   5.495 -0.4421 -0.0704  0.4101
28171SOL    HW190349  10.376   9.780   5.405 -0.6478 -0.7597  0.1799
28171SOL    HW290350  10.308   9.688   5.504  0.2483 -0.8817  0.6921
28172SOL     OW90351   7.999   3.012   3.857 -0.2434 -0.0644  0.0891
28172SOL    HW190352   8.007   2.993   3.951 -1.0099 -1.6337 -0.1440
28172SOL    HW290353   8.068   3.077   3.841 -1.7606  2.2963  2.2464
28173SOL     OW90354   5.045  10.087   3.238 -0.4719  0.7609 -0.4077
28173SOL    HW190355   5.005  10.172   3.254 -0.8938  0.7356 -1.2703
28173SOL    HW290356   4.984  10.024   3.278 -0.5057  0.8163 -0.3728
28174SOL     OW90357   4.399   4.767   8.820 -0.1791 -0.5504 -0.6892
28174SOL    HW190358   4.469   4.702   8.821 -1.3510 -1.9360 -2.0166
28174SOL    HW290359   4.424   4.830   8.753  0.1209 -0.6494 -0.6683
28175SOL     OW90360  10.228   8.804   1.960 -0.1503 -0.2079  0.1020
28175SOL    HW190361  10.240   8.733   1.896 -0.1068 -1.0378  1.0033
28175SOL    HW290362  10.235   8.760   2.045 -1.3062  0.6899  0.6808
28176SOL     OW90363   7.048   0.036   5.106  0.4097 -0.0312  0.2434
28176SOL    HW190364   7.051   0.006   5.016 -0.9754 -1.9215  0.7685
28176SOL    HW290365   7.137   0.024   5.139  0.8474  0.3807 -0.7610
28177SOL     OW90366   9.761   1.749   1.548 -0.1520 -0.3885  0.4802
28177SOL    HW190367   9.836   1.807   1.534  0.3487 -1.2249 -0.4000
28177SOL    HW290368   9.739   1.760   1.641  1.1403 -0.2231  0.7838
28178SOL     OW90369   3.646   8.934   0.573 -0.6567  0.1773 -0.2267
28178SOL    HW190370   3.621   8.937   0.665  1.8927 -2.3781  0.7201
28178SOL    HW290371   3.736   8.965   0.571 -0.4061 -0.5237 -1.7045
28179SOL     OW90372   3.928   4.081   2.517 -0.5199  0.2201  0.2616
28179SOL    HW190373   3.939   4.136   2.440 -0.0707 -0.6133 -0.2780
28179SOL    HW290374   3.886   4.139   2.582 -1.5050  0.7344 -0.8042
28180SOL     OW90375   6.953   9.676   5.832 -0.7603 -0.3619  0.1504
28180SOL    HW190376   7.024   9.612   5.831  0.1040  0.5703  0.9833
28180SOL    HW290377   6.996   9.761   5.826 -1.8118  0.2190  0.5858
28181SOL     OW90378   2.279   4.203   3.483  0.3424 -0.1407 -0.2439
28181SOL    HW190379   2.208   4.222   3.421  0.1101  1.1094  0.3790
28181SOL    HW290380   2.248   4.239   3.566  2.2296  1.6464 -0.2414
28182SOL     OW90381   9.501   4.726   9.917 -0.3668  0.4045  0.0755
28182SOL    HW190382   9.457   4.700   9.836 -0.2949  1.8757 -0.4684
28182SOL    HW290383   9.468   4.664   9.982 -2.0227  0.4442 -0.6513
28183SOL     OW90384   4.547   5.541  10.652 -0.2670  0.4074  0.3849
28183SOL    HW190385   4.515   5.589  10.576 -1.4738 -0.9873 -0.0427
28183SOL    HW290386   4.642   5.551  10.649 -0.4139  1.7346 -0.3551
28184SOL     OW90387   4.226   2.395   7.326 -0.8571  0.0113  0.8190
28184SOL    HW190388   4.192   2.308   7.349  0.2623 -0.1621  1.9160
28184SOL    HW290389   4.182   2.455   7.386 -0.8981  0.0823  0.7196
28185SOL     OW90390   8.305   0.927  10.143  0.1544  0.3574  0.2370
28185SOL    HW190391   8.326   0.963  10.057  3.2281  0.4028  0.9136
28185SOL    HW290392   8.344   0.840  10.144 -2.9038 -1.1630  0.4281
28186SOL     OW90393   0.380   3.995   7.261 -0.5302  0.5038  0.4508
28186SOL    HW190394   0.331   3.915   7.280  0.8835 -0.6951 -0.7941
28186SOL    HW290395   0.359   4.016   7.170 -1.5332  2.0732  0.9870
28187SOL     OW90396   2.027   9.967   6.680  0.1429  0.6193  0.0510
28187SOL    HW190397   2.029  10.062   6.665 -1.2003  0.5280 -0.9280
28187SOL    HW290398   1.934   9.948   6.694  0.2602 -0.7162 -0.8812
28188SOL     OW90399   1.538   0.344   8.013 -0.2657 -0.0436  0.2037
28188SOL    HW190400   1.536   0.373   7.922 -3.5368 -0.6379 -0.0193
28188SOL    HW290401   1.591   0.410   8.058  1.2058  0.4046 -2.0243
28189SOL     OW90402   2.005   3.654  10.285 -0.0587  0.3705  0.1917
28189SOL    HW190403   1.925   3.706  10.279 -0.7536 -0.7899 -1.7603
28189SOL    HW290404   2.041   3.656  10.197  0.3496 -1.6601  0.2564
28190SOL     OW90405   2.637   8.354   5.181 -0.2524  0.2561 -0.1490
28190SOL    HW190406   2.702   8.420   5.206  1.2301 -0.5543 -1.6572
28190SOL    HW290407   2.676   8.271   5.209 -1.2603 -0.1344  0.1135
28191SOL     OW90408   1.703   1.967   9.607 -0.1899  0.4176  0.3047
28191SOL    HW190409   1.681   1.930   9.521 -1.8608  0.8038  0.5344
28191SOL    HW290410   1.619   1.993   9.644  0.1675 -2.0938  3.2134
28192SOL     OW90411   2.540   6.210   4.576  0.1962  0.0450 -0.1574
28192SOL    HW190412   2.560   6.137   4.518 -3.6781 -0.9739 -0.4463
28192SOL    HW290413   2.483   6.267   4.525  2.1834  2.8220  0.4644
28193SOL     OW90414   1.550   9.809   2.714 -0.2397 -0.3355 -0.5686
28193SOL    HW190415   1.520   9.742   2.775  0.3147  0.1187  0.2150
28193SOL    HW290416   1.597   9.759   2.646  0.3868 -0.7422  0.1386
28194SOL     OW90417   8.759   9.258   6.567  0.5963 -0.2280  0.6437
28194SOL    HW190418   8.766   9.181   6.623  1.9303 -0.8717 -0.3475
28194SOL    HW290419   8.749   9.331   6.628  0.0156 -1.0965  1.6289
28195SOL     OW90420  10.300   0.331   8.244 -0.2155 -0.0879  0.0485
28195SOL    HW190421  10.216   0.340   8.289 -0.8170  1.2193 -1.2271
28195SOL    HW290422  10.290   0.252   8.191 -0.3591 -0.3517  0.4687
28196SOL     OW90423   9.977   3.272  10.205  0.1378  0.5133  0.3962
28196SOL    HW190424   9.979   3.339  10.138 -0.8929 -0.5429 -0.7480
28196SOL    HW290425   9.983   3.189  10.157  2.5764 -0.2587  1.8142
28197SOL     OW90426   3.966   1.502   7.472 -0.1238 -0.3396  0.0234
28197SOL    HW190427   4.039   1.545   7.518  0.4790 -3.0130  1.7657
28197SOL    HW290428   3.924   1.573   7.424  1.8030  1.8646  1.3483
28198SOL     OW90429   3.749   6.024  10.522 -0.0405  0.0057  0.4725
28198SOL    HW190430   3.686   5.989  10.458 -0.9238 -0.0966  1.3601
28198SOL    HW290431   3.786   6.101  10.480 -0.2882 -0.2975 -0.3262
28199SOL     OW90432   5.949   9.266   9.671 -0.4102  0.0895  0.3706
28199SOL    HW190433   6.034   9.229   9.646  0.2327  1.0075  1.1045
28199SOL    HW290434   5.938   9.343   9.615 -0.6645  0.0877  0.4175
28200SOL     OW90435   4.576   1.962   2.397 -0.4126  0.1204 -0.2483
28200SOL    HW190436   4.624   1.907   2.335 -0.3826 -1.2933  0.9713
28200SOL    HW290437   4.532   1.899   2.455 -0.5533  1.3941  1.0665
28201SOL     OW90438   3.147   8.080   7.800  0.4106 -0.0356 -0.6436
28201SOL    HW190439   3.131   7.998   7.754 -1.1137  0.3133 -0.7783
28201SOL    HW290440   3.181   8.139   7.733 -0.6729  0.1155 -1.0737
28202SOL     OW90441   3.354   7.731  10.314 -0.0813  0.6220  0.0949
28202SOL    HW190442   3.447   7.709  10.316  0.2384  1.3310 -2.9077
28202SOL    HW290443   3.310   7.646  10.311  0.4720  0.3009  0.6878
28203SOL     OW90444   1.164   0.526   8.160 -0.8378  0.1859  0.7892
28203SOL    HW190445   1.238   0.539   8.220 -0.1454  0.3227 -0.0689
28203SOL    HW290446   1.185   0.445   8.114 -0.4725  0.9967 -0.5094
28204SOL     OW90447   3.962   7.590   0.832  0.5635 -0.0260 -0.8200
28204SOL    HW190448   3.946   7.595   0.738 -1.3068  0.4295 -0.5057
28204SOL    HW290449   3.980   7.497   0.848 -1.0421 -0.4582 -1.3604
28205SOL     OW90450   6.210   9.162   1.782  0.2218 -0.2498 -0.6033
28205SOL    HW190451   6.283   9.178   1.724  0.6087  0.0247 -0.0476
28205SOL    HW290452   6.190   9.247   1.821 -0.2785 -0.3550 -0.6144
28206SOL     OW90453   2.456   1.486   0.612 -0.5749 -0.0247  0.0192
28206SOL    HW190454   2.532   1.490   0.670 -0.6649 -0.7853  0.2017
28206SOL    HW290455   2.490   1.510   0.526 -0.4598  1.2081  0.3964
28207SOL     OW90456  10.615   4.841  10.116  0.2727  0.2512 -0.1348
28207SOL    HW190457  10.705   4.807  10.119 -0.1251 -1.0287 -1.2625
28207SOL    HW290458  10.624   4.930  10.082  1.1637  0.4160  0.4915
28208SOL     OW90459   0.912   4.373   1.754 -0.1856 -0.0214 -0.2701
28208SOL    HW190460   0.902   4.440   1.821  1.2320  0.1876 -0.2481
28208SOL    HW290461   1.006   4.362   1.744 -0.3503  0.0899 -2.3680
28209SOL     OW90462   5.884   9.335   6.643  0.0185  0.0691  0.2045
28209SOL    HW190463   5.845   9.404   6.591 -0.8263  0.2830  1.0817
28209SOL    HW290464   5.819   9.264   6.642  0.8254 -0.6750 -0.5978
28210SOL     OW90465   0.843   2.361   7.842 -0.1293 -0.0058  0.3968
28210SOL    HW190466   0.771   2.418   7.869  0.2711  1.3936 -1.3035
28210SOL    HW290467   0.814   2.322   7.760  0.9259  0.3864 -0.1837
28211SOL     OW90468   2.839   0.934  10.625  0.3225  0.0244  0.1884
28211SOL    HW190469   2.803   1.020  10.605  0.0659  0.1059  0.9501
28211SOL    HW290470   2.770   0.873  10.601  0.2675  0.0764  0.2129
28212SOL     OW90471   0.694   8.734   3.739 -0.4988 -0.5729 -0.3026
28212SOL    HW190472   0.768   8.744   3.798 -0.1337 -1.0798 -0.6671
28212SOL    HW290473   0.646   8.659   3.775 -1.4736  0.4335  0.5870
28213SOL     OW90474   2.177   3.277   1.317  0.3177 -0.3056 -0.3910
28213SOL    HW190475   2.089   3.305   1.290 -0.7020  0.5065  3.1407
28213SOL    HW290476   2.188   3.190   1.277 -1.3968  0.2305 -2.1915
28214SOL     OW90477   9.035   2.693   6.986 -0.0029 -0.3041 -0.1460
28214SOL    HW190478   8.976   2.621   6.962  0.7074 -0.5468 -1.2420
28214SOL    HW290479   9.066   2.728   6.902  0.6444  0.4587  0.3945
28215SOL     OW90480   5.594   0.426   3.529  0.2121 -0.4238  0.4518
28215SOL    HW190481   5.542   0.365   3.581  0.0987 -0.5977  0.1368
28215SOL    HW290482   5.532   0.496   3.506  0.0544 -0.7452 -0.1157
28216SOL     OW90483   8.155   5.223   2.476 -0.1837  0.1236  0.1371
28216SOL    HW190484   8.177   5.178   2.558  1.1056 -3.1830 -1.8035
28216SOL    HW290485   8.071   5.186   2.450  0.4321 -0.4855 -1.0432
28217SOL     OW90486   2.827   1.102   5.684  0.3780  0.0962 -0.4922
28217SOL    HW190487   2.772   1.152   5.624 -0.0765 -0.3800 -0.4820
28217SOL    HW290488   2.910   1.149   5.686 -0.6134  1.9599  0.9440
28218SOL     OW90489   6.382   4.962   3.111  0.1178 -0.1916 -0.3884
28218SOL    HW190490   6.474   4.986   3.116  0.2254 -0.6475 -0.1160
28218SOL    HW290491   6.336   5.046   3.102  0.3664  0.2779  2.0333
28219SOL     OW90492   0.265   2.946   8.092  0.1410  0.5514  0.3422
28219SOL    HW190493   0.269   3.041   8.084 -1.2552  0.6235  0.2570
28219SOL    HW290494   0.234   2.916   8.007 -1.8384  0.2514  1.1111
28220SOL     OW90495   9.555   6.747  10.181  0.3793 -0.1750  0.1626
28220SOL    HW190496   9.512   6.719  10.101 -0.0789  0.6089  0.1252
28220SOL    HW290497   9.523   6.836  10.197  0.7785 -0.1588  0.9893
28221SOL     OW90498  10.323   7.231  10.596  0.1226 -0.5685  0.1495
28221SOL    HW190499  10.372   7.294  10.542  0.0689 -0.3235  0.3832
28221SOL    HW290500  10.386   7.163  10.617  0.3962 -0.2038  0.5311
28222SOL     OW90501   4.686   9.756   3.187  0.5628  0.0731  0.5320
28222SOL    HW190502   4.743   9.723   3.118  0.9948 -1.4966  1.5878
28222SOL    HW290503   4.655   9.841   3.154 -1.2664 -1.6469 -2.7553
28223SOL     OW90504   6.360   8.172   1.536 -0.2660  0.1113 -0.4233
28223SOL    HW190505   6.309   8.129   1.468  0.6965  1.4397 -2.0584
28223SOL    HW290506   6.434   8.212   1.490  1.6917 -0.8072  1.6947
28224SOL     OW90507   6.658   9.671  10.494 -0.1932  0.1331 -0.2027
28224SOL    HW190508   6.695   9.752  10.460  1.3947 -0.2182  0.6320
28224SOL    HW290509   6.567   9.694  10.514  0.1628  1.6380 -0.1740
28225SOL     OW90510   5.547   3.435   6.398  0.9695  0.3152  0.1250
28225SOL    HW190511   5.530   3.440   6.304 -1.9323  1.2126  0.6058
28225SOL    HW290512   5.507   3.514   6.434 -0.8629 -1.5122  2.4452
28226SOL     OW90513   0.151   5.864   9.573  0.3934 -0.1301 -0.2187
28226SOL    HW190514   0.208   5.817   9.634 -1.1831  0.2298  1.6281
28226SOL    HW290515   0.090   5.912   9.629 -1.2973  0.0421 -2.0852
28227SOL     OW90516   2.725   5.775   0.459  0.6735 -0.0406 -0.2398
28227SOL    HW190517   2.751   5.747   0.546  0.1958 -0.2147 -0.1523
28227SOL    HW290518   2.745   5.700   0.403  0.0525 -0.3028 -0.1178
28228SOL     OW90519   9.065   2.647   6.570  0.5384 -0.1111 -0.6833
28228SOL    HW190520   9.080   2.704   6.645  1.0474  3.0394 -2.9917
28228SOL    HW290521   9.149   2.645   6.524 -0.2597 -0.3004 -2.2151
28229SOL     OW90522   0.308   6.334   8.130  0.2967 -0.5087 -0.1274
28229SOL    HW190523   0.330   6.242   8.111  2.6993  0.0146 -0.2336
28229SOL    HW290524   0.392   6.375   8.150 -0.9778  1.1981  2.1693
28230SOL     OW90525   2.478   6.668   2.720  0.4832  0.0619 -0.1186
28230SOL    HW190526   2.459   6.660   2.813 -0.5839 -1.2859 -0.4238
28230SOL    HW290527   2.469   6.579   2.686 -1.7672  0.8879 -1.9494
28231SOL     OW90528   3.145   9.991   4.443  0.0997 -0.3759  0.4478
28231SOL    HW190529   3.165  10.084   4.447 -1.5337 -0.0080  0.7594
28231SOL    HW290530   3.069   9.985   4.385 -0.2810 -1.4297  1.0157
28232SOL     OW90531   4.390   5.720   6.875 -0.1426 -0.1577  0.0416
28232SOL    HW190532   4.383   5.628   6.851 -0.1276  0.0092 -0.6261
28232SOL    HW290533   4.418   5.764   6.794  0.1175  0.3938  0.4202
28233SOL     OW90534   3.575   2.890   7.758  0.0447 -0.4244 -0.4283
28233SOL    HW190535   3.488   2.859   7.731  0.0420 -0.9805  0.1988
28233SOL    HW290536   3.564   2.984   7.770  0.1634 -0.0514 -2.8171
28234SOL     OW90537  10.078   0.030   5.916 -0.0979 -0.2152  0.3567
28234SOL    HW190538  10.049   0.095   5.979  1.8080  0.7665  0.3079
28234SOL    HW290539  10.015   0.036   5.844  1.4587  3.6924 -0.9629
28235SOL     OW90540   9.418   3.307   9.692  0.1835 -0.1455  0.0004
28235SOL    HW190541   9.342   3.334   9.640  1.2502  0.3390 -1.3584
28235SOL    HW290542   9.442   3.221   9.658  0.7843  0.0959 -0.1976
28236SOL     OW90543   2.210   7.247   4.165  0.0264  0.0668 -0.5284
28236SOL    HW190544   2.197   7.276   4.256  1.3061 -0.6835 -0.0815
28236SOL    HW290545   2.264   7.169   4.172 -0.0439 -0.1327 -1.9397
28237SOL     OW90546   5.472   6.805   5.045  0.5894 -0.0068 -0.1420
28237SOL    HW190547   5.518   6.866   5.103 -0.7340  0.1169  0.8245
28237SOL    HW290548   5.459   6.726   5.098 -1.2917  0.3749 -0.0037
28238SOL     OW90549   1.223   4.900   5.474 -0.3037 -0.3845  0.0726
28238SOL    HW190550   1.178   4.826   5.514 -0.4002 -0.0291  0.6388
28238SOL    HW290551   1.225   4.967   5.543  0.6349 -0.2056 -0.1096
28239SOL     OW90552   6.378  10.333   2.405  0.0222  0.4580  0.0223
28239SOL    HW190553   6.445  10.324   2.337  0.3194 -2.6227  0.5728
28239SOL    HW290554   6.412  10.283   2.479 -2.6878 -0.9826  0.4270
28240SOL     OW90555  10.420   5.371   4.966 -0.1618 -0.1270 -0.1227
28240SOL    HW190556  10.388   5.394   5.052  2.2939  0.4049  0.7356
28240SOL    HW290557  10.397   5.279   4.955 -0.4039 -0.2246  1.1579
28241SOL     OW90558   7.236  10.129  10.175  0.4905  0.4997  0.5557
28241SOL    HW190559   7.303  10.176  10.125  0.1692 -0.1539 -0.5187
28241SOL    HW290560   7.275  10.118  10.262  0.3615  3.2026  1.0416
28242SOL     OW90561   6.719   9.468   0.547  0.6897 -0.1116  0.2389
28242SOL    HW190562   6.707   9.378   0.517 -0.9031  0.1825 -0.1165
28242SOL    HW290563   6.735   9.518   0.467 -0.3907  0.1902  0.1858
28243SOL     OW90564   4.609   4.869   5.956 -0.4979  0.4050  0.0861
28243SOL    HW190565   4.544   4.924   5.913 -0.8312 -0.3634 -0.4188
28243SOL    HW290566   4.592   4.880   6.049 -2.1075 -0.6217 -0.0351
28244SOL     OW90567   3.843   4.226   1.963  0.2142 -0.7011 -0.8654
28244SOL    HW190568   3.832   4.315   1.996  0.0616 -2.3793  4.4478
28244SOL    HW290569   3.758   4.203   1.926 -0.5267  0.5497 -0.0134
28245SOL     OW90570   2.990   1.590   9.476  0.2791  0.7523  0.2288
28245SOL    HW190571   3.006   1.630   9.562 -1.3409  1.9072  0.0322
28245SOL    HW290572   2.901   1.616   9.453 -0.0781 -1.2569 -0.8956
28246SOL     OW90573   1.369   1.778   3.687  0.5360  0.3703  0.4020
28246SOL    HW190574   1.357   1.867   3.718  0.0938  0.3058  0.4249
28246SOL    HW290575   1.377   1.786   3.592 -1.7145  0.2391  0.1678
28247SOL     OW90576   1.394   5.840   9.139 -0.3478  0.3435 -0.3403
28247SOL    HW190577   1.372   5.757   9.182  0.0179  0.2227 -0.3875
28247SOL    HW290578   1.318   5.858   9.083  0.0302 -0.4951 -1.1387
28248SOL     OW90579   1.407   3.825   8.928 -0.1435 -0.0845 -0.0440
28248SOL    HW190580   1.432   3.902   8.978  1.7032  0.2222 -1.3609
28248SOL    HW290581   1.485   3.800   8.879 -1.2196 -1.6961 -1.0807
28249SOL     OW90582   2.349   6.657   0.364  0.8064  0.1537 -0.3566
28249SOL    HW190583   2.395   6.700   0.437  0.6446 -0.0694 -0.1197
28249SOL    HW290584   2.407   6.586   0.338  1.4201  0.9521 -1.2373
28250SOL     OW90585   2.603   0.034  10.582  0.1988 -0.5418  0.4796
28250SOL    HW190586   2.681   0.030  10.527 -0.3611 -1.1247 -0.3036
28250SOL    HW290587   2.537  -0.014  10.533 -0.7103  0.0942  1.0377
28251SOL     OW90588   0.149   8.634   1.183 -0.1545 -0.1964  0.2905
28251SOL    HW190589   0.060   8.605   1.203  0.5916 -1.5167  1.9956
28251SOL    HW290590   0.152   8.724   1.216 -0.8986 -0.0938  0.0933
28252SOL     OW90591   0.717   8.960   2.817 -0.3612 -0.2364  0.3578
28252SOL    HW190592   0.664   8.882   2.827  1.3026 -1.6624 -1.2607
28252SOL    HW290593   0.668   9.015   2.756 -0.7329 -0.8181  0.1257
28253SOL     OW90594   4.372   7.817   1.735 -0.0640  0.3051 -0.6386
28253SOL    HW190595   4.322   7.804   1.815  0.0444 -0.0404 -0.6259
28253SOL    HW290596   4.314   7.867   1.678 -0.2883  0.2182 -0.4881
28254SOL     OW90597   3.571   0.237   6.237  0.4563  0.1543 -0.1769
28254SOL    HW190598   3.528   0.231   6.152 -0.6712 -0.9120  0.4294
28254SOL    HW290599   3.508   0.283   6.293 -0.1186 -1.7162  0.8123
28255SOL     OW90600   5.056   6.507   9.610 -0.3318 -0.3869  0.1266
28255SOL    HW190601   5.063   6.433   9.669  0.2700 -0.1448  0.3722
28255SOL    HW290602   5.143   6.547   9.611 -0.8400  0.7606  0.5658
28256SOL     OW90603   9.904   5.351   9.865 -0.6490  0.6238  0.7101
28256SOL    HW190604   9.835   5.398   9.817 -0.8913 -1.3696 -1.0351
28256SOL    HW290605   9.940   5.290   9.800 -0.4442 -1.6877  2.8681
28257SOL     OW90606   7.645   5.710   2.367  0.0649 -0.8585 -0.2205
28257SOL    HW190607   7.574   5.707   2.432 -0.9637  1.6939 -1.1048
28257SOL    HW290608   7.683   5.622   2.369 -2.1278 -1.8597  1.3812
28258SOL     OW90609   5.066   0.706   2.597 -0.0888 -0.1735 -0.2373
28258SOL    HW190610   5.063   0.746   2.684 -0.2047  0.9361 -0.7299
28258SOL    HW290611   5.034   0.616   2.610 -0.5217  0.1149  0.7881
28259SOL     OW90612   3.044   6.178   1.736  0.4018 -0.0514 -0.0115
28259SOL    HW190613   3.007   6.260   1.705 -0.4613 -0.3139  0.3082
28259SOL    HW290614   2.978   6.112   1.716  0.7441 -0.5512  0.4586
28260SOL     OW90615  10.060   1.208  10.146  0.5632  0.4471  0.1676
28260SOL    HW190616  10.095   1.266  10.078  1.9917 -0.2741  0.2613
28260SOL    HW290617  10.132   1.148  10.166 -0.0298  0.2669  1.9023
28261SOL     OW90618   2.146   0.782   9.502 -0.0221  0.0480  0.0665
28261SOL    HW190619   2.171   0.839   9.574  0.3499  0.4083 -0.3462
28261SOL    HW290620   2.075   0.829   9.457 -2.4727 -1.5382  2.0098
28262SOL     OW90621   2.697   5.663  10.479 -0.2815  0.2887 -0.3029
28262SOL    HW190622   2.629   5.713  10.524  0.5841  0.9410  0.3418
28262SOL    HW290623   2.672   5.572  10.490 -1.5135  0.5421 -0.8586
28263SOL     OW90624   8.386   7.921   5.600  0.3684 -0.1346 -0.1950
28263SOL    HW190625   8.433   7.980   5.540  1.1034 -1.0916 -0.5796
28263SOL    HW290626   8.455   7.878   5.649 -0.1217 -1.2832 -0.4950
28264SOL     OW90627   7.110   6.901   1.348 -0.1624  0.4945 -0.4049
28264SOL    HW190628   7.104   6.977   1.407  0.0506  0.6201 -0.5420
28264SOL    HW290629   7.191   6.915   1.300  0.4851 -0.4107  0.3910
28265SOL     OW90630   1.923   4.347   8.580  0.0774 -0.9696 -0.5403
28265SOL    HW190631   1.912   4.379   8.669  1.7857 -0.9140 -0.3074
28265SOL    HW290632   1.978   4.413   8.537 -0.8478 -0.9173 -1.6891
28266SOL     OW90633   3.365   7.462   3.635 -0.3223  0.0612  0.2128
28266SOL    HW190634   3.270   7.454   3.632 -0.1692 -1.9445 -0.0351
28266SOL    HW290635   3.397   7.374   3.654  1.4713  0.8214  0.9778
28267SOL     OW90636   3.581   9.401   1.897  0.0477  0.3722  0.1568
28267SOL    HW190637   3.524   9.423   1.823  0.0242  0.6714  0.2616
28267SOL    HW290638   3.639   9.477   1.905  0.4454  0.0815  0.0669
28268SOL     OW90639   3.835  10.408   8.438  0.1685  0.2916  0.1845
28268SOL    HW190640   3.885  10.326   8.443 -0.2169 -0.0783 -1.3905
28268SOL    HW290641   3.753  10.389   8.484  1.2190  0.7688  2.4087
28269SOL     OW90642   7.504   2.191  10.583  0.5581  0.1271  0.3297
28269SOL    HW190643   7.577   2.129  10.585 -0.9050 -1.7245 -0.5884
28269SOL    HW290644   7.451   2.164  10.508 -0.6198  1.9789  0.4228
28270SOL     OW90645   9.075   8.398   4.364  0.0697  0.0585  0.0185
28270SOL    HW190646   9.036   8.486   4.373  1.3080  0.5399  0.9865
28270SOL    HW290647   9.004   8.338   4.385 -0.7076  0.8452 -0.3160
28271SOL     OW90648   2.508   7.632   8.801  0.3120 -0.2553 -0.4282
28271SOL    HW190649   2.531   7.625   8.894  1.6004  2.9532 -0.3813
28271SOL    HW290650   2.591   7.623   8.755  0.2369  1.5354 -0.9791
28272SOL     OW90651   0.210   9.334   7.551 -0.6352 -0.3658 -0.8624
28272SOL    HW190652   0.185   9.242   7.550 -0.5525 -0.3866 -1.2188
28272SOL    HW290653   0.184   9.368   7.465 -0.9410  0.0189 -0.6231
28273SOL     OW90654   6.408   3.327   6.746 -0.3708 -0.4363 -0.3754
28273SOL    HW190655   6.353   3.310   6.670  0.1872  1.6917 -1.3215
28273SOL    HW290656   6.350   3.313   6.821 -1.8326  0.4611 -1.2927
28274SOL     OW90657   1.285   1.952   1.514 -0.2638 -0.1372 -0.5466
28274SOL    HW190658   1.219   2.012   1.549  1.0823  0.8265  0.3936
28274SOL    HW290659   1.357   2.008   1.485  1.0772 -1.2514  0.4712
28275SOL     OW90660   5.308   4.537   4.745 -0.3771  0.2808  0.2924
28275SOL    HW190661   5.235   4.598   4.746 -0.7652 -0.1164  2.6748
28275SOL    HW290662   5.381   4.585   4.784  0.2120  0.1845 -0.6568
28276SOL     OW90663   1.551   1.093   8.299  0.2122  0.0504  0.2436
28276SOL    HW190664   1.563   1.033   8.372 -0.0900  0.0875  0.3256
28276SOL    HW290665   1.585   1.046   8.223 -2.5625 -1.3923 -0.2227
28277SOL     OW90666   2.532   6.897   4.075 -0.4315  0.1892  0.0680
28277SOL    HW190667   2.439   6.882   4.057 -0.6068  1.1667  0.1374
28277SOL    HW290668   2.565   6.940   3.997 -0.4165  1.3245  0.6739
28278SOL     OW90669  10.330   1.745   4.562  0.2415  0.2516  0.1031
28278SOL    HW190670  10.265   1.788   4.507 -1.0138  0.6641  1.8106
28278SOL    HW290671  10.388   1.700   4.501 -0.4689  1.5081 -1.5703
28279SOL     OW90672   9.727   4.752   5.731 -0.6630  0.3284  0.5754
28279SOL    HW190673   9.759   4.706   5.654  0.9890  0.1374  1.3302
28279SOL    HW290674   9.640   4.715   5.747 -1.5504  1.2155 -1.8443
28280SOL     OW90675   7.820   0.582   3.562 -0.2826  0.1104 -0.4742
28280SOL    HW190676   7.836   0.526   3.638  1.6850  0.3073 -0.6805
28280SOL    HW290677   7.834   0.524   3.487 -1.0615  0.2025 -0.6999
28281SOL     OW90678   8.220   9.817   0.172 -0.3779  0.2419  0.2961
28281SOL    HW190679   8.184   9.751   0.113  0.6635  0.5275 -0.7114
28281SOL    HW290680   8.306   9.837   0.135  0.0881  0.8200  1.6342
28282SOL     OW90681   8.655   1.050   6.293  0.3576  0.4692 -0.5696
28282SOL    HW190682   8.560   1.054   6.302  0.4288  0.9886 -0.0352
28282SOL    HW290683   8.685   0.997   6.367  0.4649  0.0314 -0.9178
28283SOL     OW90684   5.307   0.009   0.448  0.3900  0.3503  0.1416
28283SOL    HW190685   5.215   0.021   0.471  0.4261  2.0741 -0.4341
28283SOL    HW290686   5.305  -0.020   0.357  0.4037 -0.3185  0.3522
28284SOL     OW90687   4.497   6.719   4.887 -0.2700 -0.0940  0.3975
28284SOL    HW190688   4.581   6.709   4.932 -0.0584 -0.0216  0.0215
28284SOL    HW290689   4.518   6.714   4.794 -0.6890 -0.1202  0.2987
28285SOL     OW90690   6.839   8.511   5.159  0.1175 -0.1195  0.0798
28285SOL    HW190691   6.814   8.420   5.140  3.3765 -1.1936  0.4051
28285SOL    HW290692   6.822   8.558   5.077 -1.0170 -1.1287 -0.2948
28286SOL     OW90693   1.446   0.340   7.211  0.1211 -0.2551  0.0826
28286SOL    HW190694   1.446   0.422   7.261 -0.0710 -0.0386 -0.2749
28286SOL    HW290695   1.442   0.272   7.278 -1.0515  0.0478  0.3377
28287SOL     OW90696   8.876   5.690   2.532  0.1083  0.1409 -0.3172
28287SOL    HW190697   8.800   5.641   2.564 -1.1204  1.2140 -1.4356
28287SOL    HW290698   8.895   5.752   2.602  1.9870 -2.1182  1.3300
28288SOL     OW90699   2.478   0.100   9.720 -0.6662 -0.0675  0.1471
28288SOL    HW190700   2.404   0.118   9.778 -1.4385 -0.0541 -0.7987
28288SOL    HW290701   2.555   0.123   9.771 -1.2745 -0.6976  1.3985
28289SOL     OW90702  10.259   4.292   4.140 -0.1861  0.2231  0.1576
28289SOL    HW190703  10.269   4.387   4.137 -0.2576  0.2380  0.3686
28289SOL    HW290704  10.321   4.263   4.207 -1.3263  0.2921  1.2860
28290SOL     OW90705   2.448   0.588   8.697 -0.2184 -0.2444  0.3986
28290SOL    HW190706   2.507   0.534   8.749  2.4618 -0.0602 -2.2072
28290SOL    HW290707   2.502   0.662   8.668 -2.4268  1.2472 -0.1619
28291SOL     OW90708   2.391   8.112   7.825  0.0802  0.5033 -0.0049
28291SOL    HW190709   2.321   8.088   7.765  0.0184  1.1038 -0.1806
28291SOL    HW290710   2.454   8.041   7.818 -0.7762 -0.3421  0.6016
28292SOL     OW90711   0.292   4.370   6.744 -0.1927  0.3558 -0.0232
28292SOL    HW190712   0.372   4.384   6.794 -1.2090 -0.1592  1.8103
28292SOL    HW290713   0.315   4.303   6.680  0.4893 -0.7489  1.3554
28293SOL     OW90714   2.152   4.975   3.635 -0.3566  0.3550 -0.0024
28293SOL    HW190715   2.151   5.021   3.719 -1.4681 -0.3402  0.3811
28293SOL    HW290716   2.232   5.005   3.592  0.0410  0.9882  1.1519
28294SOL     OW90717   0.431   7.536   9.818 -0.2119  0.2257  0.0648
28294SOL    HW190718   0.500   7.599   9.837 -0.6758  0.5119  0.8518
28294SOL    HW290719   0.364   7.588   9.772  0.6594 -0.3388 -1.9580
28295SOL     OW90720   1.068   1.858   1.810 -0.0791  0.5495 -0.3155
28295SOL    HW190721   1.068   1.848   1.905  2.1592 -1.1405 -0.4136
28295SOL    HW290722   1.155   1.891   1.790 -0.0025 -0.5306 -1.8921
28296SOL     OW90723   8.446   8.054   7.217 -0.3858  0.3167 -0.0518
28296SOL    HW190724   8.520   8.088   7.167 -1.3549  1.4121 -0.7910
28296SOL    HW290725   8.487   8.006   7.289  1.0364  0.0177 -1.0108
28297SOL     OW90726   7.597   4.314   9.311  0.0371 -0.1756 -0.6458
28297SOL    HW190727   7.642   4.349   9.233  1.3468  1.2276  0.6522
28297SOL    HW290728   7.584   4.391   9.367 -0.4704 -1.2135  0.7110
28298SOL     OW90729   3.552   8.975   6.212 -0.3853  0.3060 -0.1968
28298SOL    HW190730   3.546   9.070   6.222 -1.5803  0.5649 -2.5791
28298SOL    HW290731   3.629   8.962   6.156 -0.6039 -0.0545 -0.4209
28299SOL     OW90732   5.172   1.430   0.211  0.3768  0.0741  0.0856
28299SOL    HW190733   5.080   1.457   0.203  0.2646 -0.0741  0.8841
28299SOL    HW290734   5.213   1.501   0.260  1.1239  1.0863 -1.8916
28300SOL     OW90735   1.732   9.906   1.595  0.4075 -0.1361  0.1274
28300SOL    HW190736   1.809   9.962   1.609  0.5192  0.0492 -1.0793
28300SOL    HW290737   1.683   9.951   1.526 -0.5919 -0.4523  0.6173
28301SOL     OW90738   2.059   8.572   7.710  0.5040 -0.5810 -0.2138
28301SOL    HW190739   2.008   8.645   7.675  0.2169 -0.0799  1.1857
28301SOL    HW290740   2.150   8.595   7.691  0.3748 -0.1832 -0.3652
28302SOL     OW90741   4.517   2.388   9.211 -0.1305  0.1066 -0.0229
28302SOL    HW190742   4.565   2.471   9.211 -0.3469  0.2385 -0.7214
28302SOL    HW290743   4.455   2.396   9.283  1.0571 -0.1691  1.0530
28303SOL     OW90744   3.010   1.646   6.995 -0.0443  0.6066 -0.2849
28303SOL    HW190745   2.994   1.675   6.905  0.1978 -0.1839 -0.5866
28303SOL    HW290746   2.951   1.699   7.048 -0.5748  0.7013 -0.9614
28304SOL     OW90747   5.269   7.599   8.439  0.3088  0.3673 -0.6654
28304SOL    HW190748   5.194   7.653   8.465 -0.0429  0.3736 -1.6202
28304SOL    HW290749   5.230   7.526   8.390  0.9361  0.4456 -1.2970
28305SOL     OW90750  10.587   8.003   2.801  0.8308  0.2683 -0.3584
28305SOL    HW190751  10.664   7.967   2.846 -0.1352  0.1826  1.2927
28305SOL    HW290752  10.535   7.926   2.777  1.0252  0.3495 -1.0630
28306SOL     OW90753   7.803   2.648   0.332 -0.1741  0.3879 -0.0005
28306SOL    HW190754   7.859   2.677   0.260 -1.5783 -1.9951 -2.2459
28306SOL    HW290755   7.861   2.596   0.388  0.3972  0.0662 -0.8796
28307SOL     OW90756   0.491   9.321   7.465  0.1508  0.1398  0.4845
28307SOL    HW190757   0.411   9.303   7.416  1.6633  0.4290 -2.3009
28307SOL    HW290758   0.488   9.416   7.481 -0.5329 -0.0170  1.3434
28308SOL     OW90759   3.413   2.784   5.989  0.4130  0.1531  0.0217
28308SOL    HW190760   3.366   2.827   5.918 -0.5870  1.6200  1.4886
28308SOL    HW290761   3.393   2.837   6.066  0.6241 -1.9575  1.6089
28309SOL     OW90762   3.199   6.619   8.679  0.4183 -0.0331 -0.3173
28309SOL    HW190763   3.160   6.532   8.671  0.8971 -0.2464 -0.3453
28309SOL    HW290764   3.165   6.653   8.762  0.4278 -0.3497 -0.1817
28310SOL     OW90765   7.486   3.141   4.304  0.5708 -0.1834 -0.0766
28310SOL    HW190766   7.570   3.102   4.328  0.1901 -1.7877 -1.1620
28310SOL    HW290767   7.504   3.187   4.222  0.2569 -1.1704 -0.7165
28311SOL     OW90768   2.049   3.425   1.707  0.3275 -0.1450  0.0933
28311SOL    HW190769   2.011   3.415   1.794 -1.5485  0.5903 -0.5868
28311SOL    HW290770   2.012   3.352   1.657 -0.0960  0.4960 -0.5448
28312SOL     OW90771   5.842   9.617   3.872  0.4480 -0.3608 -0.2509
28312SOL    HW190772   5.768   9.673   3.898  1.8084  1.3573  0.1553
28312SOL    HW290773   5.868   9.651   3.786  0.2123 -1.5576 -0.8071
28313SOL     OW90774   8.171  10.431   4.667 -0.5192  0.0045 -0.6691
28313SOL    HW190775   8.103  10.481   4.622 -0.6200 -0.8050 -1.4296
28313SOL    HW290776   8.141  10.340   4.663  0.4595 -0.3224 -0.7292
28314SOL     OW90777   3.328   7.674   4.772  0.3476 -0.4089 -0.5563
28314SOL    HW190778   3.251   7.622   4.747  0.1184 -0.4632  0.2523
28314SOL    HW290779   3.303   7.764   4.752  0.3828 -0.5079 -1.0576
28315SOL     OW90780   9.259   9.573   9.894  0.0407 -0.4255 -0.1805
28315SOL    HW190781   9.256   9.627   9.816  0.9846 -0.7998 -0.4938
28315SOL    HW290782   9.245   9.634   9.967 -0.0575  0.0515 -0.5977
28316SOL     OW90783   0.858   4.804   4.369  0.0636 -0.0353 -0.1118
28316SOL    HW190784   0.809   4.840   4.442 -0.2102 -1.1626  0.2821
28316SOL    HW290785   0.885   4.717   4.399  1.9599  0.3848 -0.4713
28317SOL     OW90786   2.596   9.185   0.885  0.3699 -0.3483  0.4542
28317SOL    HW190787   2.616   9.119   0.951 -0.6345 -3.5374 -2.1697
28317SOL    HW290788   2.505   9.167   0.860  0.4175  1.3458 -1.1451
28318SOL     OW90789   0.701   1.185   4.640  0.1258  0.0565 -0.5315
28318SOL    HW190790   0.641   1.158   4.571 -0.2838  0.3241 -0.2848
28318SOL    HW290791   0.648   1.183   4.720  0.6045 -0.3005 -0.2111
28319SOL     OW90792   7.598   6.257   1.398  0.2407  0.0032  0.4309
28319SOL    HW190793   7.567   6.172   1.367  0.7450 -0.1038  0.2244
28319SOL    HW290794   7.520   6.297   1.439  0.6020 -1.7067  3.0601
28320SOL     OW90795   3.430   6.179   5.337 -0.3463  0.0569 -0.0717
28320SOL    HW190796   3.474   6.104   5.297  0.6664  0.1266  0.8348
28320SOL    HW290797   3.468   6.183   5.426 -2.0069  0.2965  0.6558
28321SOL     OW90798   7.814   9.700   8.728  0.5110  0.1322  0.1304
28321SOL    HW190799   7.901   9.739   8.738  0.1395  0.7241  1.1776
28321SOL    HW290800   7.754   9.765   8.764 -0.2700 -0.7002  0.3643
28322SOL     OW90801   4.903   9.850   8.378 -0.4575  0.8087 -0.4590
28322SOL    HW190802   4.955   9.770   8.370 -2.2669 -0.4405 -0.3515
28322SOL    HW290803   4.965   9.921   8.361  1.4376 -0.5400  0.4845
28323SOL     OW90804   7.815  10.085  10.326 -0.7803  0.5758 -0.4324
28323SOL    HW190805   7.750  10.090  10.396 -1.0355 -0.9884 -0.5384
28323SOL    HW290806   7.863  10.167  10.333 -0.8967  0.5188  1.4623
28324SOL     OW90807   0.026   0.586   0.406 -0.1476 -0.3517 -0.6588
28324SOL    HW190808  -0.040   0.651   0.384 -0.2467  0.4411  1.7200
28324SOL    HW290809   0.048   0.604   0.497  3.2140 -0.7320 -1.2775
28325SOL     OW90810   9.978   0.636   6.996 -0.5698 -0.5695 -0.1363
28325SOL    HW190811  10.049   0.664   7.053 -0.6907 -1.0701  0.2695
28325SOL    HW290812   9.921   0.584   7.052 -1.2469 -0.1956 -0.4634
28326SOL     OW90813   2.355   2.212   3.427 -0.3664  0.4063  0.2317
28326SOL    HW190814   2.263   2.202   3.403 -0.2390 -1.3304  0.3947
28326SOL    HW290815   2.400   2.222   3.343 -0.6878  1.4280  0.1561
28327SOL     OW90816   0.073   5.049   7.019  0.1569 -0.2000 -0.3255
28327SOL    HW190817   0.002   5.108   7.044 -0.4629 -0.2057 -1.9219
28327SOL    HW290818   0.125   5.038   7.098 -1.7328 -0.3545  0.9539
28328SOL     OW90819   2.335   9.426   0.199  0.5139  0.1074  0.0576
28328SOL    HW190820   2.261   9.375   0.231  0.5607  0.2383  0.3785
28328SOL    HW290821   2.309   9.454   0.111  0.6066 -0.7098 -0.2476
28329SOL     OW90822   0.415   3.259   8.122  0.1274  0.2253 -0.3329
28329SOL    HW190823   0.342   3.317   8.145  0.5455  0.9646 -0.8315
28329SOL    HW290824   0.425   3.269   8.028  1.6989  1.1312 -0.1055
28330SOL     OW90825   9.827   3.319   8.146 -0.0707  0.1685 -0.2078
28330SOL    HW190826   9.742   3.279   8.164  0.1957 -0.1031  0.4970
28330SOL    HW290827   9.884   3.245   8.125 -0.0975  0.3835 -1.0728
28331SOL     OW90828   2.847   2.302   1.067 -0.2876  0.5273 -0.0189
28331SOL    HW190829   2.829   2.292   1.161  1.0147  2.0921  0.4417
28331SOL    HW290830   2.883   2.390   1.059 -0.3340  0.4061 -2.0037
28332SOL     OW90831  10.629   2.622   7.725  0.5266 -0.2494  0.4088
28332SOL    HW190832  10.596   2.543   7.768  2.0976 -1.0820  0.1497
28332SOL    HW290833  10.699   2.591   7.668 -0.5404  1.0004 -1.7300
28333SOL     OW90834  10.010   9.368   3.336  0.0141  0.0843 -0.5012
28333SOL    HW190835   9.919   9.399   3.341  0.2127  0.7393 -0.7982
28333SOL    HW290836  10.007   9.278   3.368 -0.6397  0.3052  0.0704
28334SOL     OW90837   7.004   7.934   6.676  0.1242 -0.2247 -0.1501
28334SOL    HW190838   6.937   7.968   6.617 -0.8590 -1.4468  0.2090
28334SOL    HW290839   7.039   7.858   6.629 -0.1903 -0.7971  0.5261
28335SOL     OW90840  10.340   9.016   8.044  0.1506  0.3271 -0.2005
28335SOL    HW190841  10.376   9.002   8.131 -1.4020 -1.2528  0.2163
28335SOL    HW290842  10.254   9.056   8.059 -0.9657 -1.7051 -0.8782
28336SOL     OW90843   8.476   5.460   5.957 -0.5325  0.6059  0.6811
28336SOL    HW190844   8.407   5.395   5.949  0.7333 -0.6962 -0.2090
28336SOL    HW290845   8.558   5.410   5.949  0.4932  2.3317 -0.4887
28337SOL     OW90846   2.880   4.718   7.382 -0.4570 -0.2871 -0.5578
28337SOL    HW190847   2.840   4.646   7.431 -0.7796  0.1490 -0.1687
28337SOL    HW290848   2.975   4.703   7.390 -0.5175 -0.5064 -0.2376
28338SOL     OW90849   7.289   4.434   9.250 -0.4130 -0.0086 -0.5202
28338SOL    HW190850   7.349   4.484   9.196  0.3799 -0.6100 -0.2036
28338SOL    HW290851   7.202   4.468   9.226  0.0966  1.5999 -0.2266
28339SOL     OW90852   6.805   5.210   8.908  1.0717  0.3090 -0.1572
28339SOL    HW190853   6.814   5.237   8.816 -2.2571 -2.2594 -1.4813
28339SOL    HW290854   6.732   5.263   8.941  1.6840  0.6058  0.7388
28340SOL     OW90855  10.393   8.657   4.460 -0.3856 -0.2020  0.1237
28340SOL    HW190856  10.426   8.679   4.372  0.1409 -0.4976  0.2428
28340SOL    HW290857  10.332   8.585   4.446 -2.3088  1.4056 -0.3033
28341SOL     OW90858   5.359   2.673   7.264 -0.4418  0.1085 -0.3055
28341SOL    HW190859   5.386   2.600   7.208  0.0755 -0.7128  0.9893
28341SOL    HW290860   5.265   2.661   7.275 -0.6620  0.6103 -1.4345
28342SOL     OW90861   2.485   1.643   3.292  0.8282  0.3644 -0.2121
28342SOL    HW190862   2.398   1.630   3.330  0.9973 -1.3732 -0.3378
28342SOL    HW290863   2.523   1.714   3.344 -0.2386  0.3776  0.5911
28343SOL     OW90864   9.335   9.689   2.836 -0.8439 -0.4229 -0.5696
28343SOL    HW190865   9.312   9.741   2.759  0.3565 -0.5006 -0.9967
28343SOL    HW290866   9.257   9.693   2.891 -1.3476  0.5041 -1.3133
28344SOL     OW90867   2.273   3.935   3.445 -0.0714 -0.4160 -0.4987
28344SOL    HW190868   2.291   4.028   3.458  0.0063 -0.6064  0.8949
28344SOL    HW290869   2.216   3.911   3.518  0.0264 -1.4929 -0.7617
28345SOL     OW90870   2.571   4.253   5.898  0.2153 -0.0888  0.4567
28345SOL    HW190871   2.615   4.171   5.917  1.6651  1.1301  2.8797
28345SOL    HW290872   2.479   4.237   5.919  0.5616 -0.9701  1.3829
28346SOL     OW90873  10.090   0.215   0.192  0.3507  0.1407 -0.3863
28346SOL    HW190874  10.092   0.227   0.287  1.1571  2.1815 -0.6264
28346SOL    HW290875  10.178   0.185   0.170 -0.0772 -1.1409 -0.4223
28347SOL     OW90876   2.109   7.890   7.970  0.8492  0.7617  0.7861
28347SOL    HW190877   2.164   7.935   8.034  1.4673  1.3981 -0.1769
28347SOL    HW290878   2.032   7.947   7.961  1.0771  1.0260  0.4679
28348SOL     OW90879   2.571   9.242   9.108  0.1305  0.4688  0.1302
28348SOL    HW190880   2.647   9.194   9.143  1.0650  0.7140 -1.4545
28348SOL    HW290881   2.569   9.324   9.159  1.6531  0.9611 -0.5335
28349SOL     OW90882   1.819   9.713   9.067  0.6200  0.0273  0.0408
28349SOL    HW190883   1.744   9.727   9.010 -0.8106 -0.3537  1.7231
28349SOL    HW290884   1.859   9.799   9.077 -0.1152  0.3998 -0.2139
28350SOL     OW90885   1.829   6.080   9.828  0.0414  0.6944  0.5131
28350SOL    HW190886   1.835   6.169   9.793 -0.3117  0.8974  0.9650
28350SOL    HW290887   1.739   6.054   9.812 -0.1406  0.8141  1.3298
28351SOL     OW90888   1.637   5.641  10.240 -0.2999  0.0376  0.0300
28351SOL    HW190889   1.666   5.579  10.173  0.5808  0.7150 -0.2375
28351SOL    HW290890   1.620   5.722  10.192  4.8525  2.0838  0.9684
28352SOL     OW90891   4.972   0.394   5.140 -0.7237 -0.8340  0.2006
28352SOL    HW190892   4.968   0.489   5.155  0.1203 -0.3318 -2.3776
28352SOL    HW290893   4.924   0.357   5.214  0.3127  1.4792  2.1743
28353SOL     OW90894   1.156   6.002   4.106 -0.0319 -0.2379 -0.5088
28353SOL    HW190895   1.228   5.975   4.162 -0.1210 -0.9443 -0.7181
28353SOL    HW290896   1.078   5.969   4.150 -0.3199  1.2428  0.1448
28354SOL     OW90897   8.634   5.497  10.051  0.2746 -0.4224 -0.1479
28354SOL    HW190898   8.543   5.480  10.028  0.2135 -0.1244 -0.1246
28354SOL    HW290899   8.663   5.416  10.093 -0.1570 -0.3026  0.3888
28355SOL     OW90900   5.881   6.562   6.564  0.0737  0.0679  0.7391
28355SOL    HW190901   5.958   6.611   6.592  0.2338 -0.2692  0.9039
28355SOL    HW290902   5.842   6.615   6.494 -0.1347  0.7551  1.3622
28356SOL     OW90903   5.443   9.381   8.470  0.0146  0.2895 -0.4945
28356SOL    HW190904   5.528   9.373   8.514  0.9319 -0.1612 -2.2356
28356SOL    HW290905   5.464   9.415   8.383 -1.7471  1.3821 -0.5437
28357SOL     OW90906   5.426   7.713   1.429 -0.1732  0.4408 -0.3386
28357SOL    HW190907   5.385   7.636   1.390  0.4852 -0.8944  1.4756
28357SOL    HW290908   5.359   7.781   1.425 -0.8483 -0.2641 -1.7860
28358SOL     OW90909   1.484   8.805   1.772  0.2605  0.4616 -0.6544
28358SOL    HW190910   1.559   8.746   1.779  0.6045  1.0567  1.3522
28358SOL    HW290911   1.473   8.819   1.678  1.3085 -1.3262 -1.0849
28359SOL     OW90912   8.834   8.819   4.113  0.0206  0.2680  0.0002
28359SOL    HW190913   8.848   8.904   4.155  0.6915  0.6525 -0.9628
28359SOL    HW290914   8.910   8.808   4.055 -0.1831 -0.8788 -0.0724
28360SOL     OW90915   0.534   1.093   8.700  0.0457 -0.2548 -0.3277
28360SOL    HW190916   0.539   1.124   8.790 -0.3000  1.5440 -0.8947
28360SOL    HW290917   0.441   1.083   8.683  0.1337 -3.2255  0.2975
28361SOL     OW90918  10.710   1.742   7.078 -0.0537  0.3466  0.2265
28361SOL    HW190919  10.635   1.735   7.019 -1.4437 -0.6297  2.0198
28361SOL    HW290920  10.672   1.751   7.165  1.9306  0.8479  1.1035
28362SOL     OW90921   6.027   7.616   8.551  0.0213  0.1350 -0.1366
28362SOL    HW190922   5.933   7.612   8.534  0.0964  0.2573 -0.5951
28362SOL    HW290923   6.066   7.631   8.465  0.3885  1.1521  0.2032
28363SOL     OW90924   8.986   0.650   3.219  0.9394 -0.0327 -0.1641
28363SOL    HW190925   8.903   0.664   3.174  0.7529  0.9244  0.4315
28363SOL    HW290926   9.050   0.702   3.169  0.7957  0.7656  0.4628
28364SOL     OW90927   1.718  10.364   3.912 -0.2002  0.4048  0.2126
28364SOL    HW190928   1.705  10.372   3.817  0.0512 -0.4079  0.1045
28364SOL    HW290929   1.632  10.338   3.945 -0.0132 -0.4214  0.0642
28365SOL     OW90930   6.175   4.696   6.167 -0.1396 -0.4039 -0.4128
28365SOL    HW190931   6.187   4.790   6.174  2.7599 -0.4876 -2.6617
28365SOL    HW290932   6.242   4.659   6.224 -1.0957 -1.1410  0.2610
28366SOL     OW90933   8.453   4.676   2.102  0.1464 -0.4103  0.0479
28366SOL    HW190934   8.449   4.674   2.197 -1.0809  2.2123  0.1076
28366SOL    HW290935   8.362   4.667   2.073  0.0076  2.5776 -0.6908
28367SOL     OW90936   6.622   0.512   7.757  0.3899 -0.3420 -0.1373
28367SOL    HW190937   6.542   0.557   7.784  0.7533 -0.0903  0.5505
28367SOL    HW290938   6.655   0.472   7.837 -0.1374 -2.2290 -0.8025
28368SOL     OW90939   7.980   3.651   4.015  0.3893  0.0866  0.1155
28368SOL    HW190940   8.070   3.684   4.020  0.5013 -0.2438  0.2953
28368SOL    HW290941   7.978   3.576   4.075  0.2108 -0.3990 -0.4819
28369SOL     OW90942   1.300   8.726   4.360 -0.2069 -0.0373  0.3535
28369SOL    HW190943   1.349   8.714   4.278 -0.6129 -0.7289  0.2048
28369SOL    HW290944   1.209   8.710   4.336 -0.4428  0.6425  0.7583
28370SOL     OW90945   5.587   1.495   4.611 -0.2137  0.0535 -0.4933
28370SOL    HW190946   5.656   1.442   4.570 -0.4690 -0.0933 -0.7409
28370SOL    HW290947   5.509   1.476   4.559 -0.9894 -1.5757  1.1731
28371SOL     OW90948   6.600   8.119   6.574  0.5633  0.0111 -0.2015
28371SOL    HW190949   6.638   8.207   6.575  1.4323 -0.3625  1.4142
28371SOL    HW290950   6.556   8.111   6.658 -0.3286 -0.7744 -0.7243
28372SOL     OW90951   3.157   1.872   5.900 -0.2106 -0.0126 -0.1499
28372SOL    HW190952   3.070   1.835   5.891 -0.8532  1.2182  0.7668
28372SOL    HW290953   3.203   1.813   5.959  0.2347 -1.7039 -2.0812
28373SOL     OW90954   1.681   9.442   6.291 -0.2999 -0.3350  0.0924
28373SOL    HW190955   1.632   9.518   6.322 -3.6759 -1.5385 -1.7017
28373SOL    HW290956   1.617   9.391   6.241  2.3531 -3.2334 -0.7078
28374SOL     OW90957   2.942  10.245   2.537  0.5029  0.5360  0.6526
28374SOL    HW190958   2.864  10.299   2.522  0.0878 -0.7987 -3.1877
28374SOL    HW290959   3.006  10.278   2.475  0.8461 -2.1146 -0.5222
28375SOL     OW90960   2.460   2.712   8.517  0.0302 -0.0546  0.5577
28375SOL    HW190961   2.369   2.716   8.547  0.2085 -1.0035  1.2654
28375SOL    HW290962   2.457   2.744   8.427 -1.2056 -1.2503  0.1426
28376SOL     OW90963   0.113   6.105   2.901  0.3102  0.4051  0.6223
28376SOL    HW190964   0.152   6.071   2.821  1.5508 -0.1724  1.4476
28376SOL    HW290965   0.018   6.094   2.888  0.4786  0.4289 -0.7893
28377SOL     OW90966   1.625   0.888   0.380  0.0654 -0.2478  0.1921
28377SOL    HW190967   1.638   0.980   0.357 -0.5229 -0.1895  0.0694
28377SOL    HW290968   1.534   0.870   0.356  0.2426 -0.9279 -0.0030
28378SOL     OW90969   8.163   0.791   1.104 -0.0900  0.6060 -0.5143
28378SOL    HW190970   8.164   0.863   1.166 -0.4124 -0.3793  0.6844
28378SOL    HW290971   8.223   0.818   1.034  1.2921  1.2278  0.8500
28379SOL     OW90972  10.447   2.512   2.929  0.5642  1.0038  0.5056
28379SOL    HW190973  10.422   2.445   2.992 -0.4416  1.4160  0.5584
28379SOL    HW290974  10.455   2.592   2.981 -0.8792  1.4789  0.0343
28380SOL     OW90975   8.513   0.196   4.669 -0.1165 -0.1309 -0.1789
28380SOL    HW190976   8.594   0.240   4.695 -0.2664 -0.9967  1.9378
28380SOL    HW290977   8.479   0.249   4.596  1.8533  0.7695 -0.4961
28381SOL     OW90978   4.808   0.846   9.168 -0.3176 -0.2116  0.4953
28381SOL    HW190979   4.881   0.785   9.174  0.2419  0.0788 -2.0168
28381SOL    HW290980   4.823   0.910   9.238  2.1519  0.1175 -0.2318
28382SOL     OW90981   9.441   2.488   9.556 -0.0144  0.3334  0.0151
28382SOL    HW190982   9.441   2.547   9.631  3.3670  0.8619 -0.2453
28382SOL    HW290983   9.389   2.534   9.489  1.6106  2.5715  0.1878
28383SOL     OW90984   3.372   9.444   6.134  0.7808  0.2874 -0.5945
28383SOL    HW190985   3.316   9.371   6.105  2.0366 -1.5341  1.2215
28383SOL    HW290986   3.328   9.478   6.211  2.0721 -1.1993  0.8844
28384SOL     OW90987   4.067   8.860   8.806  0.3112 -0.0698 -0.5796
28384SOL    HW190988   4.150   8.904   8.824  0.5205 -0.2583 -1.0594
28384SOL    HW290989   4.087   8.799   8.735 -0.3188  0.1473 -0.9590
28385SOL     OW90990   6.315   8.159   2.619  0.1915  0.5937 -0.5504
28385SOL    HW190991   6.344   8.133   2.531  0.3772 -1.7169  0.1372
28385SOL    HW290992   6.396   8.163   2.670 -0.2118 -1.8471  0.3861
28386SOL     OW90993   7.267  10.173   1.717 -0.1941  0.7162 -1.0042
28386SOL    HW190994   7.185  10.124   1.721 -0.6555  1.5467  1.4777
28386SOL    HW290995   7.321  10.135   1.786  1.2829  0.6340 -2.1598
28387SOL     OW90996   9.273   5.910   3.791  0.4843  0.2965  0.2239
28387SOL    HW190997   9.286   5.989   3.843  0.3932  1.5431 -1.5369
28387SOL    HW290998   9.220   5.939   3.716 -3.0031 -2.2324  1.4137
28388SOL     OW90999   7.856   5.707   3.487 -0.2698 -0.0500 -0.7655
28388SOL    HW191000   7.766   5.679   3.474 -0.9288  0.4340  2.1709
28388SOL    HW291001   7.849   5.790   3.533  1.6665 -0.3510  0.1585
28389SOL     OW91002   2.680   1.485  10.338 -0.8184 -0.1544  0.0025
28389SOL    HW191003   2.767   1.454  10.313  0.6190  3.2360  0.2341
28389SOL    HW291004   2.620   1.440  10.278  1.4568 -0.0099 -2.5761
28390SOL     OW91005   1.099  10.536   0.240  0.1820 -0.1606 -0.7738
28390SOL    HW191006   1.115  10.449   0.203  1.6245  0.0571 -0.7295
28390SOL    HW291007   1.011  10.531   0.276 -0.4360 -1.0733 -2.2807
28391SOL     OW91008   4.493   2.232   0.061  0.1207  0.7785 -0.1045
28391SOL    HW191009   4.431   2.161   0.077 -0.2028  0.9180 -0.7290
28391SOL    HW291010   4.448   2.310   0.093  0.0462  0.8528 -0.3887
28392SOL     OW91011   5.971   2.837   5.826  0.1436 -0.5417 -0.3403
28392SOL    HW191012   5.877   2.837   5.811 -0.1767 -0.8698  1.4271
28392SOL    HW291013   6.006   2.777   5.760 -1.1723 -2.2304  0.4027
28393SOL     OW91014   7.209   0.979   5.729 -0.0773  0.4552  0.1087
28393SOL    HW191015   7.141   0.917   5.704 -1.3510  1.5398  0.7678
28393SOL    HW291016   7.162   1.061   5.745  1.3264  1.1116  1.0490
28394SOL     OW91017   6.643  10.653   9.470 -0.0145 -0.0488  0.4982
28394SOL    HW191018   6.641  10.618   9.381  0.6310  0.8869  0.1044
28394SOL    HW291019   6.736  10.659   9.492 -0.1683 -1.7858  1.8758
28395SOL     OW91020   7.449   2.096   6.298 -0.4755 -0.4712 -0.1322
28395SOL    HW191021   7.531   2.054   6.272  0.2466 -0.2110  1.5800
28395SOL    HW291022   7.391   2.023   6.321 -0.0841 -0.6052  0.4317
28396SOL     OW91023   4.816   1.076   8.113 -0.4974  0.1855 -0.3401
28396SOL    HW191024   4.794   0.984   8.133 -1.3227  0.5997  0.7783
28396SOL    HW291025   4.804   1.122   8.196 -1.3443  1.5397 -1.1732
28397SOL     OW91026   3.700   3.895   8.113 -0.4599 -0.1276  0.0837
28397SOL    HW191027   3.782   3.869   8.155 -1.0752  0.4425  1.7290
28397SOL    HW291028   3.655   3.813   8.095 -1.3552 -0.4141  3.0790
28398SOL     OW91029   8.339  10.711   6.368 -0.6458 -0.2485 -0.0699
28398SOL    HW191030   8.276  10.712   6.440  0.1419 -0.7834  0.6672
28398SOL    HW291031   8.329  10.795   6.325 -1.0262  0.1571  0.7851
28399SOL     OW91032   1.043   3.615   3.741  0.1546  0.7239  0.2397
28399SOL    HW191033   0.990   3.537   3.725  1.9528 -0.2240 -1.5426
28399SOL    HW291034   1.063   3.612   3.835 -1.7457  0.3632  0.6597
28400SOL     OW91035   5.025   7.059   0.979  0.4949 -0.0107 -0.1965
28400SOL    HW191036   4.931   7.045   0.988  0.6287 -1.4826 -0.7676
28400SOL    HW291037   5.033   7.149   0.946 -0.6583  0.3300  0.3914
28401SOL     OW91038   9.203   0.225   2.375 -0.3608 -0.3034  0.6630
28401SOL    HW191039   9.183   0.234   2.281 -0.7283  0.8797  0.8300
28401SOL    HW291040   9.201   0.131   2.391 -3.5979 -0.4298  0.1557
28402SOL     OW91041  10.698   4.868   4.180  0.4918  0.4631 -0.5966
28402SOL    HW191042  10.660   4.856   4.093  1.2129 -0.8612 -0.7675
28402SOL    HW291043  10.673   4.956   4.206 -1.3320  0.2099 -1.3504
28403SOL     OW91044   9.427   1.857  10.050  0.4189 -0.2027 -0.2908
28403SOL    HW191045   9.483   1.876   9.975 -0.1399 -1.4754 -1.0715
28403SOL    HW291046   9.342   1.893  10.026  0.6282  0.8250  0.4514
28404SOL     OW91047  10.192  10.285   4.100  0.5078  0.1514 -0.5264
28404SOL    HW191048  10.099  10.274   4.121 -0.0131  2.1957 -1.5532
28404SOL    HW291049  10.225  10.195   4.092 -0.6476 -0.6938  2.6888
28405SOL     OW91050   9.665   3.807   0.457 -0.2581  0.1342 -0.6679
28405SOL    HW191051   9.745   3.858   0.464 -0.0090 -0.2571 -0.6086
28405SOL    HW291052   9.598   3.861   0.499  0.3347 -0.2744  0.8967
28406SOL     OW91053   4.073   1.896   8.902 -0.1142 -0.3264  0.0636
28406SOL    HW191054   4.148   1.935   8.946 -0.2827  0.7513 -0.5479
28406SOL    HW291055   4.090   1.911   8.809 -0.0963 -1.9284 -0.2068
28407SOL     OW91056   6.479   2.162   2.895 -0.3904 -0.2775 -0.1058
28407SOL    HW191057   6.489   2.129   2.806  2.0838 -0.7921  0.3035
28407SOL    HW291058   6.527   2.244   2.896  0.0385 -0.5267  0.8725
28408SOL     OW91059   1.452   9.993   4.947 -0.1589  0.2194 -0.0454
28408SOL    HW191060   1.476   9.907   4.912 -0.8023 -0.4848  1.1851
28408SOL    HW291061   1.357   9.990   4.956 -0.1073  0.7287  0.8095
28409SOL     OW91062   8.909   2.123   7.003 -0.5032 -0.9777 -0.1873
28409SOL    HW191063   8.907   2.130   6.907 -0.7682  0.9985 -0.0697
28409SOL    HW291064   8.818   2.138   7.029 -0.2225 -0.3159  0.4293
28410SOL     OW91065   6.549   7.956   2.391 -0.1374 -0.1111 -0.0352
28410SOL    HW191066   6.501   8.039   2.396  0.4045  0.1763  0.4808
28410SOL    HW291067   6.641   7.981   2.383  0.0472 -0.6622  0.3061
28411SOL     OW91068   3.164   0.838   6.632  0.2318  0.2893 -0.2186
28411SOL    HW191069   3.182   0.778   6.704  1.3328  0.6766 -0.1469
28411SOL    HW291070   3.123   0.784   6.565 -0.8766 -0.0569  0.7202
28412SOL     OW91071   5.864   5.889   9.826  0.2162  0.1765  0.2322
28412SOL    HW191072   5.931   5.874   9.760  0.4220 -0.9857  0.6830
28412SOL    HW291073   5.821   5.970   9.799  1.9487  1.0830  0.0765
28413SOL     OW91074   2.680   1.045   2.093 -0.1301  0.3974  0.7026
28413SOL    HW191075   2.685   0.955   2.062 -3.6102  0.6176 -0.9900
28413SOL    HW291076   2.760   1.057   2.145  2.1219 -2.5727 -1.6893
28414SOL     OW91077   7.292   7.877   7.458  0.5859  0.0935  0.5297
28414SOL    HW191078   7.282   7.905   7.549  1.7592  0.7458  0.4769
28414SOL    HW291079   7.350   7.942   7.418  2.1489 -1.5283 -0.0064
28415SOL     OW91080   2.069   0.957   2.341  0.7043  0.4124  0.0292
28415SOL    HW191081   2.022   1.039   2.353  0.8414  0.6214 -0.7917
28415SOL    HW291082   2.122   0.948   2.420 -2.4846 -1.0839  2.1835
28416SOL     OW91083   9.697   6.565   9.375 -0.5395  0.1133  0.4613
28416SOL    HW191084   9.757   6.560   9.449  2.2882  0.1352 -1.6771
28416SOL    HW291085   9.664   6.476   9.365 -0.3657 -0.0496  1.2492
28417SOL     OW91086   3.435   0.870   8.031 -0.4940  0.0601  0.2849
28417SOL    HW191087   3.469   0.955   8.005 -0.5949  0.4385  1.3115
28417SOL    HW291088   3.464   0.809   7.964  0.2282  0.7786 -0.0547
28418SOL     OW91089   0.320   4.197   6.548 -0.1053 -0.4528  0.5194
28418SOL    HW191090   0.300   4.203   6.455  2.6492 -0.0251 -0.1389
28418SOL    HW291091   0.325   4.103   6.566 -3.2630 -0.6225  0.9603
28419SOL     OW91092   1.108   7.752   2.568 -0.6669  0.1460 -0.3450
28419SOL    HW191093   1.034   7.762   2.508 -0.5934 -0.3892 -0.5281
28419SOL    HW291094   1.143   7.841   2.578  0.3872  0.0211 -2.4689
28420SOL     OW91095   0.790   3.673   3.953 -0.6143  0.1092  0.2147
28420SOL    HW191096   0.725   3.671   4.024  0.1514  0.1579  0.9425
28420SOL    HW291097   0.758   3.740   3.893 -1.7132 -0.5131  0.0800
28421SOL     OW91098   3.099   9.138   0.388  0.6056  0.2991 -0.6631
28421SOL    HW191099   3.136   9.146   0.300  1.0398 -0.0178 -0.5094
28421SOL    HW291100   3.111   9.046   0.411 -0.2803  0.1828 -0.6104
28422SOL     OW91101   3.776   5.447   6.223  0.4469 -0.0350  0.8906
28422SOL    HW191102   3.681   5.435   6.218  0.3894 -0.7243  2.7470
28422SOL    HW291103   3.788   5.540   6.244  0.1661 -0.0426  1.0814
28423SOL     OW91104   6.324  10.719   6.801  0.0730 -0.0309 -0.2341
28423SOL    HW191105   6.386  10.778   6.843  1.4072 -1.5322 -0.0199
28423SOL    HW291106   6.369  10.689   6.721 -1.5122  1.0071 -1.5894
28424SOL     OW91107   9.050   9.147   9.233 -0.0371  0.0879  0.4363
28424SOL    HW191108   8.959   9.117   9.224  0.2873 -1.4544  1.9361
28424SOL    HW291109   9.069   9.140   9.326  1.0679  2.1661  0.4298
28425SOL     OW91110   5.703   8.574   7.001  0.5547  0.0826 -0.6607
28425SOL    HW191111   5.652   8.536   7.072  0.4484  0.0170 -0.7726
28425SOL    HW291112   5.646   8.569   6.924  0.3051  1.0080 -0.5511
28426SOL     OW91113   4.007   7.816   4.623  0.2836  0.3814 -0.1181
28426SOL    HW191114   4.090   7.797   4.578 -0.9866 -0.8605 -2.0771
28426SOL    HW291115   3.956   7.864   4.559 -0.6558  0.8316  0.9475
28427SOL     OW91116   2.798  10.055   6.570  0.2239  0.2927  0.4272
28427SOL    HW191117   2.756  10.010   6.644  0.7179  1.3027  1.3522
28427SOL    HW291118   2.871  10.103   6.609  1.2725 -0.1550 -0.9234
28428SOL     OW91119   8.150   4.147   8.436 -0.4412  0.4072  0.0171
28428SOL    HW191120   8.118   4.060   8.460 -1.7510  1.5768  3.0707
28428SOL    HW291121   8.238   4.151   8.473 -0.0546  0.1233 -0.8544
28429SOL     OW91122   2.760   4.068   9.494  0.0502 -0.4601  0.2689
28429SOL    HW191123   2.746   4.160   9.474  2.3072 -0.0297  0.3843
28429SOL    HW291124   2.705   4.020   9.432  0.4877  0.9400 -1.2493
28430SOL     OW91125   2.776   7.355   6.003  0.1219  0.2312  0.3812
28430SOL    HW191126   2.779   7.261   6.022  0.1265 -0.1685 -1.3595
28430SOL    HW291127   2.782   7.359   5.907 -1.8232  1.9095  0.2729
28431SOL     OW91128   2.361   4.224   2.096 -0.1651  0.5211  0.4024
28431SOL    HW191129   2.334   4.315   2.087  0.2093  0.5622 -0.3187
28431SOL    HW291130   2.432   4.213   2.033  0.2997 -0.0707  1.0042
28432SOL     OW91131   3.173   1.589   0.339  0.0955  0.3772  0.2720
28432SOL    HW191132   3.123   1.533   0.279  0.1288  1.0976 -0.4522
28432SOL    HW291133   3.126   1.583   0.422  0.0785 -0.6812  0.1973
28433SOL     OW91134   0.847   0.681  10.162 -0.5340  0.1377  0.2492
28433SOL    HW191135   0.755   0.698  10.139 -0.6110 -2.1540 -1.3877
28433SOL    HW291136   0.897   0.740  10.106 -0.9537 -0.8202 -1.1932
28434SOL     OW91137   0.940   0.713   0.749  0.2689  0.2201  0.0008
28434SOL    HW191138   1.029   0.736   0.776  0.1938  1.4600 -0.7316
28434SOL    HW291139   0.884   0.771   0.799 -0.0664  0.1572 -0.2947
28435SOL     OW91140   6.544   7.770   4.093  0.0033  0.1421 -0.2092
28435SOL    HW191141   6.491   7.789   4.015  2.6734 -0.4052 -2.3189
28435SOL    HW291142   6.575   7.681   4.079 -0.1540 -0.3222  2.0041
28436SOL     OW91143   8.547   3.500   0.471  0.1532 -0.2578  0.0009
28436SOL    HW191144   8.570   3.505   0.563  1.9003  0.0210 -0.4136
28436SOL    HW291145   8.474   3.438   0.467 -0.9412  0.8600  1.7099
28437SOL     OW91146   4.710  10.618   8.596 -0.5088  0.5368 -1.1412
28437SOL    HW191147   4.700  10.710   8.622  0.8374 -0.4435  3.9729
28437SOL    HW291148   4.624  10.579   8.611 -0.3171  0.4451 -0.1758
28438SOL     OW91149   0.231   4.794   3.756 -0.3383 -0.1449 -0.1922
28438SOL    HW191150   0.325   4.781   3.770 -0.0567  0.8371 -1.0189
28438SOL    HW291151   0.221   4.794   3.661 -1.5136 -2.3089 -0.1446
28439SOL     OW91152   3.124  10.556   6.037  0.2277  0.1188 -0.2433
28439SOL    HW191153   3.099  10.583   6.125  2.0032  0.2174  0.2731
28439SOL    HW291154   3.041  10.539   5.992 -0.7105  0.1836  1.3997
28440SOL     OW91155   7.655   8.790   8.283  0.5581 -0.4060  0.1205
28440SOL    HW191156   7.644   8.882   8.304 -0.5942 -0.1928 -1.2705
28440SOL    HW291157   7.597   8.744   8.344 -1.6167  0.0969 -1.4417
28441SOL     OW91158   6.568   5.624   5.117  0.4989 -0.3575 -0.2227
28441SOL    HW191159   6.547   5.547   5.170  0.6946 -0.1908  0.0970
28441SOL    HW291160   6.649   5.600   5.071  0.7789 -0.1915  0.1836
28442SOL     OW91161   9.434   3.293   7.151  0.1251 -0.1013  0.2908
28442SOL    HW191162   9.375   3.220   7.168  0.0208 -0.0882 -0.0159
28442SOL    HW291163   9.508   3.254   7.104 -0.4802  0.1895 -0.9263
28443SOL     OW91164   6.991   0.463   8.660 -0.0184  0.2088  0.5063
28443SOL    HW191165   6.944   0.504   8.588  0.9285 -0.4752 -0.5362
28443SOL    HW291166   6.936   0.390   8.686  0.1464 -0.2000 -0.2678
28444SOL     OW91167   4.639   3.991   6.612  0.4062  0.3197  0.3027
28444SOL    HW191168   4.635   3.895   6.612 -3.6520  0.2314 -2.4493
28444SOL    HW291169   4.696   4.013   6.538  0.0386 -0.0142 -0.0828
28445SOL     OW91170   2.742   1.974   6.608  0.4587 -0.3609 -0.1566
28445SOL    HW191171   2.819   1.926   6.576 -0.2565 -0.8454 -1.2292
28445SOL    HW291172   2.704   2.012   6.529 -0.9589 -0.9546  0.2124
28446SOL     OW91173   6.916   6.962   5.559  0.3837  0.4668  0.6568
28446SOL    HW191174   6.997   6.937   5.514  0.6453  1.4933  0.5351
28446SOL    HW291175   6.897   7.050   5.527 -0.6370  0.3440  0.8971
28447SOL     OW91176  10.601   9.866   9.730  0.4882  0.4078  0.3555
28447SOL    HW191177  10.649   9.828   9.804  3.3686 -0.1409 -1.6395
28447SOL    HW291178  10.641   9.952   9.718  0.5143  0.2309 -0.9356
28448SOL     OW91179   1.080   9.979   0.324 -0.1421  0.3098 -0.3238
28448SOL    HW191180   1.172   9.984   0.350 -0.4700  3.1681  0.6267
28448SOL    HW291181   1.051   9.893   0.354  2.1396 -0.6052 -0.5299
28449SOL     OW91182   6.064   7.030   1.643  0.2877 -0.1232  0.8401
28449SOL    HW191183   5.989   7.088   1.653  0.4669  0.7714 -2.0831
28449SOL    HW291184   6.117   7.044   1.722 -0.6616  2.2095  1.1328
28450SOL     OW91185   9.845   7.633   6.540  0.0389 -0.1720 -0.0484
28450SOL    HW191186   9.904   7.634   6.615 -0.8339 -0.6115  0.6704
28450SOL    HW291187   9.866   7.552   6.493 -0.7805 -0.9559  0.8844
28451SOL     OW91188   8.549   8.915   8.415 -0.1898 -0.0983 -0.0115
28451SOL    HW191189   8.622   8.957   8.369 -0.8153  1.0626  0.0225
28451SOL    HW291190   8.588   8.878   8.494  0.9938 -2.4914 -1.5997
28452SOL     OW91191   0.990   8.396   0.338  0.2529 -0.0311 -0.0925
28452SOL    HW191192   0.906   8.352   0.353 -1.1613  1.4098 -2.9502
28452SOL    HW291193   1.016   8.367   0.250  0.8464  2.3530 -0.7539
28453SOL     OW91194   7.274   6.381   7.677 -0.3574 -0.0229 -0.0602
28453SOL    HW191195   7.255   6.413   7.765  0.8058  1.1154 -0.1866
28453SOL    HW291196   7.251   6.288   7.679  0.7720 -0.3097  1.8186
28454SOL     OW91197   4.230   8.882   9.031 -0.1479  0.1113  0.0238
28454SOL    HW191198   4.168   8.825   8.986 -0.5323 -0.5543  1.3376
28454SOL    HW291199   4.193   8.892   9.119 -0.0165  2.2644 -0.0944
28455SOL     OW91200   7.411   0.455   5.982 -0.0205 -0.1348 -0.4620
28455SOL    HW191201   7.373   0.521   5.923  1.6574  0.8208 -0.5254
28455SOL    HW291202   7.337   0.426   6.035 -1.2565  0.1288 -1.9746
28456SOL     OW91203   2.199   1.364   3.352  0.7827 -0.6439  0.2027
28456SOL    HW191204   2.186   1.350   3.258  1.4012 -0.8420  0.1437
28456SOL    HW291205   2.213   1.458   3.360 -1.5547 -0.2438  0.3837
28457SOL     OW91206   5.100   7.593   4.771  0.2631  0.7238 -0.4244
28457SOL    HW191207   5.069   7.647   4.698 -1.0993  1.2253  0.4951
28457SOL    HW291208   5.113   7.506   4.733 -1.0759  0.8060 -1.1333
28458SOL     OW91209   5.552   8.047   8.495 -0.0412 -0.0904  0.2017
28458SOL    HW191210   5.515   8.133   8.474 -2.5576 -0.9456  0.7917
28458SOL    HW291211   5.575   8.010   8.410 -0.5966  0.4831 -0.2120
28459SOL     OW91212   9.477   1.951   5.693  0.4870 -0.0454  0.0352
28459SOL    HW191213   9.521   1.869   5.718  0.0352  0.3675  2.4144
28459SOL    HW291214   9.411   1.924   5.630  2.0112 -1.1130 -1.1980
28460SOL     OW91215   9.540   0.908   1.639  0.2171  0.3565 -0.2577
28460SOL    HW191216   9.586   0.830   1.609 -0.2716 -0.4427  1.0006
28460SOL    HW291217   9.602   0.951   1.698 -0.4443 -0.5290  1.1511
28461SOL     OW91218   0.049   8.512   9.934 -0.0810 -0.0849 -0.0900
28461SOL    HW191219  -0.035   8.519   9.887 -0.3616  0.7153  0.5121
28461SOL    HW291220   0.028   8.460  10.012 -0.3519  1.2766  0.7767
28462SOL     OW91221   3.915   8.059   0.674 -0.6099  0.1651 -0.4247
28462SOL    HW191222   3.926   7.989   0.739  0.2389 -0.4204 -1.1713
28462SOL    HW291223   3.887   8.013   0.594  1.6351  0.4054 -1.4299
28463SOL     OW91224   1.767   8.237   2.629  0.3072 -0.4538 -0.6700
28463SOL    HW191225   1.812   8.180   2.567  2.7579  0.7309 -0.0953
28463SOL    HW291226   1.770   8.324   2.589 -1.8592 -0.3789 -0.7684
28464SOL     OW91227   7.866   3.975   4.672  0.1346  0.0263 -0.2428
28464SOL    HW191228   7.860   4.001   4.764 -0.5281  1.7079 -0.7169
28464SOL    HW291229   7.905   4.052   4.629 -1.1236 -0.0608 -1.6125
28465SOL     OW91230   1.120  10.102   6.999 -0.2014 -0.3164  0.3649
28465SOL    HW191231   1.085  10.099   6.910  0.0981  1.1049  0.1631
28465SOL    HW291232   1.108  10.014   7.033 -1.6149 -0.5296 -0.5925
28466SOL     OW91233   1.178   4.103   9.988 -0.8256 -0.1730  0.1555
28466SOL    HW191234   1.268   4.132   9.978 -0.8913  0.2145  0.6972
28466SOL    HW291235   1.180   4.041  10.061 -0.9146 -0.5262 -0.1393
28467SOL     OW91236   7.432   4.041   0.753 -0.4231 -0.5238 -0.3909
28467SOL    HW191237   7.483   4.028   0.833 -1.1295 -0.3873  0.0901
28467SOL    HW291238   7.378   4.117   0.771 -1.1096 -0.9204 -0.7381
28468SOL     OW91239   5.432   6.326   7.156  0.1241 -0.4533 -0.6137
28468SOL    HW191240   5.479   6.244   7.137 -0.5911 -0.4792 -2.4154
28468SOL    HW291241   5.345   6.297   7.185  0.4125 -0.3414  0.4159
28469SOL     OW91242   1.074   7.732   4.705 -0.0238 -0.0979 -0.2291
28469SOL    HW191243   1.165   7.713   4.680  0.0663  2.2930 -2.0398
28469SOL    HW291244   1.083   7.786   4.784  0.1458  0.2275 -0.4680
28470SOL     OW91245   8.440   6.236   3.540 -0.2443  0.5411 -0.1602
28470SOL    HW191246   8.525   6.245   3.495 -0.7455 -0.1957 -1.2922
28470SOL    HW291247   8.452   6.284   3.622  1.5922 -0.3711  0.1589
28471SOL     OW91248   2.977   2.310   5.810 -0.0969  0.2944  0.5274
28471SOL    HW191249   2.990   2.319   5.905  1.4059 -2.2712  0.6697
28471SOL    HW291250   3.062   2.333   5.773 -0.6622  1.2265 -0.2135
28472SOL     OW91251   9.879   9.630   5.589 -0.0948 -0.2332  0.0987
28472SOL    HW191252   9.803   9.664   5.637 -1.6220  0.2734 -2.4730
28472SOL    HW291253   9.925   9.709   5.559  1.1125 -0.5446  1.0406
28473SOL     OW91254   1.139   7.880   4.928 -0.0627  0.1361  0.4198
28473SOL    HW191255   1.213   7.881   4.989  0.0607  1.1271  0.2649
28473SOL    HW291256   1.067   7.920   4.977 -0.1505  0.3164  0.1444
28474SOL     OW91257   7.728   5.750   1.098  0.0580  0.0966 -0.0229
28474SOL    HW191258   7.636   5.723   1.104  0.4212 -0.9683  1.9898
28474SOL    HW291259   7.728   5.825   1.040 -2.2109  0.5871  0.5114
28475SOL     OW91260   2.264   0.385   4.919  0.1738 -0.3348  0.1214
28475SOL    HW191261   2.326   0.432   4.975 -0.9574 -0.7585  1.8183
28475SOL    HW291262   2.313   0.366   4.839  1.8345  0.3767  0.9274
28476SOL     OW91263   5.580   2.287   9.845 -0.0477  0.5576 -0.1723
28476SOL    HW191264   5.556   2.237   9.766  1.5333  0.3033 -0.5146
28476SOL    HW291265   5.643   2.231   9.890 -0.0446  1.2333  0.6762
28477SOL     OW91266   8.742  10.372   9.159  0.0342  0.5639 -0.1257
28477SOL    HW191267   8.724  10.459   9.123  1.5128  1.9710  2.2128
28477SOL    HW291268   8.833  10.355   9.134  0.3422  0.5627  0.9333
28478SOL     OW91269   6.845  10.717   5.499  0.3533 -0.3369  0.9735
28478SOL    HW191270   6.817  10.802   5.466  0.3907 -0.6910  0.0257
28478SOL    HW291271   6.843  10.659   5.423  1.3354 -0.9405  1.3965
28479SOL     OW91272   7.031   6.097   2.280  0.6898  0.0265 -0.2885
28479SOL    HW191273   7.017   6.181   2.323  0.8482 -1.0035  1.9334
28479SOL    HW291274   7.003   6.111   2.190  0.3071  2.3205  0.1204
28480SOL     OW91275   7.277   9.913   4.186  1.1588 -0.4493  0.0518
28480SOL    HW191276   7.347   9.941   4.245  1.7792  1.3876 -1.4516
28480SOL    HW291277   7.309   9.831   4.147  1.4468 -0.8130  1.0257
28481SOL     OW91278   2.002   1.791  10.039 -0.8147 -0.0278  0.3375
28481SOL    HW191279   2.094   1.762  10.045 -1.3807 -1.7191  1.6178
28481SOL    HW291280   2.003   1.858   9.970  1.7365  1.5040  1.7012
28482SOL     OW91281   1.909   2.227   2.352  0.1917  0.2306  0.0969
28482SOL    HW191282   1.986   2.254   2.403 -0.3095  0.9129  0.4978
28482SOL    HW291283   1.876   2.150   2.398  0.9289 -0.3801 -0.3704
28483SOL     OW91284   6.252   1.422   2.352  0.1603  0.5509 -0.2220
28483SOL    HW191285   6.206   1.343   2.382 -0.7983  0.6458 -1.3644
28483SOL    HW291286   6.342   1.393   2.338  0.6808  0.5246  2.6913
28484SOL     OW91287   3.616   5.118   9.132  0.2835  0.7881 -0.5077
28484SOL    HW191288   3.660   5.034   9.122 -0.7670  0.2605 -0.8666
28484SOL    HW291289   3.537   5.110   9.079 -0.6502  1.4166  0.7355
28485SOL     OW91290   9.281   3.216   5.235 -0.1997 -0.0344  0.0111
28485SOL    HW191291   9.366   3.239   5.272  0.0778  1.2992 -1.3328
28485SOL    HW291292   9.223   3.288   5.261 -0.9686 -0.9827  1.0054
28486SOL     OW91293   9.824   7.719   4.067 -0.0792  0.3355  0.0177
28486SOL    HW191294   9.820   7.742   3.974 -0.3989  2.3643  0.4878
28486SOL    HW291295   9.827   7.803   4.113 -0.1643 -0.6133  1.8705
28487SOL     OW91296   2.469   4.957   1.725  0.0966 -0.2154 -0.5357
28487SOL    HW191297   2.460   4.930   1.634 -2.6620 -0.8826 -0.1647
28487SOL    HW291298   2.453   4.878   1.775  0.2523  0.4162  0.5474
28488SOL     OW91299   9.322   3.297   7.767 -0.2304  0.0545 -0.1588
28488SOL    HW191300   9.393   3.346   7.725  0.0533  0.0645  0.3206
28488SOL    HW291301   9.261   3.364   7.797 -0.9962 -0.0088 -1.5379
28489SOL     OW91302   0.036   3.516   9.976 -0.0608  0.0412  0.2399
28489SOL    HW191303   0.125   3.531   9.944  0.4573  0.5819  1.8162
28489SOL    HW291304   0.037   3.427  10.012  0.4526  0.7423  2.0537
28490SOL     OW91305   3.353   5.279   0.286  0.0977 -0.1809 -0.2251
28490SOL    HW191306   3.414   5.299   0.215  0.2969  0.5182  0.1340
28490SOL    HW291307   3.408   5.267   0.363 -0.0839 -1.3430 -0.2578
28491SOL     OW91308   4.527   2.884   3.663 -0.1203  0.3971 -0.1753
28491SOL    HW191309   4.612   2.914   3.695  0.0894  0.9444 -1.2236
28491SOL    HW291310   4.472   2.962   3.663 -0.1057  0.4228 -1.1438
28492SOL     OW91311   0.010   7.054   1.871  0.6065  0.0336  0.3025
28492SOL    HW191312   0.037   7.144   1.890  1.5851 -0.4563  1.3079
28492SOL    HW291313  -0.009   7.054   1.777  0.5947  1.2805  0.2910
28493SOL     OW91314   7.037   7.816   4.337  0.5117 -0.2593 -0.3648
28493SOL    HW191315   7.086   7.854   4.410  0.3965  0.4465 -0.6444
28493SOL    HW291316   7.019   7.726   4.364  0.7817 -0.1134  0.3204
28494SOL     OW91317   8.362   9.813   1.420 -0.7301  0.6330  0.0294
28494SOL    HW191318   8.338   9.750   1.488 -0.8809  1.6251  0.9258
28494SOL    HW291319   8.323   9.778   1.340 -1.3668 -0.0689  0.6299
28495SOL     OW91320   0.544   4.548   4.313  0.2113  0.0574 -0.0626
28495SOL    HW191321   0.493   4.592   4.380 -1.5597 -0.0270 -1.2918
28495SOL    HW291322   0.580   4.470   4.357  0.8742  1.0949  1.3011
28496SOL     OW91323   7.241   6.857   2.238  0.2099  0.3212 -0.0459
28496SOL    HW191324   7.307   6.920   2.208 -0.4607  2.0798  1.9024
28496SOL    HW291325   7.280   6.818   2.316  0.0040 -0.6092 -0.3994
28497SOL     OW91326   4.470   8.979   1.961 -0.0361  0.0193 -0.3320
28497SOL    HW191327   4.408   9.049   1.943  0.6003  1.0454  1.2921
28497SOL    HW291328   4.518   9.008   2.039  2.1994 -0.9018 -1.2584
28498SOL     OW91329   7.203   5.932   1.618 -0.6352  0.3579 -0.0979
28498SOL    HW191330   7.281   5.984   1.633 -1.0306  1.0863 -0.4641
28498SOL    HW291331   7.216   5.852   1.668  1.1070 -0.2955 -1.5178
28499SOL     OW91332   1.892   1.438   0.107 -0.5551 -0.1095  0.0641
28499SOL    HW191333   1.804   1.452   0.140 -0.1354  1.9360  0.4049
28499SOL    HW291334   1.892   1.479   0.020  0.5315  1.6091  0.8181
28500SOL     OW91335  10.153   1.306   6.867  0.0023  0.7000 -0.6399
28500SOL    HW191336  10.185   1.232   6.817 -0.1155 -0.4680  0.9397
28500SOL    HW291337  10.086   1.346   6.811 -1.4898 -1.6963 -0.6923
28501SOL     OW91338   4.568   4.137  10.343  0.0197  0.3763 -0.0800
28501SOL    HW191339   4.659   4.158  10.364 -0.2208 -0.4743  2.0233
28501SOL    HW291340   4.567   4.127  10.248  2.3399 -0.5881 -0.0617
28502SOL     OW91341   3.479   9.948  10.674  0.2193  0.6657 -0.5578
28502SOL    HW191342   3.538   9.991  10.735 -0.0318 -0.6630  0.6905
28502SOL    HW291343   3.430  10.019  10.632  0.9075  1.6413  0.2625
28503SOL     OW91344   2.388   9.772   3.351  0.5815  0.0511  0.0656
28503SOL    HW191345   2.353   9.821   3.425  2.5098  0.1466  0.9677
28503SOL    HW291346   2.346   9.686   3.357 -0.2946  0.4947  0.4519
28504SOL     OW91347   5.498   2.019   2.441  0.2503 -0.6747 -0.2030
28504SOL    HW191348   5.526   2.054   2.525  1.7999 -0.5564 -0.7428
28504SOL    HW291349   5.571   1.965   2.411 -0.7348 -1.6295 -0.9588
28505SOL     OW91350   3.001   2.028   5.429 -0.1633  0.1143  0.2170
28505SOL    HW191351   2.918   2.066   5.401  0.6778  0.2735 -2.2370
28505SOL    HW291352   3.005   1.943   5.384  0.9837  0.0920  0.3309
28506SOL     OW91353   5.243   5.563   1.607 -0.2357 -0.3394 -0.1955
28506SOL    HW191354   5.231   5.554   1.512  1.3013  1.2437 -0.5813
28506SOL    HW291355   5.214   5.478   1.642 -2.4442 -0.3889 -1.8740
28507SOL     OW91356   3.931   0.076   3.070 -0.0798  0.0030  0.4544
28507SOL    HW191357   4.000   0.121   3.119  0.2312  1.3685 -1.1479
28507SOL    HW291358   3.977   0.010   3.019 -0.2066 -0.3715  0.8222
28508SOL     OW91359   4.850   4.274   5.878  0.0308  0.3618  0.1772
28508SOL    HW191360   4.835   4.186   5.844  1.9990  0.6144 -1.5531
28508SOL    HW291361   4.940   4.272   5.910  0.7037  2.1177 -1.3913
28509SOL     OW91362   3.800   6.589   4.163  0.4834 -0.1505  0.3557
28509SOL    HW191363   3.860   6.645   4.112 -0.4546 -0.7690 -1.5030
28509SOL    HW291364   3.856   6.520   4.198  1.2557  0.6391  0.7359
28510SOL     OW91365   2.984   6.916   7.105 -0.2626  0.0199 -0.4389
28510SOL    HW191366   3.061   6.918   7.162 -1.3539 -1.1331  1.1656
28510SOL    HW291367   3.011   6.862   7.031  0.2022 -1.2017  0.5791
28511SOL     OW91368   7.418   6.045   4.293 -0.3967  0.3191  0.0997
28511SOL    HW191369   7.381   5.994   4.365 -1.3425 -0.6611 -1.0408
28511SOL    HW291370   7.342   6.068   4.239  0.3446  0.7254 -0.7888
28512SOL     OW91371   0.748  10.189   1.229  0.0805  0.2585  0.5293
28512SOL    HW191372   0.767  10.177   1.322  1.1147  1.1463  0.4526
28512SOL    HW291373   0.710  10.277   1.223 -1.2197 -0.3051  0.2701
28513SOL     OW91374   0.399   1.990   5.293  0.3062 -0.1614  0.1593
28513SOL    HW191375   0.340   1.921   5.264 -1.4189  1.6423 -0.9034
28513SOL    HW291376   0.449   1.951   5.365 -0.7788 -2.3736 -0.2020
28514SOL     OW91377   2.448   2.189   5.709  0.4852  0.4276 -0.1281
28514SOL    HW191378   2.471   2.282   5.718  3.7466 -0.0636 -2.0084
28514SOL    HW291379   2.514   2.153   5.651 -1.9411 -2.6848 -1.2549
28515SOL     OW91380   9.943   6.583   3.564 -0.1246 -0.1230 -0.7119
28515SOL    HW191381   9.864   6.553   3.609 -0.5405  3.8621  1.7659
28515SOL    HW291382   9.997   6.622   3.633  1.3497  2.3118 -3.0316
28516SOL     OW91383   1.822   5.043   0.110 -0.1122  0.3012 -0.6542
28516SOL    HW191384   1.799   5.061   0.201  0.7325  0.5346 -0.4739
28516SOL    HW291385   1.796   5.122   0.062  0.9202  0.8649 -0.3347
28517SOL     OW91386   4.288   3.631   2.013  0.5197 -0.0615 -0.1787
28517SOL    HW191387   4.366   3.592   1.974 -0.2405 -0.2621 -1.5602
28517SOL    HW291388   4.230   3.647   1.939  0.5885  3.2691  0.3108
28518SOL     OW91389   0.201  10.257  10.672  0.1738 -0.3382  0.4137
28518SOL    HW191390   0.253  10.201  10.730  0.5035  1.1916  1.6668
28518SOL    HW291391   0.159  10.320  10.731  0.5614  1.3227 -1.0082
28519SOL     OW91392   7.187   6.379   2.147  0.0671  0.0496  0.1894
28519SOL    HW191393   7.184   6.364   2.241  0.7971  0.8335  0.3464
28519SOL    HW291394   7.147   6.465   2.135  0.9319  0.4269 -0.0927
28520SOL     OW91395   3.901   1.764   5.988  0.1762  0.3187 -0.2712
28520SOL    HW191396   3.943   1.804   5.911 -0.8644  1.1768 -0.4245
28520SOL    HW291397   3.970   1.760   6.053  0.6615  1.1525 -0.7099
28521SOL     OW91398   0.068   1.113   0.748 -0.5796  0.0847  0.3057
28521SOL    HW191399   0.126   1.147   0.815 -1.4343 -1.2837  1.8201
28521SOL    HW291400  -0.019   1.116   0.788 -1.1782 -0.3375 -0.9137
28522SOL     OW91401  10.224   3.993   5.210  0.2997 -0.0987 -0.1535
28522SOL    HW191402  10.277   3.947   5.276  0.9007  0.2070 -0.4083
28522SOL    HW291403  10.289   4.025   5.147 -0.1314  0.8432 -0.1258
28523SOL     OW91404   9.965   7.831   0.690 -0.4389  0.1458  0.0933
28523SOL    HW191405   9.895   7.769   0.672 -1.7947  1.7704 -0.5034
28523SOL    HW291406   9.952   7.856   0.781 -1.0368  0.8969 -0.1883
28524SOL     OW91407   1.022   1.463   6.698  0.1585  0.2726  0.2765
28524SOL    HW191408   1.045   1.400   6.767  0.3824 -0.0456 -0.0874
28524SOL    HW291409   1.096   1.524   6.696 -0.3444  0.9461  1.0724
28525SOL     OW91410   7.569   1.843   7.309 -0.0190 -0.0900  0.3887
28525SOL    HW191411   7.475   1.848   7.294  0.1321  0.7155 -0.3522
28525SOL    HW291412   7.589   1.916   7.367  0.2154  0.0116  0.1842
28526SOL     OW91413   9.178   3.883   5.477 -0.2008  0.3507 -0.3283
28526SOL    HW191414   9.269   3.910   5.491 -0.4389  1.2319 -0.4131
28526SOL    HW291415   9.130   3.922   5.550 -0.4329 -0.6335  0.0720
28527SOL     OW91416   7.156   9.196   5.838 -0.1292 -0.5318  0.4144
28527SOL    HW191417   7.216   9.158   5.903 -1.1552 -0.2464  1.5512
28527SOL    HW291418   7.069   9.186   5.876 -0.6718  0.5150 -0.4940
28528SOL     OW91419  10.177   1.150   1.862 -0.1704  0.5100  0.3622
28528SOL    HW191420  10.110   1.202   1.817 -1.8187 -2.3167 -0.7786
28528SOL    HW291421  10.260   1.180   1.826 -1.1911  1.0636 -1.6762
28529SOL     OW91422   7.811   9.281  10.609 -0.3062 -0.0506 -0.0252
28529SOL    HW191423   7.772   9.258  10.693  0.0922 -2.3727 -0.4295
28529SOL    HW291424   7.736   9.284  10.549 -0.2130 -1.9393 -0.2770
28530SOL     OW91425   0.776   0.445   9.543  0.2570 -0.2397  0.0672
28530SOL    HW191426   0.783   0.395   9.461  0.8081 -1.9250  1.0915
28530SOL    HW291427   0.838   0.403   9.602  0.8261  1.7770  0.9817
28531SOL     OW91428   3.246   3.573   8.829 -0.1910 -0.2304  0.2997
28531SOL    HW191429   3.327   3.583   8.880  0.3699 -2.5972 -0.0393
28531SOL    HW291430   3.260   3.627   8.751  0.9418 -0.3555  0.3994
28532SOL     OW91431   0.278   1.619   6.703 -0.4975 -0.3591  0.6870
28532SOL    HW191432   0.283   1.580   6.790  1.0546  0.0887  0.8269
28532SOL    HW291433   0.359   1.593   6.660  0.0765  1.7036  0.3862
28533SOL     OW91434   2.194   2.315  10.309 -0.2157  0.2442 -0.7934
28533SOL    HW191435   2.181   2.300  10.403 -0.3374  0.9494 -0.6936
28533SOL    HW291436   2.156   2.238  10.267 -0.6058  0.1585 -0.2926
28534SOL     OW91437   3.359  10.470   7.383 -0.4416 -0.4082 -0.5039
28534SOL    HW191438   3.343  10.548   7.330  0.3915 -0.6419 -1.1344
28534SOL    HW291439   3.280  10.460   7.437 -1.4642 -0.3375 -1.9250
28535SOL     OW91440   7.018   1.558   9.044  0.2756  0.3429  0.1081
28535SOL    HW191441   7.069   1.588   8.968 -1.2355  0.9741 -0.6980
28535SOL    HW291442   6.955   1.497   9.008 -0.8717  1.1200  0.7390
28536SOL     OW91443   6.122   6.008   9.054 -0.0960 -0.3392  0.4264
28536SOL    HW191444   6.135   5.965   9.138 -1.1568 -0.6552  0.4358
28536SOL    HW291445   6.211   6.022   9.021  0.3057 -1.2114  1.0916
28537SOL     OW91446  10.289   2.762  10.192 -0.2022  0.0622 -0.0663
28537SOL    HW191447  10.381   2.758  10.218  0.3119 -1.8381 -1.9258
28537SOL    HW291448  10.242   2.778  10.274  1.5943 -1.4975  1.3770
28538SOL     OW91449   0.415   0.136   9.562  0.0447 -0.5940  0.2772
28538SOL    HW191450   0.470   0.067   9.525  0.0667 -1.0219  1.1005
28538SOL    HW291451   0.419   0.123   9.656 -0.8863 -0.1805  0.3875
28539SOL     OW91452   0.355   5.095   4.881 -0.7668 -0.1057 -0.5213
28539SOL    HW191453   0.269   5.106   4.840 -0.4285 -2.2945 -2.0007
28539SOL    HW291454   0.341   5.030   4.951 -0.5071  0.3610 -0.0230
28540SOL     OW91455  10.450   5.892   0.467  0.4482  0.1425  0.4488
28540SOL    HW191456  10.484   5.948   0.537  0.2347  1.3943 -0.4186
28540SOL    HW291457  10.363   5.926   0.449  0.5371 -0.1127 -0.4929
28541SOL     OW91458   5.294   0.015   2.765  0.3236 -0.1369  0.3486
28541SOL    HW191459   5.380   0.055   2.756  0.4336 -0.5374 -0.4893
28541SOL    HW291460   5.240   0.058   2.698  0.0213 -0.2680  0.5044
28542SOL     OW91461   2.722   5.754   9.678 -0.4271  0.4556  0.0366
28542SOL    HW191462   2.812   5.727   9.659 -0.7682 -0.0948 -0.8335
28542SOL    HW291463   2.687   5.781   9.593 -0.1978  3.4692  0.7714
28543SOL     OW91464   1.694   9.432   7.926  0.2565 -0.0044 -0.0164
28543SOL    HW191465   1.650   9.512   7.954 -1.3930 -0.5879 -0.7899
28543SOL    HW291466   1.727   9.393   8.007 -2.9892 -0.8487  1.0566
28544SOL     OW91467   2.460   9.421   3.748  0.2779  0.3146  0.3050
28544SOL    HW191468   2.423   9.361   3.683  0.7531  0.7851 -0.4186
28544SOL    HW291469   2.486   9.364   3.820 -0.0581 -0.2514 -0.0075
28545SOL     OW91470   7.298   0.282   7.063 -0.0331  0.3022 -0.0016
28545SOL    HW191471   7.351   0.228   7.122 -2.1122  0.0960  1.7738
28545SOL    HW291472   7.279   0.225   6.988  0.4561 -0.3275  0.3529
28546SOL     OW91473  10.439   0.240   5.259  0.2419 -0.6247  0.0154
28546SOL    HW191474  10.467   0.297   5.330 -0.8772 -0.1194  0.0705
28546SOL    HW291475  10.511   0.242   5.196  0.4917  0.3146  0.3265
28547SOL     OW91476   7.493   5.613   6.274  0.1143  0.6085  0.0073
28547SOL    HW191477   7.425   5.650   6.330 -0.4855  0.5747 -0.6935
28547SOL    HW291478   7.458   5.529   6.245  0.1264  0.9195 -0.9570
28548SOL     OW91479   6.118   7.758   5.511 -0.1802 -0.0128 -0.2871
28548SOL    HW191480   6.204   7.756   5.468  0.6911 -1.5357  1.3563
28548SOL    HW291481   6.125   7.828   5.575 -0.0381 -0.3422  0.0612
28549SOL     OW91482   4.946   5.951   7.166 -0.0086  0.1153 -0.3157
28549SOL    HW191483   4.903   6.010   7.228  1.1695  0.4321  0.2250
28549SOL    HW291484   4.915   5.864   7.190 -0.1890  0.3178  0.1915
28550SOL     OW91485   2.817   1.493   5.853 -0.4608  0.0610 -0.1809
28550SOL    HW191486   2.743   1.464   5.800  0.2322 -0.8272 -0.6901
28550SOL    HW291487   2.879   1.420   5.848  1.2567  1.5378 -1.2995
28551SOL     OW91488   4.084   0.810   6.212 -0.1220  0.4653 -0.6360
28551SOL    HW191489   4.122   0.751   6.278 -1.0088  1.6268  0.9737
28551SOL    HW291490   4.144   0.884   6.210 -1.1560  1.3594  0.3964
28552SOL     OW91491   5.319   0.290   6.210 -0.2354 -0.4987 -0.2266
28552SOL    HW191492   5.304   0.352   6.282 -0.8782 -0.3402 -0.4877
28552SOL    HW291493   5.362   0.215   6.251 -0.1971 -0.2242  0.2429
28553SOL     OW91494   8.506   1.475   4.693 -0.1120  0.6257  0.3006
28553SOL    HW191495   8.541   1.561   4.718  0.5459  0.6862 -0.8049
28553SOL    HW291496   8.500   1.428   4.776  1.5783  0.9892  0.6721
28554SOL     OW91497   7.717   2.642   6.622 -0.5650 -0.7233 -0.1747
28554SOL    HW191498   7.730   2.718   6.679 -0.7992  0.1907 -1.3123
28554SOL    HW291499   7.781   2.653   6.552  0.6733 -2.5671  0.6096
28555SOL     OW91500   3.418   9.831   2.916 -0.0606 -0.5459  0.2235
28555SOL    HW191501   3.334   9.789   2.898 -0.0828 -0.2160 -0.4906
28555SOL    HW291502   3.399   9.925   2.911  0.1578 -0.4531  0.9943
28556SOL     OW91503   5.889   4.934   8.945 -0.4085 -0.1847  0.4474
28556SOL    HW191504   5.846   4.881   9.012 -0.0205  0.9269  1.6278
28556SOL    HW291505   5.927   4.871   8.885  0.4036 -1.2731  2.0308
28557SOL     OW91506   9.752   9.851   9.666 -0.1715  0.6007  0.0728
28557SOL    HW191507   9.812   9.848   9.741  1.1064 -1.3522 -0.9174
28557SOL    HW291508   9.793   9.912   9.604 -0.1057  0.5904  0.1053
28558SOL     OW91509   6.056  10.217   6.320 -0.4006 -0.0516  0.2431
28558SOL    HW191510   5.993  10.146   6.331  0.8727 -1.2979 -0.2516
28558SOL    HW291511   6.138  10.182   6.354  0.7194  0.4276 -1.8013
28559SOL     OW91512   5.261   6.532   0.652  0.4051 -0.3482  0.0035
28559SOL    HW191513   5.318   6.489   0.715 -0.3003 -0.0594  0.8543
28559SOL    HW291514   5.286   6.624   0.655  0.0970 -0.2688  0.1649
28560SOL     OW91515   1.276   4.897   2.331  0.5296  0.1213 -0.0968
28560SOL    HW191516   1.354   4.854   2.296  0.4438 -1.3421  1.3733
28560SOL    HW291517   1.237   4.942   2.256  1.1343 -1.6449 -1.5482
28561SOL     OW91518   9.274   8.069   4.179 -0.0313  0.3852 -0.2499
28561SOL    HW191519   9.216   8.083   4.255 -0.1478  1.1422 -0.4651
28561SOL    HW291520   9.350   8.125   4.197 -0.4073  1.1775 -1.0414
28562SOL     OW91521   1.434   3.718   9.955 -0.0352 -0.1101 -0.3021
28562SOL    HW191522   1.400   3.711  10.044 -0.8427  1.4040 -0.4669
28562SOL    HW291523   1.440   3.627   9.925  0.6117 -0.6766  1.4041
28563SOL     OW91524   3.168   9.001   9.391  0.2450  0.7173  0.6650
28563SOL    HW191525   3.106   8.964   9.454 -1.3090  1.8395 -0.1289
28563SOL    HW291526   3.158   9.096   9.401  0.0053  0.9229 -1.2039
28564SOL     OW91527   7.441   7.853   6.677  0.9079  0.5346 -0.0073
28564SOL    HW191528   7.352   7.831   6.649 -0.8748  3.1152  2.9318
28564SOL    HW291529   7.466   7.783   6.737  0.0434  0.7046  0.5716
28565SOL     OW91530   3.820   7.584   8.842 -0.1918 -0.1092  0.0126
28565SOL    HW191531   3.817   7.613   8.933 -1.4415  0.7333 -0.2754
28565SOL    HW291532   3.913   7.577   8.822  0.1019 -0.6316  1.4475
28566SOL     OW91533   0.799   1.980   0.927  0.0943  0.5147  0.2442
28566SOL    HW191534   0.873   1.942   0.880 -0.4475  1.2264 -1.2617
28566SOL    HW291535   0.726   1.921   0.909  0.1787  0.0716  1.3223
28567SOL     OW91536  10.527   6.564   2.109 -0.2390  0.3459 -0.2511
28567SOL    HW191537  10.568   6.506   2.043  1.0673 -0.8786  1.5329
28567SOL    HW291538  10.460   6.509   2.150  1.3629 -0.1905  1.8199
28568SOL     OW91539   6.567   1.240   1.466  0.8780  0.1941  0.0251
28568SOL    HW191540   6.558   1.314   1.527 -0.8061  1.3479 -1.5497
28568SOL    HW291541   6.484   1.194   1.472  1.0060 -0.1524 -0.8035
28569SOL     OW91542   4.169   6.129   3.656 -0.0816  0.7372  0.0306
28569SOL    HW191543   4.261   6.155   3.650  0.8467 -2.0247  0.8142
28569SOL    HW291544   4.150   6.088   3.572 -0.1094 -0.0518  0.4158
28570SOL     OW91545   6.657   0.379   2.718 -0.3631  0.2974 -0.1816
28570SOL    HW191546   6.742   0.396   2.677 -0.8336  0.3135 -1.1646
28570SOL    HW291547   6.672   0.396   2.811  0.8760 -0.2968 -0.2458
28571SOL     OW91548   0.034   9.998   1.872  0.0594  0.2495  0.1575
28571SOL    HW191549  -0.046   9.996   1.821 -0.6063  0.2687  1.1816
28571SOL    HW291550   0.093  10.056   1.823 -1.1230  1.5486  0.2204
28572SOL     OW91551   6.730   1.271   4.394  0.0025  0.0577  0.1211
28572SOL    HW191552   6.660   1.264   4.459 -0.2264  0.6500 -0.0512
28572SOL    HW291553   6.738   1.183   4.358 -0.0971 -0.2008  0.7135
28573SOL     OW91554   7.905   9.925   9.885  0.0058  0.1315 -0.0111
28573SOL    HW191555   7.984   9.944   9.836  0.5476 -1.1125  0.3498
28573SOL    HW291556   7.929   9.852   9.942 -1.4106 -0.2914  0.0749
28574SOL     OW91557   8.617   6.145   8.836 -0.6680  0.2551 -0.2268
28574SOL    HW191558   8.671   6.120   8.761  0.1932 -0.8908  0.7367
28574SOL    HW291559   8.657   6.100   8.910 -2.7366 -0.3620  0.5900
28575SOL     OW91560   3.775   2.780  10.646  0.0199 -0.0983 -0.6283
28575SOL    HW191561   3.825   2.699  10.639 -0.1388 -0.1446 -1.2467
28575SOL    HW291562   3.786   2.824  10.562  0.2398  0.6101 -0.2474
28576SOL     OW91563   2.973   3.702   5.262  0.1886  0.2141 -0.1487
28576SOL    HW191564   3.029   3.767   5.220  0.6058  0.1936  0.3695
28576SOL    HW291565   2.993   3.709   5.355 -0.0849 -0.3504 -0.0410
28577SOL     OW91566   5.167   9.207   5.617 -0.1722  0.1831  0.3791
28577SOL    HW191567   5.186   9.123   5.660  0.7833  0.4596  0.5374
28577SOL    HW291568   5.204   9.198   5.529  0.6137  0.6831  0.6409
28578SOL     OW91569   9.763   4.659   9.333  0.1817  0.2121 -0.1684
28578SOL    HW191570   9.752   4.691   9.243  2.6086 -2.2814 -1.4942
28578SOL    HW291571   9.704   4.584   9.338 -0.8044  1.0223  0.7751
28579SOL     OW91572  10.614   4.587   5.305  0.0886 -0.1050 -0.1223
28579SOL    HW191573  10.597   4.628   5.220 -2.7728  2.9050  1.6761
28579SOL    HW291574  10.575   4.500   5.297  2.8589 -1.3082 -2.8082
28580SOL     OW91575   3.563   6.737   7.995  0.5309  0.2700  0.0969
28580SOL    HW191576   3.643   6.761   8.041  1.7187 -2.9525  0.0056
28580SOL    HW291577   3.592   6.680   7.924 -1.6055  1.9090 -2.2762
28581SOL     OW91578   9.076   4.913   5.068 -0.9073  0.2881  0.4273
28581SOL    HW191579   8.987   4.946   5.058 -1.2400 -0.8369 -0.5065
28581SOL    HW291580   9.130   4.975   5.019 -1.5949 -0.7610 -1.8041
28582SOL     OW91581   2.810   9.973   3.543  0.1324 -0.5457 -0.3388
28582SOL    HW191582   2.742   9.942   3.482 -0.5648  1.6862 -0.7933
28582SOL    HW291583   2.765  10.037   3.598  1.7183  0.5016 -0.2133
28583SOL     OW91584   4.528   0.782   8.619 -0.0025  0.5246 -0.1803
28583SOL    HW191585   4.534   0.872   8.652  0.4030  0.3270  0.2842
28583SOL    HW291586   4.459   0.786   8.552 -0.0955  1.1463 -0.0529
28584SOL     OW91587   9.029   4.531   1.736 -0.0209  0.2207  0.2943
28584SOL    HW191588   9.065   4.573   1.658  1.3150  1.1386  1.3546
28584SOL    HW291589   8.994   4.448   1.705  1.7580 -0.0847 -1.0694
28585SOL     OW91590  10.158   7.278   3.407 -0.2535  0.2970  0.1967
28585SOL    HW191591  10.070   7.242   3.418  0.4759 -1.2429  1.3138
28585SOL    HW291592  10.159   7.356   3.463 -0.0169 -1.3692  2.6505
28586SOL     OW91593   6.695   1.612  10.368 -0.0593  0.0994  0.0966
28586SOL    HW191594   6.633   1.645  10.304 -1.1668 -1.7126  0.1556
28586SOL    HW291595   6.652   1.625  10.453 -0.1896 -0.7472  0.1737
28587SOL     OW91596   7.887   1.454   4.229  0.5085  0.1179 -0.2838
28587SOL    HW191597   7.887   1.359   4.220  2.4033  0.1084 -0.5202
28587SOL    HW291598   7.902   1.470   4.322 -1.8028  0.2285  0.1251
28588SOL     OW91599   3.307   0.324   0.886  0.0016 -0.0245 -0.2291
28588SOL    HW191600   3.367   0.302   0.815  0.9849  0.1296  0.5370
28588SOL    HW291601   3.354   0.300   0.966 -0.8088  0.4482  0.4057
28589SOL     OW91602   5.250  10.582   6.804 -0.0734  0.4482  0.6995
28589SOL    HW191603   5.198  10.626   6.737  0.9935 -0.3169 -0.6877
28589SOL    HW291604   5.187  10.563   6.874 -1.3919  0.6408 -0.3830
28590SOL     OW91605   7.009   9.021   8.505 -0.4211 -0.9154  0.2527
28590SOL    HW191606   7.010   8.953   8.437 -0.5369 -1.7377  1.0422
28590SOL    HW291607   7.099   9.052   8.510 -0.6092 -0.1137 -0.9739
28591SOL     OW91608   4.332   7.216   6.714 -0.0579  0.2379 -0.0395
28591SOL    HW191609   4.338   7.122   6.729 -0.7798  0.2658  0.4780
28591SOL    HW291610   4.246   7.229   6.673 -1.0821  0.9272  2.1819
28592SOL     OW91611   5.229   9.398   3.790  0.6111 -0.1615  0.1974
28592SOL    HW191612   5.277   9.441   3.861  0.3882  1.9809 -0.8532
28592SOL    HW291613   5.144   9.375   3.828  0.7650  0.2835  0.8174
28593SOL     OW91614   2.554   7.065   3.797  0.4873 -0.3898  0.1708
28593SOL    HW191615   2.475   7.110   3.768 -0.7374 -2.1842  0.5921
28593SOL    HW291616   2.568   6.996   3.732  1.3565 -0.4932  0.4488
28594SOL     OW91617   8.941   2.410   6.153 -0.0402  0.1723  0.1290
28594SOL    HW191618   8.884   2.480   6.183  0.0616 -0.1106  1.0251
28594SOL    HW291619   8.933   2.410   6.057  0.6303  1.9639  0.0470
28595SOL     OW91620  10.672  10.326   8.373  0.0546 -0.4556 -0.2317
28595SOL    HW191621  10.606  10.361   8.312 -0.7185  0.6438  1.1695
28595SOL    HW291622  10.652  10.369   8.456  3.3057  0.9029 -0.0005
28596SOL     OW91623   8.901   5.142   4.860  0.2458  0.0880 -0.0564
28596SOL    HW191624   8.866   5.162   4.946 -1.1072 -0.8888 -0.3423
28596SOL    HW291625   8.994   5.125   4.874  0.1811  0.6347  1.0797
28597SOL     OW91626   4.147   5.193   0.237 -0.5457  0.2426 -0.2532
28597SOL    HW191627   4.240   5.170   0.239  0.2337  2.6066 -2.7034
28597SOL    HW291628   4.106   5.124   0.185  0.0946 -0.1016 -0.3095
28598SOL     OW91629   9.854   7.444   9.887 -0.6035  0.0332  0.0053
28598SOL    HW191630   9.872   7.489   9.805 -0.8089  2.2058  1.0645
28598SOL    HW291631   9.912   7.368   9.886  0.8284  1.0737 -1.3006
28599SOL     OW91632   6.137   7.187   6.813 -0.1114 -0.2776  0.2891
28599SOL    HW191633   6.056   7.141   6.835 -0.0624 -1.4503 -1.7578
28599SOL    HW291634   6.144   7.256   6.879 -3.3671  0.6014 -0.1181
28600SOL     OW91635   3.719   4.178   8.158 -0.0556 -0.5089  0.4230
28600SOL    HW191636   3.690   4.091   8.132  2.1526 -1.0157 -0.5298
28600SOL    HW291637   3.737   4.223   8.075  2.4136 -0.4699  0.9093
28601SOL     OW91638   1.167  10.616   9.501 -0.7235 -0.3487  0.3385
28601SOL    HW191639   1.245  10.672   9.502 -0.9226 -0.0745  0.4825
28601SOL    HW291640   1.193  10.538   9.550 -0.8054  0.1048  1.1160
28602SOL     OW91641   6.444   7.469   3.075  0.0210 -0.1528  0.0927
28602SOL    HW191642   6.525   7.444   3.121  0.2910  0.1194 -0.2276
28602SOL    HW291643   6.400   7.386   3.057  1.2072 -0.4652 -1.5099
28603SOL     OW91644   3.657   3.737   4.357 -0.1618 -0.2898 -0.3865
28603SOL    HW191645   3.566   3.711   4.340  0.0193 -1.2488  0.0791
28603SOL    HW291646   3.696   3.661   4.400  0.9215  0.0376 -0.7725
28604SOL     OW91647   9.803   2.504   8.142 -0.0943  0.2475 -0.0739
28604SOL    HW191648   9.741   2.495   8.214  0.2244 -1.4555  0.0448
28604SOL    HW291649   9.881   2.455   8.171  1.3828  2.4110 -0.1685
28605SOL     OW91650   0.117   6.458   2.297  0.2065 -0.1904 -0.0578
28605SOL    HW191651   0.113   6.504   2.213  1.4205 -0.2994 -0.2007
28605SOL    HW291652   0.028   6.464   2.332 -0.0228  0.9619 -0.7621
28606SOL     OW91653   6.527   1.778   5.999 -0.2400 -0.2940 -0.0024
28606SOL    HW191654   6.478   1.768   6.080  1.8299  1.3302  1.5471
28606SOL    HW291655   6.472   1.835   5.944 -1.1879 -0.5527  0.6653
28607SOL     OW91656   4.223   0.009   6.922 -0.1219  0.0034 -0.3194
28607SOL    HW191657   4.280   0.067   6.973 -1.2981  1.9465 -1.0841
28607SOL    HW291658   4.153  -0.016   6.983  0.5782 -0.9274  0.1145
28608SOL     OW91659   4.918   0.133   1.860  0.1612  0.2165  0.0880
28608SOL    HW191660   4.888   0.042   1.859  1.7222 -0.3537  1.4237
28608SOL    HW291661   4.908   0.160   1.951  1.8990  0.5821  0.1960
28609SOL     OW91662   5.086   7.933   7.466 -0.1782 -0.2736 -0.3585
28609SOL    HW191663   5.076   7.909   7.558  0.1166 -0.5390 -0.3955
28609SOL    HW291664   5.180   7.934   7.452 -0.2204 -0.1163 -0.6271
28610SOL     OW91665   7.406   5.543   5.236  0.2141 -0.2893 -0.0351
28610SOL    HW191666   7.343   5.472   5.247 -1.2868  0.9787 -0.1449
28610SOL    HW291667   7.435   5.563   5.325  0.4223 -0.8286  0.0224
28611SOL     OW91668   3.539   9.083   5.916 -0.5349 -0.1980  0.1625
28611SOL    HW191669   3.595   9.146   5.962  1.2118 -2.1497  0.8468
28611SOL    HW291670   3.552   9.104   5.823  0.8801 -0.1979  0.3280
28612SOL     OW91671  10.377   7.808   9.769 -0.3200  0.0639 -0.4328
28612SOL    HW191672  10.385   7.823   9.863 -0.1861  0.0831 -0.4466
28612SOL    HW291673  10.468   7.804   9.738 -0.2990 -1.9450 -0.2478
28613SOL     OW91674   1.281   2.313   6.510  0.0099  0.1634  0.8523
28613SOL    HW191675   1.199   2.361   6.518  0.6269  1.2815  0.7538
28613SOL    HW291676   1.258   2.231   6.466 -0.8085  1.1380 -0.6075
28614SOL     OW91677   4.938  10.672  10.079 -0.0135  0.5125  0.3426
28614SOL    HW191678   4.999  10.745  10.071  0.7128 -0.2927 -2.3640
28614SOL    HW291679   4.852  10.709  10.056  0.7136  0.1537 -3.5984
28615SOL     OW91680   3.152   6.388   5.157  0.2175  0.3371  0.1439
28615SOL    HW191681   3.077   6.445   5.139  1.4314  1.8578 -0.3214
28615SOL    HW291682   3.227   6.448   5.163  1.3371 -1.0914  1.0147
28616SOL     OW91683   9.551   4.351   3.576 -0.5601  0.3219  0.1139
28616SOL    HW191684   9.616   4.420   3.561  0.2933 -0.4502  0.1840
28616SOL    HW291685   9.558   4.294   3.499 -2.3995  1.1578 -0.7425
28617SOL     OW91686   9.522   2.094   4.622 -0.3172 -0.9179  1.2186
28617SOL    HW191687   9.494   2.041   4.547  1.0236 -0.0246  0.0211
28617SOL    HW291688   9.608   2.059   4.646 -0.2850 -0.5393  1.6776
28618SOL     OW91689   3.664   4.656  10.309 -0.0805  0.3491 -0.3443
28618SOL    HW191690   3.589   4.674  10.252  1.4734  1.2704 -2.2155
28618SOL    HW291691   3.732   4.716  10.278  1.1887  0.1137  1.8197
28619SOL     OW91692   9.178   1.929   9.734 -0.0250 -0.5310 -0.0832
28619SOL    HW191693   9.172   1.871   9.809 -1.7939 -0.5650 -0.2182
28619SOL    HW291694   9.186   2.017   9.771 -0.8150 -0.5559  0.1567
28620SOL     OW91695   0.888   0.120   4.609 -0.0722  0.1976 -0.2880
28620SOL    HW191696   0.806   0.098   4.653 -0.5180  0.9616 -0.7249
28620SOL    HW291697   0.932   0.181   4.669  1.6957 -2.5598  1.4746
28621SOL     OW91698   2.814   5.978   7.376  0.2164 -0.1086  0.3624
28621SOL    HW191699   2.832   6.068   7.350  0.3953 -0.4008 -0.5583
28621SOL    HW291700   2.895   5.931   7.359 -0.1091 -0.5942  0.1204
28622SOL     OW91701   8.044   0.748   0.505 -0.5090 -0.0019 -0.0928
28622SOL    HW191702   8.093   0.691   0.446 -1.2929  0.2291 -0.9884
28622SOL    HW291703   8.056   0.836   0.468 -2.1775 -0.0210 -0.7796
28623SOL     OW91704   6.030   8.832   2.905 -0.5217 -0.3971 -0.4485
28623SOL    HW191705   6.118   8.856   2.935 -0.2582 -0.0794 -1.4291
28623SOL    HW291706   5.981   8.815   2.986  0.1237  0.5367  0.1633
28624SOL     OW91707  10.523   8.874  10.025  0.0513 -0.2748  0.1103
28624SOL    HW191708  10.492   8.858  10.114  1.1419  1.0308  0.7602
28624SOL    HW291709  10.607   8.827  10.021 -0.0386 -0.4024 -0.2552
28625SOL     OW91710   1.257   0.184   2.424 -0.7674  0.8228 -0.3833
28625SOL    HW191711   1.308   0.213   2.348  0.5205 -0.9836 -0.2760
28625SOL    HW291712   1.197   0.118   2.389 -2.5310  2.3477 -0.3603
28626SOL     OW91713   7.565   6.459   8.634 -0.0140 -0.1121 -0.2911
28626SOL    HW191714   7.514   6.493   8.707 -0.1376  1.3616 -1.0245
28626SOL    HW291715   7.517   6.381   8.605 -0.3210 -0.3327  0.7548
28627SOL     OW91716   9.643   9.138   0.221  0.2226  0.5838 -0.4612
28627SOL    HW191717   9.660   9.201   0.152 -0.2779  1.1243 -0.1008
28627SOL    HW291718   9.591   9.186   0.285  0.3697 -0.0135  0.1164
28628SOL     OW91719  10.202   3.125   3.566 -0.7504 -0.1998 -0.0788
28628SOL    HW191720  10.110   3.149   3.561 -0.5128  0.6050 -1.2290
28628SOL    HW291721  10.234   3.135   3.476  0.3927 -0.7212  0.2477
28629SOL     OW91722   7.552   1.154   7.711 -0.2172  0.1869  0.3102
28629SOL    HW191723   7.575   1.063   7.696  1.0247  0.0723  2.4401
28629SOL    HW291724   7.467   1.151   7.755  0.8672 -0.1697  2.5139
28630SOL     OW91725   7.191   5.748   0.099  0.2882 -0.1330  0.2225
28630SOL    HW191726   7.102   5.763   0.067  0.1250 -1.8654 -0.2120
28630SOL    HW291727   7.246   5.801   0.042 -0.4764  1.4182  0.8601
28631SOL     OW91728  10.146   7.718   9.624 -0.6439  0.3729  0.1052
28631SOL    HW191729  10.233   7.751   9.644 -0.6991  1.2698 -1.0118
28631SOL    HW291730  10.139   7.724   9.528 -1.9060  0.2810  0.1680
28632SOL     OW91731   3.451   7.491   9.609  0.2141  0.0805 -0.2924
28632SOL    HW191732   3.420   7.400   9.603 -0.5025  0.2761  0.3385
28632SOL    HW291733   3.374   7.541   9.634  0.3644  1.0276 -1.6092
28633SOL     OW91734   4.523   1.135   0.050 -0.5547  0.7125  1.0616
28633SOL    HW191735   4.432   1.149   0.078 -0.5026  3.6616  0.0736
28633SOL    HW291736   4.573   1.137   0.131 -1.2557  0.0405  1.5299
28634SOL     OW91737  10.318  10.552   3.202 -0.2136  0.0821  0.1573
28634SOL    HW191738  10.249  10.487   3.187 -2.3741  1.9652  1.2259
28634SOL    HW291739  10.293  10.627   3.148  1.0779  0.7827  0.4825
28635SOL     OW91740   5.309   7.673   0.114  0.6636 -0.4112  0.2482
28635SOL    HW191741   5.321   7.712   0.028  0.2691 -1.3999 -0.2649
28635SOL    HW291742   5.398   7.658   0.146  0.8787  1.9701  0.9960
28636SOL     OW91743   9.698   3.068   8.873  0.5809 -0.2043  0.2123
28636SOL    HW191744   9.697   3.154   8.830 -1.7240 -0.3226 -0.0853
28636SOL    HW291745   9.785   3.034   8.854  1.6651  2.1524  0.5672
28637SOL     OW91746   3.864  10.509   2.666  0.2451  0.1369 -0.7033
28637SOL    HW191747   3.885  10.417   2.678  0.1690  0.1719 -0.2875
28637SOL    HW291748   3.782  10.509   2.616 -0.9180 -0.0589  1.1310
28638SOL     OW91749   3.997   6.615   5.076  0.2300 -0.2024  0.4366
28638SOL    HW191750   4.058   6.584   5.009 -0.3386  0.7875 -0.5833
28638SOL    HW291751   4.019   6.564   5.154  1.3688 -0.9043 -0.3067
28639SOL     OW91752   1.541   1.085   4.054  0.5012  0.4077  0.1034
28639SOL    HW191753   1.525   1.001   4.097  1.4887 -0.5380 -1.2982
28639SOL    HW291754   1.484   1.084   3.977 -1.5759  2.2656  1.4968
28640SOL     OW91755   3.910   3.999   9.037  0.6419  0.1225 -0.4652
28640SOL    HW191756   3.814   4.003   9.045  0.7214 -0.4310  1.1059
28640SOL    HW291757   3.940   4.081   9.075  0.8320 -0.2196  0.1309
28641SOL     OW91758   1.192  10.004   7.776 -0.0622 -1.0122  0.3827
28641SOL    HW191759   1.165   9.956   7.697 -0.5865 -0.9092  0.4934
28641SOL    HW291760   1.167   9.947   7.848 -1.7380 -0.1114  0.5688
28642SOL     OW91761   0.034   1.431   4.612 -0.1961 -0.0636  0.0048
28642SOL    HW191762   0.104   1.366   4.614 -0.6284 -0.5710 -0.6258
28642SOL    HW291763   0.005   1.431   4.520 -0.7479  0.4298  0.1740
28643SOL     OW91764   6.507   4.427   8.135 -0.0131 -0.3783 -0.6277
28643SOL    HW191765   6.497   4.344   8.182  1.0098 -0.4867 -0.5769
28643SOL    HW291766   6.441   4.423   8.065  0.8606 -1.8273 -1.4375
28644SOL     OW91767   4.723   9.771   3.617 -0.3177 -0.1791  0.7130
28644SOL    HW191768   4.656   9.764   3.549  1.3671  0.9385 -1.1644
28644SOL    HW291769   4.794   9.714   3.587  0.3955  0.1844  1.6463
28645SOL     OW91770   9.769  10.150   3.550 -0.1336  0.6320 -0.5709
28645SOL    HW191771   9.688  10.118   3.589 -0.2742  0.1110 -1.2762
28645SOL    HW291772   9.778  10.239   3.583  0.6969 -0.3553  2.1275
28646SOL     OW91773   2.845   4.549  10.067  0.1017  0.2726  0.0593
28646SOL    HW191774   2.803   4.473  10.108  1.6525 -0.4513  0.3459
28646SOL    HW291775   2.881   4.599  10.140  1.1049  0.0512 -0.2743
28647SOL     OW91776   5.531   6.741   5.562  0.0086  0.0700  0.2975
28647SOL    HW191777   5.525   6.834   5.584  0.0757  0.7041 -2.1509
28647SOL    HW291778   5.440   6.710   5.566 -0.3100  0.7879 -0.9671
28648SOL     OW91779   4.933  10.046   9.800 -0.2771 -0.1201  1.3117
28648SOL    HW191780   4.997  10.034   9.870  0.4700  2.0262  1.0393
28648SOL    HW291781   4.925  10.140   9.789  0.7290 -0.2884 -2.4846
28649SOL     OW91782   1.039   5.276   0.306  0.5676 -0.2895 -0.1952
28649SOL    HW191783   1.026   5.182   0.293 -0.0958 -0.4281  1.2926
28649SOL    HW291784   1.030   5.313   0.218 -1.2349 -1.4061 -0.5338
28650SOL     OW91785   9.303   0.903   0.769 -0.0963  0.3606 -0.2615
28650SOL    HW191786   9.266   0.938   0.850 -1.2183 -0.0352 -0.5794
28650SOL    HW291787   9.296   0.808   0.779  1.3335  0.2573 -0.1202
28651SOL     OW91788  10.052   7.588   6.784  0.5333 -0.1773  0.6501
28651SOL    HW191789  10.123   7.579   6.848 -0.9196 -0.0227  2.3576
28651SOL    HW291790   9.975   7.609   6.836 -0.4914  1.1789 -1.2755
28652SOL     OW91791   7.861   9.808   0.133  0.6123  0.4975 -0.1355
28652SOL    HW191792   7.850   9.880   0.071 -0.0825  0.1908 -0.3871
28652SOL    HW291793   7.856   9.850   0.219  2.0533  0.9924 -0.2694
28653SOL     OW91794   9.442   0.392   7.379  0.3402 -0.1924 -0.5086
28653SOL    HW191795   9.423   0.478   7.417  2.1110 -0.4551  1.0784
28653SOL    HW291796   9.358   0.346   7.383 -0.4729  1.2175 -0.7502
28654SOL     OW91797   7.156   4.014   4.904  0.0074 -0.0830 -0.1322
28654SOL    HW191798   7.220   3.968   4.849  0.8121 -2.3200  2.4129
28654SOL    HW291799   7.103   4.064   4.843  1.5668 -1.4307 -2.7851
28655SOL     OW91800   8.384   1.634   1.401  0.3460  0.0969 -0.4220
28655SOL    HW191801   8.401   1.596   1.487  1.1948 -2.1884 -1.5245
28655SOL    HW291802   8.451   1.702   1.391  0.2592  0.3603  0.6930
28656SOL     OW91803   6.855   0.181   8.699 -0.4204 -0.6344 -0.0339
28656SOL    HW191804   6.902   0.196   8.782 -1.5471 -1.4847  0.7884
28656SOL    HW291805   6.806   0.100   8.714 -1.5781 -0.1535 -1.1273
28657SOL     OW91806   9.112  10.484   7.070  0.0598 -1.3086  0.8248
28657SOL    HW191807   9.186  10.426   7.087 -1.9361 -4.4388 -0.2246
28657SOL    HW291808   9.112  10.495   6.974  0.4971  0.7093  1.0053
28658SOL     OW91809   7.173   4.144   4.502  0.3769 -0.3034  0.3855
28658SOL    HW191810   7.228   4.222   4.499  0.5632 -0.4469  0.1427
28658SOL    HW291811   7.191   4.098   4.420  0.7186 -0.9132  0.7980
28659SOL     OW91812   4.031   6.161   5.615 -0.2247  0.2678 -0.2093
28659SOL    HW191813   4.059   6.226   5.680  0.7805 -0.9756  0.6505
28659SOL    HW291814   3.971   6.105   5.663  1.1185 -1.1247 -0.0854
28660SOL     OW91815   8.654   4.838   6.879  0.1241 -0.0203  0.0990
28660SOL    HW191816   8.578   4.818   6.933  1.4079 -3.6902  0.8782
28660SOL    HW291817   8.620   4.844   6.790 -1.3498  0.9637  0.6931
28661SOL     OW91818   4.402   8.854   4.700  0.0498 -0.0510  0.5076
28661SOL    HW191819   4.342   8.837   4.627  1.2470  0.8065 -0.7224
28661SOL    HW291820   4.468   8.784   4.693  0.3442  0.2196  0.5764
28662SOL     OW91821   4.857  10.692   6.422 -0.0392  0.5798  0.0633
28662SOL    HW191822   4.781  10.738   6.458 -0.6049  0.1966 -0.6190
28662SOL    HW291823   4.828  10.662   6.335  1.0222  0.7760 -0.3719
28663SOL     OW91824   4.034   0.648   2.946 -0.6030 -0.1889 -0.9512
28663SOL    HW191825   3.997   0.707   3.011  0.8816  0.5067 -0.6912
28663SOL    HW291826   4.062   0.571   2.997  1.0341  0.5728 -0.6274
28664SOL     OW91827   1.901   8.750   4.969  0.2373 -0.5084  0.4147
28664SOL    HW191828   1.875   8.830   4.924 -0.0477 -0.6119  0.3963
28664SOL    HW291829   1.932   8.693   4.899  1.7340  0.0768  0.5603
28665SOL     OW91830   9.697   0.267   0.909 -0.5393  0.3052 -0.3850
28665SOL    HW191831   9.618   0.318   0.888  0.2830  0.8416 -2.4663
28665SOL    HW291832   9.664   0.189   0.952 -1.8595  2.5713  3.1697
28666SOL     OW91833   6.170  10.464   0.982  0.2287 -0.4906 -1.0199
28666SOL    HW191834   6.111  10.465   1.058  1.2873 -2.1187 -0.0979
28666SOL    HW291835   6.145  10.385   0.933  1.0611 -0.7391 -1.0658
28667SOL     OW91836   2.548   7.471   5.699 -0.3451 -0.0166 -0.2076
28667SOL    HW191837   2.560   7.377   5.704  1.7248  0.2488  0.6821
28667SOL    HW291838   2.571   7.493   5.608 -0.4895 -0.3186 -0.3191
28668SOL     OW91839   4.238  10.701   0.069 -0.8485 -0.4860 -0.1799
28668SOL    HW191840   4.167  10.673   0.011 -1.1615 -0.4393  0.1711
28668SOL    HW291841   4.193  10.723   0.151 -0.3944 -0.7037  0.1269
28669SOL     OW91842   5.855   8.428   5.161 -0.3848 -0.6218  0.1059
28669SOL    HW191843   5.840   8.493   5.092 -0.6836  0.8786  1.5105
28669SOL    HW291844   5.768   8.414   5.200 -0.1684 -1.1929  0.3911
28670SOL     OW91845   7.622   2.893   3.463 -0.1735 -0.4484  0.0326
28670SOL    HW191846   7.593   2.803   3.454 -0.3686 -0.2688 -1.2357
28670SOL    HW291847   7.572   2.942   3.398 -2.7141  1.2387  3.0073
28671SOL     OW91848  10.222   4.256   2.479  0.2265 -1.1123 -0.0876
28671SOL    HW191849  10.134   4.289   2.457  0.7921 -0.2892 -1.2311
28671SOL    HW291850  10.232   4.178   2.425 -0.2360 -1.8958  0.9263
28672SOL     OW91851   0.137   6.089   3.169  0.3667 -0.5122  0.2990
28672SOL    HW191852   0.106   6.000   3.151  1.2145 -0.5429 -1.2351
28672SOL    HW291853   0.154   6.126   3.082 -2.1428  2.0042  0.7068
28673SOL     OW91854   6.765   3.539   1.171 -0.1111  0.0240  0.4191
28673SOL    HW191855   6.693   3.502   1.119  0.5639  0.3046 -0.7612
28673SOL    HW291856   6.778   3.626   1.135  0.9366 -0.0904  0.4852
28674SOL     OW91857   7.280   5.788   0.877  0.7001  0.3731  0.2782
28674SOL    HW191858   7.256   5.838   0.955 -1.1433 -0.8346  0.5368
28674SOL    HW291859   7.370   5.759   0.894  0.3475  0.1457  1.9445
28675SOL     OW91860   8.191   3.915  10.173 -0.0586  0.3275 -0.4099
28675SOL    HW191861   8.282   3.900  10.148  0.8034 -0.8016  2.9071
28675SOL    HW291862   8.185   4.010  10.188  0.8058  0.3255  0.0065
28676SOL     OW91863   5.448   7.163   7.465  0.4750 -0.3140 -0.1797
28676SOL    HW191864   5.485   7.075   7.475  1.1206 -0.1726 -1.1617
28676SOL    HW291865   5.524   7.221   7.465  0.3095 -0.0068 -2.1198
28677SOL     OW91866   6.055   5.269   2.694 -0.3824  0.1152 -0.1971
28677SOL    HW191867   6.110   5.298   2.621 -0.0389  0.0496  0.0315
28677SOL    HW291868   5.969   5.254   2.656 -0.4956  1.1516 -0.3840
28678SOL     OW91869   9.303   0.492   6.138 -0.4908  0.0924 -0.1341
28678SOL    HW191870   9.345   0.518   6.220  2.0515 -0.5484 -1.1421
28678SOL    HW291871   9.269   0.404   6.156  1.0642 -0.5269 -0.0244
28679SOL     OW91872   8.960   1.597   2.866  0.3061 -0.4096 -0.1056
28679SOL    HW191873   8.970   1.684   2.827 -0.2692 -0.3040 -0.0210
28679SOL    HW291874   8.865   1.585   2.876  0.3723 -1.0864 -0.2077
28680SOL     OW91875   1.838  10.000   5.156  0.2168 -0.3699 -0.0683
28680SOL    HW191876   1.887  10.019   5.237 -0.5080  1.2243  0.0244
28680SOL    HW291877   1.906   9.974   5.093  0.9858  0.0025  0.5840
28681SOL     OW91878   1.658   3.275   6.241  0.1528 -0.0924  0.5595
28681SOL    HW191879   1.693   3.190   6.213 -0.5351 -0.0223 -0.5936
28681SOL    HW291880   1.563   3.260   6.246 -0.1368  0.9715 -1.0863
28682SOL     OW91881   4.438  10.067   3.614 -0.2170  0.8067  0.1763
28682SOL    HW191882   4.513  10.126   3.609  1.0511 -0.6919  0.6076
28682SOL    HW291883   4.436  10.038   3.706 -0.7775  0.1555 -0.0304
28683SOL     OW91884   5.043   9.779   6.455  0.2847 -0.2696  0.2808
28683SOL    HW191885   5.014   9.868   6.436 -2.1667 -1.2231 -0.8149
28683SOL    HW291886   4.990   9.752   6.530  1.4055 -0.6495  0.9614
28684SOL     OW91887   4.971   7.565   5.013 -0.1942 -0.0930 -0.1851
28684SOL    HW191888   4.971   7.474   5.043  0.1072 -0.8873 -2.4285
28684SOL    HW291889   5.045   7.570   4.953  1.7876  2.5229  2.1729
28685SOL     OW91890   2.525   7.980   7.503 -0.3254 -0.1047  0.1434
28685SOL    HW191891   2.442   7.933   7.500 -0.3716 -0.1998  2.0587
28685SOL    HW291892   2.590   7.917   7.471 -0.8963 -0.1605 -0.9699
28686SOL     OW91893   0.654   6.345   2.051 -0.1263  0.0899 -0.5606
28686SOL    HW191894   0.661   6.376   2.142  1.3835  1.1199 -0.9815
28686SOL    HW291895   0.570   6.300   2.047 -0.9053  1.3006  0.9857
28687SOL     OW91896   7.641   2.320   4.438  0.2158 -0.5171 -0.6258
28687SOL    HW191897   7.734   2.329   4.460 -0.4155 -0.1623  2.2570
28687SOL    HW291898   7.637   2.242   4.383  2.2047 -0.5383 -0.8213
28688SOL     OW91899   3.701   2.147   1.000 -0.2399 -0.3996  0.1292
28688SOL    HW191900   3.792   2.169   0.978  0.1840 -2.0324  0.1615
28688SOL    HW291901   3.701   2.052   1.011 -2.1338 -0.5274 -0.6559
28689SOL     OW91902   5.114   5.086   1.726  0.3520  0.1397  0.0735
28689SOL    HW191903   5.033   5.065   1.773 -0.6645 -0.2030 -1.6945
28689SOL    HW291904   5.161   5.003   1.722 -0.0430 -0.0708 -0.3583
28690SOL     OW91905   6.128   2.817  10.260 -0.2517 -0.4710  0.4237
28690SOL    HW191906   6.046   2.825  10.211  0.7247  2.3113 -0.9705
28690SOL    HW291907   6.195   2.808  10.193  0.9764  1.7369  1.2719
28691SOL     OW91908   6.454   3.787   6.754 -0.1312 -0.1295 -0.0843
28691SOL    HW191909   6.431   3.780   6.847 -3.4326 -0.2022 -0.8052
28691SOL    HW291910   6.455   3.696   6.724 -0.8586  0.0007 -0.5000
28692SOL     OW91911   0.142   3.598   1.059  0.2358  0.0863 -0.4271
28692SOL    HW191912   0.077   3.602   0.990  0.4183  1.1314 -0.5571
28692SOL    HW291913   0.156   3.689   1.084  1.6153 -0.1194 -0.3770
28693SOL     OW91914   5.766   9.197   6.343  0.2495  0.8297 -0.0143
28693SOL    HW191915   5.764   9.152   6.427  1.5797 -0.4246 -0.6236
28693SOL    HW291916   5.849   9.244   6.342  1.3792 -1.0552 -1.5245
28694SOL     OW91917   5.657   6.195   8.426 -0.0717  1.2098 -0.3663
28694SOL    HW191918   5.732   6.165   8.375 -0.1637 -1.7818  1.0850
28694SOL    HW291919   5.695   6.248   8.496  0.9001 -1.3018  1.0979
28695SOL     OW91920   7.584   1.492  10.013 -0.0716 -0.2203  0.3007
28695SOL    HW191921   7.660   1.509   9.958 -0.3916 -1.3165 -0.5132
28695SOL    HW291922   7.536   1.575  10.013  0.0127 -0.1479 -0.9763
28696SOL     OW91923   6.232   8.955   9.625  0.1908  0.0933  0.0883
28696SOL    HW191924   6.254   9.044   9.654  1.7669 -0.2593  0.0599
28696SOL    HW291925   6.159   8.930   9.681  0.3945  1.0294  0.8065
28697SOL     OW91926   9.341   4.097   8.605  0.9828 -0.1724 -0.1621
28697SOL    HW191927   9.289   4.025   8.570  0.6175 -0.9814  1.8861
28697SOL    HW291928   9.334   4.167   8.540 -0.7103 -1.1104 -1.0316
28698SOL     OW91929   1.752   9.039   8.059 -0.3623  0.3110  0.0194
28698SOL    HW191930   1.680   9.063   8.117 -0.1904  0.8756  0.0046
28698SOL    HW291931   1.830   9.047   8.113 -0.2987 -0.2487  0.0181
28699SOL     OW91932   1.215   0.379   3.742 -0.5375  0.3382 -0.0424
28699SOL    HW191933   1.277   0.336   3.801  0.7869  1.3380 -0.6488
28699SOL    HW291934   1.210   0.321   3.666 -1.0805 -0.2081  0.4077
28700SOL     OW91935   2.332   1.813   1.232 -0.4078 -0.4989  0.7369
28700SOL    HW191936   2.395   1.804   1.303 -1.3190 -0.0472  1.6306
28700SOL    HW291937   2.314   1.907   1.228 -1.5031 -0.6845  0.9317
28701SOL     OW91938   2.886   6.285  10.500 -0.3851 -0.3367 -0.1002
28701SOL    HW191939   2.922   6.335  10.574  2.1730 -2.3159  0.1299
28701SOL    HW291940   2.859   6.202  10.538 -0.2658 -0.8894 -1.1802
28702SOL     OW91941   1.142   8.009   5.188  0.2203  0.2079  0.1211
28702SOL    HW191942   1.198   8.076   5.148  0.5058 -0.3095 -0.3854
28702SOL    HW291943   1.055   8.048   5.191  0.3945  0.6218 -0.1156
28703SOL     OW91944   6.043   4.908   2.550 -0.1036 -0.0567 -0.6337
28703SOL    HW191945   5.986   4.970   2.595 -0.9340 -1.4359  0.2685
28703SOL    HW291946   5.998   4.824   2.556  1.6874 -1.0627 -0.4870
28704SOL     OW91947   1.312  10.293   7.034 -0.1135  0.1976 -0.0915
28704SOL    HW191948   1.241  10.231   7.021 -0.7582  0.9484 -0.2602
28704SOL    HW291949   1.392  10.240   7.035 -0.7287 -0.7481  0.8693
28705SOL     OW91950   6.078   6.255   8.736  0.0865 -0.1247 -0.1400
28705SOL    HW191951   6.170   6.234   8.722 -0.4127 -1.0259 -2.3019
28705SOL    HW291952   6.075   6.351   8.735  1.1762 -0.0350  1.4781
28706SOL     OW91953   0.428   8.996   7.452 -0.0464  0.1346 -0.1971
28706SOL    HW191954   0.359   8.930   7.457  0.4626 -0.3545  0.6764
28706SOL    HW291955   0.410   9.054   7.526  0.0220  0.4612 -0.4365
28707SOL     OW91956   7.562   9.785   0.570 -0.4003 -0.6016 -0.0942
28707SOL    HW191957   7.605   9.848   0.513  0.9790 -1.8737 -0.5403
28707SOL    HW291958   7.532   9.836   0.645  1.0955  0.5182 -0.2171
28708SOL     OW91959   3.157   6.927   4.194 -0.0158 -0.5854  0.2892
28708SOL    HW191960   3.082   6.979   4.165 -1.5108 -3.6800 -1.8508
28708SOL    HW291961   3.130   6.889   4.277  0.7302  1.1643  1.3962
28709SOL     OW91962   6.862   2.435   7.755  0.3114 -0.1095  0.4532
28709SOL    HW191963   6.838   2.343   7.750  1.3576 -0.3297 -1.3235
28709SOL    HW291964   6.957   2.435   7.771  0.0483  0.6984  2.2764
28710SOL     OW91965   0.342   6.491   1.446  0.0862  0.0114  0.0718
28710SOL    HW191966   0.289   6.411   1.443 -0.0164  0.1052 -1.5644
28710SOL    HW291967   0.289   6.557   1.402  0.2862  0.9392  1.1677
28711SOL     OW91968   1.817   3.434   0.436 -0.0560 -0.2885  0.3627
28711SOL    HW191969   1.777   3.402   0.355 -0.2120 -0.9290  0.6838
28711SOL    HW291970   1.827   3.355   0.491 -1.4572  0.3502  1.6065
28712SOL     OW91971   6.857   4.611   7.076  0.0055 -0.3838  0.1524
28712SOL    HW191972   6.803   4.682   7.112 -0.5136  1.2431 -3.3551
28712SOL    HW291973   6.826   4.601   6.986  3.7223 -1.2781 -1.2157
28713SOL     OW91974   2.396   1.436   8.868 -0.2659 -0.0009 -0.3122
28713SOL    HW191975   2.329   1.426   8.936 -1.4817  1.7023 -1.1718
28713SOL    HW291976   2.351   1.411   8.787  0.2456  0.7999 -0.8521
28714SOL     OW91977   5.024   5.495   7.104 -0.5817  0.2387  0.5116
28714SOL    HW191978   5.050   5.494   7.012 -1.0571 -2.5178  0.3414
28714SOL    HW291979   4.943   5.545   7.105 -1.3628 -0.9388 -0.8405
28715SOL     OW91980   3.862   2.336   1.256 -0.1456 -0.2571 -0.2308
28715SOL    HW191981   3.808   2.410   1.229  0.0214 -0.4270 -1.0813
28715SOL    HW291982   3.951   2.361   1.230 -0.0642 -0.6852 -0.3753
28716SOL     OW91983   6.474  10.303   9.491  0.3546 -0.6521  0.1020
28716SOL    HW191984   6.401  10.242   9.480 -0.0913  0.0794 -1.2733
28716SOL    HW291985   6.526  10.293   9.412  1.6063 -0.9459  0.9313
28717SOL     OW91986   9.701   3.235   3.375 -0.2280 -0.7192 -0.4051
28717SOL    HW191987   9.610   3.216   3.400  0.4161  0.7096  3.8214
28717SOL    HW291988   9.752   3.165   3.416  0.7080 -0.5079 -1.1881
28718SOL     OW91989   5.645   7.182   5.557  0.0690 -0.0084 -0.2552
28718SOL    HW191990   5.578   7.246   5.534 -2.4053 -2.7259 -1.2132
28718SOL    HW291991   5.713   7.193   5.491 -0.2201  1.6259 -0.3218
28719SOL     OW91992   4.133   6.621   8.203  0.0454  0.0032 -0.2085
28719SOL    HW191993   4.160   6.593   8.116  0.9842  0.7644 -0.1866
28719SOL    HW291994   4.154   6.715   8.206 -0.0041  0.0018  0.8109
28720SOL     OW91995   8.085   6.362   3.275 -0.0663  0.2632 -0.6354
28720SOL    HW191996   8.170   6.407   3.277 -0.1128  0.4609  2.8690
28720SOL    HW291997   8.107   6.269   3.284 -0.1947  0.2002 -0.9635
28721SOL     OW91998   1.503   7.146   0.878 -0.0058  0.1719 -0.4922
28721SOL    HW191999   1.486   7.108   0.964 -1.2981 -1.1466 -1.2872
28721SOL    HW292000   1.596   7.129   0.863  0.7338  2.0902  1.3915
28722SOL     OW92001   1.712   6.272   8.925  0.3364 -0.3273  0.0692
28722SOL    HW192002   1.719   6.178   8.909 -1.0469 -0.2780 -0.9608
28722SOL    HW292003   1.772   6.311   8.862 -2.5953 -0.3277 -3.0039
28723SOL     OW92004   8.803   0.315   9.165 -0.2816  0.4148 -0.4805
28723SOL    HW192005   8.860   0.251   9.207  0.2351  1.4386  0.4577
28723SOL    HW292006   8.715   0.280   9.173  0.0841 -0.6110 -0.8410
28724SOL     OW92007   7.891  10.036   3.908 -0.2294  0.1135  0.6367
28724SOL    HW192008   7.957  10.060   3.974 -0.2528 -1.5330  1.3021
28724SOL    HW292009   7.817  10.094   3.927  0.3474  0.7273  1.0571
28725SOL     OW92010   5.825   7.390   7.179 -0.5728  0.4897  0.3370
28725SOL    HW192011   5.818   7.298   7.205 -1.1371  0.3587 -0.2614
28725SOL    HW292012   5.879   7.389   7.100 -1.4732  0.5514 -0.2912
28726SOL     OW92013   5.401   0.771   4.461  0.8238 -0.2322  0.5188
28726SOL    HW192014   5.493   0.778   4.486  1.5698  1.0605 -2.2667
28726SOL    HW292015   5.398   0.794   4.369 -2.4364  0.6233  0.6892
28727SOL     OW92016   0.026   0.216   8.777 -0.2798 -0.1334  0.0592
28727SOL    HW192017   0.023   0.307   8.750 -0.6602 -0.4506 -1.0347
28727SOL    HW292018  -0.017   0.168   8.706 -1.8283 -0.9819  1.4863
28728SOL     OW92019   6.801   3.655  10.259  0.8477 -0.0633  0.3026
28728SOL    HW192020   6.727   3.699  10.300  0.3063 -0.0147 -0.6863
28728SOL    HW292021   6.796   3.565  10.292  0.8341  0.1387  0.8627
28729SOL     OW92022  10.082   5.362   2.162 -0.2080 -0.9515 -0.2965
28729SOL    HW192023  10.062   5.290   2.221 -0.6490 -0.2216  0.4742
28729SOL    HW292024   9.999   5.382   2.119  0.1409 -1.5738 -1.3022
28730SOL     OW92025   3.213   7.369   0.397  0.7369 -0.2876 -0.1341
28730SOL    HW192026   3.189   7.460   0.381 -0.4097 -0.6261 -0.4906
28730SOL    HW292027   3.291   7.354   0.344  0.0337  0.0762 -1.3161
28731SOL     OW92028  10.195   3.040   4.049 -0.4729 -0.4426 -0.7501
28731SOL    HW192029  10.217   2.997   4.132  0.8494  1.8211  0.1543
28731SOL    HW292030  10.244   2.990   3.984  0.0464 -1.0684  0.0874
28732SOL     OW92031   5.205   4.832   1.694 -0.3531 -0.0146  0.0591
28732SOL    HW192032   5.149   4.799   1.623  0.8383 -0.4650 -0.7102
28732SOL    HW292033   5.250   4.754   1.727 -0.0476  0.3612  0.5414
28733SOL     OW92034   8.950   7.891   6.841  0.1019 -0.2114  0.4505
28733SOL    HW192035   8.902   7.942   6.775  1.9085 -2.0788 -2.5879
28733SOL    HW292036   8.882   7.840   6.885 -1.3386  2.1587  1.1282
28734SOL     OW92037   6.395  10.249   9.869  0.0714 -0.4138  0.6947
28734SOL    HW192038   6.347  10.184   9.819  0.7943  0.5710 -1.4132
28734SOL    HW292039   6.470  10.271   9.813 -0.4196  2.5708  1.0470
28735SOL     OW92040   2.569   1.179   1.265 -0.6107 -0.0287  0.4206
28735SOL    HW192041   2.522   1.142   1.340 -1.1292  1.5528  0.9152
28735SOL    HW292042   2.547   1.272   1.267  0.5046  0.2863 -0.8757
28736SOL     OW92043   0.100   9.380   3.659 -0.2244  0.2814  0.0028
28736SOL    HW192044   0.010   9.408   3.643 -0.6307  1.9777  4.1768
28736SOL    HW292045   0.093   9.313   3.727  1.6105 -1.1150 -1.0688
28737SOL     OW92046   4.975   4.932   9.903  0.0840  0.0475  0.2225
28737SOL    HW192047   4.923   4.875   9.847 -1.2839 -0.6514  2.0935
28737SOL    HW292048   4.963   5.019   9.866 -0.1236 -0.4938 -1.0205
28738SOL     OW92049   0.574   4.195   1.034  0.3540  0.0817  0.0592
28738SOL    HW192050   0.503   4.183   1.097  1.0954  3.0724  1.6661
28738SOL    HW292051   0.654   4.179   1.084  0.9143 -0.0598 -0.8517
28739SOL     OW92052   2.242   3.902   2.809  0.4936  0.0795 -0.2167
28739SOL    HW192053   2.213   3.989   2.780  0.1844 -0.1623 -0.6491
28739SOL    HW292054   2.296   3.870   2.737 -0.0379 -0.4067 -0.4116
28740SOL     OW92055   8.338   5.094   2.286  0.5901 -0.3070 -0.0161
28740SOL    HW192056   8.263   5.129   2.334  0.5506 -0.2090 -0.1461
28740SOL    HW292057   8.301   5.062   2.204  0.4867 -1.4670  0.4596
28741SOL     OW92058   2.170   5.742   7.797  0.6805 -0.0731  0.0604
28741SOL    HW192059   2.103   5.684   7.759 -0.4276  0.6512  0.8464
28741SOL    HW292060   2.233   5.756   7.726 -0.3366 -0.2663 -0.9106
28742SOL     OW92061   4.817   9.620   5.124 -0.0759 -0.0887  0.7975
28742SOL    HW192062   4.836   9.705   5.085 -1.3005 -0.1569  0.0046
28742SOL    HW292063   4.891   9.604   5.183  0.7395  0.9914  0.1068
28743SOL     OW92064   7.522   0.650   3.067 -0.4785 -0.6813 -0.5060
28743SOL    HW192065   7.555   0.569   3.028 -2.1333 -2.0974  0.8465
28743SOL    HW292066   7.595   0.712   3.060  0.7280 -2.1696 -1.8718
28744SOL     OW92067   3.657   0.327   5.782  0.0724 -0.0549 -0.2720
28744SOL    HW192068   3.690   0.404   5.736 -1.3942  0.8537  0.1320
28744SOL    HW292069   3.695   0.333   5.869  1.2483 -0.6918 -0.7185
28745SOL     OW92070   2.122   2.940   4.849 -0.2720  0.3232 -0.4996
28745SOL    HW192071   2.034   2.971   4.831 -0.8366 -1.1439 -0.4202
28745SOL    HW292072   2.140   2.876   4.779  1.0321  1.1336 -0.9535
28746SOL     OW92073   1.582   1.998  10.586  0.6711 -0.0853  0.0983
28746SOL    HW192074   1.520   1.975  10.517 -0.2412  1.7022  0.2460
28746SOL    HW292075   1.568   2.092  10.599  1.2974 -0.2443  2.2371
28747SOL     OW92076   9.778   6.681   9.997 -0.0865 -0.3846 -0.7959
28747SOL    HW192077   9.771   6.717  10.086 -0.8352 -2.8439  0.2182
28747SOL    HW292078   9.714   6.729   9.946  1.1716  1.9057 -0.3684
28748SOL     OW92079   7.531   1.131   6.859 -0.5345  0.2302  0.0320
28748SOL    HW192080   7.535   1.225   6.844 -1.0581 -0.0674 -2.3070
28748SOL    HW292081   7.621   1.101   6.846 -0.4555  0.3355  0.3227
28749SOL     OW92082   8.185   3.432   9.645 -0.6029 -0.0417 -0.0355
28749SOL    HW192083   8.212   3.427   9.554  0.7277 -0.8725  0.3688
28749SOL    HW292084   8.176   3.526   9.663 -2.9225  0.0762 -1.5509
28750SOL     OW92085  10.345   8.869   2.652  0.3841 -0.7136 -0.6912
28750SOL    HW192086  10.435   8.837   2.650  1.0098  0.5455  2.2539
28750SOL    HW292087  10.347   8.951   2.603  1.4540  0.4914  1.2586
28751SOL     OW92088   1.286  10.690   6.093 -0.5162  0.4152 -0.4838
28751SOL    HW192089   1.278  10.610   6.145 -1.7340 -2.5394 -4.6142
28751SOL    HW292090   1.377  10.690   6.063 -1.0190 -0.8452 -2.2158
28752SOL     OW92091   0.653  10.718   7.482 -0.0090  0.0005 -0.0760
28752SOL    HW192092   0.721  10.692   7.419 -0.6761 -1.0110 -0.3955
28752SOL    HW292093   0.647  10.644   7.542  0.2996  0.7753  0.9263
28753SOL     OW92094   0.195   6.968   0.280 -0.2776 -0.5375  0.1391
28753SOL    HW192095   0.167   6.946   0.191 -0.8077  0.2092  0.1043
28753SOL    HW292096   0.226   7.059   0.273  3.1179 -1.5745 -0.0177
28754SOL     OW92097   2.015   4.048   1.520 -0.0901 -0.6117  0.0968
28754SOL    HW192098   2.090   3.995   1.547  0.2209  0.1163  0.6742
28754SOL    HW292099   2.052   4.109   1.455  0.3632  1.3241  2.0704
28755SOL     OW92100   8.110   9.618   2.703  0.0364  0.0445  0.5159
28755SOL    HW192101   8.098   9.677   2.628  0.1757  1.2036  1.3710
28755SOL    HW292102   8.139   9.676   2.774 -0.1580 -1.0125  1.4806
28756SOL     OW92103   5.865   1.456   9.622  0.0465  0.3375  0.6643
28756SOL    HW192104   5.836   1.425   9.537 -1.2130  2.4573  0.2504
28756SOL    HW292105   5.925   1.389   9.653  0.3528 -0.6119 -1.7759
28757SOL     OW92106   0.837   3.545  10.682  0.6521 -0.1360  1.0200
28757SOL    HW192107   0.882   3.605  10.623 -0.5223 -2.3793 -2.4958
28757SOL    HW292108   0.787   3.602  10.741 -0.2002  2.4475 -1.9027
28758SOL     OW92109   6.875   1.960   2.595 -0.3451  0.4350 -0.5855
28758SOL    HW192110   6.966   1.939   2.617  0.2387 -0.2209 -3.2142
28758SOL    HW292111   6.881   2.045   2.551 -1.0799  0.6216 -0.3300
28759SOL     OW92112   6.396   9.714  10.553  0.0448 -0.1277  0.5342
28759SOL    HW192113   6.377   9.768  10.630 -1.4619 -0.1244  0.1803
28759SOL    HW292114   6.329   9.737  10.490  1.0085 -0.4566 -0.6479
28760SOL     OW92115   6.723   6.674   2.733 -0.1549  0.3017  0.2525
28760SOL    HW192116   6.629   6.657   2.724 -0.4858  1.3518  1.4541
28760SOL    HW292117   6.735   6.698   2.825  1.3496 -0.1043  0.1927
28761SOL     OW92118   4.802   0.393   6.328  0.2934  0.0443 -0.0053
28761SOL    HW192119   4.857   0.354   6.259 -2.1524 -0.2629 -1.9480
28761SOL    HW292120   4.741   0.449   6.280 -1.1614  0.2688  1.9966
28762SOL     OW92121   0.462   4.874   7.096  0.0686 -0.5035 -0.6093
28762SOL    HW192122   0.516   4.846   7.023 -2.4302 -1.2278 -2.3154
28762SOL    HW292123   0.462   4.970   7.090  1.2608 -0.4842 -0.4666
28763SOL     OW92124   3.704   1.861   0.147  0.4872 -0.2817 -0.1098
28763SOL    HW192125   3.777   1.857   0.209  1.6122 -2.4208 -1.4645
28763SOL    HW292126   3.644   1.925   0.186  2.1188  0.0592  2.0742
28764SOL     OW92127   7.849   3.187   6.154 -0.5023 -0.1576  0.6186
28764SOL    HW192128   7.838   3.200   6.249  0.0630 -2.0356  0.9849
28764SOL    HW292129   7.797   3.109   6.135  1.0810 -1.0453 -0.2081
28765SOL     OW92130   2.190   7.792   5.283  0.1111  0.0438 -0.2822
28765SOL    HW192131   2.118   7.764   5.341  1.0995  0.3031  1.1110
28765SOL    HW292132   2.244   7.848   5.338  1.4912 -0.3065 -1.2481
28766SOL     OW92133   5.810   4.792   3.008 -0.3692 -0.0256  0.7010
28766SOL    HW192134   5.903   4.798   2.983 -0.1321 -0.2837  1.4877
28766SOL    HW292135   5.808   4.823   3.098 -0.9504 -0.6090  0.8968
28767SOL     OW92136   8.231   7.286   6.627  0.5386 -0.0932 -0.2784
28767SOL    HW192137   8.176   7.234   6.685 -0.9177  0.8067 -0.7817
28767SOL    HW292138   8.170   7.348   6.586  2.0721  1.5792 -0.1676
28768SOL     OW92139   6.194   4.608   8.351 -0.3486  0.0693  0.4061
28768SOL    HW192140   6.288   4.599   8.363 -0.4289  0.0271  1.0480
28768SOL    HW292141   6.156   4.538   8.403 -0.7666  0.7431  1.0336
28769SOL     OW92142   8.750   2.850   9.939  0.4116 -0.5284 -0.8507
28769SOL    HW192143   8.797   2.934   9.932 -0.9018  0.4184  0.7945
28769SOL    HW292144   8.681   2.856   9.873  1.6004 -1.2799 -2.2221
28770SOL     OW92145   8.553   0.603   3.357 -0.5992  0.6560 -0.2672
28770SOL    HW192146   8.607   0.655   3.416 -1.2951  0.5334  0.4990
28770SOL    HW292147   8.615   0.548   3.310 -0.1408 -0.7639  1.8560
28771SOL     OW92148   6.159  10.573   6.342 -0.0544  0.9261 -0.5970
28771SOL    HW192149   6.167  10.512   6.415  0.8593  1.1125 -0.5323
28771SOL    HW292150   6.171  10.659   6.381 -4.1330  1.5159 -0.1532
28772SOL     OW92151   3.230   4.847   1.115 -0.2926  0.6097  0.1760
28772SOL    HW192152   3.312   4.880   1.078 -0.3380 -0.3230 -0.7965
28772SOL    HW292153   3.256   4.800   1.194  0.2517 -0.5057 -0.6365
28773SOL     OW92154   8.074  10.116   6.738  0.6927 -0.5186  0.1107
28773SOL    HW192155   8.150  10.111   6.796 -0.0881 -1.1889  1.1090
28773SOL    HW292156   8.088  10.046   6.675  2.4932  1.3859 -1.7657
28774SOL     OW92157   0.680   6.723  10.293  0.2195 -0.2212 -0.3091
28774SOL    HW192158   0.612   6.714  10.360 -0.8248  0.8030 -1.1826
28774SOL    HW292159   0.640   6.778  10.225  1.4838 -0.6431 -1.4510
28775SOL     OW92160   9.514   1.651   2.862 -0.1940  0.4363  0.0414
28775SOL    HW192161   9.442   1.613   2.912  0.9529  0.3829  1.7417
28775SOL    HW292162   9.514   1.744   2.887 -0.8252  0.8737 -1.4373
28776SOL     OW92163   5.365   2.387   4.982  0.2076 -0.3512  0.0691
28776SOL    HW192164   5.379   2.295   5.005 -0.0926 -0.1821  0.9737
28776SOL    HW292165   5.288   2.413   5.033  1.6038  1.0191  1.6066
28777SOL     OW92166   9.051   3.123   8.575  0.6832  0.2637  0.0485
28777SOL    HW192167   8.972   3.107   8.626  0.4145  0.6748 -0.2348
28777SOL    HW292168   9.078   3.212   8.599  0.3092  0.6334 -0.8371
28778SOL     OW92169   1.107   0.903  10.707 -0.9358  0.2414  0.0068
28778SOL    HW192170   1.088   0.831  10.647 -2.9449  1.7293 -1.3149
28778SOL    HW292171   1.158   0.965  10.655 -0.2138  0.2984  0.7644
28779SOL     OW92172   0.538   6.610   5.209 -0.3758 -0.0098  0.1157
28779SOL    HW192173   0.535   6.528   5.258 -0.7097  0.6209  1.1898
28779SOL    HW292174   0.605   6.662   5.253  0.1957  0.1186 -0.8676
28780SOL     OW92175  10.100   8.936   9.015  0.0839 -0.0104  0.8623
28780SOL    HW192176  10.004   8.935   9.019  0.1113 -0.5858  1.7447
28780SOL    HW292177  10.124   8.844   9.015  0.6096  0.1057 -0.8050
28781SOL     OW92178   6.825   1.098   4.019 -0.5013  0.4216 -0.2641
28781SOL    HW192179   6.734   1.079   4.042 -0.0858 -0.1701  1.0200
28781SOL    HW292180   6.821   1.138   3.932 -1.9033 -0.5079 -0.6529
28782SOL     OW92181   4.681   8.377   8.530  0.1914  0.3807 -0.1996
28782SOL    HW192182   4.726   8.457   8.558  1.8555  0.3081 -2.3357
28782SOL    HW292183   4.705   8.311   8.596  0.5576  1.1410  0.4397
28783SOL     OW92184   7.980  10.483  10.076  0.8124  0.7268 -0.0160
28783SOL    HW192185   8.055  10.426  10.056  1.0034  0.2163  1.9513
28783SOL    HW292186   7.981  10.548  10.006  1.2145 -1.0496 -1.7822
28784SOL     OW92187   5.025  10.235   7.470  0.5010 -0.4569 -0.2699
28784SOL    HW192188   4.931  10.252   7.472  0.4943 -0.3997 -0.9421
28784SOL    HW292189   5.059  10.279   7.548  0.2666  1.4556 -1.1873
28785SOL     OW92190   8.718   8.582   0.172 -0.0423  0.0526 -0.4433
28785SOL    HW192191   8.739   8.611   0.261 -0.2516  0.0057 -0.3788
28785SOL    HW292192   8.784   8.516   0.152  0.9725  1.1544 -0.9105
28786SOL     OW92193   0.476   0.258   3.802  0.3612  0.3303 -0.6442
28786SOL    HW192194   0.400   0.218   3.844  1.0188  1.4185  1.7342
28786SOL    HW292195   0.536   0.185   3.785  1.1105  0.0193  2.6580
28787SOL     OW92196   5.138   8.422  10.285 -0.3762 -0.2456 -0.8915
28787SOL    HW192197   5.132   8.388  10.374  0.2270 -0.5443 -0.9630
28787SOL    HW292198   5.158   8.515  10.296 -1.1129 -0.0991 -0.7108
28788SOL     OW92199   4.436   8.144   2.438 -0.2566 -0.1755 -0.3365
28788SOL    HW192200   4.491   8.070   2.412 -0.2631 -0.8412  1.4264
28788SOL    HW292201   4.397   8.174   2.356 -0.5703 -2.3788 -1.0818
28789SOL     OW92202   6.149   8.662   7.412 -0.3649  0.0015  0.1072
28789SOL    HW192203   6.072   8.717   7.429 -0.9686 -0.9021  0.3530
28789SOL    HW292204   6.180   8.639   7.500 -1.0373 -1.3052  0.0183
28790SOL     OW92205   5.399   8.430   3.454 -0.2615 -0.2189 -0.5519
28790SOL    HW192206   5.403   8.349   3.504 -0.8391 -1.1098 -1.8931
28790SOL    HW292207   5.342   8.487   3.505  0.9208 -0.2652  0.8921
28791SOL     OW92208   2.662   7.001   5.113 -0.0546  0.4200 -0.1437
28791SOL    HW192209   2.590   6.940   5.097 -0.4821  0.6817  0.7392
28791SOL    HW292210   2.732   6.947   5.150  0.0753  0.2320 -0.6518
28792SOL     OW92211   9.811   1.383   2.300 -0.0432  0.4032 -0.0613
28792SOL    HW192212   9.830   1.390   2.207  1.3392  2.9176  0.3182
28792SOL    HW292213   9.863   1.452   2.341 -2.1278  0.7282  2.3408
28793SOL     OW92214   7.376   1.295   7.484 -0.0407 -0.2639  0.3524
28793SOL    HW192215   7.457   1.286   7.434 -0.5475 -1.5062 -0.2807
28793SOL    HW292216   7.404   1.295   7.575  0.7818  0.7532  0.1182
28794SOL     OW92217   4.790   4.608  10.081 -0.6320  0.6660 -0.3832
28794SOL    HW192218   4.795   4.516  10.058 -1.6042  0.2512  0.9321
28794SOL    HW292219   4.792   4.654   9.997 -0.8465 -0.5887 -1.0943
28795SOL     OW92220   9.973   3.955   2.448  0.2301  0.1644  0.6127
28795SOL    HW192221  10.012   3.925   2.366  1.4981 -1.5851  1.7662
28795SOL    HW292222   9.907   3.889   2.469 -0.1754  0.6653  0.9363
28796SOL     OW92223   8.799   4.136   6.177 -0.3129  0.1871  0.8120
28796SOL    HW192224   8.781   4.043   6.188 -0.8385  0.2667  0.6561
28796SOL    HW292225   8.890   4.146   6.204  0.4253 -0.7464 -1.1016
28797SOL     OW92226   7.452   8.690   8.455 -0.4851 -0.3813 -0.4033
28797SOL    HW192227   7.423   8.689   8.546  1.7464 -1.6167  0.3654
28797SOL    HW292228   7.426   8.604   8.421  0.0910 -0.5396 -0.4449
28798SOL     OW92229   4.681  10.508   4.286 -0.3177 -0.4274 -0.8635
28798SOL    HW192230   4.731  10.429   4.265  0.1857  0.0632 -1.5421
28798SOL    HW292231   4.738  10.558   4.344 -0.8337 -0.7708 -0.0323
28799SOL     OW92232   8.093   8.708   1.984 -0.4983 -0.2376  0.2673
28799SOL    HW192233   8.036   8.636   2.014 -1.4613  0.5097  0.2860
28799SOL    HW292234   8.180   8.669   1.979 -1.1646 -1.6728 -0.6943
28800SOL     OW92235   9.754  10.166   2.833  0.4531  0.4886 -0.2445
28800SOL    HW192236   9.679  10.211   2.873 -0.8944  0.5125 -2.5772
28800SOL    HW292237   9.732  10.073   2.838  0.7651  0.4259 -0.0282
28801SOL     OW92238   1.063   7.742  10.069  0.0506 -0.3312  0.5011
28801SOL    HW192239   1.087   7.688  10.145  5.8450 -1.6107 -1.6636
28801SOL    HW292240   1.133   7.807  10.063 -0.6373  0.2721 -3.1906
28802SOL     OW92241   4.607   4.787   5.050  0.7151 -0.0680 -0.0538
28802SOL    HW192242   4.651   4.702   5.051  0.7806 -0.0377 -0.5593
28802SOL    HW292243   4.560   4.790   4.967 -0.3302 -0.1432  0.5044
28803SOL     OW92244   7.287   8.938   2.052  0.0913 -0.2965  0.1251
28803SOL    HW192245   7.252   9.020   2.085 -0.5988  0.7206 -2.8107
28803SOL    HW292246   7.369   8.925   2.100  1.1049  3.0344 -0.4508
28804SOL     OW92247  10.319   1.305   0.881 -0.3277  0.0692  0.1574
28804SOL    HW192248  10.291   1.362   0.953  2.3043  0.1691  1.2187
28804SOL    HW292249  10.249   1.313   0.816 -1.4146  2.2838  1.4599
28805SOL     OW92250   7.810   1.546   6.644 -0.4192 -0.3117 -0.3268
28805SOL    HW192251   7.878   1.550   6.576  0.3294 -0.0788  0.4275
28805SOL    HW292252   7.764   1.630   6.637 -0.8712 -0.6032 -1.0628
28806SOL     OW92253  10.278   8.823   1.438 -0.3276 -0.1026 -0.0733
28806SOL    HW192254  10.203   8.862   1.393 -0.1948  0.2742  0.0210
28806SOL    HW292255  10.304   8.749   1.383 -0.0123  0.4983 -0.7497
28807SOL     OW92256   8.151   2.456   8.446  0.1692 -0.0824 -0.1663
28807SOL    HW192257   8.151   2.538   8.397  1.6370  0.3482  0.5153
28807SOL    HW292258   8.240   2.422   8.437 -1.1008 -3.2824 -3.0922
28808SOL     OW92259   6.665   8.367   9.333  0.1569  0.2963  0.3204
28808SOL    HW192260   6.690   8.300   9.269 -2.1696  0.5623 -1.0027
28808SOL    HW292261   6.589   8.330   9.377  0.7352  0.8168  1.7988
28809SOL     OW92262   7.068   7.218   5.096  0.0935 -0.3701 -0.2497
28809SOL    HW192263   7.055   7.130   5.062  0.2915 -0.1967 -0.7773
28809SOL    HW292264   6.995   7.269   5.059  0.7922  0.0147 -1.1221
28810SOL     OW92265   5.064   0.372   7.504 -0.1941 -0.0975 -0.3419
28810SOL    HW192266   5.049   0.325   7.586 -1.2472  0.2801 -0.3035
28810SOL    HW292267   4.978   0.376   7.462 -1.0458  4.7353  1.2646
28811SOL     OW92268   5.434   1.333  10.442 -0.4050  0.4634 -0.6805
28811SOL    HW192269   5.494   1.258  10.440  0.3579  1.0544 -0.2897
28811SOL    HW292270   5.440   1.365  10.532 -0.1574  1.4527 -1.0460
28812SOL     OW92271   4.988   0.044   3.229  0.6317  0.5815  0.0481
28812SOL    HW192272   5.021   0.105   3.295  0.6465  1.4922 -0.7896
28812SOL    HW292273   5.040   0.063   3.151  0.6982 -0.5733 -0.2095
28813SOL     OW92274   4.861   4.131   7.836 -0.1529  0.0218  0.3095
28813SOL    HW192275   4.873   4.226   7.837 -0.0574  0.0183 -0.2776
28813SOL    HW292276   4.950   4.096   7.833 -0.1910 -0.0854  0.4131
28814SOL     OW92277   8.884   6.980   1.572 -0.0490 -0.4771  0.1040
28814SOL    HW192278   8.827   6.983   1.495  0.4192 -0.0418 -0.2356
28814SOL    HW292279   8.966   7.019   1.542  1.0135 -2.5773  0.0938
28815SOL     OW92280   1.590   9.712   0.861  0.7028  0.0169  0.3191
28815SOL    HW192281   1.573   9.786   0.920 -0.3055 -0.4994  0.7066
28815SOL    HW292282   1.516   9.652   0.876  0.4886 -0.1967 -1.3659
28816SOL     OW92283   5.769   9.680   7.562 -0.1683 -0.7496  0.6249
28816SOL    HW192284   5.854   9.636   7.567 -2.5130 -6.3082 -0.5597
28816SOL    HW292285   5.782   9.751   7.499  3.5238 -1.2654  0.6094
28817SOL     OW92286   5.799   4.062   0.880 -0.9652  0.0825 -0.7887
28817SOL    HW192287   5.782   4.151   0.849 -1.9330 -0.5341 -2.1583
28817SOL    HW292288   5.893   4.060   0.898 -1.0102  1.5026 -0.2794
28818SOL     OW92289   3.527   1.835   0.355 -0.1250  0.5819  0.2884
28818SOL    HW192290   3.562   1.790   0.278 -0.6722  0.8730 -0.1387
28818SOL    HW292291   3.438   1.859   0.330 -0.9671 -0.9250  1.6795
28819SOL     OW92292   9.891   3.821   9.297 -0.4551 -0.1837  0.1033
28819SOL    HW192293   9.851   3.735   9.299  1.9576 -1.4266 -1.2776
28819SOL    HW292294   9.842   3.870   9.230  0.3746 -1.7066 -1.6808
28820SOL     OW92295   1.998   9.199   4.217 -0.9230  0.3568 -0.5936
28820SOL    HW192296   2.021   9.113   4.182 -1.6795 -0.4421  0.8067
28820SOL    HW292297   1.957   9.245   4.143 -1.0405 -0.6894 -1.1986
28821SOL     OW92298   8.711   3.967   8.705  0.1006  0.4160  0.2269
28821SOL    HW192299   8.795   3.984   8.663 -0.1495  3.0533  0.6315
28821SOL    HW292300   8.695   4.044   8.759 -2.3720 -0.2084  0.5155
28822SOL     OW92301  10.103   2.890   3.360 -0.2350 -0.0554  0.5004
28822SOL    HW192302  10.059   2.877   3.445  0.8395  0.9543  1.2457
28822SOL    HW292303  10.175   2.827   3.361  2.1894  2.4693  2.1381
28823SOL     OW92304   7.206   4.338   9.488 -0.2715 -0.2243 -0.8205
28823SOL    HW192305   7.292   4.319   9.526 -0.1216 -1.3382 -1.7031
28823SOL    HW292306   7.224   4.364   9.398 -0.9438 -1.8065 -1.4399
28824SOL     OW92307   4.849   3.137   9.110  0.0530  0.5940  0.4668
28824SOL    HW192308   4.814   3.052   9.139  0.3566  0.1468 -0.4693
28824SOL    HW292309   4.777   3.175   9.060  1.1510 -0.7499 -2.3031
28825SOL     OW92310   4.846  10.298  10.172  0.0234  0.1243 -0.5523
28825SOL    HW192311   4.890  10.325  10.252 -0.2161  0.6335 -0.5884
28825SOL    HW292312   4.841  10.202  10.178 -1.2143  0.2283  0.7083
28826SOL     OW92313   2.219   2.138   7.344 -0.2395 -0.3679 -0.1279
28826SOL    HW192314   2.168   2.152   7.264  0.4554  0.5945 -0.4209
28826SOL    HW292315   2.172   2.185   7.412  0.0109  0.1466 -0.3067
28827SOL     OW92316   7.714   2.486   2.965  0.1144 -0.2426 -0.1302
28827SOL    HW192317   7.636   2.536   2.942 -0.5489 -0.3130  1.7589
28827SOL    HW292318   7.786   2.547   2.954 -0.4097  0.3720 -0.2103
28828SOL     OW92319   7.774   3.810   9.467  0.4575  0.1545  0.0291
28828SOL    HW192320   7.854   3.857   9.444  0.8350  0.4493  1.7838
28828SOL    HW292321   7.703   3.869   9.440  0.8685  0.5429 -0.2224
28829SOL     OW92322   7.021   1.409   6.166 -0.1759  0.5614  0.4654
28829SOL    HW192323   6.984   1.321   6.164  1.0066  0.0537 -0.2600
28829SOL    HW292324   6.970   1.455   6.232  0.2053 -1.1321  2.0321
28830SOL     OW92325   0.348   1.431   4.140 -0.0148  0.4003  0.6696
28830SOL    HW192326   0.286   1.501   4.161 -1.1809 -0.6063  0.7345
28830SOL    HW292327   0.323   1.359   4.199  1.4741  0.0966  0.9654
28831SOL     OW92328   7.488   5.274  10.248 -0.7020 -0.3564 -0.7270
28831SOL    HW192329   7.582   5.256  10.254  0.0090  2.9628  0.2812
28831SOL    HW292330   7.457   5.270  10.338 -0.8404  1.4205 -0.6676
28832SOL     OW92331   8.388   4.894   1.037 -0.2905 -0.3041 -0.0730
28832SOL    HW192332   8.481   4.882   1.056 -0.4642  0.4596  1.4318
28832SOL    HW292333   8.386   4.943   0.955  0.6715  0.4308  0.3219
28833SOL     OW92334   4.239   9.444   3.774  0.2853  0.1646  0.3956
28833SOL    HW192335   4.214   9.366   3.725 -1.6396  0.5750  0.6445
28833SOL    HW292336   4.279   9.411   3.854  1.6716 -0.5228 -0.5445
28834SOL     OW92337   3.709   8.322   5.185  0.0093 -0.4343  0.4748
28834SOL    HW192338   3.736   8.406   5.149 -2.6190  0.1607 -0.2516
28834SOL    HW292339   3.741   8.258   5.122 -1.0949  0.3046 -0.8630
28835SOL     OW92340   7.897   6.923   0.364 -0.4051 -0.4775 -0.1163
28835SOL    HW192341   7.965   6.977   0.404 -0.4981 -1.3955  1.3385
28835SOL    HW292342   7.945   6.856   0.316 -0.2947  0.5316 -1.4676
28836SOL     OW92343   6.985   1.848   4.895 -0.4152 -0.0198  0.5164
28836SOL    HW192344   7.017   1.761   4.870  0.7948 -0.1760  2.4482
28836SOL    HW292345   7.016   1.906   4.826  0.3783 -0.8359  0.1699
28837SOL     OW92346   7.203   3.766   7.244  0.0350 -0.4305  0.6001
28837SOL    HW192347   7.265   3.734   7.178  0.3521 -0.5920  0.9741
28837SOL    HW292348   7.244   3.845   7.280  0.3845 -0.9611  1.3857
28838SOL     OW92349   9.995   1.383   3.141  0.3227 -0.2793 -0.1347
28838SOL    HW192350  10.054   1.347   3.207  0.8662  1.1143  0.1648
28838SOL    HW292351   9.932   1.436   3.191 -0.0584 -0.2646 -0.6224
28839SOL     OW92352   8.641   9.818   0.619  0.1193  0.4441  0.3215
28839SOL    HW192353   8.629   9.913   0.622 -0.5835  0.3447  1.6292
28839SOL    HW292354   8.566   9.784   0.668 -0.2585 -0.8445 -1.1011
28840SOL     OW92355   5.160   5.092   5.094 -0.6758  0.6292  0.0987
28840SOL    HW192356   5.248   5.077   5.062 -0.7969  0.7381 -0.2810
28840SOL    HW292357   5.112   5.013   5.069 -0.5681  0.3568  0.7310
28841SOL     OW92358   3.546   7.789   7.487 -0.2187 -0.2851 -0.5790
28841SOL    HW192359   3.599   7.790   7.408 -0.4655 -0.8450 -0.7548
28841SOL    HW292360   3.605   7.820   7.556  0.6005 -1.6613 -0.6215
28842SOL     OW92361   6.665  10.565   0.949  0.5859  0.3596  0.0945
28842SOL    HW192362   6.578  10.591   0.979  2.1383  2.4133  3.3247
28842SOL    HW292363   6.649  10.492   0.889 -3.2516 -0.2525  1.6030
28843SOL     OW92364   4.340   5.083   3.153 -0.0703  0.2147 -0.3842
28843SOL    HW192365   4.256   5.127   3.161 -0.3388 -0.2513 -0.5809
28843SOL    HW292366   4.320   4.991   3.170  0.8277  0.4211  2.1674
28844SOL     OW92367   4.875   4.286   1.185 -0.5220  0.5898 -0.5836
28844SOL    HW192368   4.909   4.292   1.096  0.9655 -0.1448 -0.0831
28844SOL    HW292369   4.914   4.207   1.221 -1.0473  0.9123  0.7549
28845SOL     OW92370   7.590   4.520   4.618 -0.1594  0.0032 -0.0086
28845SOL    HW192371   7.525   4.589   4.633 -0.5311  0.1856 -2.1600
28845SOL    HW292372   7.541   4.439   4.629 -0.2898  0.1140  0.2368
28846SOL     OW92373   2.477   4.399   5.579  0.0161  0.0808  0.0039
28846SOL    HW192374   2.404   4.429   5.525 -0.3490  1.5844  1.2355
28846SOL    HW292375   2.555   4.417   5.525 -0.3543  1.2296 -0.1842
28847SOL     OW92376   1.906   2.837  10.622 -0.7059 -0.1158 -0.7372
28847SOL    HW192377   1.905   2.847  10.717 -0.8176 -1.9976 -0.5178
28847SOL    HW292378   1.974   2.898  10.592 -0.6732  0.4915  0.5354
28848SOL     OW92379  10.579   9.582   0.076  0.1712  0.4027  0.4808
28848SOL    HW192380  10.611   9.594   0.165  0.2416 -1.3470  0.7307
28848SOL    HW292381  10.497   9.632   0.073 -0.8292 -1.0330  2.1420
28849SOL     OW92382   9.882   1.544   6.318  0.2217  0.0112 -0.5182
28849SOL    HW192383   9.853   1.461   6.356 -0.7069  0.6250  0.1504
28849SOL    HW292384   9.943   1.519   6.248  2.4526 -1.1540  1.6762
28850SOL     OW92385   6.001   4.583   7.790  0.6057 -0.8452 -0.3675
28850SOL    HW192386   6.004   4.619   7.701  1.4472  0.2124  0.0608
28850SOL    HW292387   6.020   4.658   7.847 -1.4849 -1.1512  0.8280
28851SOL     OW92388   7.774   1.894  10.172 -0.2138 -0.1845 -0.1831
28851SOL    HW192389   7.729   1.976  10.193  0.3856  0.3459 -0.9130
28851SOL    HW292390   7.737   1.831  10.233 -2.9710 -0.1113 -1.5802
28852SOL     OW92391   2.230   6.016   3.621  0.4439  0.1916 -0.5806
28852SOL    HW192392   2.251   5.998   3.529 -0.9977 -0.1189 -0.8763
28852SOL    HW292393   2.314   6.008   3.667  0.6304 -3.9708 -1.2001
28853SOL     OW92394   8.776  10.670   0.152 -0.3149 -0.2312 -0.2561
28853SOL    HW192395   8.797  10.581   0.180  0.5816 -0.5844 -1.9613
28853SOL    HW292396   8.710  10.659   0.084 -0.7216  0.4723  0.0095
28854SOL     OW92397  10.321   0.508   6.812  0.3315  0.4276 -0.5071
28854SOL    HW192398  10.404   0.467   6.787  0.0479 -0.5190  0.0413
28854SOL    HW292399  10.335   0.537   6.902 -0.4729 -1.3274  0.2283
28855SOL     OW92400   8.118   5.474   1.662  0.2917  0.5538  0.2040
28855SOL    HW192401   8.183   5.514   1.719  1.8374  0.1465 -1.1787
28855SOL    HW292402   8.112   5.383   1.691  0.5199  0.5342  0.1908
28856SOL     OW92403  10.347   1.391   5.924 -0.1756  0.1497  0.4664
28856SOL    HW192404  10.380   1.301   5.924 -0.6587 -0.0640 -1.1918
28856SOL    HW292405  10.417   1.442   5.963  1.8477 -0.3990 -2.2006
28857SOL     OW92406   9.772   0.956   3.149  0.2253  0.7552 -0.2249
28857SOL    HW192407   9.837   0.886   3.140  0.4293  0.9144 -0.0170
28857SOL    HW292408   9.772   0.976   3.243 -0.9707 -0.0423 -0.0304
28858SOL     OW92409   4.294   4.845   3.246  0.1344  0.1733 -0.3117
28858SOL    HW192410   4.305   4.775   3.182 -2.0334 -0.6519  0.1170
28858SOL    HW292411   4.257   4.801   3.323 -1.5787  1.8037 -0.1411
28859SOL     OW92412   5.545   0.636   4.819 -0.0944 -0.4897 -0.0345
28859SOL    HW192413   5.602   0.708   4.791 -1.6718  1.1954  0.8422
28859SOL    HW292414   5.493   0.615   4.741  1.4906 -1.8943 -0.7768
28860SOL     OW92415   4.640   9.094   0.885 -0.1809  0.3086  0.5348
28860SOL    HW192416   4.700   9.075   0.957 -1.6482 -0.9103  1.4830
28860SOL    HW292417   4.604   9.180   0.906  0.1297  0.3969  0.7198
28861SOL     OW92418  10.567   9.421   5.444 -0.5536  0.1664  0.2143
28861SOL    HW192419  10.489   9.398   5.393 -1.0778  1.5163  0.3393
28861SOL    HW292420  10.570   9.357   5.515  0.2700 -1.8434 -1.5363
28862SOL     OW92421   7.314   4.279   4.888  0.0380 -0.0741 -0.3447
28862SOL    HW192422   7.374   4.292   4.961  0.3879  0.0348 -0.6508
28862SOL    HW292423   7.262   4.202   4.912 -0.1505  0.2242  0.2166
28863SOL     OW92424   5.025   5.384   0.639  0.1389  0.4296  0.2224
28863SOL    HW192425   5.120   5.372   0.630  0.0399 -1.5549  1.1931
28863SOL    HW292426   5.009   5.474   0.611  2.0461  0.2247 -1.7731
28864SOL     OW92427   3.001   3.545   2.043 -0.0481  0.1394 -0.8675
28864SOL    HW192428   2.928   3.506   2.091  0.9827  0.3718  0.9892
28864SOL    HW292429   2.961   3.587   1.967 -1.4947 -2.1316 -1.4201
28865SOL     OW92430   9.845   9.808   2.778  0.1660  0.0284 -0.3210
28865SOL    HW192431   9.873   9.751   2.849 -0.2839  0.5222  0.2595
28865SOL    HW292432   9.778   9.757   2.731 -0.0184 -0.0416  0.0145
28866SOL     OW92433   7.281   9.547   7.210 -0.7757 -0.8964  0.4829
28866SOL    HW192434   7.244   9.623   7.166 -0.8006 -1.3066 -0.2277
28866SOL    HW292435   7.228   9.536   7.289 -1.1076 -0.5019  0.3146
28867SOL     OW92436   2.017   2.930   0.706 -0.7746 -0.2899 -0.1090
28867SOL    HW192437   2.031   2.944   0.800 -0.4618 -1.1909 -0.0043
28867SOL    HW292438   1.948   2.991   0.682 -0.5462  0.2609  0.6165
28868SOL     OW92439   0.008   2.318   7.938 -0.2460  0.5312 -0.1180
28868SOL    HW192440  -0.070   2.365   7.908 -0.4342  0.7259  0.6473
28868SOL    HW292441   0.072   2.387   7.957 -0.5707  0.5176  1.1484
28869SOL     OW92442   5.207   2.612   5.945  0.6349 -0.3436  0.0750
28869SOL    HW192443   5.183   2.696   5.907 -1.2768 -1.4714 -1.3755
28869SOL    HW292444   5.245   2.562   5.873 -3.0020 -2.5087 -0.5658
28870SOL     OW92445   4.286   7.982   9.086 -0.2907 -0.8119 -0.0347
28870SOL    HW192446   4.198   8.012   9.109  0.3694  0.1203  1.4354
28870SOL    HW292447   4.275   7.889   9.065 -1.2644 -1.4035  2.7019
28871SOL     OW92448  10.508   9.146  10.607  0.1820  0.3314  0.2967
28871SOL    HW192449  10.420   9.162  10.641 -0.6405 -2.8414 -0.0470
28871SOL    HW292450  10.559   9.120  10.684  0.5418  1.0964  0.3238
28872SOL     OW92451   9.834   9.256   2.433  0.1008 -0.0937 -0.0650
28872SOL    HW192452   9.836   9.306   2.514 -2.7963  0.2560 -0.1093
28872SOL    HW292453   9.791   9.314   2.370 -0.9350 -1.6359 -0.8461
28873SOL     OW92454   7.889   1.711   7.804 -0.8576  0.5327  0.0258
28873SOL    HW192455   7.857   1.635   7.853  0.9039  0.5529  1.3159
28873SOL    HW292456   7.927   1.768   7.871  1.7996  0.4878 -1.2837
28874SOL     OW92457   4.260   9.444   8.701 -0.3679  0.2939 -0.0509
28874SOL    HW192458   4.170   9.462   8.675 -0.2953 -0.3606 -0.7650
28874SOL    HW292459   4.310   9.447   8.620  0.4447  1.6926  0.4622
28875SOL     OW92460   0.470   6.639   2.784  0.7993  0.1677 -0.4790
28875SOL    HW192461   0.497   6.703   2.718  0.4085  0.9495  0.0989
28875SOL    HW292462   0.383   6.610   2.756 -0.5849  2.5026  1.0354
28876SOL     OW92463   6.028   7.738   8.917 -0.1396  0.4569 -0.1800
28876SOL    HW192464   5.938   7.705   8.910 -0.0944  0.2526  0.1966
28876SOL    HW292465   6.053   7.756   8.826  0.3564 -2.0022 -0.6136
28877SOL     OW92466   1.217   1.106  10.549 -0.1420 -0.1195 -0.2973
28877SOL    HW192467   1.222   1.034  10.486 -0.5833  1.4858 -2.2934
28877SOL    HW292468   1.129   1.142  10.536  0.4435  1.4278 -0.1138
28878SOL     OW92469   6.007   6.003   8.698 -0.3319  0.0986  0.4142
28878SOL    HW192470   6.021   6.096   8.681 -0.1166  0.6984  3.3822
28878SOL    HW292471   5.930   6.000   8.755 -0.5377 -1.5898  0.1040
28879SOL     OW92472   7.032   1.788   9.781 -0.0922 -0.0344  0.3163
28879SOL    HW192473   6.991   1.847   9.845  0.1066  0.9058 -0.4060
28879SOL    HW292474   7.110   1.835   9.752  0.3155 -0.8567  0.0433
28880SOL     OW92475   3.437   6.029  10.314  0.2203 -0.4792  0.2423
28880SOL    HW192476   3.465   6.107  10.363 -0.1427 -0.3449  0.2358
28880SOL    HW292477   3.430   5.960  10.380 -0.0458 -0.3560  0.3434
28881SOL     OW92478   1.210   9.567   9.922  0.0040 -0.2840  0.1442
28881SOL    HW192479   1.170   9.502   9.979  1.3441 -1.6121 -0.3494
28881SOL    HW292480   1.147   9.639   9.918 -1.0796 -1.1202  1.5060
28882SOL     OW92481   3.324   7.890   1.453  0.2902 -0.5211  0.3105
28882SOL    HW192482   3.409   7.847   1.451  0.3662 -0.3519 -1.3704
28882SOL    HW292483   3.277   7.846   1.525  1.5093 -1.1257  0.7676
28883SOL     OW92484   1.714   9.499   0.538  0.4734  0.3354  0.0177
28883SOL    HW192485   1.710   9.497   0.442 -1.0942 -0.7091  0.0725
28883SOL    HW292486   1.627   9.474   0.566  1.1071 -0.0600  1.7392
28884SOL     OW92487   5.939   6.798  10.690  0.0871 -0.3469 -0.2106
28884SOL    HW192488   5.995   6.729  10.656 -0.1736 -0.5243 -0.2829
28884SOL    HW292489   5.880   6.819  10.617 -0.8387 -1.1104  0.2966
28885SOL     OW92490   1.122   2.803   7.920  0.0534 -0.2945  0.0622
28885SOL    HW192491   1.075   2.720   7.927 -1.0859  0.4378  1.8535
28885SOL    HW292492   1.211   2.778   7.896 -0.1133 -2.0861  1.1346
28886SOL     OW92493   3.655   2.454  10.383 -0.7990 -0.0721  0.1333
28886SOL    HW192494   3.665   2.471  10.477  1.8412 -0.7552  0.0470
28886SOL    HW292495   3.707   2.523  10.341  0.0668 -1.2210 -0.7138
28887SOL     OW92496   7.800   5.597   3.965  0.0925  0.2164 -0.7307
28887SOL    HW192497   7.838   5.573   4.050  0.1204  0.6712 -0.6150
28887SOL    HW292498   7.860   5.558   3.901  1.4128  1.8591 -0.5669
28888SOL     OW92499   0.594   8.757  10.451  0.1390 -0.2331 -0.3408
28888SOL    HW192500   0.648   8.754  10.372 -0.1888  0.3456 -0.5913
28888SOL    HW292501   0.655   8.742  10.522  0.5560 -0.0238 -0.6525
28889SOL     OW92502  10.184   3.972   6.256 -0.1705 -0.5564  0.6451
28889SOL    HW192503  10.275   3.999   6.273 -0.2595 -0.4280  0.9187
28889SOL    HW292504  10.189   3.877   6.244 -0.3336 -0.9227  3.0352
28890SOL     OW92505   1.170   2.974   8.844  0.0854  0.3699  0.2568
28890SOL    HW192506   1.203   3.038   8.908  0.8284 -1.2560  1.5847
28890SOL    HW292507   1.091   2.939   8.884 -0.2224  0.3397 -0.3788
28891SOL     OW92508   8.414   3.727   7.949  0.6280 -0.7687  0.6833
28891SOL    HW192509   8.421   3.649   7.894 -0.3320  1.1289 -2.4308
28891SOL    HW292510   8.496   3.774   7.936 -0.0038  0.1884 -0.0490
28892SOL     OW92511   2.962   6.843   2.605 -0.5007  0.0703  0.6967
28892SOL    HW192512   2.943   6.918   2.548 -0.2490  0.6490  1.3632
28892SOL    HW292513   2.887   6.838   2.664 -1.1632 -1.0433 -0.1933
28893SOL     OW92514   9.624   1.619  10.497  0.6120 -0.0836  0.0475
28893SOL    HW192515   9.549   1.574  10.456 -0.8126  0.3542  2.0531
28893SOL    HW292516   9.614   1.710  10.470  2.2006 -0.4781 -2.1329
28894SOL     OW92517   5.267   5.967   9.848  0.5521  0.5100  0.7076
28894SOL    HW192518   5.257   6.054   9.887  1.0847  1.3712 -0.9806
28894SOL    HW292519   5.321   5.981   9.771 -0.0197 -1.1983 -0.0645
28895SOL     OW92520   7.041   1.264   4.161 -0.1192  0.0865  0.3823
28895SOL    HW192521   6.968   1.224   4.114 -0.6720  0.5030  0.8679
28895SOL    HW292522   7.118   1.245   4.107 -0.6919  0.2923 -0.5276
28896SOL     OW92523   9.477   6.134   0.888  0.3843 -0.3764  0.3784
28896SOL    HW192524   9.549   6.189   0.857  1.2050 -2.1829 -1.1499
28896SOL    HW292525   9.447   6.175   0.969  3.3816  0.2420  1.2602
28897SOL     OW92526   5.360   3.231   4.976  0.5582  0.2357 -0.5958
28897SOL    HW192527   5.416   3.159   5.007  0.6664  0.5468 -0.0537
28897SOL    HW292528   5.357   3.292   5.050  0.0626  0.5510 -0.8727
28898SOL     OW92529   3.398   8.424   5.329  0.7388  0.2164  0.0735
28898SOL    HW192530   3.374   8.348   5.383  1.6628  1.1259  1.8530
28898SOL    HW292531   3.473   8.394   5.278  0.0022 -0.5834 -0.5791
28899SOL     OW92532   4.439   3.993   0.408 -0.2048  0.3418  0.1729
28899SOL    HW192533   4.441   3.943   0.490 -1.0565  0.8052  0.4871
28899SOL    HW292534   4.377   4.064   0.425 -1.6514 -0.4783 -1.4171
28900SOL     OW92535   8.896   3.580   7.158 -0.0412  0.1242  0.1949
28900SOL    HW192536   8.928   3.490   7.157  1.0793  0.5053  0.1642
28900SOL    HW292537   8.808   3.574   7.195  0.0472 -0.9723  0.2515
28901SOL     OW92538   1.411   8.464   4.158  0.2912 -0.2259 -0.5497
28901SOL    HW192539   1.464   8.424   4.089  1.0994 -1.0272  0.4986
28901SOL    HW292540   1.330   8.413   4.159  0.8663 -1.1550  0.0360
28902SOL     OW92541   0.361   4.031   9.843  0.1449  0.0275 -0.1005
28902SOL    HW192542   0.389   3.953   9.794 -0.6259 -0.0781 -0.3808
28902SOL    HW292543   0.276   4.007   9.880 -1.1656  1.4983 -2.0285
28903SOL     OW92544   4.174   6.235   3.217  0.1361 -0.4678  0.3148
28903SOL    HW192545   4.174   6.329   3.234  0.7969 -0.4725  0.3805
28903SOL    HW292546   4.267   6.212   3.208 -0.0654 -0.8021 -1.3830
28904SOL     OW92547   5.732   0.704   9.357  0.1355 -0.4571 -0.3709
28904SOL    HW192548   5.806   0.644   9.345  0.3302 -0.4500  0.7101
28904SOL    HW292549   5.745   0.741   9.445 -1.2367 -0.5688 -0.1094
28905SOL     OW92550   9.482   0.871   6.589 -0.1042 -0.4318 -0.3749
28905SOL    HW192551   9.411   0.826   6.544 -0.6765  1.4747 -1.4745
28905SOL    HW292552   9.446   0.892   6.675 -1.1484  1.0600 -1.1334
28906SOL     OW92553   4.724   6.508   6.058  0.4094 -0.2312  0.1868
28906SOL    HW192554   4.708   6.595   6.021  2.2739 -0.5517 -1.5403
28906SOL    HW292555   4.674   6.448   6.002  0.1297 -0.3879  0.6014
28907SOL     OW92556   5.001  10.586   0.958 -0.3554 -0.1928 -0.5429
28907SOL    HW192557   4.986  10.536   0.878 -0.2375 -0.3977 -0.4413
28907SOL    HW292558   5.053  10.661   0.931 -1.2326  0.3170 -0.8319
28908SOL     OW92559   9.690   6.084   2.146  0.4693  0.1007  0.6629
28908SOL    HW192560   9.624   6.153   2.158  1.3332  1.0211  0.2284
28908SOL    HW292561   9.656   6.031   2.073  0.3984  0.8031  0.1800
28909SOL     OW92562   6.058  10.710   2.574 -0.6541  0.3944 -0.2228
28909SOL    HW192563   5.999  10.637   2.588 -0.0683 -0.8693 -3.3851
28909SOL    HW292564   6.146  10.673   2.586 -0.3892  0.9576 -0.3629
28910SOL     OW92565   0.146   6.848   2.076  0.2676  0.2209  0.2901
28910SOL    HW192566   0.078   6.889   2.023  0.9824  0.5237 -0.4140
28910SOL    HW292567   0.180   6.919   2.130  0.1430  0.1091  0.5157
28911SOL     OW92568   6.585   0.326   1.381 -0.4932  0.0992 -0.0823
28911SOL    HW192569   6.581   0.249   1.439  0.6293  0.9485  1.1729
28911SOL    HW292570   6.508   0.317   1.325 -2.1425 -0.3381  2.1089
28912SOL     OW92571   6.521   5.688   2.501  0.0448 -0.2277 -0.3110
28912SOL    HW192572   6.603   5.639   2.506 -0.4257 -0.9551  0.9364
28912SOL    HW292573   6.465   5.636   2.444 -0.8692 -1.9106  1.9320
28913SOL     OW92574   5.027   6.496   2.541  0.1004 -0.2696  0.1227
28913SOL    HW192575   5.037   6.428   2.474  3.5230 -1.0371  1.1747
28913SOL    HW292576   5.084   6.567   2.512 -1.7463  1.2993  0.1465
28914SOL     OW92577   9.035   4.082   2.372  0.4472 -0.1111 -0.3486
28914SOL    HW192578   8.961   4.105   2.316  1.2958  1.1044 -1.0099
28914SOL    HW292579   9.070   4.166   2.401  1.6246 -0.6582 -0.1204
28915SOL     OW92580   8.270   8.097  10.412 -0.2101  0.1359 -0.0773
28915SOL    HW192581   8.300   8.185  10.432  0.5369  0.4303 -2.1573
28915SOL    HW292582   8.350   8.044  10.409 -0.6777 -0.7125  1.4504
28916SOL     OW92583   7.776   7.834   3.203 -0.6325  0.6580  0.4345
28916SOL    HW192584   7.789   7.885   3.283  2.3716  1.4010 -0.3747
28916SOL    HW292585   7.832   7.757   3.215 -1.8717 -0.3600 -0.0943
28917SOL     OW92586   2.332  10.512   4.697  0.2266 -0.1740 -0.2777
28917SOL    HW192587   2.315  10.506   4.791 -2.1526  0.1629 -0.6288
28917SOL    HW292588   2.399  10.580   4.690 -0.9085  1.1502  1.0686
28918SOL     OW92589   5.724   4.025   7.953  0.3252 -0.2931  0.0818
28918SOL    HW192590   5.814   4.058   7.966  0.5054  0.1071 -1.8728
28918SOL    HW292591   5.734   3.930   7.948  0.5125 -0.3119  0.7428
28919SOL     OW92592   1.336   1.149   1.251  0.4598  0.0575 -0.6573
28919SOL    HW192593   1.313   1.082   1.187 -0.6956 -2.3828  2.1153
28919SOL    HW292594   1.431   1.153   1.249  0.5311 -1.4518 -1.1100
28920SOL     OW92595   2.357   8.082   5.159 -0.0769 -0.7881  0.0319
28920SOL    HW192596   2.426   8.111   5.099 -0.7385 -2.6521 -1.7286
28920SOL    HW292597   2.321   8.164   5.194  2.8457  0.2452  0.9020
28921SOL     OW92598   3.114   9.025   8.946 -0.1166  0.1633 -0.2672
28921SOL    HW192599   3.183   9.088   8.926 -0.1980  0.1843 -0.4878
28921SOL    HW292600   3.092   8.986   8.861 -0.3002  0.0776 -0.1818
28922SOL     OW92601   3.530   3.210   2.356 -0.5041 -0.3003  0.0114
28922SOL    HW192602   3.620   3.245   2.355 -0.7404  0.3076 -0.5302
28922SOL    HW292603   3.481   3.273   2.409 -0.9925  0.3771 -1.1944
28923SOL     OW92604   0.374   9.433   8.397  0.4994 -0.2903  0.0756
28923SOL    HW192605   0.363   9.440   8.302 -1.7753 -0.2673  0.2893
28923SOL    HW292606   0.372   9.523   8.428  0.6469 -0.3329  0.2083
28924SOL     OW92607   4.299   0.442   9.566 -0.1251  0.7250 -0.0402
28924SOL    HW192608   4.221   0.424   9.514  1.1298 -1.3795 -1.3808
28924SOL    HW292609   4.307   0.537   9.566 -0.4456  0.8617 -3.4473
28925SOL     OW92610   9.091   8.625   8.173 -0.0637 -0.5453  0.9487
28925SOL    HW192611   9.067   8.606   8.263 -1.0969 -1.8324  0.4198
28925SOL    HW292612   9.126   8.715   8.176 -2.2617  0.3314  2.2366
28926SOL     OW92613   8.656   1.240   0.346 -0.3270  0.3866 -0.3064
28926SOL    HW192614   8.683   1.175   0.281 -0.6953 -1.4941  1.3287
28926SOL    HW292615   8.604   1.190   0.409 -0.6947  2.3171  0.9857
28927SOL     OW92616   0.368   2.652   5.382 -0.1006  0.1463 -0.2254
28927SOL    HW192617   0.380   2.562   5.412 -0.8137  0.9823  2.9596
28927SOL    HW292618   0.275   2.657   5.359 -0.0380  0.0413 -0.5008
28928SOL     OW92619   2.404   5.619   9.140  0.1528 -0.6166 -0.1134
28928SOL    HW192620   2.387   5.525   9.154 -0.4493 -0.5985 -0.6647
28928SOL    HW292621   2.399   5.630   9.045  0.3523 -0.0433 -0.0609
28929SOL     OW92622   5.839   9.797   1.949  0.2912 -0.4967 -0.0802
28929SOL    HW192623   5.883   9.773   1.867 -0.0678 -0.5403 -0.2672
28929SOL    HW292624   5.747   9.809   1.923 -0.1999 -2.3271  0.6507
28930SOL     OW92625   2.036   5.688   4.486 -0.0130  0.0222  0.3133
28930SOL    HW192626   2.081   5.725   4.562 -0.9969  1.6617  0.1315
28930SOL    HW292627   1.989   5.612   4.522  0.9917 -0.3321  0.9466
28931SOL     OW92628   8.885   8.635   0.660 -0.0976  0.1123  0.0746
28931SOL    HW192629   8.940   8.647   0.582 -0.5669  1.7479 -0.0451
28931SOL    HW292630   8.913   8.704   0.720 -0.3026 -0.6222  1.0403
28932SOL     OW92631  10.303   1.971   3.133  0.6835  0.1582 -0.2151
28932SOL    HW192632  10.260   2.022   3.202 -1.3608 -1.7086 -0.0279
28932SOL    HW292633  10.254   1.890   3.128  2.4570 -0.9011 -2.0536
28933SOL     OW92634   9.406   9.207   1.158  0.0601  0.6216  0.5959
28933SOL    HW192635   9.435   9.177   1.244 -1.0345 -1.4332  0.2977
28933SOL    HW292636   9.413   9.131   1.101  1.2918  2.0685 -1.3432
28934SOL     OW92637   7.264   8.230   8.698  0.1077  0.1837  0.2261
28934SOL    HW192638   7.180   8.230   8.745 -0.9138  0.2979 -1.4901
28934SOL    HW292639   7.324   8.276   8.756 -1.6381  2.2717  0.5260
28935SOL     OW92640   5.554   0.155   6.763  0.2375  0.4215  0.2235
28935SOL    HW192641   5.589   0.130   6.849  0.1224 -0.9029 -0.0983
28935SOL    HW292642   5.475   0.205   6.783 -0.3774 -0.7708  0.8984
28936SOL     OW92643   7.873   8.066   5.032  0.5134  0.3338  0.2146
28936SOL    HW192644   7.817   8.057   4.955 -0.3960 -1.1085  0.9709
28936SOL    HW292645   7.858   8.155   5.063 -0.9096  0.1795  0.0326
28937SOL     OW92646   8.773   2.016   4.425 -0.2620  0.0242 -0.0075
28937SOL    HW192647   8.788   2.109   4.407 -1.8406  0.4519  0.6591
28937SOL    HW292648   8.799   2.005   4.516 -0.5392 -0.0590  0.0633
28938SOL     OW92649   2.439   5.600   2.568 -0.1895  0.5843 -0.3694
28938SOL    HW192650   2.463   5.515   2.605 -1.1984  0.1884 -0.6074
28938SOL    HW292651   2.400   5.579   2.483  0.8561  1.3866 -1.0794
28939SOL     OW92652   0.094   4.985   6.017  0.1435  0.0555  0.0156
28939SOL    HW192653   0.034   4.934   6.072  1.0826  0.1931  1.2311
28939SOL    HW292654   0.135   4.921   5.960  0.8493 -0.4938  1.0984
28940SOL     OW92655   3.532   8.813   4.752 -0.4031  0.4820  0.2564
28940SOL    HW192656   3.446   8.777   4.774 -0.5456  0.4854 -0.2736
28940SOL    HW292657   3.563   8.757   4.680  0.6948 -0.4638  1.4210
28941SOL     OW92658   8.167   9.154   8.687 -0.0084  0.1276  0.2979
28941SOL    HW192659   8.180   9.065   8.720  0.8810  1.3988  3.8628
28941SOL    HW292660   8.253   9.181   8.655 -0.2260 -0.1822 -0.5738
28942SOL     OW92661   9.833  10.327   7.453 -0.6642 -0.4453  0.0794
28942SOL    HW192662   9.921  10.291   7.458 -0.7050 -0.4127  1.4828
28942SOL    HW292663   9.776  10.258   7.486 -1.0422 -0.0906  0.1835
28943SOL     OW92664   9.832   2.906   8.018  0.1618 -0.1790 -0.1612
28943SOL    HW192665   9.740   2.880   8.026 -0.0192  0.6875  0.8237
28943SOL    HW292666   9.875   2.861   8.091  0.5125 -0.5323 -0.5840
28944SOL     OW92667  10.550   3.122   9.128  0.3116  0.7797 -0.3956
28944SOL    HW192668  10.574   3.188   9.063 -1.1671  2.0901  0.3421
28944SOL    HW292669  10.633   3.099   9.171  1.0538  1.0954 -1.5989
28945SOL     OW92670   2.240   4.921   8.994 -0.3736  0.2308 -0.0622
28945SOL    HW192671   2.245   4.992   9.058 -0.5217 -0.1300  0.3531
28945SOL    HW292672   2.330   4.910   8.962  0.0811 -0.8811  1.5100
28946SOL     OW92673   6.079   9.267   4.519  0.3672  0.3201  0.1913
28946SOL    HW192674   6.169   9.280   4.549 -0.1297  2.1489  1.0492
28946SOL    HW292675   6.032   9.235   4.596  0.2872 -0.7565 -0.2878
28947SOL     OW92676   1.383   3.546   7.070 -0.0467 -0.3384  0.4523
28947SOL    HW192677   1.427   3.461   7.077 -0.6386 -0.7704 -0.7823
28947SOL    HW292678   1.391   3.570   6.978 -0.5290  0.6011  0.6465
28948SOL     OW92679   5.946  10.069   8.332 -0.3962 -0.0624 -0.2816
28948SOL    HW192680   5.988   9.983   8.325 -1.4901 -0.8806  2.0675
28948SOL    HW292681   5.916  10.074   8.423 -1.9966  2.0539 -0.8330
28949SOL     OW92682   5.309  10.638   0.891  0.1386 -0.3107 -0.7173
28949SOL    HW192683   5.348  10.571   0.948  0.1565 -0.2759 -0.6888
28949SOL    HW292684   5.379  10.702   0.880  1.0329 -1.5504 -2.8453
28950SOL     OW92685   8.258   1.934   0.599 -0.1291  0.0214 -0.2813
28950SOL    HW192686   8.285   1.878   0.527  1.7021  0.5909 -0.0731
28950SOL    HW292687   8.302   2.018   0.584  0.4135  0.1164  1.5294
28951SOL     OW92688   7.520   7.286   3.049 -0.2209 -0.7144 -0.2046
28951SOL    HW192689   7.449   7.230   3.079 -0.4134 -1.2953 -1.6812
28951SOL    HW292690   7.583   7.285   3.121 -1.2583 -0.9703  0.7222
28952SOL     OW92691   9.854   9.074   5.582 -0.4997 -0.2831 -0.5631
28952SOL    HW192692   9.767   9.037   5.564 -0.6834 -0.3183  0.3374
28952SOL    HW292693   9.879   9.116   5.500 -1.5006 -0.0197 -0.7502
28953SOL     OW92694   9.382   5.371  10.650 -0.1374  0.3850  0.5296
28953SOL    HW192695   9.425   5.421  10.581 -1.6262 -3.3607 -3.5894
28953SOL    HW292696   9.289   5.389  10.639 -0.4600 -0.8698  1.0006
28954SOL     OW92697   0.543   6.578   3.400  0.0608 -0.0932  0.9137
28954SOL    HW192698   0.517   6.496   3.358  0.2752  1.1954 -2.0493
28954SOL    HW292699   0.633   6.564   3.428  0.0475 -0.9262  0.5766
28955SOL     OW92700   1.486   0.453   1.362 -0.0759 -0.4224  0.0697
28955SOL    HW192701   1.401   0.458   1.404 -1.3728  0.9226 -2.4770
28955SOL    HW292702   1.547   0.491   1.425 -2.1013  2.7412  0.3080
28956SOL     OW92703  10.146   0.560   2.758  0.0263  0.6209 -0.4283
28956SOL    HW192704  10.239   0.580   2.761  0.4114 -0.6045 -2.2890
28956SOL    HW292705  10.141   0.466   2.779 -0.5341  0.2148 -2.1830
28957SOL     OW92706   0.444   8.884   0.952  0.4576 -0.2996  0.2701
28957SOL    HW192707   0.394   8.964   0.933  0.3447 -0.2677  0.6778
28957SOL    HW292708   0.526   8.895   0.905  0.7715  0.4310  0.9624
28958SOL     OW92709   4.503   1.947   5.505 -0.3852 -0.0865 -0.0956
28958SOL    HW192710   4.577   1.976   5.452 -1.0420  1.5194 -0.1917
28958SOL    HW292711   4.537   1.873   5.555  1.5870  1.2025  0.6042
28959SOL     OW92712   2.103   7.146   5.568  0.1311  0.1618 -0.9801
28959SOL    HW192713   2.163   7.212   5.533  1.4453 -0.7511 -0.5061
28959SOL    HW292714   2.119   7.146   5.662 -0.0486 -0.6408 -0.9479
28960SOL     OW92715   2.380   8.463   8.169  0.7575  0.0099  0.1207
28960SOL    HW192716   2.377   8.423   8.256 -0.4851 -0.4407 -0.1047
28960SOL    HW292717   2.344   8.551   8.182 -1.0083 -0.6321 -0.2011
28961SOL     OW92718   4.788   3.485   1.623 -0.3215 -0.5304 -0.5270
28961SOL    HW192719   4.820   3.408   1.670  1.8237  0.0461 -0.8928
28961SOL    HW292720   4.782   3.553   1.690 -0.7584 -0.6379 -0.4591
28962SOL     OW92721   4.417   2.665   3.087  0.0079 -0.7662 -0.9046
28962SOL    HW192722   4.495   2.666   3.142 -0.6965 -2.5906  0.1988
28962SOL    HW292723   4.381   2.577   3.097 -2.4561  0.1437 -1.0149
28963SOL     OW92724   2.171   4.089  10.343 -0.1228  0.4746  0.0787
28963SOL    HW192725   2.115   4.107  10.268 -1.6384 -2.8774  0.2033
28963SOL    HW292726   2.141   4.147  10.412 -2.8882 -0.5310 -0.1772
28964SOL     OW92727   3.974   8.434   5.567 -0.2099 -0.6497 -0.2297
28964SOL    HW192728   3.930   8.505   5.615 -0.3122 -0.9291  0.0899
28964SOL    HW292729   4.065   8.437   5.597  0.0868  0.1765 -1.1763
28965SOL     OW92730   3.126   3.079   5.090 -0.2480  0.3489  0.1891
28965SOL    HW192731   3.151   3.148   5.029 -1.7685 -0.1258 -1.0324
28965SOL    HW292732   3.158   3.109   5.175  0.0022  2.0721 -0.4831
28966SOL     OW92733  10.452   6.725   9.048 -0.0629  0.2377  0.0644
28966SOL    HW192734  10.526   6.690   9.098 -1.4060 -1.0486  1.2554
28966SOL    HW292735  10.440   6.814   9.084  0.2020  0.0396  0.6608
28967SOL     OW92736   8.857   3.228   5.854 -0.1213  0.0081 -0.3489
28967SOL    HW192737   8.850   3.133   5.862 -1.0074  0.0056 -1.0150
28967SOL    HW292738   8.931   3.242   5.795 -1.4245 -0.3577 -2.1256
28968SOL     OW92739   3.103   2.099   9.825 -0.0157 -0.1970 -0.5950
28968SOL    HW192740   3.185   2.057   9.798 -0.7546 -1.9213 -0.2506
28968SOL    HW292741   3.070   2.044   9.896 -0.4782  1.6081  0.6460
28969SOL     OW92742   9.312   7.404   0.550  0.3880  0.2005  0.2747
28969SOL    HW192743   9.219   7.410   0.529  0.4751  2.2286  0.2513
28969SOL    HW292744   9.317   7.425   0.643  0.8021 -0.3942  0.3968
28970SOL     OW92745   4.480   0.357   3.948  0.2754 -0.3606 -0.1754
28970SOL    HW192746   4.493   0.269   3.913  1.4094 -0.0744 -0.5330
28970SOL    HW292747   4.391   0.356   3.984 -0.2151 -1.2319 -1.3613
28971SOL     OW92748   5.377   2.632   4.816 -0.1135 -0.1228 -0.4023
28971SOL    HW192749   5.445   2.689   4.779  0.9549 -1.2648 -0.2332
28971SOL    HW292750   5.394   2.546   4.779 -3.1211  0.0130 -2.5213
28972SOL     OW92751   8.759  10.645   7.895  0.1985  0.5492 -0.2670
28972SOL    HW192752   8.855  10.647   7.896  0.1899  0.6297  0.5298
28972SOL    HW292753   8.732  10.721   7.946 -0.2696 -0.3468  0.8773
28973SOL     OW92754   0.419   8.269   0.430 -0.7237 -0.4235  0.2561
28973SOL    HW192755   0.468   8.217   0.367  2.1917  0.6019  1.5115
28973SOL    HW292756   0.427   8.359   0.399  0.5801  0.0741  1.9142
28974SOL     OW92757   0.464   8.927   1.451 -0.2051  0.5707  0.0941
28974SOL    HW192758   0.558   8.940   1.463 -0.0888 -0.8578  0.8954
28974SOL    HW292759   0.438   8.996   1.390  1.4810  0.6060 -0.6383
28975SOL     OW92760  10.680   5.759   9.978  0.2624 -0.0152  0.2557
28975SOL    HW192761  10.664   5.669   9.949  0.5587 -0.3867  1.2277
28975SOL    HW292762  10.655   5.760  10.070  1.7014  0.5006  0.6636
28976SOL     OW92763   1.800   7.724  10.022 -0.5010  0.6675 -0.2130
28976SOL    HW192764   1.797   7.807   9.975 -0.4226  0.7057 -0.1530
28976SOL    HW292765   1.870   7.674   9.979  0.3538  1.1503  0.5713
28977SOL     OW92766   2.060   5.877   4.294 -0.1755  0.5406 -0.3042
28977SOL    HW192767   2.050   5.818   4.369 -1.3158  0.4620 -0.5083
28977SOL    HW292768   2.152   5.903   4.298  0.2580 -0.9112  0.0322
28978SOL     OW92769   0.526   9.251   6.289 -0.7523 -0.2632  0.1070
28978SOL    HW192770   0.611   9.288   6.314 -1.8663  2.3311  0.3919
28978SOL    HW292771   0.533   9.237   6.195 -0.6899  2.1080 -0.2957
28979SOL     OW92772   2.912  10.607   2.736  0.2909  0.6387 -0.7590
28979SOL    HW192773   2.946  10.660   2.808  1.7074 -0.6793 -0.4047
28979SOL    HW292774   2.968  10.628   2.661  0.2450  0.3646 -0.8712
28980SOL     OW92775   3.195   7.470   2.111  0.5639  0.1266  0.1302
28980SOL    HW192776   3.290   7.468   2.101  0.3201 -0.2661 -2.8742
28980SOL    HW292777   3.176   7.562   2.133  1.4627  1.0920 -2.6741
28981SOL     OW92778   3.492   9.201   1.501 -0.4278 -0.3162  0.3333
28981SOL    HW192779   3.531   9.282   1.471  1.8177 -1.6866 -0.6652
28981SOL    HW292780   3.549   9.171   1.572  1.5401 -3.1304 -2.1527
28982SOL     OW92781  10.602   2.759   0.439 -0.2906  0.2632 -1.1971
28982SOL    HW192782  10.675   2.818   0.418 -0.2849  0.6123 -0.2312
28982SOL    HW292783  10.598   2.759   0.534  0.7292 -2.5413 -1.0833
28983SOL     OW92784   4.003   8.151   2.790  0.3868  0.3535 -0.2137
28983SOL    HW192785   3.913   8.178   2.809  0.3112  0.6769 -1.0064
28983SOL    HW292786   4.010   8.155   2.695  0.8850 -0.8218 -0.2365
28984SOL     OW92787   9.080   0.369   3.308  0.6290  0.3375  0.2417
28984SOL    HW192788   9.007   0.312   3.331  1.3420 -0.0345  1.7474
28984SOL    HW292789   9.042   0.435   3.250 -0.4303 -1.0641 -0.7133
28985SOL     OW92790   4.252  10.502   1.457 -0.0800 -0.2480 -0.5558
28985SOL    HW192791   4.219  10.443   1.525 -0.4279 -0.7625 -1.1450
28985SOL    HW292792   4.208  10.585   1.473 -0.1637 -0.3702 -0.1570
28986SOL     OW92793   8.877   5.948  10.255  0.1127  0.0852 -0.3866
28986SOL    HW192794   8.841   5.914  10.173  2.8380  2.0817 -2.6549
28986SOL    HW292795   8.971   5.928  10.250  0.8278  2.6165  0.8968
28987SOL     OW92796   2.900   6.313   8.492 -0.0615  0.3442  0.1366
28987SOL    HW192797   2.922   6.264   8.413 -0.5564 -0.4406  0.4728
28987SOL    HW292798   2.984   6.329   8.535  0.1796  0.5208 -0.3990
28988SOL     OW92799   6.947   1.976   4.087 -0.4941  0.1575 -0.3316
28988SOL    HW192800   6.920   2.039   4.154 -0.0088  1.6012 -1.4288
28988SOL    HW292801   6.869   1.964   4.033 -0.1169  1.2355 -1.1591
28989SOL     OW92802   4.209   8.758   6.031  0.8342 -0.5304 -0.0167
28989SOL    HW192803   4.178   8.748   6.121 -0.8093  0.4262 -0.4337
28989SOL    HW292804   4.147   8.819   5.991  1.8472 -0.5160 -1.6499
28990SOL     OW92805   2.289   3.840  10.333  0.0786 -0.7367  0.6519
28990SOL    HW192806   2.239   3.921  10.322  0.9551 -0.2055  0.4902
28990SOL    HW292807   2.369   3.854  10.282 -0.1201 -2.0340 -0.0598
28991SOL     OW92808   9.759   4.133   7.018 -0.0540 -0.3126  0.2258
28991SOL    HW192809   9.748   4.039   7.006 -1.2890 -0.0519 -0.9877
28991SOL    HW292810   9.837   4.155   6.967 -0.5556 -0.4850 -0.6363
28992SOL     OW92811   4.231   3.871   8.807  0.4311  0.0236 -0.6610
28992SOL    HW192812   4.248   3.951   8.856 -1.4066 -0.4717  0.8760
28992SOL    HW292813   4.270   3.802   8.860 -0.4056 -0.3870 -0.5710
28993SOL     OW92814   3.361   9.974   7.506 -0.4932 -0.1608  0.0314
28993SOL    HW192815   3.412  10.023   7.441  1.7869 -1.9421  0.3448
28993SOL    HW292816   3.369  10.026   7.586  0.5610 -0.2155 -0.0178
28994SOL     OW92817   7.609   3.174   5.002 -0.0492 -0.2606  0.3187
28994SOL    HW192818   7.517   3.198   5.008 -0.0570 -0.4911  1.3133
28994SOL    HW292819   7.610   3.079   5.005  0.2077 -0.2658  0.0934
28995SOL     OW92820   6.893   6.930   3.072  0.3479 -0.6575 -0.1011
28995SOL    HW192821   6.890   6.999   3.006  1.2792 -1.7243 -1.3302
28995SOL    HW292822   6.982   6.935   3.108  0.1758 -0.7387  0.3460
28996SOL     OW92823   1.932   8.792   6.619  0.4909  0.1576  0.2981
28996SOL    HW192824   1.848   8.813   6.576  0.2783 -0.9175  0.1531
28996SOL    HW292825   1.961   8.712   6.575  2.2708  1.2262 -0.5674
28997SOL     OW92826   8.075   7.199   4.895 -0.0227 -0.4389 -0.0907
28997SOL    HW192827   8.032   7.115   4.906  1.1380 -1.0476 -0.0619
28997SOL    HW292828   8.129   7.209   4.974 -0.0608  0.2774 -0.1451
28998SOL     OW92829   7.012   9.600  10.507 -0.4136  0.0163 -0.0081
28998SOL    HW192830   7.042   9.524  10.457 -2.3083 -0.4431 -0.5599
28998SOL    HW292831   7.049   9.675  10.461  2.5086 -0.5113  1.2479
28999SOL     OW92832   7.873   4.427   0.880  0.3438 -0.3341  0.1154
28999SOL    HW192833   7.835   4.487   0.945  1.8369  1.9845 -0.9939
28999SOL    HW292834   7.835   4.454   0.797 -0.1190 -2.0078 -0.2549
29000SOL     OW92835   3.067   0.217   7.513  0.2272 -0.0048  0.5925
29000SOL    HW192836   3.057   0.231   7.607 -1.4230 -2.0599  0.7789
29000SOL    HW292837   2.991   0.164   7.488  0.4506  0.7504 -1.9731
29001SOL     OW92838   6.097   9.275   6.115  0.3454 -0.6272 -0.0075
29001SOL    HW192839   6.036   9.319   6.056 -0.2790 -0.8761  0.4277
29001SOL    HW292840   6.056   9.283   6.201  0.1738 -2.0890  0.0801
29002SOL     OW92841   1.532   1.224   7.970 -0.1617 -0.0557 -0.3656
29002SOL    HW192842   1.610   1.277   7.955  0.2960 -0.9440 -1.2432
29002SOL    HW292843   1.529   1.164   7.896 -0.8410 -1.0461  0.4316
29003SOL     OW92844  10.203   1.346   1.226  0.3375 -0.5338  0.8656
29003SOL    HW192845  10.172   1.324   1.314 -0.4747 -4.5212 -0.2074
29003SOL    HW292846  10.124   1.370   1.178  0.4686 -0.4247  0.7018
29004SOL     OW92847   6.891   2.277   2.816  0.7670 -0.2318  0.0141
29004SOL    HW192848   6.933   2.222   2.882  2.2533 -0.4792 -1.0924
29004SOL    HW292849   6.865   2.355   2.864 -0.2451 -1.3370  1.3536
29005SOL     OW92850   7.252   1.699   0.666 -0.2293 -0.4163 -0.5963
29005SOL    HW192851   7.163   1.716   0.695 -0.0836  0.5891 -0.7176
29005SOL    HW292852   7.306   1.713   0.744 -0.0194  0.5654 -0.9074
29006SOL     OW92853   8.889   4.647   0.775 -0.1432 -0.4290  0.9531
29006SOL    HW192854   8.851   4.562   0.755 -2.4072  0.3047  1.7391
29006SOL    HW292855   8.942   4.668   0.698  0.5568 -2.5537  0.7913
29007SOL     OW92856   3.970   3.207   3.045 -0.0632  0.2267  0.9414
29007SOL    HW192857   3.970   3.164   3.130 -0.3831  1.0377  1.3622
29007SOL    HW292858   3.878   3.214   3.021  0.0680 -0.9369  0.0292
29008SOL     OW92859   8.584   7.588   8.407  0.5134 -0.5109  0.0494
29008SOL    HW192860   8.652   7.528   8.439  0.8690  0.4387  1.1289
29008SOL    HW292861   8.632   7.652   8.354  0.7841  1.1822  2.2141
29009SOL     OW92862   6.069   0.174   8.160 -0.0917  0.1000  0.5497
29009SOL    HW192863   6.021   0.230   8.099  1.4929  2.0441  1.0137
29009SOL    HW292864   6.059   0.086   8.124 -1.5269  0.8253 -0.9529
29010SOL     OW92865   0.391   1.582   5.904 -0.0107  0.2417  0.0835
29010SOL    HW192866   0.472   1.537   5.881  0.6017  0.7284  1.2212
29010SOL    HW292867   0.412   1.630   5.984 -0.9315  1.7739 -0.5648
29011SOL     OW92868   6.339   1.333   3.934 -0.2563 -0.1251  0.1717
29011SOL    HW192869   6.334   1.418   3.978  1.1052 -0.1566  0.3991
29011SOL    HW292870   6.414   1.340   3.876 -0.3998 -1.0316 -0.1376
29012SOL     OW92871   3.355   8.721  10.438 -0.3016  0.1050 -0.3356
29012SOL    HW192872   3.450   8.730  10.431 -0.4022  1.3900 -0.3437
29012SOL    HW292873   3.342   8.653  10.505  0.5875 -2.3074 -2.4683
29013SOL     OW92874   4.700   6.508   8.110 -0.4737  0.2255 -0.2476
29013SOL    HW192875   4.630   6.532   8.170 -0.9500  2.1116 -1.4912
29013SOL    HW292876   4.763   6.579   8.116 -0.2678  0.1766 -1.5585
29014SOL     OW92877  10.527   1.552   8.872 -0.7344 -0.1358 -0.0609
29014SOL    HW192878  10.562   1.557   8.783 -0.5348 -0.8165 -0.0324
29014SOL    HW292879  10.523   1.642   8.902 -1.7400  0.1898 -1.1146
29015SOL     OW92880   5.314   7.348   3.423 -0.7393 -0.2836  0.5570
29015SOL    HW192881   5.263   7.351   3.343  1.2699  1.7395 -0.7847
29015SOL    HW292882   5.365   7.429   3.422  0.8507 -1.1374  2.8748
29016SOL     OW92883  10.089   4.671   2.899 -0.8474 -0.1292  0.4651
29016SOL    HW192884  10.031   4.703   2.830 -1.3113  0.0663  0.9397
29016SOL    HW292885  10.142   4.604   2.856  0.0576  1.1531 -0.5120
29017SOL     OW92886   3.802   5.664   1.229  0.0010  0.2454 -0.6691
29017SOL    HW192887   3.866   5.734   1.212  1.8479 -0.6322  1.9741
29017SOL    HW292888   3.785   5.627   1.142  2.4732  1.0761 -1.6254
29018SOL     OW92889   6.422   8.376   4.306 -0.4873 -0.0724 -0.4826
29018SOL    HW192890   6.489   8.379   4.374  0.9748 -0.3712 -1.8547
29018SOL    HW292891   6.370   8.299   4.327 -2.7305  2.0043  2.5974
29019SOL     OW92892   8.525   2.091   5.775  0.0062 -0.1819  0.2247
29019SOL    HW192893   8.487   2.049   5.698  0.5207 -0.8103  0.3034
29019SOL    HW292894   8.565   2.019   5.825  0.9706  0.4005  0.3228
29020SOL     OW92895   4.280   2.616   0.263  0.2667  0.0973 -0.0114
29020SOL    HW192896   4.347   2.569   0.312  0.5483 -0.1155 -0.5879
29020SOL    HW292897   4.327   2.689   0.223  0.3155 -0.4734 -1.0179
29021SOL     OW92898   2.207   2.052   9.938 -0.4167  0.2097 -0.3650
29021SOL    HW192899   2.258   1.998   9.999 -0.6469  1.2643  0.8312
29021SOL    HW292900   2.246   2.035   9.852  1.2223  0.1282  0.3470
29022SOL     OW92901   3.731   8.837   7.252  0.1497  0.8437  0.5584
29022SOL    HW192902   3.707   8.804   7.165  0.2947  0.8003  0.5342
29022SOL    HW292903   3.652   8.827   7.304  0.6938 -1.2900  1.0821
29023SOL     OW92904   6.002   6.314   5.398 -0.2635 -0.2776  0.2171
29023SOL    HW192905   5.970   6.368   5.326  1.8781  0.7779 -0.0138
29023SOL    HW292906   5.951   6.232   5.391 -1.6492  0.6430 -1.0916
29024SOL     OW92907   4.191  10.578   3.715  0.5805  0.3399  0.1994
29024SOL    HW192908   4.152  10.526   3.644  0.1092  1.8261 -0.6677
29024SOL    HW292909   4.117  10.600   3.772  1.1107 -1.7419  1.8020
29025SOL     OW92910   7.133   9.467   4.716 -0.0477  0.6291 -0.3487
29025SOL    HW192911   7.147   9.532   4.785  2.4755 -0.8903  0.7137
29025SOL    HW292912   7.134   9.383   4.762  1.4793 -0.4256 -2.1858
29026SOL     OW92913   3.410   2.244   1.698  0.2946  0.5642  0.1161
29026SOL    HW192914   3.381   2.279   1.613  0.8490 -1.3419 -0.9270
29026SOL    HW292915   3.342   2.182   1.723 -0.7637  2.3782  2.0206
29027SOL     OW92916  10.467   9.798   3.602 -0.2169 -0.0461  0.0991
29027SOL    HW192917  10.543   9.744   3.580  0.8063  1.6167 -0.6901
29027SOL    HW292918  10.455   9.788   3.696  0.4857 -0.9525  0.0965
29028SOL     OW92919  10.102   5.875   5.043  0.1506 -1.1111  0.0523
29028SOL    HW192920  10.007   5.863   5.034  0.2751 -0.6096 -2.5560
29028SOL    HW292921  10.128   5.921   4.964  2.5951 -1.1362  0.7662
29029SOL     OW92922   8.284   3.171   7.512 -0.1241  0.4108 -0.1997
29029SOL    HW192923   8.287   3.134   7.600  1.5309 -0.2325 -0.4901
29029SOL    HW292924   8.369   3.148   7.473 -0.2420  1.9175 -1.4610
29030SOL     OW92925  10.282   3.954   7.918 -0.4888 -0.1961 -0.2571
29030SOL    HW192926  10.343   3.935   7.846  0.8173  1.5755  0.2871
29030SOL    HW292927  10.251   3.869   7.947  1.7386 -1.1939 -0.6077
29031SOL     OW92928   4.902   2.919   9.813 -0.0839 -0.1977  0.4475
29031SOL    HW192929   4.934   2.977   9.881 -3.4586 -0.1525  2.2141
29031SOL    HW292930   4.947   2.836   9.828  0.8523  0.4457  1.2815
29032SOL     OW92931   8.925   3.821   4.409 -0.4300  0.3772  0.2983
29032SOL    HW192932   8.888   3.741   4.447  1.4908 -0.6267  0.1557
29032SOL    HW292933   8.992   3.848   4.472  0.2668  0.7785 -0.6092
29033SOL     OW92934   7.932   2.731   9.578 -0.2287  0.0470  0.1142
29033SOL    HW192935   7.879   2.674   9.522 -0.6991  1.7107 -1.2291
29033SOL    HW292936   7.870   2.794   9.614  0.0947 -0.8524  2.4624
29034SOL     OW92937   9.962   6.801   1.314 -0.1870 -0.1572 -0.3820
29034SOL    HW192938  10.006   6.869   1.262 -1.0401  0.5693 -0.1753
29034SOL    HW292939   9.958   6.726   1.256  0.4055  0.0923 -0.7630
29035SOL     OW92940   9.389   1.665   0.645 -0.1151 -0.4951  0.3108
29035SOL    HW192941   9.397   1.570   0.654  1.3142 -0.5427 -0.9321
29035SOL    HW292942   9.462   1.700   0.696 -0.0526 -0.1355 -0.0200
29036SOL     OW92943   1.899   7.092   0.468  0.0508 -0.1517  0.1224
29036SOL    HW192944   1.913   7.090   0.563  0.1564 -0.6669  0.0977
29036SOL    HW292945   1.970   7.038   0.433 -0.9610 -1.3660 -0.1263
29037SOL     OW92946  10.002   7.502   1.187 -0.3054 -0.0816 -0.9286
29037SOL    HW192947  10.005   7.546   1.102 -0.3066 -0.8090 -1.3050
29037SOL    HW292948  10.057   7.556   1.244 -0.7215  0.6971 -1.2529
29038SOL     OW92949  10.446   1.303  10.302 -0.2297 -0.1793  0.3499
29038SOL    HW192950  10.369   1.266  10.346  0.2714 -0.9647  0.5917
29038SOL    HW292951  10.501   1.335  10.374 -0.0881 -0.1163  0.2132
29039SOL     OW92952   1.024  10.030   9.350  0.1339 -0.1341  0.4383
29039SOL    HW192953   1.074  10.031   9.432  2.3150 -0.8649 -0.8184
29039SOL    HW292954   1.072   9.971   9.293 -2.1439 -0.7874 -0.9234
29040SOL     OW92955   1.361   7.579   4.975 -0.2691  0.0965  0.1718
29040SOL    HW192956   1.369   7.674   4.981  3.7709 -0.0222 -0.5569
29040SOL    HW292957   1.356   7.550   5.066  0.6097  0.9437  0.5158
29041SOL     OW92958   2.552   5.733  10.047  0.1782  0.2035 -0.3617
29041SOL    HW192959   2.636   5.727  10.093  0.7338 -1.5950 -1.4657
29041SOL    HW292960   2.574   5.716   9.955 -1.3082  0.3350 -0.7730
29042SOL     OW92961  10.688   5.478   5.295  0.2370 -0.3884 -0.5561
29042SOL    HW192962  10.780   5.492   5.320  0.5267 -0.7194 -1.4143
29042SOL    HW292963  10.679   5.521   5.210 -0.1760 -1.0956 -0.8734
29043SOL     OW92964   7.306   4.432   6.474 -0.6725 -0.5344  0.0499
29043SOL    HW192965   7.379   4.371   6.470  0.5776  1.0025 -1.6058
29043SOL    HW292966   7.249   4.396   6.542  2.3100 -0.9860  2.5130
29044SOL     OW92967   6.049   3.888   8.189 -0.5013 -0.0900 -0.2982
29044SOL    HW192968   5.989   3.814   8.187 -0.7526  0.1080  0.0073
29044SOL    HW292969   6.005   3.956   8.138 -0.7516  0.2174  0.3189
29045SOL     OW92970   0.414   8.114   4.174 -0.7478  0.0668  0.6574
29045SOL    HW192971   0.482   8.078   4.231 -2.3068 -0.4365  2.3245
29045SOL    HW292972   0.435   8.206   4.165  2.0161 -0.6603 -1.7308
29046SOL     OW92973   1.810  10.074  10.054  0.0097  0.0045  0.4763
29046SOL    HW192974   1.736  10.016  10.041 -0.0642  0.4461 -1.3340
29046SOL    HW292975   1.774  10.162  10.044  0.5295  0.2853  0.9922
29047SOL     OW92976   9.902   0.989   7.493 -0.3309  0.6225 -0.2758
29047SOL    HW192977   9.887   1.064   7.437 -1.3022 -0.3967 -1.4533
29047SOL    HW292978   9.879   0.913   7.438 -0.0898 -0.4819  1.0865
29048SOL     OW92979  10.102   2.923   1.369 -0.0666 -0.0805  0.0610
29048SOL    HW192980  10.011   2.942   1.346  0.5795  0.9455 -1.9308
29048SOL    HW292981  10.114   2.961   1.456 -1.6350 -0.6462  0.5605
29049SOL     OW92982   8.196   2.297   2.541  0.2882 -0.3099  0.2889
29049SOL    HW192983   8.114   2.301   2.492  0.3174  0.3554  0.2846
29049SOL    HW292984   8.260   2.264   2.477  0.6356  1.8937 -0.5874
29050SOL     OW92985   4.484   8.442   0.905  0.0736 -0.2560  0.0528
29050SOL    HW192986   4.481   8.347   0.917 -0.9318  0.0353  3.0331
29050SOL    HW292987   4.562   8.470   0.953 -0.6061  0.5339  0.7474
29051SOL     OW92988   8.413  10.183   4.620  0.0479 -0.0489 -0.1357
29051SOL    HW192989   8.427  10.103   4.570 -0.1145 -1.2356  1.6423
29051SOL    HW292990   8.481  10.243   4.589  0.5955 -1.1074 -1.0292
29052SOL     OW92991   1.118   3.480   5.830  0.3925  0.0029 -0.3226
29052SOL    HW192992   1.029   3.483   5.866 -0.2597  0.2789 -1.8852
29052SOL    HW292993   1.122   3.396   5.784  1.4587 -0.6777  0.9609
29053SOL     OW92994   0.970   4.819   9.859 -0.3323  0.0049  0.3755
29053SOL    HW192995   1.010   4.785   9.939 -1.4547 -1.7431  0.2597
29053SOL    HW292996   1.036   4.805   9.791 -1.0032 -2.8400  0.1806
29054SOL     OW92997   5.650   4.730   2.793  0.0090  0.1424 -0.3617
29054SOL    HW192998   5.735   4.734   2.838 -1.1734  1.4124  1.9741
29054SOL    HW292999   5.593   4.788   2.845 -2.6571 -1.6935 -1.0359
29055SOL     OW93000   5.101   4.237   6.209 -0.7507  0.0643  0.1702
29055SOL    HW193001   5.158   4.161   6.220 -0.3939 -0.4353 -3.7155
29055SOL    HW293002   5.150   4.309   6.249  0.9366 -1.0063  0.1667
29056SOL     OW93003   0.417   0.260   6.211  0.7662 -0.2751  0.0217
29056SOL    HW193004   0.382   0.238   6.125  0.0519  1.8350 -0.2964
29056SOL    HW293005   0.509   0.281   6.195  0.3143  1.4414 -0.5248
29057SOL     OW93006   6.546   5.636   9.307  0.4372 -0.7396  0.1102
29057SOL    HW193007   6.500   5.567   9.355  0.6107 -1.5089 -0.8140
29057SOL    HW293008   6.639   5.617   9.321  0.4906 -1.0124 -0.5749
29058SOL     OW93009   4.958   1.924   8.295  0.6888 -0.2841  0.6306
29058SOL    HW193010   5.045   1.922   8.256  0.2613  0.7481 -0.4571
29058SOL    HW293011   4.946   2.014   8.324 -0.1101 -0.3352  0.5002
29059SOL     OW93012   5.738   7.792   8.174  0.0077  0.6677  0.1271
29059SOL    HW193013   5.793   7.856   8.220 -0.4206  0.3233  1.1514
29059SOL    HW293014   5.651   7.803   8.214 -0.2747  0.0462 -0.3029
29060SOL     OW93015   7.092  10.052   3.953  0.1010  0.1063 -0.7000
29060SOL    HW193016   7.008  10.061   3.999 -1.0464 -1.4624 -2.3573
29060SOL    HW293017   7.147  10.002   4.014 -1.1723 -1.3974 -0.7414
29061SOL     OW93018   6.133   1.722   4.382 -0.0763 -0.0232  0.6372
29061SOL    HW193019   6.130   1.769   4.299 -0.2972  0.1332  0.7337
29061SOL    HW293020   6.064   1.762   4.435 -0.4092 -0.6003  0.6464
29062SOL     OW93021   6.144   1.076   4.244  0.1316 -0.0691  0.2580
29062SOL    HW193022   6.147   1.025   4.163  0.1913  0.6392 -0.1878
29062SOL    HW293023   6.052   1.072   4.271 -0.2073  0.9397 -0.6574
29063SOL     OW93024  10.055   1.320   0.795 -0.4935  0.2412  0.2415
29063SOL    HW193025  10.024   1.409   0.782  0.7917  0.9796  1.8838
29063SOL    HW293026   9.980   1.274   0.833 -0.9313  0.8170  0.0825
29064SOL     OW93027   9.888   8.933   8.368  0.4142  0.0642  0.1596
29064SOL    HW193028   9.914   8.900   8.282  0.1083  0.4900 -0.0991
29064SOL    HW293029   9.815   8.876   8.394  0.8178 -0.3736  0.3598
29065SOL     OW93030   6.590   7.789   0.029 -0.3605  0.2244  0.1918
29065SOL    HW193031   6.557   7.717  -0.025  1.0661  0.7456 -1.4971
29065SOL    HW293032   6.521   7.855   0.026 -0.1285  0.4507 -1.5167
29066SOL     OW93033   8.963   9.799  10.044 -0.2742 -0.4782  0.2449
29066SOL    HW193034   9.057   9.779  10.051 -0.2656 -2.0418 -2.7755
29066SOL    HW293035   8.951   9.878  10.097  2.5856 -0.6855  1.3516
29067SOL     OW93036   1.398   8.264   0.487  0.3694 -0.5111 -0.1117
29067SOL    HW193037   1.395   8.354   0.519  0.2940 -0.3469 -0.5761
29067SOL    HW293038   1.324   8.221   0.530  1.3413 -0.7843  1.3743
29068SOL     OW93039   2.256   5.739   0.865  0.2268  0.5354 -0.7069
29068SOL    HW193040   2.170   5.774   0.843 -0.1811  0.0760  0.1166
29068SOL    HW293041   2.240   5.647   0.888  0.4585  1.1154  2.2023
29069SOL     OW93042   9.839   2.149   4.919 -0.1683 -0.2604  0.2608
29069SOL    HW193043   9.832   2.205   4.841 -0.0708 -0.5567  0.0360
29069SOL    HW293044   9.750   2.116   4.933 -0.2673  0.1104  0.5153
29070SOL     OW93045   2.004   1.418   7.299  0.1935  0.7205 -0.4788
29070SOL    HW193046   2.056   1.496   7.280 -1.1414  1.6041 -0.6426
29070SOL    HW293047   1.929   1.451   7.349 -0.4629 -0.4316 -0.6656
29071SOL     OW93048   4.645   2.514   5.735 -0.0394 -0.3342  0.0368
29071SOL    HW193049   4.672   2.461   5.810 -1.9300 -0.5750  0.5822
29071SOL    HW293050   4.677   2.466   5.659  0.4468 -0.9469  0.6220
29072SOL     OW93051   0.811  10.476   1.983  0.0260  0.2130 -0.0744
29072SOL    HW193052   0.792  10.384   1.964  0.0400  0.3242 -0.6447
29072SOL    HW293053   0.726  10.514   2.003  0.0127  0.0881  0.1077
29073SOL     OW93054  10.196   0.225   4.713  0.4036 -0.3743 -0.3415
29073SOL    HW193055  10.146   0.166   4.657  0.0369 -0.6164  0.2302
29073SOL    HW293056  10.285   0.190   4.713 -0.0229 -1.5489  0.8090
29074SOL     OW93057   7.484   2.522   4.270 -0.1304 -0.2894  0.2979
29074SOL    HW193058   7.432   2.442   4.274  0.5109 -0.8969 -1.8962
29074SOL    HW293059   7.556   2.507   4.331 -0.6829 -0.8643  0.8202
29075SOL     OW93060   7.473   8.291   3.854 -0.2750  0.2949 -0.0312
29075SOL    HW193061   7.471   8.268   3.761 -0.4325  0.2793 -0.0246
29075SOL    HW293062   7.389   8.261   3.888  0.2287 -0.7244  0.3658
29076SOL     OW93063   7.803   7.805   0.296 -0.5193 -0.3099  0.1704
29076SOL    HW193064   7.775   7.758   0.217 -2.1884 -0.3451  0.7423
29076SOL    HW293065   7.724   7.849   0.327  0.5441  1.2900  0.7668
29077SOL     OW93066   3.233   4.057   8.378  0.3984  0.1130  0.0150
29077SOL    HW193067   3.246   4.101   8.294 -1.1620  0.4377 -0.0755
29077SOL    HW293068   3.198   4.125   8.436  1.7471 -0.0263  1.0438
29078SOL     OW93069  10.322   8.440   2.246  0.6032  0.0761  0.3871
29078SOL    HW193070  10.407   8.448   2.203 -0.0889  1.3038 -0.8819
29078SOL    HW293071  10.336   8.379   2.318  2.1976 -0.9138 -0.7021
29079SOL     OW93072   9.762   9.909   3.875 -0.5489  0.0336 -0.0456
29079SOL    HW193073   9.794   9.834   3.925 -0.3715 -0.3516 -0.7247
29079SOL    HW293074   9.841   9.960   3.854 -0.6571  0.3603  0.3212
29080SOL     OW93075   6.681   1.295   7.454 -0.4355 -0.6201  0.6441
29080SOL    HW193076   6.769   1.330   7.443 -0.6640 -0.4840 -1.0758
29080SOL    HW293077   6.635   1.362   7.505  0.3174 -0.4791  1.1507
29081SOL     OW93078   4.004  10.212   2.625  0.3627 -0.0009  0.0293
29081SOL    HW193079   3.987  10.215   2.531 -1.7709 -2.3056  0.2442
29081SOL    HW293080   4.087  10.165   2.632  0.5851  0.2621 -0.7166
29082SOL     OW93081   0.545   8.191   6.265  0.0856 -0.2018  0.4618
29082SOL    HW193082   0.511   8.135   6.334  0.3231 -0.7358  0.1539
29082SOL    HW293083   0.628   8.151   6.240 -0.1342 -0.1877 -0.3272
29083SOL     OW93084   1.541   5.064   2.729 -0.0438 -0.0812 -0.8235
29083SOL    HW193085   1.525   5.079   2.636 -1.3236  1.9687 -0.3429
29083SOL    HW293086   1.635   5.077   2.740  0.3319 -1.5351 -1.9843
29084SOL     OW93087   4.744   3.144   0.572 -0.0988 -0.9269  0.2221
29084SOL    HW193088   4.831   3.112   0.596  0.0089 -1.9580 -1.3988
29084SOL    HW293089   4.761   3.230   0.532  0.5832 -2.1797 -2.4824
29085SOL     OW93090   4.659   5.284   3.196 -0.0363  0.3090  0.5497
29085SOL    HW193091   4.730   5.228   3.166 -0.3062 -0.8108  1.9004
29085SOL    HW293092   4.616   5.234   3.265 -2.2599  0.8796 -0.3370
29086SOL     OW93093   1.249  10.371   7.939 -0.3614  0.3913  0.0887
29086SOL    HW193094   1.244  10.421   8.020 -1.1170 -0.7531  0.7838
29086SOL    HW293095   1.315  10.304   7.956  1.1119  1.4909 -1.0565
29087SOL     OW93096   2.836   9.739   9.682 -0.1378  0.0171 -0.2085
29087SOL    HW193097   2.767   9.803   9.701 -1.5283 -1.5975  0.3244
29087SOL    HW293098   2.830   9.675   9.753  2.6052  0.3431  0.4249
29088SOL     OW93099   5.494   1.951   7.630 -0.4503 -1.0725  0.3589
29088SOL    HW193100   5.588   1.936   7.645 -0.2911 -0.9697 -0.4685
29088SOL    HW293101   5.467   1.880   7.572 -0.6510 -0.5508 -0.1979
29089SOL     OW93102   0.370  10.498   9.809  0.2599  0.1569  0.0319
29089SOL    HW193103   0.411  10.413   9.797 -1.3541 -0.8430  1.2234
29089SOL    HW293104   0.431  10.547   9.864  0.0805 -1.1640  1.4783
29090SOL     OW93105   7.717   1.523   9.136 -0.0933 -0.6383  0.2515
29090SOL    HW193106   7.675   1.574   9.067 -1.7362 -1.6747  0.4135
29090SOL    HW293107   7.737   1.439   9.094 -0.1445 -0.9039  0.7555
29091SOL     OW93108   4.088   5.343   2.010 -0.5410  0.1253 -0.7876
29091SOL    HW193109   4.114   5.434   1.996  1.4255 -0.5046 -1.4896
29091SOL    HW293110   4.065   5.340   2.103  1.0436  0.9862 -0.3236
29092SOL     OW93111   5.099   9.505   3.094 -0.2062 -0.2258 -0.2639
29092SOL    HW193112   5.176   9.493   3.039  1.3699 -0.5989  1.9279
29092SOL    HW293113   5.088   9.420   3.138 -2.9050 -0.7435 -1.6944
29093SOL     OW93114   4.050   4.652   5.196 -0.0919  0.0470  0.3175
29093SOL    HW193115   3.966   4.661   5.149  0.6275  0.0105 -1.0384
29093SOL    HW293116   4.032   4.589   5.266 -1.3156  0.4065  0.3463
29094SOL     OW93117   5.975   2.856   1.596  0.1406 -0.2135  0.1439
29094SOL    HW193118   5.936   2.939   1.621 -2.2912 -1.3813  0.4544
29094SOL    HW293119   5.990   2.810   1.679 -0.5103 -0.9024 -0.1044
29095SOL     OW93120  10.595   8.889   2.346 -0.0903 -0.2081 -0.5844
29095SOL    HW193121  10.521   8.915   2.292 -1.5047 -0.8439  0.9430
29095SOL    HW293122  10.646   8.831   2.291 -1.5441 -0.9377 -1.2211
29096SOL     OW93123   0.819  10.230   1.515 -0.0258 -0.0555  0.1299
29096SOL    HW193124   0.821  10.135   1.506  0.2692 -0.1843  1.3849
29096SOL    HW293125   0.910  10.255   1.531 -0.3203  0.2295  1.5187
29097SOL     OW93126   8.923   0.059   8.512 -0.4548  0.3600 -0.0398
29097SOL    HW193127   8.868   0.048   8.589 -0.8179  0.2107 -0.3126
29097SOL    HW293128   8.974  -0.022   8.507 -0.3800  0.3991  0.0810
29098SOL     OW93129   5.216   7.543   1.898  0.2222 -0.4285  0.0948
29098SOL    HW193130   5.297   7.591   1.916 -0.0643  0.0081  0.2230
29098SOL    HW293131   5.237   7.452   1.921  1.1678 -0.6185 -1.3444
29099SOL     OW93132   7.454   9.158   8.368 -0.4027 -0.2014  0.3202
29099SOL    HW193133   7.495   9.116   8.291 -3.9212  0.1018 -1.9594
29099SOL    HW293134   7.508   9.235   8.385  0.8737 -0.6283 -1.4781
29100SOL     OW93135   5.141   1.716   3.372  0.2203 -0.1585  0.0591
29100SOL    HW193136   5.195   1.675   3.304  1.5686  1.3873  0.1418
29100SOL    HW293137   5.075   1.650   3.393  0.0411 -0.8607 -2.4172
29101SOL     OW93138   7.634   8.632   6.230  0.6134  0.2042 -0.3431
29101SOL    HW193139   7.661   8.554   6.279  0.8681 -0.0685 -0.9046
29101SOL    HW293140   7.539   8.621   6.217  0.6410  0.0074 -0.3792
29102SOL     OW93141   1.829  10.491   3.338  0.0100  0.0915  0.9995
29102SOL    HW193142   1.842  10.397   3.327 -0.5100  0.1176  0.0879
29102SOL    HW293143   1.916  10.524   3.360  0.4035 -0.4634  0.3214
29103SOL     OW93144   9.206   9.283   0.051 -0.7554 -0.0511  0.1423
29103SOL    HW193145   9.251   9.199   0.049  0.1713  0.4231  0.4044
29103SOL    HW293146   9.139   9.276  -0.017  1.5990  0.2388 -2.3668
29104SOL     OW93147   3.553   9.264   5.073 -0.0739  0.1749  0.1995
29104SOL    HW193148   3.543   9.215   4.992 -1.9168  1.4695 -0.4348
29104SOL    HW293149   3.477   9.239   5.126  1.7285 -1.6007  2.1382
29105SOL     OW93150   8.515   2.124   0.194 -0.0354  0.6705  0.0109
29105SOL    HW193151   8.571   2.196   0.165 -1.3954  2.3070  1.2692
29105SOL    HW293152   8.558   2.090   0.273  1.1419 -0.6288 -1.1407
29106SOL     OW93153   2.587   7.769   3.425  0.5946  0.0653 -0.0931
29106SOL    HW193154   2.651   7.702   3.403  1.3011 -0.0356  2.0478
29106SOL    HW293155   2.502   7.726   3.414  0.9640 -0.5039 -0.7832
29107SOL     OW93156   8.548   0.743   8.003  0.0625  0.4099 -0.0708
29107SOL    HW193157   8.511   0.659   7.975  1.6933 -0.1474 -0.6999
29107SOL    HW293158   8.626   0.753   7.948  1.2914  1.1220  1.7377
29108SOL     OW93159   3.070   7.225   2.788  0.3521 -0.0128  0.1234
29108SOL    HW193160   2.985   7.182   2.791 -0.4560  1.4114 -0.7972
29108SOL    HW293161   3.119   7.177   2.722 -0.8260  0.8913 -1.4848
29109SOL     OW93162   8.502   1.158   9.658 -0.2299  0.3540 -0.3946
29109SOL    HW193163   8.416   1.200   9.653  0.0743  1.0031 -0.2289
29109SOL    HW293164   8.557   1.207   9.597  0.0194 -0.0869 -0.5338
29110SOL     OW93165   8.024   8.225   7.857 -0.3478  0.2041  0.1482
29110SOL    HW193166   8.014   8.207   7.763  0.7013  0.2244  0.0250
29110SOL    HW293167   8.029   8.321   7.862  0.3855  0.1637  0.1457
29111SOL     OW93168   4.232   0.005   3.071 -0.9953 -0.3932 -0.4923
29111SOL    HW193169   4.214  -0.069   3.130 -0.9132 -0.8802 -1.0598
29111SOL    HW293170   4.321   0.032   3.092 -1.0516 -0.4109 -0.2323
29112SOL     OW93171   5.827   9.359   1.240 -0.3076  0.0227 -0.6542
29112SOL    HW193172   5.738   9.334   1.265 -0.4582  0.6498 -0.5574
29112SOL    HW293173   5.852   9.294   1.174 -0.5130 -0.6630 -0.0668
29113SOL     OW93174   7.895   9.957   7.202 -0.5030  0.5796 -0.2369
29113SOL    HW193175   7.848   9.882   7.239 -1.1555  2.2023  2.4680
29113SOL    HW293176   7.988   9.935   7.212 -0.6704 -0.3310 -0.5760
29114SOL     OW93177   2.523   0.490   8.026 -0.1005  0.0094 -0.1328
29114SOL    HW193178   2.540   0.396   8.026 -1.8071 -0.3303 -0.1066
29114SOL    HW293179   2.555   0.520   8.111 -1.6046 -0.9855  0.8389
29115SOL     OW93180   5.136   0.898   9.940  0.0633 -0.4774  0.6034
29115SOL    HW193181   5.085   0.943  10.006 -1.7887 -0.3989 -0.8037
29115SOL    HW293182   5.171   0.821   9.985  1.3646  1.0734  2.4139
29116SOL     OW93183   6.094   1.630   7.844 -0.4377 -0.0883  0.5142
29116SOL    HW193184   6.170   1.579   7.815 -2.2423 -1.8234 -1.4334
29116SOL    HW293185   6.096   1.709   7.790 -0.3864 -0.4359  0.0069
29117SOL     OW93186   1.762   6.534   0.453 -0.5939  1.0348 -0.3480
29117SOL    HW193187   1.786   6.621   0.422 -0.4077  0.4359 -1.9649
29117SOL    HW293188   1.695   6.504   0.392 -2.1223  0.7983  1.3472
29118SOL     OW93189   6.980   5.596   9.844  0.0035 -0.2284  0.8102
29118SOL    HW193190   6.991   5.597   9.749  0.6793  0.9432  0.8739
29118SOL    HW293191   6.957   5.506   9.865  0.8471 -0.7356 -0.3537
29119SOL     OW93192  10.386   9.410   6.247 -0.2670  0.1554 -0.2543
29119SOL    HW193193  10.461   9.468   6.234  0.3439 -0.5958 -0.1178
29119SOL    HW293194  10.409   9.330   6.199 -2.0470  0.7984 -2.3534
29120SOL     OW93195   2.304   1.744   0.957 -0.2028 -0.0365  0.2874
29120SOL    HW193196   2.305   1.762   1.051  0.8536 -2.4418  0.8213
29120SOL    HW293197   2.211   1.740   0.934 -0.4675  0.7189  1.1900
29121SOL     OW93198   3.614  10.586   7.540 -0.2012  0.9905  0.0433
29121SOL    HW193199   3.672  10.514   7.516 -0.2924  0.9856 -0.1637
29121SOL    HW293200   3.629  10.599   7.633 -2.2697 -1.2080  0.8028
29122SOL     OW93201   2.076   7.488   5.745 -0.4406  0.0180 -0.2861
29122SOL    HW193202   2.160   7.532   5.750 -0.3967  0.4584 -3.1099
29122SOL    HW293203   2.090   7.402   5.785  1.0986  0.3805 -0.0092
29123SOL     OW93204   7.396   5.774  10.145 -0.5019 -0.0728 -0.0367
29123SOL    HW193205   7.402   5.678  10.139 -3.0349 -0.5980  3.1716
29123SOL    HW293206   7.384   5.802  10.054 -1.7633 -3.0182 -0.9118
29124SOL     OW93207   7.560   4.605   6.396 -0.2274  0.3276 -0.6534
29124SOL    HW193208   7.485   4.552   6.370  1.1898 -1.5002 -1.2292
29124SOL    HW293209   7.522   4.690   6.421 -2.6051 -0.9722  0.4719
29125SOL     OW93210   6.515  10.545   7.534  0.3200 -0.1427  0.1802
29125SOL    HW193211   6.494  10.550   7.628 -0.4048 -0.1036  0.0207
29125SOL    HW293212   6.599  10.500   7.531  1.0180  1.0376  0.9292
29126SOL     OW93213   6.757   0.083   0.775 -0.5320  0.3017  0.1608
29126SOL    HW193214   6.822   0.015   0.792  0.6035  1.0855 -0.8415
29126SOL    HW293215   6.678   0.053   0.819  0.7898 -0.1739  2.3721
29127SOL     OW93216   1.700   9.712   7.461 -0.8134 -0.3982  0.2483
29127SOL    HW193217   1.657   9.796   7.445  1.3824  0.2304 -3.6130
29127SOL    HW293218   1.635   9.647   7.436 -1.2965  0.3471 -0.5290
29128SOL     OW93219   6.318   1.182   1.415 -0.0950 -0.0151 -0.5878
29128SOL    HW193220   6.277   1.201   1.499  0.6043  3.1386 -0.8275
29128SOL    HW293221   6.331   1.268   1.375  4.4765 -0.8690 -1.5558
29129SOL     OW93222   6.821   8.930   1.573 -0.0961 -0.1792 -0.1272
29129SOL    HW193223   6.895   8.888   1.528  0.3211  1.2600 -0.8265
29129SOL    HW293224   6.746   8.913   1.516 -0.2467 -1.2745  0.3700
29130SOL     OW93225   2.600   0.970   2.833 -0.3542  0.4371 -0.1509
29130SOL    HW193226   2.572   0.976   2.924 -0.5535 -1.3982 -0.0548
29130SOL    HW293227   2.528   1.009   2.783 -1.1842 -0.3962  0.3646
29131SOL     OW93228   9.424   6.286   0.190  0.2989 -0.2924  0.0626
29131SOL    HW193229   9.440   6.251   0.278  0.6214  1.3408  0.6881
29131SOL    HW293230   9.355   6.230   0.154  1.5464 -2.2340  0.5670
29132SOL     OW93231   6.017   8.912   9.785 -0.1500  0.4401  0.3114
29132SOL    HW193232   5.948   8.972   9.812  0.4000  0.4312  1.8713
29132SOL    HW293233   6.076   8.908   9.861  0.1730 -1.5406  0.0211
29133SOL     OW93234   5.090   7.068   5.489 -0.1343 -0.4257 -0.0793
29133SOL    HW193235   5.170   7.017   5.474  1.0236  1.2169  0.1882
29133SOL    HW293236   5.073   7.060   5.583 -1.5957 -2.5248 -0.4413
29134SOL     OW93237   3.315   2.017   9.340 -0.4273  0.1012 -0.2778
29134SOL    HW193238   3.289   1.937   9.294 -0.4528 -0.2268  0.2953
29134SOL    HW293239   3.250   2.082   9.314  0.3191  0.2970 -1.7583
29135SOL     OW93240   8.470  10.292   9.201  0.0764  0.2790  0.2434
29135SOL    HW193241   8.441  10.357   9.137  0.4506 -1.4137 -1.7210
29135SOL    HW293242   8.565  10.298   9.200  0.4481 -2.8133 -2.9458
29136SOL     OW93243   6.758   4.814   4.200 -0.3219  0.0714 -0.2286
29136SOL    HW193244   6.784   4.892   4.249  0.5833 -1.1354  1.3155
29136SOL    HW293245   6.829   4.801   4.137  0.6255 -0.6666  0.9460
29137SOL     OW93246   7.154   8.150   5.907 -0.3945  0.4777 -0.0659
29137SOL    HW193247   7.145   8.193   5.822  1.7718 -1.3866 -1.3632
29137SOL    HW293248   7.239   8.180   5.940 -0.2095 -0.4834  0.3709
29138SOL     OW93249   2.210   3.160   5.717  0.6982  0.1741 -0.4399
29138SOL    HW193250   2.198   3.255   5.719  0.4667  0.1462 -0.4515
29138SOL    HW293251   2.121   3.125   5.719  0.7575 -0.0305 -1.0354
29139SOL     OW93252  10.619   4.603   3.250  0.3298  0.1744 -0.0053
29139SOL    HW193253  10.615   4.697   3.231  0.3819  0.4887  1.3937
29139SOL    HW293254  10.667   4.565   3.177  2.2241  1.5600  0.4534
29140SOL     OW93255   0.237   0.138   3.898 -0.2140  0.3668 -0.1828
29140SOL    HW193256   0.239   0.042   3.891  2.0767  0.4460 -1.6291
29140SOL    HW293257   0.145   0.161   3.880 -0.8810 -1.5368  0.4779
29141SOL     OW93258   2.567   8.094   4.517 -0.2563 -0.2544 -0.0543
29141SOL    HW193259   2.659   8.097   4.491 -0.7319  1.1220 -1.8438
29141SOL    HW293260   2.528   8.028   4.461 -0.4342 -0.5911  0.4588
29142SOL     OW93261   6.078   5.734   8.802  0.4953  0.3163  0.0842
29142SOL    HW193262   6.099   5.806   8.744 -1.3852 -0.0388 -1.1282
29142SOL    HW293263   6.039   5.775   8.879  0.3570  0.6577 -0.1673
29143SOL     OW93264   3.814   1.050   2.201 -0.6408  0.0420 -0.0671
29143SOL    HW193265   3.781   1.034   2.290 -1.2888  0.2225 -0.2735
29143SOL    HW293266   3.739   1.084   2.153 -0.1432  0.4846 -0.5413
29144SOL     OW93267   3.646   6.288   8.790  0.0846 -0.2906 -0.2284
29144SOL    HW193268   3.672   6.315   8.878 -0.5758 -1.2935  0.2866
29144SOL    HW293269   3.586   6.357   8.760 -0.4707 -0.4442  0.5035
29145SOL     OW93270   7.236   0.949   9.697 -0.0444 -0.0597  0.4901
29145SOL    HW193271   7.253   1.000   9.775  0.5065  0.4541  0.0409
29145SOL    HW293272   7.307   0.972   9.637  0.3290 -1.4975  0.3477
29146SOL     OW93273   9.613  10.692   3.676  0.3322  0.0590 -0.0912
29146SOL    HW193274   9.597  10.781   3.644  1.3841 -0.0861 -1.1154
29146SOL    HW293275   9.537  10.642   3.647  0.3605  0.3548 -0.7034
29147SOL     OW93276  10.265   0.066   8.357 -0.1152 -0.4240  0.2735
29147SOL    HW193277  10.336   0.077   8.295  0.4068 -0.3535  0.8724
29147SOL    HW293278  10.275   0.138   8.419 -2.2434  1.1287 -1.0668
29148SOL     OW93279   0.176   3.967   8.397  0.0682 -0.1200 -0.4911
29148SOL    HW193280   0.204   4.035   8.335 -0.9327  1.2207  0.4714
29148SOL    HW293281   0.091   3.939   8.363  0.4658 -0.8946 -0.8683
29149SOL     OW93282   5.504   0.679   1.252  0.2072 -0.2321 -0.1648
29149SOL    HW193283   5.490   0.588   1.228  0.6322 -0.4468  0.3594
29149SOL    HW293284   5.485   0.682   1.346 -1.3675  0.5687 -0.4867
29150SOL     OW93285   7.946   0.245  10.092 -0.2806 -0.4419 -0.5701
29150SOL    HW193286   7.927   0.158  10.127  0.3940 -0.8808 -1.2444
29150SOL    HW293287   8.027   0.233  10.043  0.2947  0.7704  0.0510
29151SOL     OW93288   7.063   2.771   8.598  0.3099  0.2651 -0.1607
29151SOL    HW193289   7.002   2.698   8.588 -1.3424  1.2509  1.9944
29151SOL    HW293290   7.016   2.846   8.562  0.9370  0.7654  0.0458
29152SOL     OW93291   2.819   5.235   8.252  0.1348  0.7846 -0.2920
29152SOL    HW193292   2.758   5.305   8.275  0.4014  1.6828 -2.1293
29152SOL    HW293293   2.817   5.232   8.156  1.1804 -0.7922 -0.2982
29153SOL     OW93294  10.442   4.138   4.634 -0.6493  0.5328 -0.0243
29153SOL    HW193295  10.362   4.136   4.687 -0.7719  0.6306 -0.2032
29153SOL    HW293296  10.415   4.103   4.549 -0.8192  1.7976 -0.5116
29154SOL     OW93297   8.875  10.466   6.243 -0.5969  0.3128 -0.1407
29154SOL    HW193298   8.876  10.392   6.182 -0.8986 -1.0913  1.4595
29154SOL    HW293299   8.915  10.431   6.322 -0.7907  1.8778  0.6868
29155SOL     OW93300   2.955   9.643   9.154 -0.1825  0.2624  0.6895
29155SOL    HW193301   2.902   9.643   9.234 -0.7692  3.3484  0.4439
29155SOL    HW293302   3.043   9.669   9.183 -0.5790  2.1632  0.3260
29156SOL     OW93303   1.792  10.660   7.033  0.6286  0.4617  0.3917
29156SOL    HW193304   1.758  10.630   6.948  0.0316  1.1696  0.3657
29156SOL    HW293305   1.801  10.581   7.085  0.1688  0.1167 -0.0477
29157SOL     OW93306   7.983   1.554   6.442 -0.5006  0.0747 -0.3165
29157SOL    HW193307   8.020   1.641   6.430 -0.1853 -0.2576 -1.9818
29157SOL    HW293308   8.056   1.500   6.472 -0.1465 -0.0838 -1.4250
29158SOL     OW93309   9.337   3.369   8.624  0.1851 -0.2801 -0.4155
29158SOL    HW193310   9.387   3.431   8.571  0.0577 -0.2018 -0.4473
29158SOL    HW293311   9.354   3.284   8.585  2.3835 -0.6263  1.1461
29159SOL     OW93312   4.637   6.961   2.242 -0.5490  0.2096  0.2396
29159SOL    HW193313   4.617   6.884   2.188 -0.1574  0.5839 -0.4665
29159SOL    HW293314   4.559   6.973   2.297 -0.6666 -0.6083  0.2655
29160SOL     OW93315   7.899   2.298   4.400 -0.1136  0.2230  0.0507
29160SOL    HW193316   7.925   2.238   4.470 -1.5308  0.0017  0.4313
29160SOL    HW293317   7.981   2.329   4.362  0.8190  1.6794  2.9244
29161SOL     OW93318   6.427   9.129   5.037  0.1583 -0.0623  0.1708
29161SOL    HW193319   6.366   9.143   4.965 -0.2756  0.1652  0.5695
29161SOL    HW293320   6.496   9.194   5.024  0.1683 -0.1361 -0.1327
29162SOL     OW93321   8.689   2.685   2.565  0.2137  0.3363 -0.0796
29162SOL    HW193322   8.634   2.633   2.507 -1.1401  0.1708  1.2951
29162SOL    HW293323   8.692   2.636   2.647  3.6500 -0.4033 -0.4829
29163SOL     OW93324   6.263   5.496  10.012 -0.5354 -0.0570 -0.5641
29163SOL    HW193325   6.227   5.547   9.939 -1.5270 -0.4672 -0.3795
29163SOL    HW293326   6.216   5.529  10.089  1.3119  1.1813  0.1085
29164SOL     OW93327   4.740   0.798   3.099 -0.4024 -0.1201  0.7139
29164SOL    HW193328   4.816   0.800   3.042 -1.0387 -0.5665 -0.1807
29164SOL    HW293329   4.693   0.718   3.074 -2.4991  1.3948 -0.5791
29165SOL     OW93330   6.910  10.204   4.448 -0.0407  0.1266 -0.0619
29165SOL    HW193331   6.966  10.132   4.476  0.9620  0.7764 -0.3684
29165SOL    HW293332   6.938  10.224   4.359  0.5126  1.6705  0.4390
29166SOL     OW93333   3.446   5.277   3.515  0.0400 -0.6838 -0.0601
29166SOL    HW193334   3.463   5.187   3.545  0.4210 -0.4693  0.3795
29166SOL    HW293335   3.355   5.276   3.486 -0.2718 -0.9598  0.8961
29167SOL     OW93336   1.929   0.471   3.560 -0.0335  0.2808 -0.0542
29167SOL    HW193337   1.902   0.559   3.535 -0.8458  0.2688  0.7521
29167SOL    HW293338   2.013   0.459   3.516 -0.4296  1.0407 -1.0577
29168SOL     OW93339   6.806   1.505   1.561 -0.1693 -0.2784  0.1414
29168SOL    HW193340   6.763   1.487   1.477 -0.1844 -0.2554  0.1441
29168SOL    HW293341   6.880   1.445   1.563 -0.3446 -0.4925  0.2463
29169SOL     OW93342   4.372  10.131   5.744  0.3392 -0.2841 -0.4334
29169SOL    HW193343   4.435  10.133   5.816  0.9002 -0.5645 -0.9095
29169SOL    HW293344   4.384  10.045   5.703  0.2313 -0.0206 -1.0393
29170SOL     OW93345   5.086   6.136   5.518  0.6147 -0.2594  0.0198
29170SOL    HW193346   5.059   6.044   5.524  1.3459 -0.5503 -0.9491
29170SOL    HW293347   5.143   6.148   5.594  0.9412 -0.7552 -0.1406
29171SOL     OW93348   2.062   2.069  10.188  0.2691 -0.0225 -0.2062
29171SOL    HW193349   2.037   1.980  10.212 -0.8437  0.1915 -0.5340
29171SOL    HW293350   2.103   2.060  10.102 -1.4241 -0.0283 -1.0483
29172SOL     OW93351   4.421   6.747   4.373 -0.6159 -0.2603  0.7035
29172SOL    HW193352   4.481   6.814   4.340 -1.3535  0.4272  0.7317
29172SOL    HW293353   4.432   6.673   4.313 -2.5839  1.2666 -1.7670
29173SOL     OW93354   8.411   2.984  10.724 -0.1630 -0.1184  0.1794
29173SOL    HW193355   8.387   2.952  10.810 -0.1809 -0.0790  0.1891
29173SOL    HW293356   8.343   2.949  10.665  0.1834 -0.6422  0.0874
29174SOL     OW93357   1.942   4.472   5.310 -0.5719  0.2753  0.3465
29174SOL    HW193358   1.887   4.539   5.350 -1.6407  0.2570 -1.0066
29174SOL    HW293359   1.911   4.466   5.220 -1.5876 -3.0969  0.7629
29175SOL     OW93360   5.811   9.441  10.574  0.4373 -0.9309 -0.1583
29175SOL    HW193361   5.785   9.431  10.666  1.4944  0.2072  0.2917
29175SOL    HW293362   5.902   9.410  10.572  1.2354  1.2484 -0.2830
29176SOL     OW93363   0.604   2.686   9.254 -0.0996  0.5126 -0.3594
29176SOL    HW193364   0.664   2.621   9.288 -0.9093 -0.4037 -0.6361
29176SOL    HW293365   0.656   2.736   9.190  0.2843 -0.4687 -0.8323
29177SOL     OW93366   1.854   7.057   2.199 -0.3521  0.5721  0.6152
29177SOL    HW193367   1.839   7.030   2.290 -2.1549 -0.1715  0.1338
29177SOL    HW293368   1.802   7.136   2.189 -0.5317  0.3877  0.0901
29178SOL     OW93369   7.660   9.416   3.122 -0.0432  0.3314 -0.5968
29178SOL    HW193370   7.714   9.482   3.166  0.0915 -0.0118 -0.2382
29178SOL    HW293371   7.659   9.443   3.031  2.2684 -0.6489 -0.9897
29179SOL     OW93372   5.207   9.957   1.782 -0.0846 -0.4660  0.6621
29179SOL    HW193373   5.267   9.959   1.857  0.3714 -0.0296  0.2989
29179SOL    HW293374   5.258   9.995   1.710 -1.2529  1.2518  0.6821
29180SOL     OW93375   1.358   1.666   0.310  0.3456  0.2365 -0.5909
29180SOL    HW193376   1.342   1.599   0.376 -0.6643 -0.8110 -1.8488
29180SOL    HW293377   1.414   1.730   0.354  0.5974 -0.9661  0.9249
29181SOL     OW93378   6.591   6.523   0.019 -0.0705 -0.7643  0.6261
29181SOL    HW193379   6.560   6.469   0.092  1.8403  0.8037  2.7311
29181SOL    HW293380   6.512   6.564  -0.016 -1.1203 -2.0687  1.3537
29182SOL     OW93381  10.506   7.798   1.578  0.1413 -0.7519  0.2143
29182SOL    HW193382  10.479   7.747   1.502  0.5843 -1.9652  0.8354
29182SOL    HW293383  10.462   7.755   1.652 -0.8350  0.8183  0.5959
29183SOL     OW93384   3.823   1.650   3.971  0.1430 -0.0655 -0.3031
29183SOL    HW193385   3.833   1.744   3.984  0.6130  0.0154 -1.1446
29183SOL    HW293386   3.783   1.618   4.051 -0.8561  0.9875 -0.3646
29184SOL     OW93387  10.392   3.958  10.356  0.1013 -0.1506 -0.1363
29184SOL    HW193388  10.454   3.970  10.427  0.0412  1.8125 -0.3663
29184SOL    HW293389  10.306   3.964  10.398 -0.0133  3.5596 -0.5688
29185SOL     OW93390   4.344   2.892   6.654  0.5414 -0.8059  0.1543
29185SOL    HW193391   4.387   2.936   6.581  2.0277 -0.2145  1.3197
29185SOL    HW293392   4.365   2.800   6.643  0.7311 -0.7238 -0.1799
29186SOL     OW93393   9.934   8.712   7.027  0.4969 -0.1010  0.7744
29186SOL    HW193394  10.023   8.695   6.997  0.3332 -0.9856  0.7773
29186SOL    HW293395   9.928   8.669   7.112 -0.2318 -0.9086  0.3370
29187SOL     OW93396   8.121  10.689   7.768  0.1834  0.4421 -0.1888
29187SOL    HW193397   8.031  10.664   7.789  1.0247 -1.1575  1.9461
29187SOL    HW293398   8.143  10.757   7.832  1.2383 -1.0174  1.1030
29188SOL     OW93399   7.483   4.368   7.876 -0.0881 -0.2748 -0.3224
29188SOL    HW193400   7.466   4.289   7.824  1.3325  0.7725 -2.5019
29188SOL    HW293401   7.574   4.389   7.858 -0.8550  2.7567 -1.1235
29189SOL     OW93402   8.025   0.029   3.525  0.2303 -0.7560 -0.0399
29189SOL    HW193403   8.078  -0.051   3.523 -0.9162 -1.6196  1.8558
29189SOL    HW293404   7.940   0.001   3.560 -1.7507  0.4708 -3.3130
29190SOL     OW93405   8.686   8.089   0.808  0.1496  0.0036  0.0892
29190SOL    HW193406   8.691   8.185   0.804 -0.4359  0.1328  1.7114
29190SOL    HW293407   8.754   8.059   0.747  0.6709  1.4496 -0.0824
29191SOL     OW93408   5.846   8.139   4.809  0.0761 -0.3260  0.3729
29191SOL    HW193409   5.821   8.142   4.901  1.1456 -0.3203  0.6800
29191SOL    HW293410   5.940   8.155   4.809 -0.1382  1.2158 -0.8475
29192SOL     OW93411   4.921   7.748  10.171 -0.4351  0.1548  0.1902
29192SOL    HW193412   4.834   7.744  10.131  0.2366 -1.4074 -1.2392
29192SOL    HW293413   4.971   7.807  10.114 -0.3236  0.4248  0.5598
29193SOL     OW93414   8.592   0.359   0.300  0.3367 -0.1561  0.1569
29193SOL    HW193415   8.563   0.275   0.264 -0.8835 -0.2430  1.2604
29193SOL    HW293416   8.516   0.417   0.289  0.0969 -0.0407  2.0600
29194SOL     OW93417   5.081   4.207   7.433 -0.4314  0.0796 -0.2612
29194SOL    HW193418   4.997   4.254   7.425 -0.7424 -0.3411  0.4626
29194SOL    HW293419   5.072   4.133   7.373 -0.3087  0.4174 -0.6988
29195SOL     OW93420   6.030  10.560   5.900  0.0526 -0.4777  0.4334
29195SOL    HW193421   6.085  10.638   5.893 -1.5981  0.6759 -0.1691
29195SOL    HW293422   6.036  10.535   5.993  0.2749  0.6017  0.7204
29196SOL     OW93423   8.090   4.233   9.110  0.3169  0.1178 -0.4796
29196SOL    HW193424   8.123   4.251   9.022 -1.2821 -1.2829 -1.4170
29196SOL    HW293425   8.023   4.299   9.126  0.1949  0.0161 -0.5655
29197SOL     OW93426   5.499   2.702   7.861  0.3871 -0.0467 -0.4852
29197SOL    HW193427   5.500   2.741   7.774  0.5038 -2.1013 -1.4583
29197SOL    HW293428   5.591   2.681   7.880  0.5190  1.3837  0.6469
29198SOL     OW93429   1.477   6.120   0.160  0.1467 -0.7410  0.0290
29198SOL    HW193430   1.441   6.084   0.242 -2.7322 -1.5563 -1.4675
29198SOL    HW293431   1.498   6.211   0.181 -3.5048  0.0328  0.9980
29199SOL     OW93432   1.915   4.597   6.520 -0.2607  0.0045 -0.3874
29199SOL    HW193433   1.830   4.584   6.562 -0.4876  1.5172 -0.3129
29199SOL    HW293434   1.904   4.676   6.468  0.7163 -0.5410 -1.4604
29200SOL     OW93435   1.179  10.466   3.590  0.1270  0.5943  0.1969
29200SOL    HW193436   1.100  10.439   3.542  0.1526 -1.5792  1.2441
29200SOL    HW293437   1.195  10.556   3.561 -2.6130  1.0486 -0.2067
29201SOL     OW93438   4.579   7.267   1.777 -0.2912 -0.6502  0.4273
29201SOL    HW193439   4.547   7.336   1.718 -0.1414  0.7908  1.9424
29201SOL    HW293440   4.555   7.185   1.734  1.2736  0.2432 -2.4751
29202SOL     OW93441   0.916   4.808   5.245  0.0501 -0.6737  0.1820
29202SOL    HW193442   0.866   4.739   5.288 -0.8393  0.1154  0.4356
29202SOL    HW293443   0.860   4.885   5.250  0.9319  0.0142 -0.3043
29203SOL     OW93444   1.877   0.887   4.236 -0.0313  0.0043  0.1692
29203SOL    HW193445   1.788   0.865   4.264 -0.4448 -0.3547 -1.3357
29203SOL    HW293446   1.869   0.974   4.196  0.2085 -0.1830 -0.2990
29204SOL     OW93447   6.033   2.053   9.844  0.0222 -0.0835 -0.1689
29204SOL    HW193448   6.036   2.088   9.754 -1.5250  0.0981 -0.1712
29204SOL    HW293449   6.081   2.118   9.896  2.9867 -1.3112 -1.1438
29205SOL     OW93450   0.443   3.606   0.613 -0.0819 -0.3186  0.4313
29205SOL    HW193451   0.531   3.599   0.650  0.0331  0.0413  0.2340
29205SOL    HW293452   0.447   3.683   0.556 -0.3336 -0.6971 -0.1061
29206SOL     OW93453   6.244   2.806   1.588  0.3641  0.0612 -0.2369
29206SOL    HW193454   6.265   2.874   1.653  0.1152  0.2376 -0.3394
29206SOL    HW293455   6.150   2.816   1.572  0.2959 -0.4115 -0.1376
29207SOL     OW93456   8.442   8.621   8.659 -0.3465 -0.4954  0.0415
29207SOL    HW193457   8.476   8.699   8.702  0.8427 -1.0446  0.1215
29207SOL    HW293458   8.484   8.619   8.573 -1.3956 -0.3368 -0.4934
29208SOL     OW93459   1.804   0.960   5.946  0.2256  0.1522  0.0561
29208SOL    HW193460   1.818   0.870   5.976  0.3416  0.2045  0.1585
29208SOL    HW293461   1.891   0.999   5.944  0.0801  0.5489  0.9342
29209SOL     OW93462   0.480   6.233   2.709  0.5885  0.5262 -0.1169
29209SOL    HW193463   0.486   6.328   2.717 -1.0349  0.6342  0.1387
29209SOL    HW293464   0.386   6.215   2.703  0.9232 -0.9508 -1.6541
29210SOL     OW93465   8.697   3.113   1.455  0.0225  0.2214 -0.2789
29210SOL    HW193466   8.681   3.087   1.365  0.7737 -0.6572 -0.1793
29210SOL    HW293467   8.746   3.195   1.448  0.6905 -0.1982 -0.7045
29211SOL     OW93468  10.315   5.310   2.396 -0.1273 -0.2466  0.0968
29211SOL    HW193469  10.281   5.383   2.447  0.1206 -0.1548  0.1330
29211SOL    HW293470  10.356   5.252   2.461 -0.5916 -0.5705  0.1045
29212SOL     OW93471   4.644   5.733   8.469  0.0549  0.2601 -0.0061
29212SOL    HW193472   4.655   5.780   8.386  0.6873 -0.8105 -0.5548
29212SOL    HW293473   4.597   5.794   8.526  2.2401  2.1754 -0.1394
29213SOL     OW93474   5.356   0.169  10.085 -0.1186  0.4348  0.2258
29213SOL    HW193475   5.298   0.147  10.159  0.4676 -1.5070  0.1619
29213SOL    HW293476   5.357   0.265  10.083 -4.3602  0.6450 -0.5963
29214SOL     OW93477   9.134   9.638   9.335 -0.1868 -0.4076 -0.0727
29214SOL    HW193478   9.221   9.607   9.359  0.3107 -0.6496 -2.0213
29214SOL    HW293479   9.149   9.728   9.306 -0.7298 -0.1829  0.3334
29215SOL     OW93480  10.256   2.195   6.166 -0.2885  0.1548  0.3663
29215SOL    HW193481  10.293   2.123   6.116  0.7353  1.5996 -1.0488
29215SOL    HW293482  10.163   2.173   6.174  0.0812 -1.5166  0.3823
29216SOL     OW93483   5.903   0.118   5.917  0.2921 -0.2626  0.0142
29216SOL    HW193484   5.982   0.122   5.863 -0.0295 -0.0905 -0.4533
29216SOL    HW293485   5.878   0.026   5.918  0.5059 -0.3202  0.1801
29217SOL     OW93486   9.627   9.711   4.812 -0.6647 -0.4103 -0.3173
29217SOL    HW193487   9.533   9.720   4.830 -0.3427  0.2061  1.2761
29217SOL    HW293488   9.632   9.654   4.736 -2.3034 -1.3829  0.2645
29218SOL     OW93489   0.623   9.044  10.645  0.6219 -0.1258 -0.0112
29218SOL    HW193490   0.599   8.979  10.711 -1.5812 -0.5365 -1.1467
29218SOL    HW293491   0.578   9.016  10.566  0.9053  1.9270 -0.9612
29219SOL     OW93492   3.969   1.320   9.813  0.2886 -0.3724 -0.0026
29219SOL    HW193493   3.945   1.232   9.783  1.5372 -0.9692  0.6710
29219SOL    HW293494   3.918   1.333   9.893 -0.6730 -0.0463 -0.6508
29220SOL     OW93495   4.411   0.207   4.634  0.5147 -0.0807 -0.6806
29220SOL    HW193496   4.371   0.294   4.637  0.6053 -0.0541  0.9504
29220SOL    HW293497   4.367   0.158   4.704  0.2129 -1.4758 -1.8031
29221SOL     OW93498   2.220   5.719   9.792  0.1887  0.7837  0.0930
29221SOL    HW193499   2.217   5.814   9.795  0.2008  0.8224 -0.9056
29221SOL    HW293500   2.211   5.697   9.699  2.2474 -0.1073  0.0315
29222SOL     OW93501   0.808   1.078   4.091  0.3834 -0.0663  0.2322
29222SOL    HW193502   0.845   1.120   4.013  0.4314  0.3479  0.4705
29222SOL    HW293503   0.781   0.992   4.062 -0.0114  0.2494 -0.3477
29223SOL     OW93504   5.804   2.901   3.762  0.3264  0.2555  0.0130
29223SOL    HW193505   5.807   2.907   3.666  0.0050  1.9749  0.0748
29223SOL    HW293506   5.762   2.817   3.779 -1.8987  0.9796 -1.4325
29224SOL     OW93507   1.918   7.800   7.018 -1.1851 -0.2464 -0.1000
29224SOL    HW193508   1.928   7.842   7.103 -4.0670  0.9524 -0.2350
29224SOL    HW293509   1.882   7.713   7.038 -1.0236 -0.3076 -0.0719
29225SOL     OW93510   3.823   4.523   6.526  0.6671  0.3191 -0.5241
29225SOL    HW193511   3.769   4.544   6.450  0.0744 -0.9818 -0.4879
29225SOL    HW293512   3.863   4.438   6.504  0.3068 -0.1790  0.6999
29226SOL     OW93513   9.619   7.438   0.619  0.0661 -0.7074 -0.1849
29226SOL    HW193514   9.585   7.407   0.535  1.2790  1.2076 -1.4536
29226SOL    HW293515   9.681   7.371   0.646  0.3992 -0.8716 -1.3248
29227SOL     OW93516   6.237   0.572   9.812  0.3379 -0.3497  0.2827
29227SOL    HW193517   6.176   0.523   9.869 -0.2198  0.1054  0.0893
29227SOL    HW293518   6.315   0.584   9.865 -0.8827  1.8336  1.7576
29228SOL     OW93519  10.282   1.665   3.043 -0.1323  0.1696 -0.3040
29228SOL    HW193520  10.341   1.699   2.976  0.8853  0.6843  0.8239
29228SOL    HW293521  10.316   1.579   3.065 -1.2794 -0.6135 -1.3911
29229SOL     OW93522   9.574  10.391   6.767  0.4796  0.2042  0.1115
29229SOL    HW193523   9.598  10.305   6.733  3.3492  1.7572 -2.2828
29229SOL    HW293524   9.655  10.427   6.803 -0.7085  1.8007  1.3463
29230SOL     OW93525   1.219   6.565   8.351  0.1620 -0.3662 -0.4829
29230SOL    HW193526   1.224   6.470   8.359 -0.5981 -0.4710 -1.1427
29230SOL    HW293527   1.249   6.598   8.436  0.2355 -1.2007 -0.1772
29231SOL     OW93528   9.681   2.899   4.738 -0.1473 -0.2709  0.0361
29231SOL    HW193529   9.682   2.805   4.719 -1.8504 -0.6110  1.3204
29231SOL    HW293530   9.615   2.935   4.679 -0.0405 -0.0180  0.0684
29232SOL     OW93531   2.767   1.315   0.529  0.1702 -0.3165  0.1807
29232SOL    HW193532   2.727   1.235   0.496 -3.2215  1.5607 -0.6980
29232SOL    HW293533   2.780   1.369   0.451 -0.1307  0.9806  0.9998
29233SOL     OW93534   7.945   4.467   8.683  0.5406 -0.4377  0.2892
29233SOL    HW193535   8.010   4.416   8.733 -0.1088  0.3163  1.9787
29233SOL    HW293536   7.997   4.532   8.636  1.2064 -1.4296 -0.3855
29234SOL     OW93537   8.230   4.730   0.475  0.2822  0.1692 -0.0990
29234SOL    HW193538   8.138   4.756   0.479 -0.1254 -1.0889 -0.7051
29234SOL    HW293539   8.264   4.753   0.562 -0.4332  1.2129 -0.0750
29235SOL     OW93540   6.792   6.743   5.062  0.0673  0.1300 -0.3088
29235SOL    HW193541   6.756   6.655   5.076  0.4627  0.0402  0.1738
29235SOL    HW293542   6.802   6.751   4.967  0.0039 -0.3359 -0.3536
29236SOL     OW93543   5.964   6.125   5.026 -0.1934  0.1972  0.0467
29236SOL    HW193544   5.941   6.062   4.958  0.7685 -1.3683  1.1063
29236SOL    HW293545   5.881   6.146   5.069 -0.6983  0.6280 -1.1069
29237SOL     OW93546   1.517   4.259   8.236 -0.4992 -0.3330 -1.0999
29237SOL    HW193547   1.513   4.170   8.271 -0.0237  0.1608  0.2954
29237SOL    HW293548   1.611   4.278   8.232 -0.6113  0.6086  0.0471
29238SOL     OW93549   4.630   0.528   1.158  0.0979  0.1489  0.1476
29238SOL    HW193550   4.640   0.440   1.193  1.3242 -0.5007 -1.7100
29238SOL    HW293551   4.690   0.532   1.084 -0.9667  2.0763 -0.6954
29239SOL     OW93552   0.434   9.235   5.809  0.2192 -0.0980  0.0316
29239SOL    HW193553   0.479   9.277   5.736  0.7958 -0.4687  0.1726
29239SOL    HW293554   0.442   9.141   5.791  0.9677 -0.2189  0.9297
29240SOL     OW93555   5.059   5.934   8.256 -0.3543 -0.4418  0.0384
29240SOL    HW193556   5.139   5.920   8.205 -0.5603  2.3177 -1.2535
29240SOL    HW293557   4.990   5.895   8.204 -0.2430  0.2068 -0.6201
29241SOL     OW93558   8.144   7.977   2.807  0.0796  0.0656  0.2654
29241SOL    HW193559   8.141   8.034   2.884 -0.1343 -0.6341  0.7863
29241SOL    HW293560   8.235   7.980   2.778  0.1417  0.3978  0.4905
29242SOL     OW93561   6.946   9.736  10.723 -0.1928  0.3536 -0.2167
29242SOL    HW193562   6.957   9.675  10.650 -0.4435  1.2093 -0.9875
29242SOL    HW293563   6.851   9.745  10.733 -0.1607  0.2012  0.2566
29243SOL     OW93564   9.148   9.773   2.069 -0.0420 -0.3312 -0.3820
29243SOL    HW193565   9.197   9.826   2.006  0.0515  2.5939  1.9308
29243SOL    HW293566   9.056   9.795   2.051 -0.1020 -0.5811 -0.3790
29244SOL     OW93567   0.620   9.638   3.624 -0.1288 -0.0292  0.5878
29244SOL    HW193568   0.632   9.626   3.530  0.9246 -0.2715  0.7339
29244SOL    HW293569   0.611   9.549   3.658  0.6509 -0.0142  0.8473
29245SOL     OW93570   4.733   5.831   4.199  0.1503 -0.0593  0.3593
29245SOL    HW193571   4.653   5.780   4.210 -0.2588  0.3313 -0.6995
29245SOL    HW293572   4.799   5.767   4.174  0.1423 -0.3562  1.0547
29246SOL     OW93573   8.914   2.423   5.865  0.1273 -0.0206  0.1517
29246SOL    HW193574   8.935   2.425   5.772  1.0259  2.1075  0.3475
29246SOL    HW293575   8.821   2.398   5.869  0.8252 -3.2798 -1.0772
29247SOL     OW93576   6.587   0.733   7.472  0.8394 -0.1429  0.2222
29247SOL    HW193577   6.629   0.818   7.484  0.5490  0.0276  0.0321
29247SOL    HW293578   6.652   0.681   7.423  0.4617  0.4267 -0.9120
29248SOL     OW93579   0.327   9.823   1.241  0.0009 -0.8517 -0.2623
29248SOL    HW193580   0.387   9.803   1.170 -0.6181 -0.9636 -0.7624
29248SOL    HW293581   0.293   9.738   1.268 -1.5404 -0.6597 -1.4240
29249SOL     OW93582   1.233  10.516   6.283  0.4109 -0.0740  0.1595
29249SOL    HW193583   1.257  10.425   6.263  0.4305  0.2477 -1.4258
29249SOL    HW293584   1.165  10.508   6.349 -1.2138 -1.3784 -1.5541
29250SOL     OW93585   3.322   5.965   8.597  0.3006  0.0426 -0.3296
29250SOL    HW193586   3.327   5.887   8.541  2.5178 -0.8294  0.9484
29250SOL    HW293587   3.258   5.942   8.664  1.6953 -1.1586  0.6430
29251SOL     OW93588   3.323   5.800   3.613 -0.3506 -0.6526 -0.2022
29251SOL    HW193589   3.267   5.724   3.597 -0.7322 -0.8840  1.8828
29251SOL    HW293590   3.266   5.864   3.655  0.9164 -1.0111  2.2628
29252SOL     OW93591   1.423   4.961   8.885  0.4452 -0.0994 -0.1095
29252SOL    HW193592   1.445   5.042   8.930 -2.5887  0.8083 -0.0236
29252SOL    HW293593   1.382   4.906   8.952 -2.8276  0.7161 -1.2326
29253SOL     OW93594   6.933   3.972  10.408  0.5593 -0.5903  0.2047
29253SOL    HW193595   7.019   3.934  10.389  0.0477 -1.7078  0.0814
29253SOL    HW293596   6.950   4.034  10.478  1.5088 -0.6276  0.0315
29254SOL     OW93597   6.473   5.329   4.189  0.4798  0.0218  0.1718
29254SOL    HW193598   6.384   5.351   4.164  1.4445 -0.1667 -4.3320
29254SOL    HW293599   6.469   5.237   4.216 -0.8275  0.3911  1.3040
29255SOL     OW93600   1.869   9.484   2.050 -0.6131 -0.1299  0.1093
29255SOL    HW193601   1.931   9.412   2.054 -0.9154 -0.7172 -2.9458
29255SOL    HW293602   1.784   9.444   2.069 -0.4172  0.1384  1.6585
29256SOL     OW93603   8.233  10.553   8.746 -0.0205 -0.2932 -0.0337
29256SOL    HW193604   8.239  10.529   8.654  0.6735 -1.4030  0.2796
29256SOL    HW293605   8.142  10.538   8.770 -0.6156  1.6169 -0.9415
29257SOL     OW93606   4.181   3.860   6.600 -0.1442 -0.1290  0.1697
29257SOL    HW193607   4.179   3.776   6.554  1.0673  0.2630 -0.6509
29257SOL    HW293608   4.265   3.899   6.575 -1.1330  1.8043 -0.3267
29258SOL     OW93609   3.427   0.585   8.682 -0.5990 -0.3475 -0.1878
29258SOL    HW193610   3.382   0.654   8.632 -1.5962 -0.3116  0.7198
29258SOL    HW293611   3.502   0.629   8.722 -0.3944 -0.1387 -0.7897
29259SOL     OW93612   5.347   9.607   0.873 -0.2971  0.6013 -0.3635
29259SOL    HW193613   5.333   9.694   0.835  1.3348  0.6949 -0.8247
29259SOL    HW293614   5.423   9.618   0.931  0.0648 -0.5624 -0.5962
29260SOL     OW93615   6.539   6.209   1.810 -0.0724  0.2552  0.0952
29260SOL    HW193616   6.613   6.269   1.822  2.4477 -2.6376  0.1708
29260SOL    HW293617   6.497   6.204   1.895 -0.2954  1.8098  0.0998
29261SOL     OW93618   7.676   4.151   0.571  0.2575 -0.6871 -0.5071
29261SOL    HW193619   7.618   4.207   0.623  1.5150 -0.2470  0.4904
29261SOL    HW293620   7.632   4.065   0.571 -0.1548 -0.5080  0.6647
29262SOL     OW93621  10.469   4.639   1.046  0.0861 -0.3018  0.2960
29262SOL    HW193622  10.488   4.675   1.133 -1.6442 -0.6750  0.8692
29262SOL    HW293623  10.401   4.573   1.062 -1.0538  0.3832 -1.4446
29263SOL     OW93624   4.097   7.196   9.788  0.1813 -0.5246 -1.1224
29263SOL    HW193625   4.020   7.253   9.792  0.8272  0.3169 -0.1141
29263SOL    HW293626   4.062   7.110   9.763 -0.9760  0.0107 -1.4111
29264SOL     OW93627   2.538   1.870   2.158 -0.4103 -0.5372 -0.1058
29264SOL    HW193628   2.539   1.803   2.090  1.3660 -0.6199 -0.0457
29264SOL    HW293629   2.590   1.942   2.122 -0.4270 -0.1117  0.7023
29265SOL     OW93630  10.045   6.057   3.351 -0.7238  0.2730 -0.0288
29265SOL    HW193631  10.093   6.031   3.429 -0.4640  0.4885 -0.1183
29265SOL    HW293632   9.953   6.038   3.372 -0.6171 -0.0005  0.1937
29266SOL     OW93633   0.167   3.321   4.867 -0.0955  0.1430 -0.2522
29266SOL    HW193634   0.100   3.374   4.910 -1.1415 -0.3013 -1.2809
29266SOL    HW293635   0.130   3.233   4.863  0.6471 -0.1625 -0.6251
29267SOL     OW93636   7.203   8.510   4.996 -0.4379  0.1476 -0.0406
29267SOL    HW193637   7.145   8.585   5.004  0.6750  0.9937  0.4810
29267SOL    HW293638   7.147   8.434   5.008 -1.9121  0.7789 -2.2951
29268SOL     OW93639   2.937   0.920   0.153 -0.1411 -0.3261 -0.5067
29268SOL    HW193640   2.853   0.885   0.181 -1.4137  1.0984 -2.2761
29268SOL    HW293641   2.925   0.937   0.059  0.8996  3.1044 -0.1576
29269SOL     OW93642   1.110   1.134   7.832  0.1951 -0.0701  0.1413
29269SOL    HW193643   1.166   1.198   7.876  0.2485 -1.5765  2.4294
29269SOL    HW293644   1.115   1.056   7.886 -2.9210 -0.7880 -0.3906
29270SOL     OW93645   9.514   7.387   1.092  0.4690  0.9489 -0.2033
29270SOL    HW193646   9.506   7.458   1.029  1.5138  1.9036  0.7097
29270SOL    HW293647   9.606   7.387   1.117  0.3528 -0.3099  0.3098
29271SOL     OW93648   2.652   7.004   8.420  0.8108 -0.7881 -0.0831
29271SOL    HW193649   2.740   7.010   8.458  0.3042 -1.0304  1.1964
29271SOL    HW293650   2.661   6.943   8.348  2.5224  2.1886 -2.6226
29272SOL     OW93651   1.579   7.350   3.306  0.4169  0.0441 -0.3860
29272SOL    HW193652   1.662   7.303   3.314  0.6993  0.3245 -1.4772
29272SOL    HW293653   1.580   7.413   3.378  0.6004 -0.7521  0.3211
29273SOL     OW93654   8.153   8.310   9.901 -0.1451 -0.5528 -0.6039
29273SOL    HW193655   8.242   8.339   9.880 -0.7891  2.1676  0.0223
29273SOL    HW293656   8.123   8.267   9.821  0.6904  1.2814 -1.9863
29274SOL     OW93657   0.251   4.778   0.860 -0.2357 -0.0935 -0.2481
29274SOL    HW193658   0.288   4.824   0.936  0.4627 -0.0976 -0.5766
29274SOL    HW293659   0.173   4.735   0.894  0.8257 -1.2465  0.8060
29275SOL     OW93660   9.227   1.321  10.678 -0.0219  0.8294 -0.4250
29275SOL    HW193661   9.287   1.362  10.740 -1.8039  1.7451  0.7821
29275SOL    HW293662   9.275   1.319  10.595  1.6020  1.6125  0.4587
29276SOL     OW93663   6.370   2.939   2.535  0.9626 -0.3680  0.2111
29276SOL    HW193664   6.444   2.998   2.521  1.3726 -0.3120  2.2515
29276SOL    HW293665   6.294   2.989   2.504  1.7480 -0.5441 -2.1956
29277SOL     OW93666  10.439   2.000   3.642 -0.0064  0.7411  0.1680
29277SOL    HW193667  10.449   2.092   3.615 -0.6231  1.1223  1.1641
29277SOL    HW293668  10.486   1.950   3.576  0.9185  1.8348 -0.0366
29278SOL     OW93669   2.820   0.053   5.208 -0.0489 -0.7087 -0.0453
29278SOL    HW193670   2.825   0.124   5.271 -1.2526 -1.4638  0.9503
29278SOL    HW293671   2.911   0.023   5.199  0.2508 -0.0593  0.7013
29279SOL     OW93672   1.421   9.499   0.848  0.5659 -0.5915  0.1537
29279SOL    HW193673   1.505   9.454   0.839  1.3296  0.7191  0.4408
29279SOL    HW293674   1.364   9.436   0.893  0.0866 -3.0420 -3.4996
29280SOL     OW93675   3.245   6.451   7.151 -0.3231  0.2171 -0.5616
29280SOL    HW193676   3.166   6.497   7.180 -0.2420  1.1258 -1.7073
29280SOL    HW293677   3.316   6.489   7.202 -0.2702  1.3556 -1.4234
29281SOL     OW93678   0.640   2.960   2.853  0.2755 -0.1733  0.1366
29281SOL    HW193679   0.591   3.004   2.784  0.1116 -0.0111  0.3525
29281SOL    HW293680   0.692   3.029   2.894  0.4856 -0.2970  0.0792
29282SOL     OW93681   9.151   3.625   4.610 -0.0805  0.2542 -0.7214
29282SOL    HW193682   9.078   3.606   4.669  1.2626 -0.1132  0.8931
29282SOL    HW293683   9.143   3.719   4.593 -1.6540 -0.0070 -1.6361
29283SOL     OW93684   6.657   7.215   1.341 -0.2978 -0.3418  0.0933
29283SOL    HW193685   6.678   7.306   1.362 -0.5960  0.1941 -1.7238
29283SOL    HW293686   6.692   7.165   1.414 -0.1063  1.2234  1.1263
29284SOL     OW93687   5.584   1.561   8.452 -0.2689 -0.2547  0.0189
29284SOL    HW193688   5.503   1.604   8.478 -0.1281  1.0155 -1.4530
29284SOL    HW293689   5.572   1.542   8.359  1.1504  0.0675 -0.2516
29285SOL     OW93690   4.914   5.526   4.349 -0.4930 -0.1761  0.5984
29285SOL    HW193691   4.888   5.553   4.437  3.4243 -0.4088  2.0425
29285SOL    HW293692   4.994   5.476   4.362  0.9109  0.7125 -3.1817
29286SOL     OW93693   9.963   1.776   3.168  0.2465 -0.2522 -0.5500
29286SOL    HW193694   9.969   1.793   3.074  0.4993 -1.5948 -0.8033
29286SOL    HW293695   9.994   1.686   3.178  0.1835 -0.1436  0.8191
29287SOL     OW93696   3.708   4.459   3.040 -0.0429 -0.6562 -0.1118
29287SOL    HW193697   3.736   4.398   3.108  3.6105  0.0299 -0.7660
29287SOL    HW293698   3.722   4.545   3.078  1.4693 -0.2668 -1.4272
29288SOL     OW93699   2.011   0.681   5.551  0.0602  0.4263 -0.2957
29288SOL    HW193700   2.089   0.630   5.572 -0.6553 -0.2307  0.9194
29288SOL    HW293701   1.956   0.623   5.500 -1.4241 -0.7009  2.3456
29289SOL     OW93702  10.437   4.820  10.343 -0.2861  0.0340 -0.0952
29289SOL    HW193703  10.364   4.770  10.306 -0.1938 -0.4471  0.3584
29289SOL    HW293704  10.499   4.829  10.271  0.4168 -1.8873  0.2200
29290SOL     OW93705   0.307   1.156   6.492  0.3809 -0.4604 -0.8947
29290SOL    HW193706   0.289   1.197   6.577 -0.1147 -0.7587 -0.8528
29290SOL    HW293707   0.276   1.219   6.427  3.2084  1.0132 -0.9738
29291SOL     OW93708   7.108   0.127   0.399 -0.0917 -0.0103 -0.4429
29291SOL    HW193709   7.106   0.077   0.318 -1.5965  1.4107 -1.3518
29291SOL    HW293710   7.145   0.067   0.464  1.5853 -1.0282 -2.2488
29292SOL     OW93711  10.600  10.644   4.370  0.4001 -0.6497  0.1085
29292SOL    HW193712  10.630  10.693   4.294  1.0989  2.7975  2.3186
29292SOL    HW293713  10.522  10.692   4.400 -0.0984 -2.1312  1.3519
29293SOL     OW93714  10.057  10.285   2.626 -0.3256 -0.0033 -0.1742
29293SOL    HW193715  10.127  10.226   2.657 -0.9798  0.1652  1.7724
29293SOL    HW293716  10.008  10.307   2.705 -1.7216  1.0443 -1.2827
29294SOL     OW93717   4.986   8.280   0.247  0.0627  0.1613 -0.2905
29294SOL    HW193718   4.930   8.254   0.320 -1.7197 -0.0268 -1.6404
29294SOL    HW293719   5.018   8.366   0.271 -0.3795  0.0493  0.7701
29295SOL     OW93720   8.122   7.594   9.807 -0.2767  0.3010  0.2023
29295SOL    HW193721   8.074   7.661   9.856 -1.1744 -0.2960  0.1762
29295SOL    HW293722   8.154   7.639   9.729 -0.3878  0.8344  0.4627
29296SOL     OW93723   6.309   6.776   2.968  0.4405  0.1510  0.6218
29296SOL    HW193724   6.292   6.766   2.875  0.9746  0.0629  0.5335
29296SOL    HW293725   6.229   6.817   3.003 -0.9888 -2.4570  0.6519
29297SOL     OW93726   8.336   1.831   0.859 -0.0848  0.4916  0.0132
29297SOL    HW193727   8.248   1.844   0.823 -0.2567  0.9232  0.5861
29297SOL    HW293728   8.326   1.843   0.953  0.8422  1.9206 -0.0402
29298SOL     OW93729   3.301   2.716   3.762  0.2250 -0.4904 -0.2042
29298SOL    HW193730   3.390   2.688   3.781  0.3402  0.2978  0.4744
29298SOL    HW293731   3.310   2.805   3.726 -0.2572 -0.5301 -0.4374
29299SOL     OW93732   5.039   6.229   9.201  0.0359  0.7315  0.1851
29299SOL    HW193733   5.119   6.230   9.254  0.2570  0.4050 -0.1328
29299SOL    HW293734   4.980   6.291   9.244  0.3946  0.8381  0.5268
29300SOL     OW93735   3.951   2.382   8.295 -0.3839 -0.5824 -0.1249
29300SOL    HW193736   4.029   2.416   8.250 -1.2526  0.9313 -0.5736
29300SOL    HW293737   3.927   2.451   8.357 -4.0996  1.3888 -3.2966
29301SOL     OW93738   7.010   8.839   0.231 -0.1259 -0.2662 -0.0070
29301SOL    HW193739   6.982   8.891   0.307 -1.2056 -1.2930  0.3308
29301SOL    HW293740   7.014   8.902   0.159 -0.0536  0.5392  0.6835
29302SOL     OW93741   5.092   5.070   4.521  0.1491 -0.2773  0.0649
29302SOL    HW193742   5.018   5.049   4.464  1.3063  0.9364 -2.0056
29302SOL    HW293743   5.162   5.013   4.490  0.3696 -0.7496  1.3906
29303SOL     OW93744   1.651   5.777   9.046  0.2413 -0.4024  0.0038
29303SOL    HW193745   1.568   5.811   9.079  0.7790  0.5121  0.4619
29303SOL    HW293746   1.670   5.702   9.102  0.3678  0.1833  0.7536
29304SOL     OW93747   8.758   2.903   7.485  0.1227 -0.4951  0.0579
29304SOL    HW193748   8.719   2.826   7.442 -2.4412 -0.3713  1.9228
29304SOL    HW293749   8.800   2.867   7.563  2.4686 -0.4028 -1.0836
29305SOL     OW93750   2.817   4.015   0.098 -0.4544 -0.2098 -0.1799
29305SOL    HW193751   2.769   3.977   0.025 -0.8750  1.3888 -0.7835
29305SOL    HW293752   2.792   3.961   0.173 -0.9139 -1.1768 -0.9929
29306SOL     OW93753   8.278   2.270  10.504  0.2350 -0.1694  0.1889
29306SOL    HW193754   8.280   2.229  10.591  0.2475  0.0672  0.3018
29306SOL    HW293755   8.359   2.243  10.462  0.5809  0.3261  0.5345
29307SOL     OW93756   1.680   7.220   1.231 -0.2297 -0.0078 -0.5192
29307SOL    HW193757   1.663   7.291   1.293 -2.4515 -1.7645  1.0392
29307SOL    HW293758   1.755   7.174   1.267  0.1195  0.4829 -0.5974
29308SOL     OW93759   2.602   4.533   2.110 -0.3500 -0.3128  0.1855
29308SOL    HW193760   2.644   4.605   2.157  0.8365 -0.8950  0.0527
29308SOL    HW293761   2.592   4.464   2.175 -0.8197 -0.2855  0.1414
29309SOL     OW93762   9.238   0.497   9.454 -0.3349  0.0932 -0.2516
29309SOL    HW193763   9.312   0.480   9.513  0.1277  0.7647 -0.6190
29309SOL    HW293764   9.198   0.577   9.489 -0.8768 -0.2476 -0.0757
29310SOL     OW93765   6.792   4.563  10.178 -0.4417  0.3535 -0.4669
29310SOL    HW193766   6.881   4.565  10.214 -0.9633 -1.3933  1.0738
29310SOL    HW293767   6.743   4.626  10.231 -0.6176 -0.3554  0.2384
29311SOL     OW93768   1.647   6.076   2.251  0.1466  0.4611  0.6599
29311SOL    HW193769   1.554   6.084   2.270  0.0701  1.6469 -0.1576
29311SOL    HW293770   1.686   6.047   2.334 -0.7240  1.5033  1.4501
29312SOL     OW93771   5.069   2.770   9.597  0.6942  0.0393  0.1536
29312SOL    HW193772   4.982   2.812   9.599  0.6081 -0.1237  2.7654
29312SOL    HW293773   5.124   2.826   9.652  1.8735 -0.6641 -0.2793
29313SOL     OW93774   7.490   6.110   2.673  0.2586 -0.3069 -0.0320
29313SOL    HW193775   7.525   6.130   2.760 -0.1205 -0.7978  0.2387
29313SOL    HW293776   7.540   6.034   2.644 -0.8016 -1.2490  0.5157
29314SOL     OW93777   9.462   4.101   7.686 -0.1103  0.1470 -0.3203
29314SOL    HW193778   9.514   4.045   7.743 -0.9005  0.9753  1.2592
29314SOL    HW293779   9.373   4.066   7.691 -0.5899  1.3964  0.5826
29315SOL     OW93780   8.802   3.306   0.946  0.4134 -0.0861  0.3085
29315SOL    HW193781   8.891   3.340   0.959  0.0192  0.6991  1.0414
29315SOL    HW293782   8.795   3.295   0.851  2.7509 -4.2640  0.3777
29316SOL     OW93783   4.663   0.010   3.567  0.0481 -0.9096  0.3427
29316SOL    HW193784   4.575  -0.018   3.594  0.2870 -1.6874  0.3402
29316SOL    HW293785   4.666   0.103   3.588 -0.7448 -0.8967  0.4310
29317SOL     OW93786   8.583   4.674  10.424  0.3644  0.2800  0.2816
29317SOL    HW193787   8.551   4.706  10.508 -0.1669 -0.4403  0.3707
29317SOL    HW293788   8.545   4.733  10.359  0.0203  0.2920  0.4900
29318SOL     OW93789   7.844   0.693   3.114 -0.1801  0.0157  0.4384
29318SOL    HW193790   7.815   0.734   3.033 -0.4331  0.9518  0.9908
29318SOL    HW293791   7.916   0.747   3.144 -0.6759  0.2104  1.3082
29319SOL     OW93792   4.811  10.408   6.534  0.4515  0.2480 -0.0809
29319SOL    HW193793   4.732  10.427   6.586  0.2658 -2.0458  0.5577
29319SOL    HW293794   4.884  10.434   6.590  0.2163  1.2840 -0.2181
29320SOL     OW93795   1.265   7.543   0.070 -0.2254 -0.5678 -0.6555
29320SOL    HW193796   1.228   7.630   0.081 -1.8333 -1.2198 -0.5340
29320SOL    HW293797   1.299   7.543  -0.020 -0.1688  0.1887 -0.6395
29321SOL     OW93798   9.696   7.681   2.601  0.3054 -0.3440  0.3270
29321SOL    HW193799   9.671   7.610   2.660 -0.8294 -0.7910 -0.6511
29321SOL    HW293800   9.700   7.640   2.514 -1.9096  1.0381 -0.5265
29322SOL     OW93801   4.416   4.774   5.431 -0.3746 -0.2130 -0.1293
29322SOL    HW193802   4.391   4.713   5.362  0.8027 -2.0304  0.9872
29322SOL    HW293803   4.490   4.822   5.394  0.1190 -1.0284 -0.2219
29323SOL     OW93804   8.263   1.225   6.093 -0.0480  0.4476  0.4210
29323SOL    HW193805   8.242   1.304   6.141  0.4315  0.7265  0.1743
29323SOL    HW293806   8.314   1.172   6.154 -0.7075  0.1491  0.7230
29324SOL     OW93807   2.733   5.878  10.302 -0.6382 -0.2018  0.2411
29324SOL    HW193808   2.652   5.926  10.322 -1.4446 -1.5254  0.2764
29324SOL    HW293809   2.726   5.798  10.353  0.5066 -0.5290 -0.1007
29325SOL     OW93810   8.697   1.458   3.573  0.2848  0.4518  0.1839
29325SOL    HW193811   8.676   1.519   3.644 -0.4721  0.7783 -0.3003
29325SOL    HW293812   8.691   1.512   3.494 -0.3583 -0.2315 -0.2480
29326SOL     OW93813   8.433   1.232   1.993 -0.4900  0.1614 -0.1034
29326SOL    HW193814   8.436   1.185   1.909  0.1669 -0.2959  0.1632
29326SOL    HW293815   8.470   1.318   1.973 -0.2122  0.0090 -0.2633
29327SOL     OW93816   7.007   2.125   3.017 -0.0716  0.0438  0.4746
29327SOL    HW193817   7.058   2.193   3.062 -0.4641 -0.0332  1.0423
29327SOL    HW293818   7.066   2.050   3.013 -0.0360  0.0491  0.8695
29328SOL     OW93819   4.828   7.054   7.511  0.1268 -0.0554  0.2797
29328SOL    HW193820   4.886   6.981   7.491 -0.5827 -1.4151  2.8256
29328SOL    HW293821   4.878   7.110   7.570 -0.1999  0.2185  0.2995
29329SOL     OW93822   9.588   7.123   8.096  0.4711 -0.2320  0.1697
29329SOL    HW193823   9.525   7.168   8.039 -0.8138 -0.1608  1.5825
29329SOL    HW293824   9.648   7.192   8.124  1.6466 -0.4185 -1.7003
29330SOL     OW93825   2.330   0.129   3.970  0.3296 -0.4967  0.4464
29330SOL    HW193826   2.413   0.137   3.923  0.0612  0.6420  0.1381
29330SOL    HW293827   2.264   0.159   3.908  0.0685  2.1451  1.8284
29331SOL     OW93828   7.617   4.229   0.015 -0.7994  0.2278  0.2609
29331SOL    HW193829   7.666   4.210   0.095 -1.7370  1.0885  1.0745
29331SOL    HW293830   7.619   4.147  -0.034 -0.7029 -0.5074  1.4400
29332SOL     OW93831   7.721   1.201   5.589  0.3536  0.7708 -0.3592
29332SOL    HW193832   7.637   1.157   5.584  1.3464 -1.5422  1.6450
29332SOL    HW293833   7.760   1.187   5.502 -0.9765  1.2614 -1.0713
29333SOL     OW93834   9.526   4.482   6.054 -0.4381 -0.2577  0.4450
29333SOL    HW193835   9.551   4.407   6.000 -0.8779 -0.9601  1.1907
29333SOL    HW293836   9.607   4.532   6.064 -0.6139  0.6176 -1.9308
29334SOL     OW93837   5.527   3.048   0.963 -0.1350 -0.0513  0.1598
29334SOL    HW193838   5.565   3.136   0.960  0.5495 -0.3571 -0.9634
29334SOL    HW293839   5.594   2.992   0.923  0.4420 -1.4761  2.8750
29335SOL     OW93840   6.576   2.237   8.535 -0.6303  0.4453  0.6287
29335SOL    HW193841   6.521   2.316   8.526 -3.4111 -1.3295  0.7316
29335SOL    HW293842   6.629   2.254   8.612 -0.5922  2.4989  0.2152
29336SOL     OW93843   1.340   0.704  10.100  0.0160 -0.3257 -0.1082
29336SOL    HW193844   1.433   0.720  10.085  0.3976 -1.7108  0.6062
29336SOL    HW293845   1.332   0.609  10.106 -1.0800 -0.1803  1.9410
29337SOL     OW93846   1.638   4.719   2.288  0.3830 -0.1881 -0.2489
29337SOL    HW193847   1.600   4.643   2.333 -1.0464  0.2880 -0.6002
29337SOL    HW293848   1.633   4.696   2.195  1.9352 -0.5382 -0.2708
29338SOL     OW93849   3.776   6.676   4.719 -0.1450 -0.0615 -0.0136
29338SOL    HW193850   3.723   6.753   4.741  1.2792  1.2335 -0.9554
29338SOL    HW293851   3.783   6.677   4.624 -1.2848 -2.2178 -0.1977
29339SOL     OW93852   8.795   3.782   8.423 -0.1663  0.0953 -0.6393
29339SOL    HW193853   8.761   3.872   8.423  0.0814  0.2282  1.0539
29339SOL    HW293854   8.720   3.729   8.451  0.2610  0.0615  0.4876
29340SOL     OW93855   3.075   3.457   1.036 -0.6941  0.1456  0.0654
29340SOL    HW193856   3.088   3.417   0.950  1.1246 -1.1868  0.8975
29340SOL    HW293857   3.069   3.383   1.096 -0.1117  1.0740  1.3094
29341SOL     OW93858   1.057   7.766   2.864  0.0559 -0.3583  0.0885
29341SOL    HW193859   1.024   7.824   2.795  1.9971 -0.7750 -1.3041
29341SOL    HW293860   1.014   7.682   2.849 -0.9944  0.0670  0.6401
29342SOL     OW93861   9.972   4.303   6.575  0.2708  0.1081 -0.3912
29342SOL    HW193862   9.995   4.388   6.613 -2.4217  1.3500 -1.2857
29342SOL    HW293863  10.055   4.256   6.570  1.4713  1.5743  2.7166
29343SOL     OW93864   6.997   6.506  10.296 -0.2234 -0.1914  0.1267
29343SOL    HW193865   7.042   6.422  10.286 -1.3387 -0.7544 -0.2914
29343SOL    HW293866   6.940   6.513  10.220 -1.3274  0.1993  0.9629
29344SOL     OW93867   2.340   2.836   6.075  0.3496  0.0447 -0.7174
29344SOL    HW193868   2.405   2.876   6.017  0.8401  0.6435  0.2123
29344SOL    HW293869   2.331   2.899   6.147  2.4333 -2.1857  1.7155
29345SOL     OW93870   3.362  10.645   0.858 -0.5378  0.1092 -0.7085
29345SOL    HW193871   3.288  10.671   0.804 -0.0883  0.1170 -1.3370
29345SOL    HW293872   3.357  10.549   0.861 -0.5701  0.1097 -0.7503
29346SOL     OW93873   0.874   6.142   2.146 -0.6107  0.5450 -0.7073
29346SOL    HW193874   0.862   6.237   2.141 -0.3597  0.5727 -0.7965
29346SOL    HW293875   0.923   6.120   2.066 -0.4829  0.3704 -0.5813
29347SOL     OW93876   7.369  10.087   4.999  0.3300  0.0955  0.5437
29347SOL    HW193877   7.437  10.083   5.067 -0.4091  0.6805  1.3410
29347SOL    HW293878   7.287  10.096   5.048 -0.5010 -2.0220 -0.3181
29348SOL     OW93879   0.231   4.190   2.522 -0.0216  0.4898  0.0259
29348SOL    HW193880   0.276   4.271   2.499 -0.9545  1.0464  0.1060
29348SOL    HW293881   0.239   4.184   2.617  1.1815 -0.2119 -0.1020
29349SOL     OW93882   6.217   9.895   1.076 -0.4256 -0.8431 -0.0721
29349SOL    HW193883   6.290   9.861   1.023 -1.0417  1.5530 -2.6978
29349SOL    HW293884   6.139   9.856   1.037 -0.7682 -0.8121  0.5704
29350SOL     OW93885   3.377  10.235   4.328  0.1192 -0.2465 -0.5209
29350SOL    HW193886   3.436  10.194   4.264 -0.0288  0.0619 -0.8590
29350SOL    HW293887   3.290  10.222   4.291 -0.0091 -0.5059 -0.1323
29351SOL     OW93888   6.005   2.579   4.180  1.1098  0.6428 -0.8534
29351SOL    HW193889   5.940   2.623   4.234  1.1289  0.2983 -0.5455
29351SOL    HW293890   5.961   2.561   4.097 -0.2376 -2.2962  0.3395
29352SOL     OW93891   0.971   4.161   3.738  0.0882 -0.4500  0.2698
29352SOL    HW193892   0.968   4.066   3.749 -1.2895 -0.6038 -1.0301
29352SOL    HW293893   1.023   4.193   3.812 -0.3103 -2.1170  1.3139
29353SOL     OW93894   4.424   8.721   7.346  0.0360 -0.2213 -0.3187
29353SOL    HW193895   4.497   8.777   7.319  0.1581 -0.2173  0.0102
29353SOL    HW293896   4.368   8.716   7.269  0.3932 -0.2409 -0.5826
29354SOL     OW93897   5.134   7.155   0.498 -0.1859 -0.0216  0.1387
29354SOL    HW193898   5.108   7.130   0.410  0.6090  0.6162 -0.2891
29354SOL    HW293899   5.085   7.096   0.556 -1.6193  0.3328 -0.6744
29355SOL     OW93900   6.713   4.123   3.523 -0.7343 -0.3320  0.0449
29355SOL    HW193901   6.789   4.081   3.483  0.2911  2.3090 -1.0557
29355SOL    HW293902   6.646   4.055   3.525  1.2448 -2.4138 -0.0907
29356SOL     OW93903   7.525   5.398   4.753 -0.1580 -0.0731 -0.3246
29356SOL    HW193904   7.530   5.432   4.843  0.0989 -0.3315 -0.2414
29356SOL    HW293905   7.611   5.358   4.738 -0.7398 -1.4571 -0.1132
29357SOL     OW93906   7.816   0.205   4.443 -0.3042 -0.0117  0.0731
29357SOL    HW193907   7.853   0.182   4.528  0.9222 -2.5648 -1.0105
29357SOL    HW293908   7.874   0.273   4.408  1.2205 -1.3232 -0.0435
29358SOL     OW93909   6.236   3.468   9.679 -0.1797 -0.3186  0.5100
29358SOL    HW193910   6.210   3.396   9.622  0.2498 -0.7625  0.8715
29358SOL    HW293911   6.172   3.537   9.661  1.2965  0.4919 -2.2853
29359SOL     OW93912   0.866   4.733  10.557 -0.8013  0.0218  0.7469
29359SOL    HW193913   0.824   4.778  10.484 -1.4339 -0.8593  0.5414
29359SOL    HW293914   0.799   4.671  10.588  0.9312 -2.8467 -0.8500
29360SOL     OW93915   7.947  10.004   1.748 -0.0336  0.3193  0.3742
29360SOL    HW193916   7.953   9.922   1.698  0.6927 -0.7659  2.1548
29360SOL    HW293917   8.035  10.016   1.784 -0.7458  0.5972  2.0776
29361SOL     OW93918   0.964   7.644   9.424  0.0578  0.3070  0.4738
29361SOL    HW193919   0.958   7.599   9.508 -1.5833 -2.2132 -0.8699
29361SOL    HW293920   1.050   7.619   9.390 -0.4889 -1.1936  0.1264
29362SOL     OW93921   1.727   6.556   9.933 -1.0167 -0.4386 -0.0397
29362SOL    HW193922   1.733   6.468   9.971 -1.5385 -0.2706  0.4400
29362SOL    HW293923   1.811   6.596   9.953 -0.2028 -1.3073 -1.5067
29363SOL     OW93924   6.470   4.400   1.135 -0.1796  0.3729  0.2800
29363SOL    HW193925   6.414   4.367   1.205  0.5225 -0.5257  0.4433
29363SOL    HW293926   6.555   4.416   1.177  0.9746 -2.3902 -0.7182
29364SOL     OW93927   7.327   1.982   6.993 -0.3758  0.3119  0.0561
29364SOL    HW193928   7.371   1.909   7.037  0.6608  0.1635 -1.1592
29364SOL    HW293929   7.305   1.948   6.906  1.7340  1.9001 -1.2020
29365SOL     OW93930   8.664   9.128   7.795  0.4064  0.1543 -0.4848
29365SOL    HW193931   8.639   9.215   7.827  1.0923 -0.3000  1.3907
29365SOL    HW293932   8.639   9.068   7.865  4.4850 -0.5796  0.6103
29366SOL     OW93933   1.240   6.261   6.063  0.2506  0.6906  0.4391
29366SOL    HW193934   1.186   6.335   6.088  0.4101  0.8082  0.4336
29366SOL    HW293935   1.242   6.205   6.141 -0.6980  0.1952  0.1221
29367SOL     OW93936   8.949   9.480   1.302 -0.1182  0.4406  0.2954
29367SOL    HW193937   8.988   9.562   1.333 -1.1536  1.6516 -1.4242
29367SOL    HW293938   9.021   9.435   1.258  0.5247  0.2719  1.4792
29368SOL     OW93939  10.245   1.156   6.152 -0.4326  0.5661  0.3133
29368SOL    HW193940  10.335   1.123   6.154 -0.7397 -0.3729 -0.2892
29368SOL    HW293941  10.203   1.113   6.226 -0.5591  0.4405  0.1700
29369SOL     OW93942   3.077   1.745   7.526 -0.0871 -0.1535  0.5517
29369SOL    HW193943   3.054   1.816   7.466  1.5234 -0.3321 -0.3550
29369SOL    HW293944   3.035   1.668   7.489 -0.3671  0.0164  0.5189
29370SOL     OW93945   5.429   9.927   6.143 -0.0858 -0.4362  0.0569
29370SOL    HW193946   5.403   9.836   6.128  0.2037 -0.4082 -0.6045
29370SOL    HW293947   5.356   9.964   6.193  0.7452 -1.6094  2.2753
29371SOL     OW93948   0.496   7.416   9.498  0.4906 -0.2092  0.2894
29371SOL    HW193949   0.427   7.360   9.462 -1.5940  0.3931  3.0112
29371SOL    HW293950   0.569   7.357   9.515 -0.2399 -1.3426 -0.3795
29372SOL     OW93951   7.298   3.807  10.077 -0.0430  0.0076  0.1916
29372SOL    HW193952   7.227   3.762  10.123  2.0527 -2.9818  0.7948
29372SOL    HW293953   7.364   3.824  10.145 -0.4421  3.6473 -0.1391
29373SOL     OW93954   3.592   6.020   8.728  0.5118 -0.0387 -0.2603
29373SOL    HW193955   3.509   6.015   8.680  0.3700  0.0481 -0.0279
29373SOL    HW293956   3.612   6.113   8.732  0.4752 -0.0387 -0.0725
29374SOL     OW93957   1.982   3.763   4.794  0.0256 -0.2513  0.0886
29374SOL    HW193958   2.049   3.706   4.757 -1.4283 -1.9603 -0.0569
29374SOL    HW293959   1.908   3.754   4.733  0.1693  2.9530 -0.7617
29375SOL     OW93960   3.953   9.470   2.339  0.3677  0.1068 -0.1694
29375SOL    HW193961   3.868   9.428   2.330  0.9484 -0.8741 -1.3131
29375SOL    HW293962   3.934   9.555   2.378 -1.1092 -0.1720 -0.2358
29376SOL     OW93963   8.416   9.130   1.625 -0.4970 -0.3224  0.3330
29376SOL    HW193964   8.451   9.179   1.700 -0.9606 -0.7497  0.8361
29376SOL    HW293965   8.379   9.050   1.664 -0.7295 -0.5508 -0.3535
29377SOL     OW93966   4.411   5.686   9.711  0.1169  0.5434  0.0423
29377SOL    HW193967   4.338   5.687   9.649  1.1517  2.2556 -1.2379
29377SOL    HW293968   4.482   5.642   9.664  0.3158  0.0657  0.7753
29378SOL     OW93969   0.491   4.962   9.376 -0.5041  0.1751 -0.2794
29378SOL    HW193970   0.537   4.979   9.459 -1.2217  1.4907 -0.1225
29378SOL    HW293971   0.398   4.960   9.400 -0.9495  3.0174 -1.3381
29379SOL     OW93972   5.577   6.364   7.655  0.0253 -0.5394  0.1747
29379SOL    HW193973   5.545   6.445   7.617  1.1011  0.9342  2.2318
29379SOL    HW293974   5.667   6.383   7.681 -0.2519 -1.7870  2.3244
29380SOL     OW93975   1.145   8.080  10.698 -0.2483 -0.1671  0.0102
29380SOL    HW193976   1.146   8.175  10.694  0.2495 -0.1976 -0.9415
29380SOL    HW293977   1.054   8.055  10.681  0.1079  0.0689 -2.6710
29381SOL     OW93978   9.113   8.358  10.065 -0.3381 -0.0689  0.0032
29381SOL    HW193979   9.201   8.394  10.070 -0.7110  0.6624  3.2425
29381SOL    HW293980   9.126   8.264  10.078 -0.0812  0.1697  1.6224
29382SOL     OW93981   0.636   9.823   7.773 -0.1286  0.2118  0.8758
29382SOL    HW193982   0.616   9.734   7.744 -0.3194  0.0780  1.4239
29382SOL    HW293983   0.610   9.825   7.865 -0.8895  1.0805  0.6470
29383SOL     OW93984   2.214   4.194   5.620 -0.1378  0.0740  0.4621
29383SOL    HW193985   2.303   4.158   5.615 -0.8162 -1.5376 -1.0694
29383SOL    HW293986   2.158   4.117   5.624 -1.5923  1.0084 -1.1812
29384SOL     OW93987   4.003   6.480   4.704 -0.0236 -0.2623  0.3710
29384SOL    HW193988   3.943   6.407   4.691 -0.9926  0.6111 -0.2981
29384SOL    HW293989   3.946   6.551   4.736  1.0279 -0.0422  1.8604
29385SOL     OW93990   2.526   4.183   7.303  0.5324 -0.1065 -0.8037
29385SOL    HW193991   2.499   4.094   7.279 -2.2941 -0.0645  1.6696
29385SOL    HW293992   2.463   4.240   7.259 -0.1220  0.3826  0.7124
29386SOL     OW93993   9.831   2.334   2.667 -0.2250  0.2224  0.3187
29386SOL    HW193994   9.919   2.324   2.704  0.2433 -0.4560 -0.8946
29386SOL    HW293995   9.816   2.428   2.665 -0.0143  0.2983  1.6078
29387SOL     OW93996   6.979   1.367   3.149 -0.0799 -0.1698  0.3142
29387SOL    HW193997   7.060   1.418   3.158 -0.1174 -0.3171  1.8583
29387SOL    HW293998   7.008   1.281   3.118  0.6122 -0.7813  2.4945
29388SOL     OW93999   8.646   1.994   4.132 -0.4857 -0.5216 -0.2516
29388SOL    HW194000   8.610   1.946   4.057 -2.4090  0.6840 -0.1672
29388SOL    HW294001   8.691   2.069   4.093 -0.3721 -0.5840 -0.2418
29389SOL     OW94002   7.703   1.999   5.992  0.1704 -0.1735  0.4955
29389SOL    HW194003   7.713   1.911   5.957  2.3353  0.1101  0.2675
29389SOL    HW294004   7.733   1.993   6.082  1.8894  0.6236  0.0067
29390SOL     OW94005  10.026   5.822   2.231 -0.4862  0.4509  0.0390
29390SOL    HW194006  10.059   5.881   2.299 -2.8495  0.1194  1.5981
29390SOL    HW294007  10.097   5.759   2.218  0.5674  1.3294  1.1956
29391SOL     OW94008   8.581   8.931   4.602  0.2889 -0.1908 -0.1100
29391SOL    HW194009   8.534   8.869   4.658  1.6672 -0.5765  0.6733
29391SOL    HW294010   8.621   8.992   4.663  2.1382 -0.8439 -0.5977
29392SOL     OW94011   0.648   1.433   3.837 -0.1685  0.0753  0.0513
29392SOL    HW194012   0.720   1.370   3.844  0.8288  0.9860 -1.5583
29392SOL    HW294013   0.576   1.383   3.799  0.9919  0.1186 -2.3668
29393SOL     OW94014   1.112   6.224   1.113  0.3669  0.5355 -0.1169
29393SOL    HW194015   1.173   6.242   1.041  0.6067  0.1678 -0.0077
29393SOL    HW294016   1.027   6.214   1.070  0.1914  2.0983 -0.1627
29394SOL     OW94017   4.533   6.081  10.663  0.1582  0.1154 -0.0228
29394SOL    HW194018   4.438   6.091  10.671  0.2496  0.0199  1.3823
29394SOL    HW294019   4.557   6.139  10.590 -1.1346 -0.9248 -1.3555
29395SOL     OW94020   3.869   9.802  10.129 -0.3039 -0.1938  0.2430
29395SOL    HW194021   3.916   9.768  10.205  0.4772  0.0003 -0.1502
29395SOL    HW294022   3.879   9.897  10.135 -1.0995 -0.1074  0.4385
29396SOL     OW94023   3.889   6.343  10.137  0.0274  0.6680  0.3926
29396SOL    HW194024   3.964   6.403  10.146 -1.3042  2.6042 -0.7436
29396SOL    HW294025   3.921   6.275  10.077  1.3486  0.5917  1.1352
29397SOL     OW94026  10.675   9.725   5.216 -0.2362  0.2777  0.3581
29397SOL    HW194027  10.748   9.705   5.157  0.3642  1.3458  0.7163
29397SOL    HW294028  10.597   9.702   5.166  0.3071 -0.1603 -0.3193
29398SOL     OW94029   2.300  10.512   8.549  0.1715  0.4053  0.5359
29398SOL    HW194030   2.346  10.552   8.476 -0.6023  0.9111  0.3077
29398SOL    HW294031   2.333  10.557   8.627 -1.0629  1.8822  0.2363
29399SOL     OW94032   1.806   1.058   1.096 -0.0165  0.5354  0.2302
29399SOL    HW194033   1.883   1.031   1.047  0.5741  0.4882  1.1622
29399SOL    HW294034   1.741   0.991   1.078  0.4554  0.1026  0.1413
29400SOL     OW94035   4.932  10.507   2.334  0.2021  0.4947 -0.1014
29400SOL    HW194036   4.837  10.503   2.343  0.1037  0.2631 -1.1356
29400SOL    HW294037   4.962  10.419   2.354  0.2045  0.5727  0.2443
29401SOL     OW94038   9.994   0.913   8.559  0.2732 -0.1508  0.5564
29401SOL    HW194039   9.907   0.952   8.553 -0.4802 -1.9008 -1.0029
29401SOL    HW294040  10.048   0.964   8.499  0.3869  0.9512  1.5421
29402SOL     OW94041   9.548   2.484   5.609 -0.3543 -0.3299 -0.2551
29402SOL    HW194042   9.607   2.484   5.534 -0.1723 -1.3869 -0.1289
29402SOL    HW294043   9.469   2.440   5.577  0.5807 -2.9615  0.7723
29403SOL     OW94044   2.609   9.347   5.111 -0.1053 -0.1042 -0.9717
29403SOL    HW194045   2.538   9.284   5.100 -0.9952  0.7727 -0.3797
29403SOL    HW294046   2.623   9.384   5.023 -0.9313  0.2841 -0.9487
29404SOL     OW94047   8.209   4.198   2.665 -0.0792  0.1347  0.3021
29404SOL    HW194048   8.281   4.252   2.699  0.3297  1.3166 -2.1696
29404SOL    HW294049   8.150   4.261   2.625 -1.5748 -0.9908  0.6728
29405SOL     OW94050   6.652   1.984   3.063 -0.0395  0.5018  0.0165
29405SOL    HW194051   6.704   1.938   2.997 -0.6575 -1.1828  0.6579
29405SOL    HW294052   6.571   2.008   3.017 -0.4048 -0.5281  0.1075
29406SOL     OW94053   4.835   8.198   3.950 -0.5499 -0.0030 -0.1964
29406SOL    HW194054   4.926   8.208   3.920 -0.4130 -0.2489  0.1317
29406SOL    HW294055   4.797   8.135   3.888 -0.0834 -1.0066  0.4946
29407SOL     OW94056   5.530   5.563   0.158 -0.1711  0.2033 -0.7205
29407SOL    HW194057   5.535   5.657   0.178 -0.1912  0.0899 -0.1450
29407SOL    HW294058   5.615   5.543   0.119  1.1293 -0.1638  2.0666
29408SOL     OW94059   8.629   7.050   8.866 -0.1085  0.2962  0.0405
29408SOL    HW194060   8.596   6.986   8.929 -0.1635  1.5373  1.3369
29408SOL    HW294061   8.550   7.088   8.827 -0.2438  2.0001  1.8356
29409SOL     OW94062   8.872   3.316  10.591  0.3666 -0.2196  0.0708
29409SOL    HW194063   8.865   3.335  10.498 -1.0843  0.4087  0.2833
29409SOL    HW294064   8.824   3.234  10.603  2.2730 -1.4250 -0.0148
29410SOL     OW94065   5.109   5.802   0.287 -0.5552  0.9702 -0.4423
29410SOL    HW194066   5.037   5.742   0.306  1.3610 -0.9781  1.1216
29410SOL    HW294067   5.155   5.763   0.213 -0.1650  1.3361 -0.4006
29411SOL     OW94068   1.187   6.389   3.023  0.1484 -0.4503 -0.4693
29411SOL    HW194069   1.122   6.410   2.956  0.6096  1.9499 -0.2539
29411SOL    HW294070   1.267   6.434   2.995  0.0954  1.4880  2.0849
29412SOL     OW94071   7.530   4.388   3.993 -0.4691  0.1644  0.0624
29412SOL    HW194072   7.487   4.361   3.912  0.7402 -0.4099 -0.4139
29412SOL    HW294073   7.540   4.308   4.044  0.2633  0.2306  0.0419
29413SOL     OW94074   1.159   1.821   0.459 -0.8276 -0.1105 -0.3955
29413SOL    HW194075   1.071   1.792   0.438 -1.2807  0.7081  0.3214
29413SOL    HW294076   1.216   1.757   0.417 -1.7706 -1.1288 -0.1723
29414SOL     OW94077   9.376   1.941   8.277  0.3500  0.2879  0.4372
29414SOL    HW194078   9.407   1.963   8.189 -0.9481 -1.2494 -0.4634
29414SOL    HW294079   9.332   2.020   8.308  0.4063  0.6849 -0.4747
29415SOL     OW94080   8.898   9.246   3.148  0.3320  0.5478  0.0366
29415SOL    HW194081   8.892   9.211   3.237 -0.8542  0.6556  0.0119
29415SOL    HW294082   8.813   9.229   3.109  0.5663  1.2239 -0.8156
29416SOL     OW94083   4.151   2.529   4.886 -0.3213 -0.5845  0.4691
29416SOL    HW194084   4.100   2.553   4.964 -0.9790 -1.3065  0.2727
29416SOL    HW294085   4.141   2.434   4.879  1.0651 -0.7465  0.4252
29417SOL     OW94086   1.742  10.099   6.722 -0.0874  0.2279  0.0261
29417SOL    HW194087   1.769  10.187   6.695  2.7380  0.0737  1.9117
29417SOL    HW294088   1.795  10.081   6.800 -0.1271 -3.3839 -0.6250
29418SOL     OW94089  10.096   7.921   1.650 -0.1726 -0.3452  0.1433
29418SOL    HW194090  10.036   7.863   1.602 -0.0569  0.5081 -1.0724
29418SOL    HW294091  10.045   8.000   1.667 -0.1483 -0.5625  1.2899
29419SOL     OW94092   8.338  10.596  10.218 -0.3733  0.0526  0.5679
29419SOL    HW194093   8.353  10.506  10.247  0.6957 -0.3740 -1.1226
29419SOL    HW294094   8.308  10.587  10.127 -0.8461  1.3901  0.5601
29420SOL     OW94095   8.784   1.515   4.857 -0.2958  0.7007 -0.5243
29420SOL    HW194096   8.724   1.590   4.852 -1.2436 -0.0328 -0.3364
29420SOL    HW294097   8.863   1.546   4.813 -0.7999  1.6970 -0.7769
29421SOL     OW94098   2.533   1.986   3.459 -0.1715  0.0832 -0.1454
29421SOL    HW194099   2.512   2.079   3.458 -1.6681 -0.2240  0.4257
29421SOL    HW294100   2.627   1.982   3.441 -0.1890  1.6628 -0.6658
29422SOL     OW94101   2.404   8.892   9.784 -0.2984 -0.5858 -0.2725
29422SOL    HW194102   2.366   8.884   9.871 -0.0287  0.1096 -0.0903
29422SOL    HW294103   2.498   8.881   9.797 -0.2963 -0.9498 -0.5455
29423SOL     OW94104  10.350   6.435   2.270 -0.2387 -0.3792 -0.3420
29423SOL    HW194105  10.285   6.488   2.317 -0.2078 -0.6715  0.0280
29423SOL    HW294106  10.310   6.349   2.263  0.1915 -0.6164  0.0639
29424SOL     OW94107   0.852   3.050  10.019 -0.1368 -0.3290 -0.7967
29424SOL    HW194108   0.922   3.113  10.039 -0.7763 -0.2317  1.4043
29424SOL    HW294109   0.822   3.075   9.932 -0.2822  2.3615 -0.0678
29425SOL     OW94110   7.721   8.792   5.376 -0.0894 -0.2585 -0.5696
29425SOL    HW194111   7.733   8.842   5.294 -0.6079  1.0978  0.1454
29425SOL    HW294112   7.658   8.844   5.426 -0.9364 -1.8537  0.0777
29426SOL     OW94113   8.350   9.728   4.064 -0.0603 -0.0233  0.6797
29426SOL    HW194114   8.326   9.821   4.065 -0.8701 -0.2241  1.7339
29426SOL    HW294115   8.277   9.685   4.020  0.4148 -0.1443 -0.0033
29427SOL     OW94116   3.301   1.038   2.290 -0.3444  0.3911 -0.1692
29427SOL    HW194117   3.253   1.058   2.370  0.9538  0.0468  0.7372
29427SOL    HW294118   3.249   0.970   2.247 -0.2951 -0.5751  1.2025
29428SOL     OW94119   8.467   8.499   3.460 -0.0406  0.2140 -0.6032
29428SOL    HW194120   8.434   8.446   3.532 -0.7365  0.8661 -0.4333
29428SOL    HW294121   8.494   8.581   3.500 -2.3243  1.3927 -1.3020
29429SOL     OW94122   6.315   4.095   3.899 -0.4536  0.0332 -0.1687
29429SOL    HW194123   6.354   4.027   3.844 -2.1364 -1.1571  0.0419
29429SOL    HW294124   6.274   4.156   3.837  1.1347  0.9550 -0.3607
29430SOL     OW94125   9.125   9.138   5.683  0.0293 -0.2959  0.3548
29430SOL    HW194126   9.120   9.214   5.742 -1.4166  0.3547 -0.5376
29430SOL    HW294127   9.064   9.159   5.612  0.6454 -1.6973 -0.6372
29431SOL     OW94128   8.635   4.994   8.264 -0.4415  0.7817  0.4406
29431SOL    HW194129   8.584   4.942   8.201  1.5922 -0.5442 -0.2419
29431SOL    HW294130   8.680   5.059   8.210 -1.1059  1.6772  0.9673
29432SOL     OW94131   3.010   5.143  10.580 -0.2797  0.2875  0.5198
29432SOL    HW194132   2.972   5.117  10.664  0.3355 -0.2547  0.6315
29432SOL    HW294133   3.104   5.147  10.596 -0.2553  1.4881  0.2049
29433SOL     OW94134   9.156   7.662   8.216 -0.5522 -0.1658 -0.1849
29433SOL    HW194135   9.149   7.613   8.298 -0.6530  1.5939  0.9076
29433SOL    HW294136   9.072   7.647   8.172 -1.2819  0.4141  0.9640
29434SOL     OW94137   8.760   0.738   7.831  0.1221 -0.1695 -0.0165
29434SOL    HW194138   8.737   0.804   7.766 -0.6327  0.1742  0.5744
29434SOL    HW294139   8.819   0.784   7.892 -1.3603  0.3535  1.0774
29435SOL     OW94140   6.875   0.024   9.623 -0.0391  0.2481 -0.5290
29435SOL    HW194141   6.893  -0.066   9.651 -0.9630  0.7381  1.8640
29435SOL    HW294142   6.823   0.061   9.694 -3.6032  1.3350 -3.4129
29436SOL     OW94143   0.536   8.054   0.698 -0.6048 -0.0156  0.6031
29436SOL    HW194144   0.610   8.036   0.756 -0.4078 -0.3710  0.2516
29436SOL    HW294145   0.487   8.123   0.742 -1.2457 -1.2506  1.8866
29437SOL     OW94146   3.003   3.448   6.125 -0.3462 -0.1190  0.0757
29437SOL    HW194147   3.004   3.399   6.042 -0.2815 -1.2338  0.7134
29437SOL    HW294148   2.967   3.386   6.189  0.7695  0.2988  1.1403
29438SOL     OW94149   5.117   5.179   7.871  0.7217  0.3070  0.1748
29438SOL    HW194150   5.098   5.220   7.955 -0.1367  2.7257 -1.1101
29438SOL    HW294151   5.037   5.190   7.820  1.4435 -0.4932 -1.2057
29439SOL     OW94152   7.454   7.944   5.988 -0.0096  0.1504 -0.2916
29439SOL    HW194153   7.507   7.863   5.987  2.3259  1.5813 -0.6832
29439SOL    HW294154   7.424   7.950   6.079 -0.9068 -1.5331 -0.4289
29440SOL     OW94155  10.689   9.459   1.792  0.8127  0.6327  0.3587
29440SOL    HW194156  10.752   9.390   1.772  0.7656 -0.0675  2.4063
29440SOL    HW294157  10.611   9.412   1.823  0.7359  1.5650  1.6807
29441SOL     OW94158   2.780   1.650   3.084 -0.2706  0.4825 -0.6468
29441SOL    HW194159   2.691   1.636   3.053  0.0186 -0.3316 -1.1309
29441SOL    HW294160   2.770   1.672   3.177 -0.8535 -1.9248 -0.0867
29442SOL     OW94161   1.241  10.055   4.125 -0.3882 -0.3378 -0.5077
29442SOL    HW194162   1.331  10.023   4.136 -0.3644 -0.5548 -1.2928
29442SOL    HW294163   1.237  10.134   4.180  0.0928 -0.6708  0.0161
29443SOL     OW94164   9.989   2.014   1.962 -0.2077 -0.0079  0.5576
29443SOL    HW194165   9.992   2.098   2.008 -0.5895  1.7712 -2.4634
29443SOL    HW294166  10.080   1.987   1.955 -0.0720  0.1992  1.3551
29444SOL     OW94167   3.048   6.639   2.784  0.4490 -0.1035 -0.4216
29444SOL    HW194168   3.015   6.549   2.783  3.8889 -1.5351 -1.9437
29444SOL    HW294169   3.023   6.675   2.699 -1.4089  0.6471  0.4036
29445SOL     OW94170   6.019   1.317   8.592 -0.0598 -0.1308  0.0472
29445SOL    HW194171   6.023   1.221   8.595 -1.6841 -0.2857 -1.0684
29445SOL    HW294172   5.934   1.338   8.631 -1.0992  0.6019 -2.3970
29446SOL     OW94173   7.296   3.052   8.751 -0.3397 -0.2111 -0.1958
29446SOL    HW194174   7.226   3.053   8.817  0.6965  0.9023  0.9431
29446SOL    HW294175   7.362   2.993   8.787 -0.3147 -0.6034 -0.8648
29447SOL     OW94176   5.954   6.208   7.005 -0.1606  0.6399 -0.1676
29447SOL    HW194177   5.954   6.200   7.101  0.2970  0.5753 -0.1713
29447SOL    HW294178   5.968   6.301   6.989 -0.1625  0.6390 -0.1746
29448SOL     OW94179   5.048   3.721   7.601 -0.4467 -0.2926  0.3752
29448SOL    HW194180   4.992   3.773   7.660  1.6931  1.0809  1.3092
29448SOL    HW294181   5.077   3.783   7.535 -1.3564 -1.4066 -1.1241
29449SOL     OW94182   0.129   9.737   8.578  0.5673 -0.5090  0.0394
29449SOL    HW194183   0.122   9.650   8.539 -0.7168 -0.1889 -0.5076
29449SOL    HW294184   0.212   9.735   8.625  0.3490 -2.2008  0.4525
29450SOL     OW94185   7.610   6.810   4.099  0.3010  0.0041 -0.4640
29450SOL    HW194186   7.572   6.747   4.037  0.8197 -0.5369 -0.2462
29450SOL    HW294187   7.700   6.779   4.111  0.0466 -0.2114  0.9832
29451SOL     OW94188   4.567   7.754  10.203  0.1182 -0.1534  0.0208
29451SOL    HW194189   4.531   7.843  10.202 -2.5189 -1.1501 -1.4696
29451SOL    HW294190   4.625   7.752  10.127 -0.2066  0.1496 -0.2425
29452SOL     OW94191   2.442   3.549  10.038 -0.5833  0.3157  0.2335
29452SOL    HW194192   2.505   3.589   9.978 -0.2014 -0.6669 -0.0563
29452SOL    HW294193   2.494   3.485  10.087 -1.2125 -0.0221  0.4771
29453SOL     OW94194   2.265  10.369   3.426  0.1380 -0.0649  0.2286
29453SOL    HW194195   2.218  10.287   3.412  0.5351 -0.4632  1.2131
29453SOL    HW294196   2.356  10.344   3.437  0.0899  0.3769  1.7923
29454SOL     OW94197   1.122   4.202   6.921  0.2651  0.4020 -0.3035
29454SOL    HW194198   1.057   4.222   6.988 -3.2680  2.2103 -3.8588
29454SOL    HW294199   1.197   4.256   6.943 -0.4023  0.3579  2.4900
29455SOL     OW94200   1.087   0.501   8.882  0.0011  0.9129 -0.0230
29455SOL    HW194201   1.030   0.537   8.813 -1.4101 -0.7752  0.1723
29455SOL    HW294202   1.133   0.429   8.839 -0.8606 -0.1266  0.7609
29456SOL     OW94203   8.826   5.074   5.119  0.8731  0.4904 -0.0099
29456SOL    HW194204   8.831   5.132   5.195 -0.8069  0.6409  0.0332
29456SOL    HW294205   8.776   4.998   5.150 -0.4571  0.8681 -1.1116
29457SOL     OW94206   0.174   8.072   9.080 -0.4202 -0.2679 -0.5452
29457SOL    HW194207   0.130   8.124   9.148  0.7969  0.6530 -0.4197
29457SOL    HW294208   0.163   7.982   9.108 -0.9552  0.0271  0.2435
29458SOL     OW94209   5.878   2.210   1.951 -0.1338  0.1350 -0.2100
29458SOL    HW194210   5.899   2.275   2.017  1.5633  2.4577 -2.7740
29458SOL    HW294211   5.954   2.152   1.950 -0.0638  0.2256 -0.2296
29459SOL     OW94212   7.162   7.670   7.051  0.0394 -0.1150 -0.4698
29459SOL    HW194213   7.151   7.692   7.144  1.0701 -0.1870 -0.3135
29459SOL    HW294214   7.150   7.752   7.005 -0.5184 -0.0853 -0.2722
29460SOL     OW94215   3.683   7.191   3.076 -0.7905  1.1627  0.0286
29460SOL    HW194216   3.637   7.234   3.003 -1.9421 -2.0642 -1.3236
29460SOL    HW294217   3.773   7.222   3.069 -1.1869  2.0463 -1.9044
29461SOL     OW94218   1.045   9.813  10.105  0.9398  0.0475  0.2397
29461SOL    HW194219   1.100   9.891  10.117  1.0479 -0.0721  0.5152
29461SOL    HW294220   1.022   9.786  10.193  1.5720 -0.7073  0.1800
29462SOL     OW94221   9.635   8.872   0.286  0.3214  0.4711 -0.6251
29462SOL    HW194222   9.560   8.861   0.344  0.0014  0.0859 -1.1003
29462SOL    HW294223   9.637   8.966   0.266  0.0303  0.5002 -0.5247
29463SOL     OW94224   7.089   4.845   8.804  0.1255 -0.4084 -0.5387
29463SOL    HW194225   7.080   4.878   8.894  1.7185 -0.8099 -0.2104
29463SOL    HW294226   7.174   4.801   8.803 -0.5373 -1.7346 -1.8389
29464SOL     OW94227   5.833   0.271   7.964  0.4030  0.3286 -0.2978
29464SOL    HW194228   5.764   0.243   8.025  0.3804  0.9764 -0.0109
29464SOL    HW294229   5.823   0.214   7.888 -0.5516  0.5018 -0.3179
29465SOL     OW94230   1.671   0.735   8.644 -0.3798 -0.1691 -0.2370
29465SOL    HW194231   1.644   0.724   8.735  0.0106  0.7820  0.0101
29465SOL    HW294232   1.591   0.720   8.593 -0.5309 -1.0126  0.2333
29466SOL     OW94233   7.423   2.352   1.377  0.1291 -0.4183 -0.5722
29466SOL    HW194234   7.327   2.345   1.383  0.2038 -0.5841  0.9079
29466SOL    HW294235   7.451   2.360   1.468  1.5155 -0.1084 -1.0141
29467SOL     OW94236   9.944   4.277   5.874  0.1480 -0.0309 -1.1439
29467SOL    HW194237  10.009   4.211   5.899 -1.5437 -1.6406 -0.7505
29467SOL    HW294238   9.935   4.332   5.952 -0.3545 -1.0171 -0.4811
29468SOL     OW94239   1.641  10.153   2.884  0.2324  0.0246  0.3330
29468SOL    HW194240   1.693  10.075   2.906  0.6968 -0.1970 -1.3602
29468SOL    HW294241   1.616  10.190   2.968 -0.8079 -2.4715  1.2157
29469SOL     OW94242   0.896   2.011   7.435 -0.0795 -0.2253  0.2925
29469SOL    HW194243   0.889   2.041   7.345 -0.6661 -1.3221 -0.0455
29469SOL    HW294244   0.968   2.062   7.472  1.6400 -1.2829 -1.4355
29470SOL     OW94245   1.007   0.846   9.414 -0.1031  0.4852 -0.4590
29470SOL    HW194246   0.915   0.839   9.437 -0.0933 -2.1177 -0.8833
29470SOL    HW294247   1.007   0.879   9.324 -0.5325  1.7132 -0.0238
29471SOL     OW94248   6.555   3.053   1.841  0.1795 -0.2914 -0.3879
29471SOL    HW194249   6.623   3.022   1.781 -0.4360  0.0695 -1.2820
29471SOL    HW294250   6.596   3.125   1.888  0.1622  0.4857 -1.5281
29472SOL     OW94251   6.700   9.031   5.310 -0.0084  0.0332 -0.3198
29472SOL    HW194252   6.708   8.965   5.379 -0.8971  0.5620  0.3191
29472SOL    HW294253   6.770   9.011   5.248  0.4024 -0.8448  0.4143
29473SOL     OW94254   2.913   7.418   1.741 -0.6778 -0.1593  0.2322
29473SOL    HW194255   2.836   7.361   1.752 -0.4422 -0.6642 -0.6304
29473SOL    HW294256   2.983   7.371   1.787 -0.6954 -0.1013  0.3186
29474SOL     OW94257   6.303   6.923   2.316  0.3790  0.7561 -0.1791
29474SOL    HW194258   6.335   6.947   2.403  2.1765  0.4672 -0.7311
29474SOL    HW294259   6.275   7.007   2.277 -0.3105  0.9031  0.5947
29475SOL     OW94260   6.048   1.264   9.706 -0.3798 -0.4686  0.4386
29475SOL    HW194261   6.039   1.204   9.631 -2.6570 -0.5345  0.6992
29475SOL    HW294262   6.131   1.238   9.747  2.2482  1.0661 -3.2679
29476SOL     OW94263   2.984   8.328   2.074  0.2105 -0.0807 -0.3144
29476SOL    HW194264   2.948   8.247   2.038  0.7887 -0.4438 -0.0840
29476SOL    HW294265   2.921   8.395   2.048  0.0915 -0.4880 -1.1227
29477SOL     OW94266   6.079   2.410   8.593 -0.6098 -0.0406 -0.1623
29477SOL    HW194267   6.027   2.467   8.537  0.5201  0.7434 -0.4418
29477SOL    HW294268   6.031   2.327   8.592 -0.9549  0.1302 -1.7841
29478SOL     OW94269   7.452   4.038   1.803  0.3458 -0.3748  0.2936
29478SOL    HW194270   7.358   4.022   1.814  0.3228 -0.3355  0.1459
29478SOL    HW294271   7.490   3.950   1.794  0.2880 -0.3771  0.0631
29479SOL     OW94272  10.333   2.524   5.737  0.0260 -0.5393 -0.2033
29479SOL    HW194273  10.345   2.610   5.696 -0.1762 -1.2747 -1.9020
29479SOL    HW294274  10.412   2.476   5.716  0.0813 -0.8288  0.6291
29480SOL     OW94275   9.206   3.476   6.673  0.1246  0.3127  0.3209
29480SOL    HW194276   9.129   3.468   6.616  0.9458 -2.0263 -0.5846
29480SOL    HW294277   9.270   3.417   6.634  2.0513  1.4655  1.6221
29481SOL     OW94278   4.555   0.457   6.522  0.6890 -0.6342  0.1416
29481SOL    HW194279   4.584   0.415   6.441  0.6420  0.8315 -0.6781
29481SOL    HW294280   4.628   0.515   6.546 -0.6128  1.5070 -0.7821
29482SOL     OW94281   9.972   1.329   8.149 -0.1026  0.4381  0.1518
29482SOL    HW194282   9.977   1.238   8.178  0.8907  0.7730  1.0744
29482SOL    HW294283  10.063   1.355   8.135 -0.4696  0.7509 -1.8941
29483SOL     OW94284   4.130   4.229   5.148 -0.5657 -0.0700 -0.2255
29483SOL    HW194285   4.164   4.270   5.068  1.0128 -0.5054  0.1890
29483SOL    HW294286   4.192   4.254   5.216 -0.9265 -1.1441  0.5175
29484SOL     OW94287   8.126   9.214   0.973 -0.1393  0.3092 -0.3973
29484SOL    HW194288   8.140   9.308   0.960  1.3324  0.1993  0.0971
29484SOL    HW294289   8.145   9.175   0.888  0.9548  0.3368 -0.1883
29485SOL     OW94290   3.002  10.384   5.340 -0.2260  0.1569  0.7519
29485SOL    HW194291   3.037  10.430   5.416 -1.8581  1.1117  0.9710
29485SOL    HW294292   2.921  10.344   5.371 -1.5579  1.5602 -0.7233
29486SOL     OW94293   6.634   9.592   8.686  0.2778 -0.3032  0.1668
29486SOL    HW194294   6.680   9.619   8.765  2.8319 -0.6997 -1.0617
29486SOL    HW294295   6.704   9.566   8.625 -1.3836  1.8220 -2.9521
29487SOL     OW94296   4.710   3.119   4.206 -0.4805  0.1123  0.1206
29487SOL    HW194297   4.743   3.133   4.295 -2.1694  2.2544  0.4848
29487SOL    HW294298   4.776   3.158   4.149  0.9901 -1.9383  0.2895
29488SOL     OW94299   0.512   9.861   7.411 -0.5315 -0.0017 -0.3743
29488SOL    HW194300   0.438   9.841   7.468  0.1575 -0.8701  0.2406
29488SOL    HW294301   0.553   9.938   7.451 -0.8879  0.2694 -0.5218
29489SOL     OW94302   2.681   0.377   8.438 -0.4844  0.1145 -0.4822
29489SOL    HW194303   2.698   0.289   8.403 -0.6290 -0.4123  0.7236
29489SOL    HW294304   2.767   0.419   8.440 -0.0138 -0.8491  1.1171
29490SOL     OW94305   9.693   5.702   1.737 -0.3476  0.2104  0.1565
29490SOL    HW194306   9.766   5.708   1.676  0.1465  1.5692  0.8340
29490SOL    HW294307   9.616   5.721   1.683 -0.0969 -0.1896 -0.3535
29491SOL     OW94308   1.238  10.517   3.863 -0.2176 -0.3572  0.0724
29491SOL    HW194309   1.229  10.490   3.771 -0.9843 -0.6316  0.2263
29491SOL    HW294310   1.181  10.458   3.911 -0.0259 -0.0330  0.7017
29492SOL     OW94311   1.261  10.704   8.441 -0.4235 -0.0263 -0.0847
29492SOL    HW194312   1.247  10.610   8.455 -2.1130  0.3804  1.2740
29492SOL    HW294313   1.177  10.736   8.407 -1.1823  1.5801  2.9611
29493SOL     OW94314   6.726   3.364  10.314 -0.3970 -0.6761 -0.8587
29493SOL    HW194315   6.661   3.300  10.284 -0.7101 -0.0629 -1.5179
29493SOL    HW294316   6.810   3.318  10.308 -0.5050 -0.7351 -2.2359
29494SOL     OW94317   0.639   2.777  10.333 -0.3157 -0.1121  1.0263
29494SOL    HW194318   0.585   2.814  10.402  0.4653  1.0910  1.0148
29494SOL    HW294319   0.689   2.707  10.376 -0.4488  0.0698  1.4821
29495SOL     OW94320   3.315   5.858   4.039 -0.4167 -0.4730  0.1204
29495SOL    HW194321   3.244   5.873   3.976  0.9651 -1.5177 -1.7917
29495SOL    HW294322   3.358   5.778   4.009  1.8082  0.3179  0.9423
29496SOL     OW94323   6.150   4.992   0.315 -0.2268  0.2930  0.1114
29496SOL    HW194324   6.114   4.910   0.284 -0.9879  0.4984  0.4367
29496SOL    HW294325   6.115   5.002   0.404  1.1745  0.1594  0.7094
29497SOL     OW94326   2.372   5.404   4.649 -0.1785 -0.1035  0.1244
29497SOL    HW194327   2.411   5.485   4.617  1.1751 -0.1921  1.4288
29497SOL    HW294328   2.307   5.380   4.582 -0.0167  1.5894 -0.6893
29498SOL     OW94329   8.671   9.566   6.472  0.7308  0.3821  0.1645
29498SOL    HW194330   8.702   9.618   6.546  0.9102  0.4665  0.0300
29498SOL    HW294331   8.651   9.631   6.404  2.1749  0.2068 -0.4683
29499SOL     OW94332   3.415   6.775   4.877 -0.3753 -0.6061  0.0674
29499SOL    HW194333   3.504   6.805   4.856 -0.8513  0.2897 -0.6966
29499SOL    HW294334   3.398   6.705   4.815 -0.2026 -0.7926  0.2272
29500SOL     OW94335   8.696   9.896   6.694  0.2835  0.3512 -0.1408
29500SOL    HW194336   8.628   9.960   6.713 -1.9832 -1.9439 -0.1119
29500SOL    HW294337   8.713   9.907   6.600 -2.5973 -1.1977 -0.9428
29501SOL     OW94338   7.747  10.113  10.035  0.7262 -0.4083  0.0076
29501SOL    HW194339   7.785  10.046   9.978  2.2405 -1.1839  1.8162
29501SOL    HW294340   7.762  10.080  10.123 -1.8613  0.5780  0.9005
29502SOL     OW94341   2.086   7.840   2.363  0.4146 -0.1058 -0.1853
29502SOL    HW194342   2.139   7.892   2.302  0.0452 -0.0306 -0.4538
29502SOL    HW294343   2.024   7.794   2.306  0.9912 -1.1546  0.0148
29503SOL     OW94344   5.442   2.736   3.708  0.4261  0.2099 -1.0772
29503SOL    HW194345   5.448   2.812   3.767  0.6886  0.2752 -1.1896
29503SOL    HW294346   5.524   2.689   3.721 -1.0801 -1.9954  1.6122
29504SOL     OW94347   0.138   1.914   8.105  0.0680  0.1159 -0.0953
29504SOL    HW194348   0.186   1.842   8.065  0.5707  0.3517  0.0573
29504SOL    HW294349   0.065   1.873   8.150  0.6986 -0.3678  0.5108
29505SOL     OW94350   2.472   8.196   4.174 -0.1061  0.1234 -0.1396
29505SOL    HW194351   2.443   8.284   4.195  0.5602  0.8097 -1.9172
29505SOL    HW294352   2.568   8.203   4.167  0.0019 -0.8425  0.1428
29506SOL     OW94353   3.221   8.133   1.511 -0.0673 -0.0497 -0.3937
29506SOL    HW194354   3.162   8.108   1.582 -0.1479 -2.3137 -1.1998
29506SOL    HW294355   3.249   8.051   1.472  2.1765  1.0380 -1.2399
29507SOL     OW94356   3.195   1.353   4.969  0.1803  0.2313  0.0056
29507SOL    HW194357   3.264   1.417   4.987  0.7846  0.1458 -1.8869
29507SOL    HW294358   3.239   1.269   4.974 -0.1264  0.0814  0.2277
29508SOL     OW94359   8.478   0.841   6.601  0.3618  0.1445  0.1724
29508SOL    HW194360   8.543   0.897   6.643  1.0814 -1.4601  1.3387
29508SOL    HW294361   8.492   0.755   6.641 -3.6260  0.0528  1.7656
29509SOL     OW94362   2.453   3.070  10.384  0.0485  0.1709  0.2540
29509SOL    HW194363   2.459   3.092  10.291 -1.6259 -0.0614  0.0606
29509SOL    HW294364   2.474   2.977  10.389 -0.5560  0.0197  0.0067
29510SOL     OW94365   1.236   7.639   9.294  0.0701  0.6731  0.3476
29510SOL    HW194366   1.301   7.691   9.342  1.0127 -0.9236  0.8864
29510SOL    HW294367   1.285   7.602   9.220 -0.2228 -0.5282  0.7405
29511SOL     OW94368   6.655   3.562   4.222 -0.5096  0.5740  0.0838
29511SOL    HW194369   6.737   3.512   4.225 -0.4476  0.6952  1.5866
29511SOL    HW294370   6.671   3.631   4.158 -0.1413 -0.5510 -1.0616
29512SOL     OW94371   8.986   6.345   6.231  0.5201  0.3993  0.6876
29512SOL    HW194372   8.924   6.278   6.203  1.6683 -0.5641  0.3536
29512SOL    HW294373   9.001   6.327   6.323  0.0606  0.8417  0.8529
29513SOL     OW94374   7.971   0.298   0.260 -0.4798  0.5415 -0.1589
29513SOL    HW194375   8.042   0.326   0.201 -0.5587 -1.3574 -1.2693
29513SOL    HW294376   7.982   0.203   0.265 -0.8074  0.5937  2.5453
29514SOL     OW94377   5.123   7.008   6.778 -0.4392 -0.3826 -0.3093
29514SOL    HW194378   5.054   7.070   6.801  0.2136  1.0898 -2.0873
29514SOL    HW294379   5.200   7.039   6.825 -0.5541 -1.0000  0.3011
29515SOL     OW94380   3.281   4.453   0.974  0.0453  0.5042 -0.2882
29515SOL    HW194381   3.372   4.465   0.999  0.0435 -1.0299  0.6262
29515SOL    HW294382   3.272   4.497   0.890  2.1808 -1.0467 -1.3955
29516SOL     OW94383   3.026   1.666   3.568 -0.1772 -0.2128 -0.2405
29516SOL    HW194384   3.106   1.716   3.582  0.2124 -1.4312  2.4118
29516SOL    HW294385   3.051   1.598   3.505  0.2421  0.7060 -1.0996
29517SOL     OW94386   8.104   3.878   8.530  0.4466  0.5588 -0.4504
29517SOL    HW194387   8.009   3.871   8.523  0.4124 -0.1125  0.5671
29517SOL    HW294388   8.120   3.885   8.624  1.3971  0.9056 -0.6310
29518SOL     OW94389   0.872   3.038  10.684  0.3746 -0.0664  0.5627
29518SOL    HW194390   0.794   3.019  10.737  0.6810  2.4171  2.0620
29518SOL    HW294391   0.837   3.075  10.603 -0.0785  1.8734  1.5837
29519SOL     OW94392   7.054   1.915   0.348  1.1684  0.6057 -0.4074
29519SOL    HW194393   6.995   1.945   0.417 -0.3857 -1.7023 -0.6088
29519SOL    HW294394   7.139   1.904   0.392  0.7680  1.2920  0.5728
29520SOL     OW94395   7.181   0.164   9.388  0.0304  0.5779  0.1646
29520SOL    HW194396   7.126   0.210   9.451  1.2359  0.7650  1.1082
29520SOL    HW294397   7.269   0.166   9.426  0.2696 -1.9112 -0.0724
29521SOL     OW94398   9.163   8.614   1.146 -0.9689 -0.4638  0.3339
29521SOL    HW194399   9.146   8.685   1.208  1.0714  0.6417 -0.2896
29521SOL    HW294400   9.133   8.535   1.191  0.9434  0.2046  3.0039
29522SOL     OW94401   1.527   4.697   4.307 -0.1540 -0.2227 -0.2048
29522SOL    HW194402   1.468   4.720   4.379 -1.0823 -2.8442 -0.0131
29522SOL    HW294403   1.475   4.637   4.252  0.3067  2.1129 -3.4546
29523SOL     OW94404  10.150   3.960   9.447  0.5783 -0.3457  0.0573
29523SOL    HW194405  10.065   3.998   9.427 -0.0143 -0.2926  2.3913
29523SOL    HW294406  10.163   3.978   9.540  4.2736  1.7990 -0.6913
29524SOL     OW94407   3.466   4.636   7.533 -0.2644 -0.7708  0.0151
29524SOL    HW194408   3.496   4.678   7.452  2.9767  0.4257  1.6583
29524SOL    HW294409   3.383   4.680   7.552 -1.0266 -0.9425 -2.4700
29525SOL     OW94410   0.428   7.198   5.517  0.5423  0.4253 -0.0044
29525SOL    HW194411   0.521   7.178   5.524  0.8518  1.0895 -1.7468
29525SOL    HW294412   0.385   7.113   5.508  1.1307  0.1858 -0.5980
29526SOL     OW94413   7.626  10.633   5.028  0.4925 -0.6462  0.3022
29526SOL    HW194414   7.582  10.675   4.954  1.2625 -0.1265  0.1274
29526SOL    HW294415   7.632  10.702   5.095 -0.1576 -1.0987  0.8357
29527SOL     OW94416   8.050   4.739   7.106  0.0642  0.3957 -0.0667
29527SOL    HW194417   8.075   4.759   7.196 -1.3915  0.7563  0.2811
29527SOL    HW294418   8.032   4.645   7.106  1.7379  0.0299 -0.4335
29528SOL     OW94419   9.390   0.944   6.850  0.1988  0.0373 -0.1128
29528SOL    HW194420   9.420   0.975   6.935 -0.5133 -0.7771  0.4469
29528SOL    HW294421   9.302   0.910   6.866  0.2660 -0.6262 -1.0632
29529SOL     OW94422   4.865   1.124   7.448 -0.1862 -0.3512 -0.4631
29529SOL    HW194423   4.816   1.171   7.515 -0.5051 -1.1371 -0.1353
29529SOL    HW294424   4.871   1.186   7.375 -0.2235  0.3485  0.1151
29530SOL     OW94425   6.410   9.047   7.237 -0.0792 -0.1755  0.0466
29530SOL    HW194426   6.410   8.962   7.194 -0.5449 -0.4278  0.5406
29530SOL    HW294427   6.346   9.099   7.189  1.0202  0.2770 -0.9753
29531SOL     OW94428   2.080   9.858   3.182  0.2366  0.6164 -0.2160
29531SOL    HW194429   2.116   9.807   3.110 -1.0470  0.6792 -0.9385
29531SOL    HW294430   2.083   9.949   3.152 -1.2621  0.5504 -0.6668
29532SOL     OW94431   8.310   4.444   0.948  0.0933  0.4316 -0.6711
29532SOL    HW194432   8.350   4.359   0.969 -0.3008  0.5230  0.5447
29532SOL    HW294433   8.383   4.506   0.949  0.1260  0.3931  0.2740
29533SOL     OW94434   2.609   7.403  10.681  0.0522 -0.0083  0.8464
29533SOL    HW194435   2.645   7.324  10.721 -0.4666 -0.2489  0.8452
29533SOL    HW294436   2.626   7.472  10.744  0.2173 -0.1847  0.9946
29534SOL     OW94437   0.665   8.447   0.065 -0.4483 -0.4389  0.0679
29534SOL    HW194438   0.703   8.374   0.015 -0.6462  0.4335 -1.3990
29534SOL    HW294439   0.573   8.446   0.041 -0.6431 -0.2839  0.7968
29535SOL     OW94440   7.847   8.407   9.637  0.4708  0.8718  0.0039
29535SOL    HW194441   7.923   8.427   9.583  0.8095  0.8513  0.4623
29535SOL    HW294442   7.882   8.404   9.726  0.1056 -0.0271  0.1304
29536SOL     OW94443   7.143   8.308   1.713  0.1113 -0.3114 -0.3984
29536SOL    HW194444   7.104   8.245   1.774 -1.4141 -0.3995 -1.4191
29536SOL    HW294445   7.084   8.382   1.714  0.6311  0.1205 -0.9960
29537SOL     OW94446   4.808   4.538   5.684  0.2003 -0.0525 -0.3076
29537SOL    HW194447   4.718   4.561   5.709  0.6186  1.2511  0.0594
29537SOL    HW294448   4.859   4.616   5.705  1.2872 -0.4905 -1.2608
29538SOL     OW94449   3.684   8.102  10.222 -0.3304  0.2366 -0.3262
29538SOL    HW194450   3.687   8.108  10.126  1.7703  0.0724 -0.3106
29538SOL    HW294451   3.763   8.053  10.246 -0.7115  0.4473  1.5148
29539SOL     OW94452   2.464   8.497   6.244  0.9052  0.3767  0.2434
29539SOL    HW194453   2.460   8.590   6.269  3.4405  0.7584 -0.4730
29539SOL    HW294454   2.433   8.496   6.153 -0.8012  0.2024  0.7934
29540SOL     OW94455  10.587   1.570   8.356 -0.5816  0.0792  0.1717
29540SOL    HW194456  10.544   1.484   8.359  0.9017 -0.8015 -1.4478
29540SOL    HW294457  10.625   1.574   8.268  3.8239  0.1257  1.8569
29541SOL     OW94458   1.269   6.972   2.598 -0.3538  0.6881 -0.6104
29541SOL    HW194459   1.270   7.055   2.551 -0.5502  0.9171 -0.2252
29541SOL    HW294460   1.222   6.912   2.541 -0.0354  0.7880 -0.9785
29542SOL     OW94461   1.932   5.731   7.960 -0.6965 -0.0792 -0.1600
29542SOL    HW194462   1.897   5.749   7.872 -1.4636 -0.0329  0.1507
29542SOL    HW294463   1.994   5.803   7.976  0.4864 -0.8232 -1.2087
29543SOL     OW94464   0.676   4.306   4.444 -0.6293 -0.0765 -0.0351
29543SOL    HW194465   0.699   4.254   4.521 -2.7504  1.5714  1.8236
29543SOL    HW294466   0.599   4.263   4.407  0.6663 -1.1572 -1.6551
29544SOL     OW94467   1.023   2.293   8.679 -0.1373  0.4192 -0.1392
29544SOL    HW194468   0.994   2.204   8.658 -0.5925  0.0182  2.0200
29544SOL    HW294469   0.971   2.319   8.755 -0.7240  2.9552 -1.2794
29545SOL     OW94470   9.945  10.404   1.700  0.1050  0.0606  0.1223
29545SOL    HW194471   9.944  10.368   1.611  0.4345  0.6226 -0.1162
29545SOL    HW294472   9.956  10.499   1.687 -1.2592  0.3228  0.7102
29546SOL     OW94473  10.304   1.339   8.706 -0.5543 -0.1927 -0.7246
29546SOL    HW194474  10.397   1.321   8.690 -0.6566 -0.2419 -1.2825
29546SOL    HW294475  10.295   1.433   8.686 -0.3843  0.0963  0.4816
29547SOL     OW94476   4.305   7.431   6.203 -0.0131  0.3692  0.4000
29547SOL    HW194477   4.267   7.427   6.115 -0.4594 -2.0340  0.6417
29547SOL    HW294478   4.400   7.433   6.188  0.0933 -3.2334 -0.2334
29548SOL     OW94479   7.873   6.034   6.798 -0.4670  0.3297  0.4074
29548SOL    HW194480   7.843   5.949   6.765 -0.3858 -0.1686  1.5629
29548SOL    HW294481   7.793   6.086   6.809 -1.2124 -1.2355  4.1738
29549SOL     OW94482   3.633   3.125  10.170  0.1333 -0.0922  0.7747
29549SOL    HW194483   3.594   3.116  10.257 -1.7806  1.1088  0.1087
29549SOL    HW294484   3.666   3.215  10.167 -1.9123  0.6951 -0.4559
29550SOL     OW94485   9.062   4.183  10.658  0.0118  0.0246 -0.0295
29550SOL    HW194486   9.021   4.222  10.735 -0.1950  1.4735 -0.8364
29550SOL    HW294487   9.068   4.090  10.679  0.8340  0.5048  2.1069
29551SOL     OW94488  10.075   9.949   8.449 -0.9663  0.0161 -0.2925
29551SOL    HW194489   9.991   9.989   8.427 -0.5588  0.2338 -1.4999
29551SOL    HW294490  10.113  10.008   8.515 -1.7680 -0.1154  0.2997
29552SOL     OW94491   8.851  10.400   8.451  0.0558  0.0494  0.1286
29552SOL    HW194492   8.773  10.456   8.449 -0.1638 -0.1136  1.9917
29552SOL    HW294493   8.817  10.313   8.475  0.7649 -0.0765  0.7091
29553SOL     OW94494   8.493   3.512   6.527  0.3261 -0.6886 -0.3901
29553SOL    HW194495   8.526   3.597   6.498  1.2128 -1.2763 -1.1406
29553SOL    HW294496   8.441   3.480   6.454  0.1167 -0.8672 -0.1658
29554SOL     OW94497   8.908   7.630   1.206  0.9648 -0.0180 -0.1143
29554SOL    HW194498   8.925   7.701   1.268  1.6396 -0.8249  0.6441
29554SOL    HW294499   8.992   7.618   1.160  1.1804 -1.0194  0.5100
29555SOL     OW94500   8.111   4.871  10.129  0.6655 -0.4478  0.0513
29555SOL    HW194501   8.024   4.881  10.090  2.1999 -0.8843 -3.9289
29555SOL    HW294502   8.095   4.817  10.208 -2.8048  1.1396  0.6449
29556SOL     OW94503   4.265   9.141   0.973  0.7751 -0.0219  0.7711
29556SOL    HW194504   4.352   9.168   0.944  0.8651 -0.6176  0.4581
29556SOL    HW294505   4.205   9.184   0.912  0.8170  0.7794  1.2867
29557SOL     OW94506  10.652   1.995   9.728 -0.1805 -0.2117 -0.3488
29557SOL    HW194507  10.719   2.054   9.693  0.2806 -0.6493 -0.2178
29557SOL    HW294508  10.581   2.000   9.665  0.4377 -0.6052 -1.0902
29558SOL     OW94509   5.776   6.907   1.569  0.0727  0.4689  0.0528
29558SOL    HW194510   5.870   6.892   1.558 -0.3356 -0.8221 -2.6847
29558SOL    HW294511   5.753   6.966   1.498 -1.0831  1.4141  1.1785
29559SOL     OW94512  10.535  10.035   7.068  0.0903  0.3903  0.2748
29559SOL    HW194513  10.506   9.953   7.108  0.5532  0.1512  0.1246
29559SOL    HW294514  10.598  10.071   7.131  1.4401 -0.3890 -0.5815
29560SOL     OW94515   2.470   5.159   4.559 -0.2826  0.4382  0.0346
29560SOL    HW194516   2.478   5.245   4.599  3.0737  1.2040 -1.8775
29560SOL    HW294517   2.528   5.162   4.483 -2.3485 -2.5677 -1.9000
29561SOL     OW94518   8.318   6.862   0.077  0.1964 -0.0163  0.4141
29561SOL    HW194519   8.300   6.874   0.170  0.5555  1.0298  0.3593
29561SOL    HW294520   8.252   6.916   0.033  0.3611 -0.0884  0.0786
29562SOL     OW94521   3.362   9.913   9.510 -0.6485 -0.4039 -0.0533
29562SOL    HW194522   3.306   9.926   9.434  2.0684  1.0412 -2.0064
29562SOL    HW294523   3.374  10.001   9.546  0.8956 -0.5181 -0.1976
29563SOL     OW94524   8.622   3.153  10.036  0.2985 -0.0357 -0.0511
29563SOL    HW194525   8.559   3.211  10.078  1.7173  1.4982  0.0791
29563SOL    HW294526   8.569   3.096   9.981 -1.2622  0.5572  0.7781
29564SOL     OW94527   3.702   7.196   7.561  0.3589 -0.2958 -0.0432
29564SOL    HW194528   3.717   7.185   7.467  1.2289  0.2785  0.0171
29564SOL    HW294529   3.781   7.161   7.603  0.6076  0.7298  0.3957
29565SOL     OW94530   3.359   1.740   9.881  0.2035 -0.3312  0.4892
29565SOL    HW194531   3.397   1.679   9.819 -0.0177 -0.0506  0.0745
29565SOL    HW294532   3.404   1.823   9.864 -0.9493  0.1470 -0.3790
29566SOL     OW94533   8.527   1.968   6.971  0.5116 -0.1152  0.5056
29566SOL    HW194534   8.564   2.044   7.015 -0.2438 -0.0094  0.9798
29566SOL    HW294535   8.447   2.001   6.931  0.7635 -0.4062 -0.2489
29567SOL     OW94536   7.132   0.567   4.702  0.1280 -0.4747 -0.1690
29567SOL    HW194537   7.049   0.525   4.725 -0.5739 -0.0503 -1.7960
29567SOL    HW294538   7.109   0.658   4.685  1.0763 -0.1739  0.0726
29568SOL     OW94539   5.315   0.468   7.492  0.5026 -0.4311  0.3465
29568SOL    HW194540   5.290   0.518   7.413  3.0299  1.7934  0.7926
29568SOL    HW294541   5.232   0.454   7.538 -0.5456  2.3258 -0.4710
29569SOL     OW94542   7.514   7.926   1.081 -0.7205  1.1447  0.1551
29569SOL    HW194543   7.605   7.897   1.078 -0.8575  0.7789 -1.3928
29569SOL    HW294544   7.488   7.933   0.989 -2.0746  1.8447  0.5598
29570SOL     OW94545   5.341   9.853   5.557 -0.0403  0.0021  0.4228
29570SOL    HW194546   5.294   9.830   5.638 -0.1065  0.1779  0.4350
29570SOL    HW294547   5.399   9.924   5.583  0.8068 -0.7326  0.5890
29571SOL     OW94548   2.050   5.498   2.378  0.4085  0.3393  0.4965
29571SOL    HW194549   2.043   5.420   2.434 -1.3223 -0.0054 -0.1332
29571SOL    HW294550   2.143   5.504   2.358  0.9519 -0.0859  2.5988
29572SOL     OW94551   2.255   8.033   4.796 -0.4637 -0.8896 -0.3217
29572SOL    HW194552   2.344   8.040   4.763 -1.2067 -2.1978 -2.7834
29572SOL    HW294553   2.228   8.123   4.810  0.7025 -0.4017 -1.0601
29573SOL     OW94554   1.060   5.085   2.426  0.3756 -0.1612 -0.5137
29573SOL    HW194555   1.050   5.162   2.483  1.0428 -1.1835  1.0340
29573SOL    HW294556   1.095   5.017   2.484  1.7642 -1.0488 -2.3189
29574SOL     OW94557   8.674   2.260   1.525 -0.0846  0.6932 -0.3195
29574SOL    HW194558   8.663   2.339   1.473  1.5546  1.9469  1.1133
29574SOL    HW294559   8.672   2.290   1.616  2.9950 -0.4467  0.2626
29575SOL     OW94560   3.568   5.676   3.570 -0.6882  0.3889 -0.2188
29575SOL    HW194561   3.483   5.715   3.593  0.1629  1.4525  1.3209
29575SOL    HW294562   3.572   5.596   3.621 -0.3663  0.8620  0.5241
29576SOL     OW94563   5.268   9.572   2.892 -0.3637 -0.0649 -0.1729
29576SOL    HW194564   5.344   9.630   2.891 -0.3172 -0.1135  0.3071
29576SOL    HW294565   5.302   9.488   2.859  0.1881 -0.5515  1.5426
29577SOL     OW94566   9.436   2.648   2.460  0.2594  0.0842  0.2148
29577SOL    HW194567   9.449   2.555   2.446  0.3743  0.0769  0.3657
29577SOL    HW294568   9.523   2.681   2.483  0.1671  0.1794  0.4319
29578SOL     OW94569   7.205   0.351   7.701  0.3352 -0.0192 -0.9072
29578SOL    HW194570   7.211   0.405   7.622  2.5178  2.5933  0.8535
29578SOL    HW294571   7.293   0.315   7.712  0.3114  0.3712  0.7519
29579SOL     OW94572   3.137   0.294   2.161  0.0128  0.1526  0.1036
29579SOL    HW194573   3.159   0.265   2.073 -0.3468  1.4126 -0.4161
29579SOL    HW294574   3.183   0.377   2.172  0.4430 -0.2113  1.2908
29580SOL     OW94575   6.496   1.909   8.152 -0.1170  0.6964 -0.1498
29580SOL    HW194576   6.522   1.917   8.244  1.1236 -1.5606 -0.2242
29580SOL    HW294577   6.421   1.968   8.143  0.7695  2.2743  1.8569
29581SOL     OW94578   7.505   8.081   7.947 -0.1180 -0.0415  0.7976
29581SOL    HW194579   7.551   8.106   7.867 -0.8928 -1.3389 -0.0878
29581SOL    HW294580   7.526   8.150   8.009  0.6396  0.9139 -0.4743
29582SOL     OW94581  10.121   4.825   9.920 -0.6676 -0.2113  0.0429
29582SOL    HW194582  10.055   4.831   9.850 -0.5564  0.9607  0.0231
29582SOL    HW294583  10.204   4.820   9.873 -0.5293  1.3774  0.0628
29583SOL     OW94584  10.583   0.916   5.968 -0.0228 -0.0466 -0.6448
29583SOL    HW194585  10.574   0.827   6.001  1.3320 -0.0049 -0.1013
29583SOL    HW294586  10.654   0.911   5.904  1.2465  0.9381  0.6323
29584SOL     OW94587   6.371   0.711   6.352  0.1387 -0.0350 -0.7191
29584SOL    HW194588   6.445   0.658   6.384  0.2462  0.5247 -0.0167
29584SOL    HW294589   6.298   0.649   6.348  0.2062 -0.1999  0.3293
29585SOL     OW94590   4.379  10.407   8.097  0.4420 -0.3147  0.8375
29585SOL    HW194591   4.457  10.419   8.151  0.5435 -1.8945  1.0711
29585SOL    HW294592   4.333  10.491   8.104  0.8697 -0.1847  2.7215
29586SOL     OW94593   8.783  10.317   9.836  0.4923  0.4281 -0.4191
29586SOL    HW194594   8.740  10.374   9.772  0.8630  0.2213 -0.8516
29586SOL    HW294595   8.782  10.368   9.917 -0.3533  0.5204 -0.4818
29587SOL     OW94596   3.523   9.163   2.600 -0.3793 -0.0368  0.2724
29587SOL    HW194597   3.595   9.211   2.558  0.2277  0.2896  1.6292
29587SOL    HW294598   3.452   9.227   2.606 -1.2067 -0.6497 -2.0101
29588SOL     OW94599   7.645   0.681   6.279  0.3350 -0.8013  0.6383
29588SOL    HW194600   7.733   0.716   6.266 -1.2966  3.3996 -0.8833
29588SOL    HW294601   7.629   0.628   6.201  0.7329  0.4326 -0.3214
29589SOL     OW94602   6.599   6.854   7.349 -1.0253 -0.6476  0.3158
29589SOL    HW194603   6.580   6.918   7.418 -0.4762 -1.2416  1.0469
29589SOL    HW294604   6.546   6.881   7.275  1.0336  2.1343 -0.2765
29590SOL     OW94605   4.288   2.092   8.967 -0.3275  0.3008 -0.1309
29590SOL    HW194606   4.359   2.090   8.903  0.4286  1.1923  0.6474
29590SOL    HW294607   4.216   2.136   8.922  0.4105  1.5008 -0.1953
29591SOL     OW94608   2.400   1.776   7.133  0.7990 -0.3691  0.1661
29591SOL    HW194609   2.422   1.821   7.051 -0.2333  0.4986  0.3413
29591SOL    HW294610   2.382   1.847   7.194 -0.8602 -1.0067  0.4623
29592SOL     OW94611   4.353   7.564   6.868  0.0212  0.3530 -0.1581
29592SOL    HW194612   4.266   7.572   6.830 -0.9021  0.6200  1.8626
29592SOL    HW294613   4.372   7.652   6.903  1.6876  0.6566 -1.6806
29593SOL     OW94614   1.456   6.699   0.285 -0.0159 -0.6270  0.3727
29593SOL    HW194615   1.496   6.613   0.275 -1.6587 -1.1662 -2.8893
29593SOL    HW294616   1.506   6.756   0.227 -0.8643 -0.1644  0.0701
29594SOL     OW94617   1.990   8.251   3.284  0.1436  0.3255 -0.4329
29594SOL    HW194618   1.983   8.341   3.317  2.6056  0.5398 -0.3282
29594SOL    HW294619   2.039   8.259   3.202 -0.5807 -0.8304 -1.0026
29595SOL     OW94620   6.966   9.739  10.193 -0.3928 -0.3113  0.4210
29595SOL    HW194621   6.988   9.808  10.256 -0.9915 -0.7583  1.1320
29595SOL    HW294622   7.046   9.687  10.187 -0.0922  0.1681  0.2468
29596SOL     OW94623   1.976   9.008   0.874  0.5693  0.2528 -0.1999
29596SOL    HW194624   2.048   8.967   0.922  1.4431  2.1628  0.2110
29596SOL    HW294625   1.904   9.011   0.937  0.6123 -0.3044 -0.1196
29597SOL     OW94626   3.622   7.771   0.312 -0.3788  0.1524  0.2726
29597SOL    HW194627   3.701   7.722   0.292 -1.5311 -1.1385 -1.4005
29597SOL    HW294628   3.615   7.835   0.241 -1.1132 -0.1105  0.0989
29598SOL     OW94629   4.957   9.471  10.064  0.4064 -0.7744  0.1284
29598SOL    HW194630   4.877   9.513  10.032  1.3119 -0.2343 -1.5071
29598SOL    HW294631   4.938   9.453  10.157 -0.8358  1.2655  0.3433
29599SOL     OW94632   2.715   6.597   9.622 -0.7056 -0.8607 -0.2960
29599SOL    HW194633   2.767   6.548   9.684  1.0106 -0.6318 -1.4833
29599SOL    HW294634   2.776   6.659   9.582 -2.3104  0.7506 -0.4029
29600SOL     OW94635   9.305   5.014   6.292  0.5205 -0.1433 -0.5289
29600SOL    HW194636   9.262   4.938   6.331  0.9170 -1.6947 -2.8988
29600SOL    HW294637   9.394   5.012   6.326  0.0169  0.4864  0.9400
29601SOL     OW94638   0.565   2.179   0.160  0.5285  0.1617 -0.4913
29601SOL    HW194639   0.571   2.087   0.188  0.9464  0.5177  0.6081
29601SOL    HW294640   0.474   2.188   0.129 -0.4560  0.1162  2.1288
29602SOL     OW94641   6.050  10.336   9.369 -0.4924 -0.3710  0.3335
29602SOL    HW194642   6.115  10.271   9.395  2.3808  0.9891 -2.6588
29602SOL    HW294643   6.051  10.401   9.440  0.6312 -0.9274  0.8432
29603SOL     OW94644   4.234   1.476   8.521 -0.1790  0.5011 -0.7231
29603SOL    HW194645   4.263   1.458   8.610 -0.7413 -0.0033 -0.6314
29603SOL    HW294646   4.152   1.426   8.512 -0.3404  0.8688 -1.3849
29604SOL     OW94647   8.973   5.477   2.774  0.2482  0.0244  0.3681
29604SOL    HW194648   8.956   5.384   2.794 -0.1940  0.1005  0.3589
29604SOL    HW294649   8.906   5.500   2.709 -0.6566  0.7688  1.5184
29605SOL     OW94650   2.203   4.879   8.377  0.5606  0.0635 -0.0521
29605SOL    HW194651   2.204   4.784   8.387 -1.0910  0.0035 -0.1191
29605SOL    HW294652   2.279   4.910   8.427  0.2185 -1.1795  1.2926
29606SOL     OW94653   6.953   4.057   6.917 -0.3838  0.2409  0.3011
29606SOL    HW194654   6.925   4.001   6.990 -1.4114 -0.1323 -0.3479
29606SOL    HW294655   7.022   4.112   6.953 -0.4009 -0.4125  1.3667
29607SOL     OW94656   4.671   4.394   8.277 -0.1988 -0.0770  0.2755
29607SOL    HW194657   4.745   4.410   8.218 -1.0395  0.4102 -0.6926
29607SOL    HW294658   4.711   4.380   8.362  1.0173  0.0456 -0.2461
29608SOL     OW94659   6.365   8.750   9.760  0.0713 -0.6194 -0.3448
29608SOL    HW194660   6.388   8.694   9.686 -0.1596  0.3556 -1.1754
29608SOL    HW294661   6.341   8.834   9.720 -2.7800 -0.8946  0.5879
29609SOL     OW94662   6.110   7.623  10.515  0.0223  0.0706  0.2059
29609SOL    HW194663   6.047   7.656  10.580 -0.4805 -0.0770 -0.1992
29609SOL    HW294664   6.093   7.675  10.436  1.5698  1.2125  0.5774
29610SOL     OW94665   6.573   3.862  10.281  0.1489  0.8595 -0.5273
29610SOL    HW194666   6.602   3.949  10.311 -0.0404  0.4165  1.0532
29610SOL    HW294667   6.556   3.814  10.362 -1.2665 -0.1496 -1.3810
29611SOL     OW94668   3.174   3.451   3.589 -0.4041  0.3513  0.2164
29611SOL    HW194669   3.105   3.409   3.539 -1.2978  0.9308  0.9225
29611SOL    HW294670   3.198   3.528   3.538 -0.4618  0.2866  0.0922
29612SOL     OW94671   3.616   0.527   0.475 -0.2060 -0.4127  0.2509
29612SOL    HW194672   3.648   0.470   0.405  0.7777 -0.1574  0.4858
29612SOL    HW294673   3.566   0.468   0.532  1.0459 -1.1231  0.6525
29613SOL     OW94674   9.045   4.690   0.552  0.4353  0.1486  0.0846
29613SOL    HW194675   8.993   4.748   0.496  0.1511 -0.0195  0.1725
29613SOL    HW294676   9.136   4.713   0.533  0.4137 -0.9309 -1.5930
29614SOL     OW94677   6.020   7.122   7.497 -0.2950 -0.1368 -0.0316
29614SOL    HW194678   6.011   7.195   7.558  0.4980 -1.1547  1.3503
29614SOL    HW294679   5.948   7.063   7.519  0.9769 -1.3208  1.1220
29615SOL     OW94680   8.108   4.698   3.737 -0.7359  0.2616  0.1374
29615SOL    HW194681   8.058   4.771   3.773  1.0163  1.5796  0.0059
29615SOL    HW294682   8.163   4.668   3.809 -0.6712 -0.2520 -0.1174
29616SOL     OW94683   8.825   9.122   2.044  0.3300  0.0884  0.0411
29616SOL    HW194684   8.779   9.047   2.080 -0.6205  0.5449 -0.1787
29616SOL    HW294685   8.895   9.140   2.107 -1.0952  0.6853  1.5376
29617SOL     OW94686   1.044   9.415   9.538 -0.3243 -0.1116 -0.1532
29617SOL    HW194687   1.023   9.338   9.591  1.8020 -1.0798 -0.6000
29617SOL    HW294688   0.989   9.406   9.460 -1.8528  0.1485  0.8555
29618SOL     OW94689   3.234   1.935   2.022 -0.3129  0.2841  0.3397
29618SOL    HW194690   3.215   1.998   1.954  2.3889  0.4115 -0.3979
29618SOL    HW294691   3.291   1.981   2.084 -1.2558 -0.3650  1.7655
29619SOL     OW94692  10.278   9.569   5.788  0.7170  0.5068  0.4615
29619SOL    HW194693  10.278   9.620   5.869  1.5418  0.8450  0.2636
29619SOL    HW294694  10.332   9.493   5.807 -1.3674 -0.8927  1.0863
29620SOL     OW94695   6.486   8.201   9.520  0.0366  0.2773 -0.1597
29620SOL    HW194696   6.543   8.254   9.576  0.6032 -0.8495  0.3644
29620SOL    HW294697   6.407   8.187   9.573  0.1848 -0.0075 -0.0151
29621SOL     OW94698   4.950   5.627   2.828  0.1783 -0.3934  0.1825
29621SOL    HW194699   4.991   5.632   2.914 -0.7547 -0.5636  0.6449
29621SOL    HW294700   4.917   5.537   2.822 -0.6514 -0.0888  0.0633
29622SOL     OW94701   1.095   6.038   1.326 -0.2473 -0.2241 -0.3189
29622SOL    HW194702   1.123   6.106   1.264 -0.6834 -0.9310 -1.3234
29622SOL    HW294703   1.064   6.087   1.402 -0.2132  0.6961 -0.8757
29623SOL     OW94704   5.168   3.686   3.029 -0.1063  0.0049  0.5008
29623SOL    HW194705   5.162   3.620   2.961  1.0454  0.2641  0.1320
29623SOL    HW294706   5.184   3.637   3.109  1.7292 -0.1399  0.0805
29624SOL     OW94707   5.150   7.339   4.692  0.4620  0.3011  0.6714
29624SOL    HW194708   5.126   7.246   4.702  1.7269 -0.7827 -3.8973
29624SOL    HW294709   5.244   7.338   4.677  0.4370  2.2646  0.1612
29625SOL     OW94710   6.545   6.212   5.028 -0.2303  0.0446 -0.0980
29625SOL    HW194711   6.452   6.213   5.007 -0.1688  0.6092 -0.3642
29625SOL    HW294712   6.581   6.143   4.972 -0.4075  0.1657 -0.3624
29626SOL     OW94713   3.629   0.393   4.037  0.2551  0.1767  0.0949
29626SOL    HW194714   3.720   0.408   4.013  0.1326  2.0836  0.6354
29626SOL    HW294715   3.620   0.434   4.124 -0.2479 -3.1256  1.7701
29627SOL     OW94716   7.449   0.445   3.384  0.3081 -0.2009  0.2343
29627SOL    HW194717   7.522   0.389   3.355  0.4126 -0.3756  0.8171
29627SOL    HW294718   7.473   0.533   3.355  0.7173 -0.2702  0.3442
29628SOL     OW94719   9.948   9.292   7.573 -0.1613 -0.3967 -0.6129
29628SOL    HW194720   9.914   9.377   7.599  0.2586  0.2322 -2.0699
29628SOL    HW294721   9.989   9.306   7.488  0.5798 -1.8958 -0.5465
29629SOL     OW94722  10.058   1.569  10.453  0.3197  0.0298  0.1205
29629SOL    HW194723   9.996   1.585  10.524  0.3270 -1.4790  0.4995
29629SOL    HW294724  10.060   1.474  10.443 -1.0667  0.2029 -3.1414
29630SOL     OW94725   3.743   0.888   4.543 -0.0512  0.1260  0.3429
29630SOL    HW194726   3.755   0.945   4.620 -1.3650 -0.4621  1.0182
29630SOL    HW294727   3.650   0.896   4.522 -0.2462 -1.7094  0.4060
29631SOL     OW94728   9.890   7.140   8.480 -0.3463  0.2395 -0.3534
29631SOL    HW194729   9.850   7.076   8.539 -0.4987 -0.0046 -0.7171
29631SOL    HW294730   9.974   7.100   8.456  0.0236  0.6491  0.2317
29632SOL     OW94731   7.399   4.365   3.009  0.0280  0.2784  0.2948
29632SOL    HW194732   7.457   4.424   3.058 -1.1251  2.1543 -0.4664
29632SOL    HW294733   7.378   4.413   2.929 -0.8120 -1.2843 -0.4751
29633SOL     OW94734   6.120   9.604  10.383  0.0473 -0.6196  0.0781
29633SOL    HW194735   6.170   9.681  10.359 -2.0805  0.6139 -0.7039
29633SOL    HW294736   6.051   9.598  10.317  0.7556 -3.8941 -0.5594
29634SOL     OW94737   8.606   0.706   7.176 -0.0910 -0.6191 -0.0219
29634SOL    HW194738   8.562   0.628   7.143  1.9618 -1.1603 -1.7145
29634SOL    HW294739   8.593   0.771   7.107  1.2505 -0.6284 -0.3021
29635SOL     OW94740   5.371   4.199  10.386  0.0659 -0.4352  0.0854
29635SOL    HW194741   5.416   4.133  10.332 -0.7724 -1.8384  1.0347
29635SOL    HW294742   5.283   4.164  10.398 -0.2192  0.5930  1.1210
29636SOL     OW94743   7.514   8.191   1.384 -0.1952  0.1156  0.3075
29636SOL    HW194744   7.490   8.281   1.362  0.4972  0.5994  1.4261
29636SOL    HW294745   7.436   8.155   1.424 -0.2459  0.4782  0.5454
29637SOL     OW94746   8.287   1.339   3.971 -0.7785 -0.0677  1.3580
29637SOL    HW194747   8.272   1.304   3.883  1.5104  0.7575  0.5769
29637SOL    HW294748   8.321   1.265   4.022  0.2302  0.0290  0.8395
29638SOL     OW94749   2.469   9.408   0.885 -0.1601 -0.0513  0.0694
29638SOL    HW194750   2.534   9.338   0.882 -0.6846 -0.5105 -1.0307
29638SOL    HW294751   2.385   9.364   0.881 -0.5343  0.6142 -3.6761
29639SOL     OW94752   1.399   8.560  10.193 -0.1529 -0.3478  0.5868
29639SOL    HW194753   1.401   8.465  10.207  0.1354 -0.4201  0.0696
29639SOL    HW294754   1.447   8.596  10.267 -0.0597 -0.6202  0.6628
29640SOL     OW94755   8.468   4.498   6.915 -0.0270  0.1752 -0.2268
29640SOL    HW194756   8.540   4.549   6.952 -0.2777  0.7654 -0.5344
29640SOL    HW294757   8.469   4.416   6.964 -0.0001  0.7111  0.7186
29641SOL     OW94758   7.439   0.290   9.336 -0.1736 -0.2493 -0.9785
29641SOL    HW194759   7.495   0.250   9.403  0.0545  1.4139 -0.1374
29641SOL    HW294760   7.466   0.381   9.333 -2.3893  0.4635 -1.0093
29642SOL     OW94761   6.765   9.958  10.169  0.2528  0.7270 -0.0987
29642SOL    HW194762   6.848   9.984  10.127 -0.1265  2.2791  0.0360
29642SOL    HW294763   6.700  10.018  10.131 -0.9053 -0.7310 -0.4949
29643SOL     OW94764   7.854   9.547   2.403 -0.0540  0.6392 -0.1106
29643SOL    HW194765   7.932   9.524   2.351 -0.9479  1.5792 -1.9645
29643SOL    HW294766   7.789   9.573   2.338 -1.4515  1.2893  1.4823
29644SOL     OW94767   1.775   2.398   2.772 -0.5727 -0.6564  0.5629
29644SOL    HW194768   1.719   2.379   2.847 -1.9231 -0.7567 -0.4322
29644SOL    HW294769   1.743   2.340   2.703  2.1010 -2.2225  0.4934
29645SOL     OW94770   9.273   6.733   1.109 -0.5990  0.5001 -0.6950
29645SOL    HW194771   9.225   6.723   1.191  1.3333 -0.9273  0.3515
29645SOL    HW294772   9.274   6.645   1.071 -0.3948  0.8906 -1.6329
29646SOL     OW94773   3.481   5.466   3.719  0.6293  0.2179  0.4074
29646SOL    HW194774   3.448   5.403   3.655  1.3950 -0.6259  0.8051
29646SOL    HW294775   3.408   5.480   3.780  0.9748 -1.7189  1.3531
29647SOL     OW94776   7.417   3.330   6.795  0.2141 -0.4157  0.3075
29647SOL    HW194777   7.461   3.408   6.829  0.8259 -0.5855 -0.0807
29647SOL    HW294778   7.417   3.269   6.869  0.1692 -0.2285  0.4640
29648SOL     OW94779   1.446   2.636  10.131  0.1720  0.2732  0.0118
29648SOL    HW194780   1.404   2.598  10.208 -0.6395 -0.1577 -0.6286
29648SOL    HW294781   1.386   2.704  10.101 -0.5150 -0.9190 -1.4095
29649SOL     OW94782   1.247   9.822   3.381 -0.0021  0.3104  0.0106
29649SOL    HW194783   1.155   9.809   3.360  0.2930 -2.7381  0.1353
29649SOL    HW294784   1.249   9.831   3.476 -0.1092 -0.7923  0.1289
29650SOL     OW94785   1.236   2.826   5.876 -0.4881  0.5958  0.5297
29650SOL    HW194786   1.209   2.734   5.870 -1.7239  0.8805  1.3656
29650SOL    HW294787   1.264   2.837   5.966  0.7841  0.7776  0.1380
29651SOL     OW94788   1.697  10.185   8.631 -0.3475 -0.2722  0.4559
29651SOL    HW194789   1.753  10.210   8.705  0.9840 -2.8966  0.4479
29651SOL    HW294790   1.724  10.244   8.560  1.4452 -0.5338  0.8743
29652SOL     OW94791   0.296   5.699   0.961  0.4252 -0.0646  0.1668
29652SOL    HW194792   0.208   5.714   0.926  0.1375 -1.3316  0.3000
29652SOL    HW294793   0.351   5.690   0.883  0.1598 -0.7480  0.0463
29653SOL     OW94794   2.690   2.227   7.202  0.0519  0.2290 -0.2058
29653SOL    HW194795   2.597   2.206   7.196  0.3751 -1.4307  0.2491
29653SOL    HW294796   2.721   2.222   7.112 -0.1189 -0.1081 -0.2482
29654SOL     OW94797   9.603   3.150   5.832 -0.7701 -0.2257 -0.2641
29654SOL    HW194798   9.606   3.059   5.860 -0.7994 -0.1011  0.1614
29654SOL    HW294799   9.552   3.149   5.752 -1.9110 -0.4281  0.4363
29655SOL     OW94800   2.929   2.279   5.015 -0.0455 -0.8994  0.0173
29655SOL    HW194801   2.928   2.220   4.940 -1.1095  0.7049 -1.2929
29655SOL    HW294802   2.863   2.244   5.075 -0.1604 -1.4213 -0.4107
29656SOL     OW94803   4.060  10.336   7.033  0.3482 -0.2059 -0.0341
29656SOL    HW194804   4.065  10.344   6.938  0.2334 -0.7731 -0.0863
29656SOL    HW294805   4.152  10.340   7.062  0.3911 -0.1599 -0.1756
29657SOL     OW94806   7.007   0.009   9.258 -0.2563  0.5358 -0.9945
29657SOL    HW194807   7.039  -0.069   9.304  0.0548  0.1626 -1.8181
29657SOL    HW294808   7.067   0.079   9.285  0.9358 -0.0294 -2.0557
29658SOL     OW94809   7.430   1.092   4.072 -0.2413 -0.2628  0.0317
29658SOL    HW194810   7.400   1.107   4.161  1.0831 -0.1575  0.4738
29658SOL    HW294811   7.427   0.997   4.061 -0.4723 -0.2704  0.1525
29659SOL     OW94812   0.613   1.927   1.399  0.3176 -0.0432  0.3574
29659SOL    HW194813   0.551   1.972   1.456 -0.0773  0.0311 -0.1244
29659SOL    HW294814   0.573   1.841   1.383 -0.1690  0.3783 -0.7804
29660SOL     OW94815   9.278   5.997   9.304 -0.5454 -0.7046 -0.5093
29660SOL    HW194816   9.257   5.937   9.232 -0.5530 -1.1518 -0.1392
29660SOL    HW294817   9.337   6.061   9.265 -1.0646 -0.5609 -1.0810
29661SOL     OW94818   1.992   4.860   3.437 -0.0208  0.3663 -0.0513
29661SOL    HW194819   2.052   4.855   3.362  1.1176  0.8190  0.8006
29661SOL    HW294820   2.049   4.878   3.512 -0.7483 -2.6458  1.4030
29662SOL     OW94821   9.889   2.245   8.798 -0.9656  0.1590  0.4253
29662SOL    HW194822   9.941   2.325   8.806  0.5371 -0.8891  1.7743
29662SOL    HW294823   9.905   2.215   8.709  0.6702 -0.0661  0.7677
29663SOL     OW94824   6.316   2.434   9.551 -0.4200 -0.2727  0.1890
29663SOL    HW194825   6.348   2.511   9.597 -0.1133  0.0972 -0.6224
29663SOL    HW294826   6.366   2.361   9.588 -0.2199  0.0130  0.4842
29664SOL     OW94827   5.628   4.602   3.109 -0.1194  0.2436 -0.1684
29664SOL    HW194828   5.567   4.558   3.049  1.3876  0.3890 -1.9018
29664SOL    HW294829   5.661   4.676   3.058 -1.5443  2.6704  2.1818
29665SOL     OW94830   3.624   4.316   6.365  0.1530  0.8068  0.1927
29665SOL    HW194831   3.702   4.372   6.363 -0.1445  1.2189 -0.4275
29665SOL    HW294832   3.556   4.370   6.405  0.2045  0.4154  0.8208
29666SOL     OW94833   6.832   6.735   6.945 -0.0203 -0.2260  0.5606
29666SOL    HW194834   6.855   6.719   6.854 -0.4163 -0.8639  0.5652
29666SOL    HW294835   6.796   6.824   6.945 -0.1952 -0.2909  0.0598
29667SOL     OW94836   3.142   1.140  10.592 -0.5387 -0.0366  0.2244
29667SOL    HW194837   3.172   1.164  10.680  0.4764  2.1813 -0.6639
29667SOL    HW294838   3.140   1.222  10.544 -0.5909 -1.2638 -1.9909
29668SOL     OW94839   0.574   4.924   2.133 -0.3088  0.2227  0.2011
29668SOL    HW194840   0.606   4.983   2.065  0.9804  0.3725  0.9052
29668SOL    HW294841   0.518   4.980   2.188  0.1421  0.5649  0.3212
29669SOL     OW94842   6.490   5.689  10.084  0.3652 -0.5284 -0.2628
29669SOL    HW194843   6.577   5.652  10.078  1.5493  2.1325 -1.0378
29669SOL    HW294844   6.500   5.765  10.142 -1.1759  0.4817 -1.2562
29670SOL     OW94845   5.781   8.715   1.861 -0.3652 -0.9636 -0.2178
29670SOL    HW194846   5.854   8.741   1.805  1.1250 -0.3684  1.8481
29670SOL    HW294847   5.818   8.649   1.919 -2.3841 -3.0015 -1.1271
29671SOL     OW94848   1.954   8.521   3.328  0.0503 -0.1326  0.0199
29671SOL    HW194849   1.910   8.547   3.409  0.3951  0.7459 -0.0674
29671SOL    HW294850   1.922   8.583   3.262 -0.6975 -1.2113 -0.6698
29672SOL     OW94851   2.117   2.420   9.291  0.4437 -0.6247  0.0880
29672SOL    HW194852   2.103   2.359   9.219 -0.6726 -1.3551  0.8968
29672SOL    HW294853   2.029   2.448   9.316  0.9212  1.2696 -0.2025
29673SOL     OW94854   3.635   9.934   0.328  0.3601  0.1145  0.2921
29673SOL    HW194855   3.698  10.004   0.309  0.0836  0.0903 -0.7697
29673SOL    HW294856   3.690   9.858   0.349  0.8208 -0.5236 -2.7226
29674SOL     OW94857   2.918   5.194   4.891 -0.5866 -0.0402  0.2641
29674SOL    HW194858   2.972   5.268   4.863 -0.9303 -0.2017 -0.8995
29674SOL    HW294859   2.904   5.144   4.811 -1.2343 -0.7950  0.8387
29675SOL     OW94860   3.839   8.708  10.253  0.7128  0.4530  0.2693
29675SOL    HW194861   3.833   8.631  10.311  1.5749 -0.3527 -0.6595
29675SOL    HW294862   3.781   8.773  10.293 -3.7122 -2.1378 -1.2704
29676SOL     OW94863   3.740   8.635   1.758  0.4724  0.6419  0.2072
29676SOL    HW194864   3.676   8.674   1.700  0.8804  2.3743  0.8780
29676SOL    HW294865   3.727   8.540   1.748 -2.2690  0.9298  0.4600
29677SOL     OW94866   1.139   3.887   6.038  0.1782 -0.6814  0.3262
29677SOL    HW194867   1.111   3.795   6.043  3.6195 -1.8725 -0.1390
29677SOL    HW294868   1.149   3.913   6.130 -0.3157 -0.9219  0.4541
29678SOL     OW94869   7.508   1.565   8.452 -0.3518 -0.0876 -0.4033
29678SOL    HW194870   7.534   1.618   8.527 -0.7483 -0.0951 -0.2586
29678SOL    HW294871   7.415   1.584   8.440 -0.8498 -1.7304  0.4884
29679SOL     OW94872   6.223   5.437   4.817  0.6514  0.2340 -0.2454
29679SOL    HW194873   6.269   5.521   4.823 -0.0309  0.6571 -0.8168
29679SOL    HW294874   6.247   5.403   4.731  1.2484 -0.3627  0.1448
29680SOL     OW94875   9.982   4.771   1.313  0.4492 -0.4459 -0.3617
29680SOL    HW194876  10.000   4.717   1.237 -3.7820  2.7676 -4.2421
29680SOL    HW294877  10.046   4.842   1.309  0.7013 -0.6794 -0.4484
29681SOL     OW94878   5.856  10.424   6.484 -0.3508  0.0360  0.4808
29681SOL    HW194879   5.926  10.377   6.437 -0.6561  0.0669 -0.0143
29681SOL    HW294880   5.881  10.517   6.476 -0.8875  0.1187 -0.4562
29682SOL     OW94881   2.785   3.764  10.119  0.4460 -0.0528  0.5020
29682SOL    HW194882   2.846   3.799  10.054 -0.9091  3.7583  1.0345
29682SOL    HW294883   2.834   3.769  10.202  0.7529 -0.9275  0.3835
29683SOL     OW94884   9.057   6.734   8.059 -0.2636 -0.4424 -0.1490
29683SOL    HW194885   9.011   6.677   8.121 -1.2529 -0.4558 -0.8676
29683SOL    HW294886   9.112   6.790   8.114  0.0323 -1.4659  0.6235
29684SOL     OW94887   7.352   2.815   7.486 -0.9696  0.6004 -0.0485
29684SOL    HW194888   7.259   2.840   7.488 -1.0541  0.2595  0.1909
29684SOL    HW294889   7.361   2.746   7.551 -0.0872  2.1681  1.5704
29685SOL     OW94890   6.218   1.527  10.427  0.2125 -0.0047  0.2986
29685SOL    HW194891   6.214   1.480  10.343  1.4863  1.9230 -0.9367
29685SOL    HW294892   6.309   1.519  10.454  0.6083  2.0943 -0.2358
29686SOL     OW94893  10.463   8.706   1.037  0.0815  0.5695  0.3925
29686SOL    HW194894  10.490   8.636   0.978  0.4185  0.5700  0.5422
29686SOL    HW294895  10.393   8.752   0.990  0.8150  1.0030 -0.3104
29687SOL     OW94896   2.085  10.432   1.607  0.5984 -0.3887  0.5842
29687SOL    HW194897   2.096  10.525   1.626  0.0673  0.2795 -1.9290
29687SOL    HW294898   2.001  10.408   1.648 -0.9569  1.1767 -1.4716
29688SOL     OW94899   6.150   9.699   7.409  0.1520  0.7600 -0.5132
29688SOL    HW194900   6.126   9.756   7.482 -1.2673 -0.3422 -0.0603
29688SOL    HW294901   6.124   9.611   7.438  1.4900 -0.0159 -1.5255
29689SOL     OW94902   4.334   1.868   2.578 -0.1959 -0.5963  0.0609
29689SOL    HW194903   4.300   1.779   2.571  2.0539 -1.4694 -0.6230
29689SOL    HW294904   4.308   1.910   2.496  1.0898 -1.5470 -0.8727
29690SOL     OW94905   8.490   5.627   9.744 -0.2439 -0.8564  0.1594
29690SOL    HW194906   8.490   5.709   9.793 -0.7037 -0.9155  0.2581
29690SOL    HW294907   8.398   5.608   9.727 -0.4885 -3.1404  3.1410
29691SOL     OW94908   9.126   7.538  10.493 -0.2321 -0.0253  0.0674
29691SOL    HW194909   9.059   7.500  10.436 -0.0989 -0.5185  0.2384
29691SOL    HW294910   9.209   7.523  10.447 -0.3234  1.6378 -0.7238
29692SOL     OW94911   7.727   1.233   9.020 -0.0594 -0.0748  0.2025
29692SOL    HW194912   7.815   1.201   8.998 -0.8555 -0.3313 -3.1750
29692SOL    HW294913   7.702   1.184   9.098  1.8142 -1.9132 -0.2756
29693SOL     OW94914   1.462   5.415   0.811 -0.0947  0.2982 -0.0315
29693SOL    HW194915   1.467   5.347   0.744 -0.8434 -0.4078  0.6036
29693SOL    HW294916   1.548   5.457   0.810 -0.1816  0.5098 -1.6244
29694SOL     OW94917   8.746  10.126   8.511 -0.4156 -0.1936  0.3474
29694SOL    HW194918   8.749  10.160   8.600  1.1583 -0.5986  0.4838
29694SOL    HW294919   8.689  10.050   8.515 -0.4130 -0.1634  0.9913
29695SOL     OW94920   4.456  10.528   8.631 -0.2937  0.1698  0.2853
29695SOL    HW194921   4.467  10.433   8.636  2.1921  0.4513  1.5720
29695SOL    HW294922   4.369  10.544   8.667 -0.5217 -1.5642  0.5797
29696SOL     OW94923   4.922   2.277   6.161  0.5977  0.0633 -0.1065
29696SOL    HW194924   4.958   2.365   6.152 -1.1131  0.7557 -0.5671
29696SOL    HW294925   4.910   2.246   6.071 -1.6100  0.6163 -0.0716
29697SOL     OW94926   0.555   1.740   7.930  0.5857 -0.3308 -0.1601
29697SOL    HW194927   0.584   1.778   7.848 -0.8791 -0.1555 -0.6095
29697SOL    HW294928   0.618   1.669   7.947  0.2702 -1.1028 -2.0076
29698SOL     OW94929   5.314   2.471   5.723  0.6470  0.0883 -0.0288
29698SOL    HW194930   5.381   2.479   5.655 -0.0476 -1.7116 -1.0118
29698SOL    HW294931   5.341   2.394   5.774  0.7471  0.9628  1.2749
29699SOL     OW94932   5.996   9.890   7.990  0.1290 -0.2482  0.3898
29699SOL    HW194933   5.999   9.973   7.941 -0.4103 -1.2239 -1.4063
29699SOL    HW294934   6.039   9.827   7.932 -2.3150 -1.8993  0.2159
29700SOL     OW94935   1.493   3.563   1.752  0.5114  0.4297 -0.5681
29700SOL    HW194936   1.550   3.638   1.737  2.6403 -0.7887  0.8624
29700SOL    HW294937   1.471   3.568   1.845  0.9632 -0.8711 -0.3702
29701SOL     OW94938   8.933   9.686   4.761 -0.2122 -0.2948 -0.2844
29701SOL    HW194939   8.981   9.752   4.711  0.0164 -0.5468 -0.4047
29701SOL    HW294940   8.869   9.736   4.812  0.3241  0.0678  0.0402
29702SOL     OW94941   4.707   3.031  10.619 -0.5299  0.0814  0.0100
29702SOL    HW194942   4.639   3.098  10.624  0.6924  1.5304 -1.6982
29702SOL    HW294943   4.776   3.069  10.565  2.0661 -0.9816  2.2994
29703SOL     OW94944   4.302   3.987  10.060 -0.2983 -0.2569  0.2611
29703SOL    HW194945   4.305   4.082  10.057  0.8515 -0.2749  0.1433
29703SOL    HW294946   4.392   3.960  10.041 -0.5919 -1.3620  0.3642
29704SOL     OW94947   7.877   4.484   2.489 -0.0425  0.2684 -0.1304
29704SOL    HW194948   7.866   4.398   2.530 -0.7834  0.0667 -0.7355
29704SOL    HW294949   7.970   4.487   2.465  0.2654  0.1410  0.9832
29705SOL     OW94950   5.740   5.161   9.737  0.7814  0.2092 -0.9426
29705SOL    HW194951   5.723   5.255   9.742  0.8939  0.2199 -0.7420
29705SOL    HW294952   5.806   5.151   9.669 -1.3185 -0.0051 -3.0648
29706SOL     OW94953   8.298   4.322   1.720 -0.4515 -0.2836  0.1522
29706SOL    HW194954   8.225   4.318   1.783 -1.1961  0.2936 -0.6533
29706SOL    HW294955   8.287   4.406   1.676  1.7890  0.6656  1.2688
29707SOL     OW94956   1.875   9.076   2.286 -0.2069 -0.2672 -0.0646
29707SOL    HW194957   1.815   9.004   2.303 -2.5414  0.8411 -2.7761
29707SOL    HW294958   1.864   9.134   2.361 -1.2616 -0.9018  0.3017
29708SOL     OW94959   7.626   0.899   5.775 -0.4780 -0.4438 -0.0736
29708SOL    HW194960   7.583   0.982   5.755  2.1442  0.3969 -2.9265
29708SOL    HW294961   7.669   0.915   5.859 -1.0029  0.6434  0.0146
29709SOL     OW94962   6.899   5.207  10.270  0.0611  0.2130 -0.4227
29709SOL    HW194963   6.827   5.252  10.314  0.2196  1.9337 -1.7975
29709SOL    HW294964   6.950   5.167  10.340  0.1667  2.5895  0.9630
29710SOL     OW94965   5.888   9.537   9.927  0.3715  0.2819 -0.7905
29710SOL    HW194966   5.974   9.513   9.961 -0.5996  2.5029  4.1302
29710SOL    HW294967   5.832   9.463   9.952  0.2415  0.4170 -0.6830
29711SOL     OW94968   6.296   3.817   7.011 -0.1604  0.0807 -0.1975
29711SOL    HW194969   6.305   3.871   7.090 -1.1020 -0.2392  0.1462
29711SOL    HW294970   6.213   3.846   6.973  1.0264  1.3698 -1.9737
29712SOL     OW94971   7.871   2.900   2.071  0.1680 -0.5917  0.4109
29712SOL    HW194972   7.828   2.891   2.156 -0.1054 -0.0085  0.3330
29712SOL    HW294973   7.911   2.987   2.073  0.1930 -0.5906 -0.0425
29713SOL     OW94974   8.779   3.778   3.153 -0.2250  0.2652 -0.0281
29713SOL    HW194975   8.698   3.819   3.123 -0.9929 -0.9373  0.3233
29713SOL    HW294976   8.757   3.686   3.163  1.9001 -0.6283 -2.4974
29714SOL     OW94977   3.329   1.382   8.791 -0.5370  0.0252  0.0037
29714SOL    HW194978   3.281   1.300   8.806 -1.2246  0.2449 -0.9022
29714SOL    HW294979   3.351   1.413   8.878  0.0706 -1.3126  0.3556
29715SOL     OW94980   9.132   9.544  10.715  0.3729 -0.6062 -0.2251
29715SOL    HW194981   9.168   9.456  10.724 -0.5270 -0.9267  0.3721
29715SOL    HW294982   9.134   9.581  10.803 -1.1708 -0.8181 -0.0671
29716SOL     OW94983   2.712   4.802   0.136  0.6051  0.1820  0.1114
29716SOL    HW194984   2.623   4.767   0.145  0.0972  1.6773  1.5758
29716SOL    HW294985   2.753   4.748   0.069 -1.8688  0.3283 -1.6478
29717SOL     OW94986   4.741   8.794   3.272  0.4790  0.3508 -0.2382
29717SOL    HW194987   4.728   8.836   3.187  1.1703  1.3358  0.1324
29717SOL    HW294988   4.832   8.766   3.272  0.1407 -0.8325 -0.3168
29718SOL     OW94989   6.453  10.548   9.650 -0.6355  0.0041 -0.0907
29718SOL    HW194990   6.510  10.603   9.596  0.8166 -1.3481 -0.0339
29718SOL    HW294991   6.446  10.466   9.600 -1.6354 -0.2405  0.4369
29719SOL     OW94992   0.394   7.398   1.212 -0.5359 -0.5992  0.0550
29719SOL    HW194993   0.464   7.333   1.203  0.2812  0.0737  1.2880
29719SOL    HW294994   0.342   7.367   1.287 -0.3627 -0.0479  0.4106
29720SOL     OW94995   3.789   0.752   2.326 -0.0149  0.5433 -0.0049
29720SOL    HW194996   3.882   0.752   2.350  0.3522  1.2418 -1.3136
29720SOL    HW294997   3.789   0.772   2.232 -1.4436 -0.4298 -0.2405
29721SOL     OW94998   0.211   9.821   9.675 -0.6071 -0.5561  0.9201
29721SOL    HW194999   0.124   9.861   9.675 -0.5420 -0.4117  1.0405
29721SOL    HW295000   0.269   9.890   9.708  0.6379  1.6196 -4.6848
29722SOL     OW95001   6.624   6.619   5.259  0.5172  0.1527 -0.1579
29722SOL    HW195002   6.562   6.571   5.313 -0.3980  1.2125 -0.2197
29722SOL    HW295003   6.665   6.553   5.203 -1.3310 -0.4558 -0.8608
29723SOL     OW95004  10.593   0.102   1.352 -0.0898 -0.3345 -0.1056
29723SOL    HW195005  10.527   0.142   1.295 -1.2537 -2.4788 -0.3796
29723SOL    HW295006  10.629   0.030   1.301  2.2639  0.5511  0.1922
29724SOL     OW95007   7.088   5.674   2.262 -0.5212 -0.0667 -0.6467
29724SOL    HW195008   7.033   5.740   2.304 -0.0008 -0.5431  0.8438
29724SOL    HW295009   7.032   5.597   2.254 -0.4204 -0.1955 -0.1580
29725SOL     OW95010   7.364   5.525   5.898 -0.6143  0.3297  0.4981
29725SOL    HW195011   7.334   5.478   5.976 -2.5827 -0.0554 -0.4268
29725SOL    HW295012   7.298   5.506   5.832  0.5696  1.3221 -1.0356
29726SOL     OW95013   5.873   7.950   8.339  0.6307  0.5364  0.5006
29726SOL    HW195014   5.884   8.039   8.371  1.5398  0.7590 -0.3709
29726SOL    HW295015   5.959   7.909   8.351  0.0560 -0.4338  1.4936
29727SOL     OW95016   0.722   3.110   6.569 -0.0848  0.1505  0.7058
29727SOL    HW195017   0.715   3.166   6.646 -1.4975  1.3112 -0.2154
29727SOL    HW295018   0.635   3.112   6.530  0.8783  0.5018 -1.5403
29728SOL     OW95019   5.967   6.619   8.501 -0.6388 -1.2002 -0.1407
29728SOL    HW195020   6.010   6.551   8.448 -0.0503 -1.7783  1.0319
29728SOL    HW295021   5.973   6.586   8.591 -3.4948 -1.2597  0.1072
29729SOL     OW95022   6.939   7.564   6.744  0.1786 -0.8639  0.3907
29729SOL    HW195023   6.845   7.569   6.756  0.1470 -1.1498  0.2871
29729SOL    HW295024   6.958   7.470   6.746  0.3204 -0.8673 -0.6409
29730SOL     OW95025  10.456   9.981   2.219 -0.5952  0.2579  0.3075
29730SOL    HW195026  10.483   9.970   2.127  1.5261 -2.0016  1.0651
29730SOL    HW295027  10.510   9.917   2.266 -2.8399  0.1512  2.9319
29731SOL     OW95028   1.754   5.946   2.723  0.1670  0.8806 -0.1005
29731SOL    HW195029   1.734   6.039   2.730  0.2490  0.7976  2.1881
29731SOL    HW295030   1.842   5.938   2.760  0.3500 -0.0544 -0.7118
29732SOL     OW95031   0.050   0.530   6.332  0.0087 -0.1230 -0.5089
29732SOL    HW195032   0.112   0.467   6.369 -1.1506 -0.9935  0.0201
29732SOL    HW295033  -0.036   0.493   6.351 -0.7273  1.7124 -0.0393
29733SOL     OW95034   9.798   4.614   6.008  0.1308  0.0270  0.0868
29733SOL    HW195035   9.751   4.681   6.058 -1.7391 -1.4869  0.4791
29733SOL    HW295036   9.804   4.651   5.919 -1.7638  0.3483  0.0447
29734SOL     OW95037   4.666   0.942   4.830  0.1794 -0.5735 -0.6206
29734SOL    HW195038   4.629   1.030   4.825 -0.8691 -1.0432 -3.2462
29734SOL    HW295039   4.634   0.907   4.913  2.6069  2.2320  1.7179
29735SOL     OW95040   6.981   8.144   5.266  0.4198  0.1390  0.1972
29735SOL    HW195041   7.011   8.181   5.349  2.3382  0.8789 -0.7616
29735SOL    HW295042   6.970   8.050   5.284 -2.2181  0.7008  2.0397
29736SOL     OW95043   8.945   0.835   5.874  0.5788  0.3946  0.1929
29736SOL    HW195044   8.975   0.750   5.906 -0.2711 -0.2351 -0.6275
29736SOL    HW295045   8.901   0.875   5.949  0.8053  0.0206  0.5282
29737SOL     OW95046   3.356   8.842   5.013 -0.5375 -0.1826 -0.0447
29737SOL    HW195047   3.339   8.783   4.940  1.3014 -0.8235 -0.0105
29737SOL    HW295048   3.296   8.915   5.000 -1.7958 -1.3243 -0.9372
29738SOL     OW95049   0.051   1.509   3.849 -0.4599  0.3327  1.2273
29738SOL    HW195050   0.109   1.566   3.900  0.6147 -1.7240  2.4334
29738SOL    HW295051   0.089   1.506   3.762 -0.1145  0.8545  1.3583
29739SOL     OW95052   0.329   5.499   0.083  0.1257  0.1781  0.1481
29739SOL    HW195053   0.256   5.450   0.043  1.3301 -0.4084 -1.4431
29739SOL    HW295054   0.351   5.565   0.018  3.1016 -1.7215 -0.9723
29740SOL     OW95055   5.929  10.262   3.658 -0.5528 -0.4765 -0.8039
29740SOL    HW195056   6.021  10.265   3.682 -0.0357  0.2703 -2.7179
29740SOL    HW295057   5.888  10.329   3.712  0.0434 -0.6587 -0.1013
29741SOL     OW95058   8.173   7.456  10.429 -0.5215 -0.1112 -0.5436
29741SOL    HW195059   8.142   7.394  10.363 -1.0223 -0.6765  0.2022
29741SOL    HW295060   8.234   7.405  10.483  1.3061  0.8234 -1.6325
29742SOL     OW95061   8.873   8.478  10.467  0.2945  0.0360  0.0734
29742SOL    HW195062   8.853   8.431  10.386 -0.4845 -0.9963  0.8353
29742SOL    HW295063   8.849   8.417  10.537  0.8670  0.9342  1.0933
29743SOL     OW95064  10.249   9.437  10.281  0.9180 -0.4343 -0.0936
29743SOL    HW195065  10.290   9.504  10.337 -2.8480  2.5709 -0.5208
29743SOL    HW295066  10.261   9.470  10.192  0.6542 -1.3663 -0.4796
29744SOL     OW95067   8.922  10.518   7.272  0.8826  0.2225 -0.0507
29744SOL    HW195068   8.975  10.513   7.192 -0.6624  1.0672 -1.1755
29744SOL    HW295069   8.834  10.492   7.245  0.5643 -0.6429  1.6569
29745SOL     OW95070   3.925   6.384   9.693  0.2361  0.1203 -0.5728
29745SOL    HW195071   3.863   6.449   9.660 -0.6124 -0.8768 -0.9996
29745SOL    HW295072   4.010   6.425   9.683 -0.3339  1.4707 -0.1142
29746SOL     OW95073   8.915   7.358   7.659 -0.0715 -0.3836  0.7995
29746SOL    HW195074   8.998   7.353   7.707  0.3170  0.6056  0.2685
29746SOL    HW295075   8.908   7.273   7.615  1.3905  0.0127 -0.2920
29747SOL     OW95076   2.278   2.515   2.510  0.4113 -0.2749 -0.0862
29747SOL    HW195077   2.364   2.494   2.474  0.9490 -0.5732  1.2781
29747SOL    HW295078   2.286   2.495   2.604 -0.9848  0.1949  0.1633
29748SOL     OW95079   3.085  10.281   4.515  0.2501 -0.0048  0.0894
29748SOL    HW195080   3.133  10.363   4.514 -0.1026  0.2870  1.9927
29748SOL    HW295081   3.025  10.286   4.441 -0.3783  1.8558  0.6755
29749SOL     OW95082   2.026   0.517   9.463  0.3671  0.4505 -0.0679
29749SOL    HW195083   2.025   0.604   9.503  1.4351  0.8588 -0.8799
29749SOL    HW295084   2.118   0.493   9.458  0.0493 -1.1700  1.0056
29750SOL     OW95085   1.477   4.291   0.898  0.5242  0.2616 -0.2582
29750SOL    HW195086   1.456   4.214   0.845  0.3286  0.4965 -0.5204
29750SOL    HW295087   1.533   4.344   0.842 -0.9050  1.2444 -0.8146
29751SOL     OW95088   8.207   9.167   4.621 -0.0564  0.8588 -0.5179
29751SOL    HW195089   8.152   9.128   4.554  2.9339 -1.1573 -2.0169
29751SOL    HW295090   8.217   9.099   4.687  1.2673  0.8572 -0.6958
29752SOL     OW95091   3.045   8.199   1.765  0.6250 -0.1661  0.0115
29752SOL    HW195092   3.071   8.209   1.857 -0.2256  1.4984  0.1112
29752SOL    HW295093   3.053   8.105   1.748 -0.2256 -0.6883  2.1169
29753SOL     OW95094   2.959   0.384   2.884 -0.3256 -0.0988 -0.1816
29753SOL    HW195095   3.036   0.416   2.930 -0.2463 -1.6869  0.8755
29753SOL    HW295096   2.973   0.290   2.876 -2.6920 -0.6512  1.2036
29754SOL     OW95097   2.863   1.019   9.976 -0.3636  0.2897  0.2535
29754SOL    HW195098   2.900   0.934   9.998  0.0737  0.7926  1.6205
29754SOL    HW295099   2.905   1.044   9.894  0.7188 -0.1114  0.6682
29755SOL     OW95100   0.681   9.040   4.023  0.0905  0.2930  0.3825
29755SOL    HW195101   0.740   9.106   4.061 -1.3463  1.1004  1.3013
29755SOL    HW295102   0.611   9.031   4.088 -0.7010 -0.7868 -0.5895
29756SOL     OW95103   4.254   8.393   4.947 -0.1042 -0.8785  0.0827
29756SOL    HW195104   4.236   8.412   4.855  0.5579 -0.5459  0.0163
29756SOL    HW295105   4.189   8.327   4.971  0.0084 -1.3121 -0.7546
29757SOL     OW95106   6.019   7.196   4.625  0.5076  0.0319 -0.7775
29757SOL    HW195107   5.997   7.276   4.577 -0.4603  0.7937  0.8569
29757SOL    HW295108   5.965   7.128   4.584 -1.5090  0.9746  0.1596
29758SOL     OW95109   9.627   8.629   9.349  0.4488  0.0020 -0.1799
29758SOL    HW195110   9.551   8.580   9.381  0.7692 -1.4667 -1.4901
29758SOL    HW295111   9.702   8.581   9.382  0.7986  0.7669  0.1410
29759SOL     OW95112   1.939   9.839   4.327  0.0882 -1.0171 -0.4661
29759SOL    HW195113   1.939   9.744   4.342  2.9527 -1.3224 -1.7059
29759SOL    HW295114   1.949   9.848   4.232  1.5055  0.4547 -0.2273
29760SOL     OW95115   0.525   6.755   0.812 -0.2323  0.2411 -0.3415
29760SOL    HW195116   0.616   6.728   0.819 -0.8930 -2.4065 -0.9108
29760SOL    HW295117   0.526   6.828   0.750  1.3831 -0.3826 -1.0999
29761SOL     OW95118   1.991   0.055   2.177 -0.7736 -0.0717 -0.0844
29761SOL    HW195119   1.958   0.028   2.263 -1.2199 -1.0228 -0.5444
29761SOL    HW295120   2.009  -0.027   2.131  1.9082  0.3621 -0.0027
29762SOL     OW95121   8.682  10.159   4.548  0.3310  0.2153  0.6390
29762SOL    HW195122   8.679  10.098   4.475  0.4435 -0.4977  1.2217
29762SOL    HW295123   8.705  10.243   4.508 -0.0683 -0.0650 -0.1976
29763SOL     OW95124   5.676   7.316   7.511 -0.3582 -0.0151  0.8299
29763SOL    HW195125   5.606   7.380   7.527 -1.2319 -0.5471 -0.6841
29763SOL    HW295126   5.756   7.368   7.514 -0.9868  1.0042  0.5297
29764SOL     OW95127   4.776   8.786   4.947  0.2321  0.0733 -0.4047
29764SOL    HW195128   4.757   8.732   5.024 -0.2964  1.4575  0.4752
29764SOL    HW295129   4.825   8.861   4.981 -0.6050  1.0627 -1.2979
29765SOL     OW95130  10.044   4.135   0.161  0.0208 -0.2007 -0.1544
29765SOL    HW195131  10.034   4.138   0.256 -0.2028  1.9688 -0.1935
29765SOL    HW295132  10.114   4.198   0.142  0.5963 -1.1711 -1.3853
29766SOL     OW95133   6.296   5.542   6.019 -0.1078  0.0954 -0.2152
29766SOL    HW195134   6.362   5.599   5.981  1.0396 -1.3649 -0.4963
29766SOL    HW295135   6.225   5.542   5.955  0.5301  0.0356 -0.9448
29767SOL     OW95136   2.099   5.508   3.107 -0.3129 -0.1310  0.2927
29767SOL    HW195137   2.084   5.431   3.051 -1.1875  0.3916 -0.2316
29767SOL    HW295138   2.036   5.572   3.074 -0.6185  0.3054  1.6890
29768SOL     OW95139   0.231   3.606   8.443 -0.0756 -0.0524 -0.7515
29768SOL    HW195140   0.213   3.611   8.349 -0.9513 -0.1060 -0.5924
29768SOL    HW295141   0.145   3.601   8.484  0.3121 -2.3206 -0.0656
29769SOL     OW95142   1.366   9.554   0.164  0.1650 -0.0998  0.0641
29769SOL    HW195143   1.272   9.537   0.164  0.2154 -0.3842  0.0484
29769SOL    HW295144   1.380   9.613   0.090 -0.4014  2.2517  1.6824
29770SOL     OW95145   7.578   9.930   9.447  0.0332 -0.0612  0.7644
29770SOL    HW195146   7.635   9.917   9.523  0.8220  0.4667  0.2747
29770SOL    HW295147   7.515   9.858   9.452  2.4879 -2.4584 -0.3070
29771SOL     OW95148   7.916   3.523   9.803  0.1375  0.2364  0.0437
29771SOL    HW195149   7.967   3.578   9.743  0.3696  1.4288  1.2752
29771SOL    HW295150   7.981   3.484   9.861 -0.1847  0.1799  0.3700
29772SOL     OW95151   6.765   8.717   9.722  0.8017  0.1441 -1.0657
29772SOL    HW195152   6.774   8.640   9.667 -0.3829  1.2657 -2.9408
29772SOL    HW295153   6.848   8.764   9.712  2.3520 -1.7257  1.6484
29773SOL     OW95154   2.574   5.582   5.290 -0.0540 -0.1296 -0.7579
29773SOL    HW195155   2.520   5.512   5.327  0.1813 -0.9114 -1.8488
29773SOL    HW295156   2.638   5.537   5.236  1.1085  0.8424 -0.2505
29774SOL     OW95157   1.734   2.491   1.521  0.5237 -0.1838 -0.2259
29774SOL    HW195158   1.639   2.505   1.524  0.3929 -0.2259 -2.6356
29774SOL    HW295159   1.763   2.506   1.612 -1.7456 -0.0608  0.5410
29775SOL     OW95160   3.727   6.992   6.906 -0.7154  0.2045 -0.6038
29775SOL    HW195161   3.726   6.906   6.863 -0.5342 -0.9182  1.4822
29775SOL    HW295162   3.696   7.053   6.839 -2.5113 -1.7379 -1.6666
29776SOL     OW95163   3.429   6.222   3.702  0.0328 -0.2242 -0.3088
29776SOL    HW195164   3.384   6.137   3.699 -0.2255 -0.0783 -0.7895
29776SOL    HW295165   3.409   6.257   3.789 -1.6039  0.2497 -0.8258
29777SOL     OW95166   4.626   6.482   1.546 -0.1034  0.0788 -0.4685
29777SOL    HW195167   4.545   6.516   1.582  0.4764  1.5427 -0.4770
29777SOL    HW295168   4.658   6.552   1.489  1.0112 -0.5954 -0.7015
29778SOL     OW95169   4.047   6.889   4.638  0.6842 -0.0135 -0.8295
29778SOL    HW195170   3.984   6.866   4.707  0.9014  0.5252 -0.4442
29778SOL    HW295171   4.044   6.984   4.633  1.5850  0.0351 -0.6911
29779SOL     OW95172   9.317   2.430   3.889  0.2448  0.4228  0.1252
29779SOL    HW195173   9.382   2.492   3.922  0.2444  0.8684 -0.6868
29779SOL    HW295174   9.277   2.475   3.815 -0.3748 -0.2023  0.0770
29780SOL     OW95175   3.400   9.848   6.750 -0.0603 -0.2593 -0.0681
29780SOL    HW195176   3.315   9.860   6.709  0.4498  2.2832 -0.5792
29780SOL    HW295177   3.463   9.871   6.681  0.9849 -0.8443  0.6679
29781SOL     OW95178   9.829   9.891   3.421  0.3220  0.1038 -0.3648
29781SOL    HW195179   9.805   9.968   3.473 -0.1532 -0.6396  0.5474
29781SOL    HW295180   9.864   9.830   3.485 -0.0553 -0.7413 -0.9553
29782SOL     OW95181  10.589   2.106   3.225  0.0987 -0.0204 -0.8454
29782SOL    HW195182  10.584   2.034   3.288 -0.1344 -0.2971 -1.1774
29782SOL    HW295183  10.666   2.086   3.172  1.7329  1.4620  0.8645
29783SOL     OW95184  10.347   6.844  10.166  1.0574  0.3869  0.6139
29783SOL    HW195185  10.279   6.779  10.181  1.3447  0.2965  1.5849
29783SOL    HW295186  10.426   6.793  10.150  0.8980  0.4893 -0.6752
29784SOL     OW95187   0.038   3.883   5.561  0.2978 -0.0619  0.2790
29784SOL    HW195188   0.072   3.798   5.530 -0.3207  0.1986 -1.1968
29784SOL    HW295189   0.105   3.946   5.535  1.1025 -0.1316  2.0101
29785SOL     OW95190   8.537   9.538   6.711 -0.2543  0.2968  0.2313
29785SOL    HW195191   8.581   9.529   6.627 -1.3962 -1.2110 -0.2450
29785SOL    HW295192   8.501   9.451   6.729 -1.5688  1.0472  1.3988
29786SOL     OW95193  10.043  10.468   3.284  0.0331 -0.3851 -0.2537
29786SOL    HW195194  10.088  10.510   3.357 -1.6195 -0.1455  0.6479
29786SOL    HW295195  10.058  10.374   3.297 -0.5885 -0.3718  0.6392
29787SOL     OW95196   1.348   1.769   4.558  0.4145 -0.5046 -0.4988
29787SOL    HW195197   1.327   1.859   4.535 -0.0175 -0.2419  0.8127
29787SOL    HW295198   1.271   1.738   4.606  1.2863 -0.9583  0.6443
29788SOL     OW95199   8.096   7.588   8.887 -0.7851  0.1872  0.5723
29788SOL    HW195200   8.120   7.506   8.930 -2.2077  0.4794  2.0122
29788SOL    HW295201   8.078   7.563   8.796  0.2755 -0.8111  0.6129
29789SOL     OW95202   3.824   1.052   3.198 -0.0348  0.1181 -0.4342
29789SOL    HW195203   3.729   1.046   3.205  0.0354 -1.3278 -0.2066
29789SOL    HW295204   3.846   1.139   3.231 -1.1352 -0.2583  1.4508
29790SOL     OW95205   2.868   9.935   4.390 -0.2370  0.1762 -0.2631
29790SOL    HW195206   2.826  10.000   4.333 -1.9083 -0.1017  0.5747
29790SOL    HW295207   2.802   9.916   4.457  1.1855 -0.4624  1.0282
29791SOL     OW95208  10.361   1.556   4.922  0.2021 -0.1516 -0.1500
29791SOL    HW195209  10.357   1.461   4.930 -2.4686 -0.2537 -1.4140
29791SOL    HW295210  10.420   1.572   4.848  0.2687 -0.8579 -0.2524
29792SOL     OW95211   9.738   3.932   9.765 -0.0193 -0.5729 -0.3554
29792SOL    HW195212   9.681   3.971   9.831  1.6052  0.5061  0.4642
29792SOL    HW295213   9.814   3.990   9.761 -0.6807  0.3019 -4.3035
29793SOL     OW95214   6.551   7.277   6.938 -0.2461  0.4118  0.0134
29793SOL    HW195215   6.540   7.332   7.016 -3.5478 -0.1975  0.1230
29793SOL    HW295216   6.516   7.330   6.867  0.7586  0.1337 -0.7063
29794SOL     OW95217   8.436   0.188   8.003 -0.2267  0.2862  0.0038
29794SOL    HW195218   8.453   0.116   7.943 -2.1002 -1.2691  1.2427
29794SOL    HW295219   8.492   0.170   8.079  0.4052  0.9862 -0.2795
29795SOL     OW95220   5.735   9.672   3.616 -0.2432  0.4113  0.0118
29795SOL    HW195221   5.761   9.662   3.525  1.0217 -0.0078  0.3986
29795SOL    HW295222   5.645   9.638   3.619 -1.0546  2.2610 -1.4471
29796SOL     OW95223   9.785  10.091   1.498  0.4503  0.2255  0.0758
29796SOL    HW195224   9.832  10.022   1.452  1.1248 -0.7012  2.0458
29796SOL    HW295225   9.826  10.094   1.585 -0.5258  2.1261  0.5156
29797SOL     OW95226   3.938  10.695   3.843  0.3444 -0.2628  0.3416
29797SOL    HW195227   3.943  10.757   3.771  0.4771  2.0174  2.1803
29797SOL    HW295228   3.844  10.680   3.856  0.2714  0.2771  0.4530
29798SOL     OW95229   7.806   0.849   1.993 -0.0106 -0.6444  0.3326
29798SOL    HW195230   7.744   0.907   1.950  1.7478  0.2218 -1.1516
29798SOL    HW295231   7.829   0.784   1.926  0.6004 -1.0057  0.8731
29799SOL     OW95232   1.109   9.103   6.454 -0.0533 -0.7104  0.0058
29799SOL    HW195233   1.134   9.195   6.453  1.7089 -1.1700 -0.4840
29799SOL    HW295234   1.103   9.081   6.547 -1.1550  0.0299  0.1372
29800SOL     OW95235   7.477   0.879   5.007 -0.5939  0.1177 -0.1408
29800SOL    HW195236   7.438   0.878   5.094 -0.2442 -0.4791  0.0151
29800SOL    HW295237   7.549   0.941   5.013 -1.8780  1.7521 -0.6127
29801SOL     OW95238   6.163  10.621   9.059 -0.6464 -0.9103  0.3998
29801SOL    HW195239   6.085  10.673   9.041 -0.4347 -0.4498  0.7920
29801SOL    HW295240   6.174  10.566   8.982 -1.9615 -1.7334  0.7580
29802SOL     OW95241   6.208   5.886   8.549 -0.0995 -0.0731  0.7337
29802SOL    HW195242   6.280   5.942   8.577  0.4305  0.4088 -1.4147
29802SOL    HW295243   6.130   5.941   8.558 -0.0116 -0.0685  1.5677
29803SOL     OW95244   4.948   8.292   2.312  0.4361  0.3864 -0.2508
29803SOL    HW195245   4.912   8.314   2.398  0.1019  0.8105 -0.4941
29803SOL    HW295246   4.902   8.350   2.251  0.8206  0.2383 -0.6902
29804SOL     OW95247   5.762   5.513   2.672  0.0438  0.3675 -0.1249
29804SOL    HW195248   5.753   5.507   2.767  2.4951 -3.7317  0.0861
29804SOL    HW295249   5.753   5.606   2.653 -0.0454  1.4503  4.1678
29805SOL     OW95250   6.997  10.431   0.239  0.3465  0.0708 -0.2715
29805SOL    HW195251   6.930  10.495   0.263  0.0317 -0.4290  0.2216
29805SOL    HW295252   7.029  10.398   0.323  1.0637  0.1512 -0.5093
29806SOL     OW95253   4.042   3.923   6.836 -0.0044 -0.0113  0.4505
29806SOL    HW195254   4.023   3.832   6.857  1.2629 -0.3017  0.3831
29806SOL    HW295255   4.050   3.924   6.740  0.8230 -0.0067  0.5144
29807SOL     OW95256   1.768   1.675   8.968 -0.3948 -0.2898 -0.0295
29807SOL    HW195257   1.838   1.691   9.031 -0.6288 -0.2439  0.2212
29807SOL    HW295258   1.721   1.599   9.002 -0.8101  0.0212  0.1067
29808SOL     OW95259   7.209   6.080   5.677  0.3885  0.8037  0.1427
29808SOL    HW195260   7.202   6.166   5.635  1.7116 -0.2834 -2.5682
29808SOL    HW295261   7.281   6.090   5.739 -1.2788  2.3291  1.9481
29809SOL     OW95262   8.495   6.396  10.305 -0.5362 -0.2286 -0.3461
29809SOL    HW195263   8.512   6.457  10.377  0.7343 -0.6721 -0.2519
29809SOL    HW295264   8.544   6.317  10.328 -0.6253 -0.6034 -1.3912
29810SOL     OW95265   7.475   7.583   6.786  0.1091 -0.4079 -0.4083
29810SOL    HW195266   7.504   7.508   6.733 -0.6305 -0.6892 -0.4286
29810SOL    HW295267   7.399   7.551   6.833  0.4307  0.0153  0.4172
29811SOL     OW95268   6.930   1.102  10.171  1.0263 -0.3319  0.7571
29811SOL    HW195269   6.837   1.110  10.151  1.0477 -0.7390  0.4871
29811SOL    HW295270   6.975   1.126  10.090  1.1370 -0.8059  0.6688
29812SOL     OW95271   7.387  10.391   5.691  0.4135 -0.0548  0.2556
29812SOL    HW195272   7.294  10.404   5.675  0.0423 -0.0064  2.1951
29812SOL    HW295273   7.430  10.425   5.612 -1.2104 -0.6979 -0.9729
29813SOL     OW95274   6.396   6.968   4.579  0.0640 -0.8882  0.0066
29813SOL    HW195275   6.441   6.900   4.629  1.5116 -1.1888 -1.5810
29813SOL    HW295276   6.360   6.922   4.503  2.0663  0.1936 -1.7160
29814SOL     OW95277   7.998   6.278   4.006  0.3743  0.0729  0.2274
29814SOL    HW195278   8.023   6.290   3.915  0.6603 -0.2533  0.2595
29814SOL    HW295279   8.080   6.290   4.055  0.5586 -1.3660  0.3087
29815SOL     OW95280   7.129   5.909   5.490 -0.1978 -0.1273  0.0633
29815SOL    HW195281   7.185   5.918   5.413 -0.4538  1.2633  0.0174
29815SOL    HW295282   7.157   5.979   5.548 -3.0274  1.8326 -0.7077
29816SOL     OW95283   7.042   0.811   3.493  0.8071  0.1853  0.1648
29816SOL    HW195284   7.055   0.730   3.543  0.2034 -1.0666 -1.6174
29816SOL    HW295285   6.947   0.818   3.483  0.9198 -0.5709 -2.1920
29817SOL     OW95286   0.641   0.172   8.793 -0.2502 -0.0054 -0.3887
29817SOL    HW195287   0.578   0.110   8.829  1.7100 -1.6664  0.4227
29817SOL    HW295288   0.675   0.219   8.869  0.0145  0.3466 -0.7212
29818SOL     OW95289   0.511   6.884   2.283 -0.5137 -0.4496  0.3248
29818SOL    HW195290   0.454   6.817   2.246 -1.5205 -0.0217  1.0731
29818SOL    HW295291   0.600   6.852   2.266 -0.9300 -0.5985 -1.8436
29819SOL     OW95292   3.961   4.022   0.562  0.2150  0.3209  0.5219
29819SOL    HW195293   3.939   4.032   0.469  0.5307 -0.3024  0.3750
29819SOL    HW295294   4.034   3.960   0.562  0.1038  0.1916  1.2009
29820SOL     OW95295   4.143   0.797  10.433  0.1321  0.2158  0.1775
29820SOL    HW195296   4.074   0.784  10.498 -0.8906 -0.0346 -0.9369
29820SOL    HW295297   4.150   0.713  10.388  0.4654  0.5460 -0.3948
29821SOL     OW95298   5.857   5.653   2.213 -0.8398 -0.1173 -0.2636
29821SOL    HW195299   5.866   5.729   2.269 -1.2097 -0.6156  0.4925
29821SOL    HW295300   5.921   5.666   2.143  0.2116  0.1064  0.7303
29822SOL     OW95301   9.249   1.860  10.692  0.2810 -0.3424 -0.2280
29822SOL    HW195302   9.218   1.775  10.664  0.6042 -0.2765 -0.7957
29822SOL    HW295303   9.317   1.840  10.757  0.3661 -0.5195 -0.3698
29823SOL     OW95304   6.281   6.125   5.624  0.1184 -0.0252  0.1297
29823SOL    HW195305   6.306   6.080   5.543  2.0121 -0.5932  0.9676
29823SOL    HW295306   6.243   6.208   5.595 -0.0048 -0.5691 -1.3516
29824SOL     OW95307   6.314   5.050   4.650  0.4198  0.3488 -0.3347
29824SOL    HW195308   6.363   5.103   4.712  2.3060  0.0673 -1.5054
29824SOL    HW295309   6.298   4.968   4.697  1.0132  0.4768  0.1140
29825SOL     OW95310   0.125   4.837   9.811  0.1086 -0.8248  0.0609
29825SOL    HW195311   0.201   4.839   9.752 -0.9753 -1.8536 -1.4465
29825SOL    HW295312   0.050   4.832   9.752 -1.2614  1.6880  1.4731
29826SOL     OW95313   5.999   4.787   0.230 -0.3560 -0.4000 -0.3631
29826SOL    HW195314   6.024   4.697   0.253 -2.5483 -0.9283  0.2161
29826SOL    HW295315   5.932   4.777   0.163 -1.2130  0.7455  0.2849
29827SOL     OW95316   7.540   5.123   3.536 -0.4491  0.0846 -0.1451
29827SOL    HW195317   7.619   5.145   3.487  1.4995  0.1074  2.7265
29827SOL    HW295318   7.544   5.028   3.547 -3.9811 -0.9039 -4.7013
29828SOL     OW95319   1.844   0.149   3.709  0.0859 -0.0644 -0.6857
29828SOL    HW195320   1.815   0.073   3.760 -1.1706  0.6371 -0.3027
29828SOL    HW295321   1.814   0.131   3.620  1.7674 -1.0228 -1.0904
29829SOL     OW95322   6.653   3.716   5.680  0.4393 -0.0537 -0.2750
29829SOL    HW195323   6.560   3.736   5.691  0.2759 -1.3084  0.9750
29829SOL    HW295324   6.691   3.736   5.766  0.9868 -1.1846 -0.2443
29830SOL     OW95325   9.501  10.132   9.401 -0.5697 -0.1821  0.2518
29830SOL    HW195326   9.481  10.105   9.311  2.8747  0.4493 -0.8305
29830SOL    HW295327   9.485  10.226   9.402 -2.9419 -0.5065  1.1341
29831SOL     OW95328   2.749   1.299   9.882 -0.7844 -0.4443 -0.6680
29831SOL    HW195329   2.793   1.235   9.827 -0.3789 -0.1433 -0.6961
29831SOL    HW295330   2.687   1.343   9.823 -2.0182 -1.6993 -0.3565
29832SOL     OW95331   3.574   4.509   8.980 -0.1491  0.1012 -0.1383
29832SOL    HW195332   3.584   4.442   9.047 -0.2651 -0.1525 -0.3751
29832SOL    HW295333   3.635   4.579   9.007 -0.0522 -0.0827  0.1224
29833SOL     OW95334  10.452   5.836  10.563 -0.2261 -0.0446  0.6249
29833SOL    HW195335  10.462   5.863  10.654  1.2682 -0.4999  0.6205
29833SOL    HW295336  10.361   5.856  10.542 -1.0713 -1.3914  2.6955
29834SOL     OW95337   2.630   6.258   5.418  0.4341  0.3862 -0.4502
29834SOL    HW195338   2.564   6.287   5.481  0.8648  0.3690  0.0214
29834SOL    HW295339   2.635   6.163   5.429 -0.1554  0.2584 -1.1828
29835SOL     OW95340   8.137   2.968   7.175 -0.1569 -0.2537  0.6643
29835SOL    HW195341   8.085   2.903   7.127 -0.4047  0.4619 -0.0650
29835SOL    HW295342   8.113   3.051   7.135 -0.3051  0.3626  1.9966
29836SOL     OW95343   7.286   4.336   5.723  0.2224 -0.0961 -0.1172
29836SOL    HW195344   7.258   4.298   5.806  0.4042  0.8146  0.3672
29836SOL    HW295345   7.372   4.372   5.741  1.2833 -1.8630 -1.3054
29837SOL     OW95346  10.067   3.931   2.896 -0.2085 -1.1090  0.0235
29837SOL    HW195347  10.049   3.959   2.806 -0.5473 -1.8918 -0.1613
29837SOL    HW295348  10.012   3.854   2.908 -0.8891 -0.4641  1.2262
29838SOL     OW95349   9.486   2.972   9.563 -0.1188 -0.2280 -0.7335
29838SOL    HW195350   9.493   3.058   9.522  1.4006 -0.9007 -1.9619
29838SOL    HW295351   9.573   2.954   9.598 -0.3195 -1.4068 -0.7858
29839SOL     OW95352   2.845   6.949   9.786  0.2002  0.1459 -0.5257
29839SOL    HW195353   2.916   7.012   9.792 -0.0477  0.8557 -3.5467
29839SOL    HW295354   2.765   7.001   9.799  0.0818 -0.0031 -0.6592
29840SOL     OW95355   8.395   6.275   8.296 -0.0092 -0.3960 -0.3164
29840SOL    HW195356   8.435   6.332   8.230  1.7975 -2.1486 -0.8094
29840SOL    HW295357   8.314   6.320   8.319  1.9248  3.0839  0.3533
29841SOL     OW95358   1.647   5.193   3.642 -0.1081 -0.4604  1.2634
29841SOL    HW195359   1.587   5.126   3.676 -0.1033 -0.4734  1.2467
29841SOL    HW295360   1.628   5.271   3.694 -2.9183  0.7421 -1.2398
29842SOL     OW95361   0.942   5.660   0.839  0.0333 -0.3048 -0.3051
29842SOL    HW195362   0.863   5.621   0.876 -0.4059 -1.1604 -2.0039
29842SOL    HW295363   1.001   5.585   0.826  0.7434  0.1855  0.0385
29843SOL     OW95364   2.328   8.613   1.704 -0.2579  0.1311  0.5425
29843SOL    HW195365   2.393   8.677   1.675 -0.9081  1.4968  1.9426
29843SOL    HW295366   2.345   8.604   1.798 -0.6015 -1.2817  0.4844
29844SOL     OW95367   0.563   1.403   9.169 -0.4317 -0.3307 -0.5778
29844SOL    HW195368   0.608   1.464   9.227  0.0756  0.3763 -1.6837
29844SOL    HW295369   0.626   1.331   9.157 -1.0764 -1.1613  0.8208
29845SOL     OW95370   5.002   1.069  10.461 -0.4536 -0.0016  0.0530
29845SOL    HW195371   4.954   1.150  10.479  0.1041 -0.1346  2.5547
29845SOL    HW295372   5.094   1.095  10.460 -0.3524 -0.3571 -0.8415
29846SOL     OW95373   0.745   4.129   5.328 -0.0830 -0.6939  0.6254
29846SOL    HW195374   0.757   4.101   5.418  0.1734  0.2358  0.8918
29846SOL    HW295375   0.831   4.116   5.287  0.0146 -0.3719  0.7277
29847SOL     OW95376   7.861   2.376  10.256 -0.1678  1.1547 -0.3812
29847SOL    HW195377   7.912   2.448  10.294  0.2481  1.7787 -2.0304
29847SOL    HW295378   7.923   2.331  10.199 -0.9310  0.6355 -0.8099
29848SOL     OW95379   2.518   3.095   0.145 -0.7250 -0.4785  0.3794
29848SOL    HW195380   2.429   3.079   0.177 -1.0377 -0.4983 -0.4670
29848SOL    HW295381   2.505   3.144   0.064  0.0151 -1.0402 -0.0861
29849SOL     OW95382   6.369  10.065   8.300  0.0581 -0.1330 -0.1229
29849SOL    HW195383   6.389   9.973   8.283 -1.9085 -0.5723 -0.2934
29849SOL    HW295384   6.448  10.100   8.342 -0.3671 -2.8380  3.3557
29850SOL     OW95385   2.800   3.153  10.301 -0.0188  0.4640 -0.2973
29850SOL    HW195386   2.884   3.118  10.331 -0.3229 -0.8128 -0.8887
29850SOL    HW295387   2.753   3.175  10.381 -0.7845 -2.7829  0.2983
29851SOL     OW95388   4.658   5.925   2.834 -0.1042 -0.6248  0.5568
29851SOL    HW195389   4.646   5.987   2.905  2.1788  0.4978  0.0776
29851SOL    HW295390   4.617   5.966   2.758  1.6594  0.5576  0.1689
29852SOL     OW95391   2.394   1.721   4.248  0.3024 -0.0197 -0.5081
29852SOL    HW195392   2.347   1.712   4.331  1.6532  0.2808  0.3200
29852SOL    HW295393   2.352   1.796   4.205 -0.0161  0.2092  0.1905
29853SOL     OW95394   2.847  10.217   0.926  0.3650  0.0622  0.3071
29853SOL    HW195395   2.827  10.189   1.015 -0.1137  0.8668  0.4622
29853SOL    HW295396   2.835  10.139   0.873 -0.5410 -0.1373  0.7816
29854SOL     OW95397   2.093   2.778   7.980 -0.0001  0.5006  0.1613
29854SOL    HW195398   2.122   2.690   8.006  1.1361  0.0031 -2.4523
29854SOL    HW295399   2.001   2.782   8.007  0.1255 -1.1998  0.9914
29855SOL     OW95400   9.378   0.032  10.660 -0.6470 -0.1601 -0.1882
29855SOL    HW195401   9.338  -0.028  10.724 -1.1373  0.3845  0.0195
29855SOL    HW295402   9.341   0.117  10.681 -1.5729 -0.1303 -1.8474
29856SOL     OW95403   8.475   9.354   5.566 -0.2372  0.9239 -0.1803
29856SOL    HW195404   8.417   9.298   5.513  0.8824 -2.4717  1.9179
29856SOL    HW295405   8.415   9.417   5.607 -2.0854 -0.6967 -0.2241
29857SOL     OW95406   2.941   7.531  10.548  0.0427 -0.6232 -0.6132
29857SOL    HW195407   2.890   7.611  10.549  2.4125  1.0137  1.0974
29857SOL    HW295408   2.923   7.489  10.632  1.0832 -0.2537 -0.1810
29858SOL     OW95409  10.294   9.511   4.872  0.2936 -0.3565  0.5852
29858SOL    HW195410  10.284   9.416   4.870  0.5300 -0.4325 -2.5300
29858SOL    HW295411  10.350   9.530   4.796  0.6158  2.2413  1.3951
29859SOL     OW95412   7.313   9.901   6.739 -0.3262  0.4810  0.3083
29859SOL    HW195413   7.253   9.961   6.695  0.7871  0.2909 -1.6089
29859SOL    HW295414   7.400   9.928   6.709  0.5134  0.2251  2.3407
29860SOL     OW95415   1.952   9.536   0.157 -0.7214  0.3181  0.3434
29860SOL    HW195416   1.869   9.582   0.167  0.2782  2.3178 -0.0162
29860SOL    HW295417   1.976   9.550   0.065  0.7676  1.2380  0.8251
29861SOL     OW95418  10.707   1.626  10.491 -0.2483  0.0391 -0.4918
29861SOL    HW195419  10.720   1.582  10.575 -3.3358  2.4644  1.5241
29861SOL    HW295420  10.655   1.563  10.440 -0.0106 -0.7347  0.1859
29862SOL     OW95421  10.336   1.031   1.597  0.3682 -0.1940  1.1045
29862SOL    HW195422  10.383   0.994   1.672  0.0940  1.6771  2.2550
29862SOL    HW295423  10.244   1.010   1.613  0.1769  1.1625  1.9147
29863SOL     OW95424   4.959   1.612   9.656 -0.0774  0.2462 -0.1268
29863SOL    HW195425   4.869   1.644   9.665  1.0872  3.6798  0.8420
29863SOL    HW295426   4.982   1.580   9.743  0.1777  1.0239  0.0971
29864SOL     OW95427   4.091   4.332   2.041  0.2936  0.1050  0.2128
29864SOL    HW195428   4.103   4.244   2.003 -0.4567  0.5374 -1.0873
29864SOL    HW295429   4.007   4.362   2.006  1.3404  2.0490 -0.8130
29865SOL     OW95430   6.523   3.735   2.273  0.5210 -0.0129 -0.0867
29865SOL    HW195431   6.487   3.823   2.280  1.0406  0.3264 -1.3916
29865SOL    HW295432   6.618   3.747   2.270  0.5716 -0.3609 -2.5844
29866SOL     OW95433   5.749   9.106   8.619  0.2725  0.3269  0.7938
29866SOL    HW195434   5.680   9.042   8.638  0.8686 -0.7522 -0.5030
29866SOL    HW295435   5.825   9.074   8.667  1.0113 -0.8816 -1.0660
29867SOL     OW95436   3.585   8.288   2.168  0.2148 -0.4453  0.0509
29867SOL    HW195437   3.632   8.274   2.250  0.6982 -0.3931 -0.2130
29867SOL    HW295438   3.607   8.378   2.143  0.8014 -0.7636 -0.5969
29868SOL     OW95439   3.964   1.761   2.138  0.0764 -0.2235  0.3039
29868SOL    HW195440   3.907   1.789   2.210 -0.0284 -0.6688  0.3939
29868SOL    HW295441   3.952   1.828   2.071 -1.3469 -0.8324 -0.0969
29869SOL     OW95442   9.213   2.349   4.133 -0.0392 -0.2165  0.2048
29869SOL    HW195443   9.283   2.336   4.197  0.5774 -0.3373 -0.4798
29869SOL    HW295444   9.258   2.375   4.053 -0.9018  1.3146  0.1767
29870SOL     OW95445   6.679   0.973   0.153  0.1919 -0.1380  0.9610
29870SOL    HW195446   6.762   0.971   0.202  1.3008 -0.8212 -0.8502
29870SOL    HW295447   6.668   1.065   0.130  1.5119 -0.2844 -0.4323
29871SOL     OW95448   8.578   8.571   7.559  0.0961 -0.6285  0.0544
29871SOL    HW195449   8.590   8.646   7.501 -1.8740 -0.0728  0.3096
29871SOL    HW295450   8.530   8.605   7.634  0.8945 -1.7538  1.1219
29872SOL     OW95451   5.628  10.543   7.621  0.2304 -0.1110  0.1047
29872SOL    HW195452   5.696  10.498   7.571  0.4370 -2.5281  2.3082
29872SOL    HW295453   5.553  10.548   7.562  1.4371  0.0953 -1.4581
29873SOL     OW95454   6.517   9.118   4.529  0.4872  0.6560  0.3231
29873SOL    HW195455   6.485   9.116   4.439 -1.2050  1.2562  0.8584
29873SOL    HW295456   6.454   9.064   4.577  1.0761  0.7557  1.2226
29874SOL     OW95457   5.403   5.097   6.588  0.5172 -0.2951  0.8191
29874SOL    HW195458   5.443   5.104   6.502  2.0025 -2.7697  1.2013
29874SOL    HW295459   5.318   5.056   6.572  0.0932  0.7251  0.4122
29875SOL     OW95460   2.637   1.350   1.044  0.0302 -0.0309 -0.1628
29875SOL    HW195461   2.656   1.333   0.952 -1.5879  0.2284 -0.5696
29875SOL    HW295462   2.606   1.440   1.046 -1.2675 -0.4735  0.4238
29876SOL     OW95463   7.811   8.063   7.926 -0.0380  0.1173  0.1890
29876SOL    HW195464   7.886   8.115   7.898  1.2222 -1.5216  0.4053
29876SOL    HW295465   7.744   8.081   7.860  0.5555  1.5542 -0.0538
29877SOL     OW95466   0.870   5.841   3.300 -0.0639  0.6272  0.1963
29877SOL    HW195467   0.805   5.794   3.353 -0.2029  0.7667  0.1496
29877SOL    HW295468   0.898   5.914   3.356  0.0171  0.5959  0.1966
29878SOL     OW95469   5.171   1.289   1.248  0.0197  0.3485 -0.1308
29878SOL    HW195470   5.090   1.330   1.281  0.1747  0.0048  0.7038
29878SOL    HW295471   5.148   1.259   1.160 -1.1058 -0.7047  0.4860
29879SOL     OW95472   8.562   6.399  10.011 -0.0286 -0.0984  0.2904
29879SOL    HW195473   8.552   6.412  10.106  0.3431 -1.0529  0.4738
29879SOL    HW295474   8.594   6.483   9.979  0.3196  0.0883  1.0860
29880SOL     OW95475   3.466   0.238   2.065  0.2226 -0.3431 -0.0478
29880SOL    HW195476   3.424   0.309   2.017  1.4612  0.0759 -0.5605
29880SOL    HW295477   3.417   0.160   2.040  1.4913 -0.3518 -2.9960
29881SOL     OW95478   8.570   6.662   1.385  0.5518  0.8348 -0.0882
29881SOL    HW195479   8.479   6.669   1.359  0.8179  2.4815 -0.7319
29881SOL    HW295480   8.570   6.683   1.479 -0.1975 -3.4474  1.0659
29882SOL     OW95481   7.564   5.615   8.135 -0.3282 -0.2941 -0.2492
29882SOL    HW195482   7.530   5.699   8.104  1.9603  0.4829 -0.7991
29882SOL    HW295483   7.578   5.629   8.229 -0.6450 -0.3172 -0.1967
29883SOL     OW95484   1.879   9.451   1.267 -0.3211  0.0075 -0.5386
29883SOL    HW195485   1.952   9.403   1.307 -1.5260 -2.3695 -1.0315
29883SOL    HW295486   1.922   9.521   1.217  1.6304 -1.1861 -0.6699
29884SOL     OW95487   5.153   1.205   4.111  0.1011 -0.0891  0.1728
29884SOL    HW195488   5.106   1.264   4.052  0.5007 -0.9742 -1.0708
29884SOL    HW295489   5.146   1.247   4.196  0.2541  1.6749 -0.6369
29885SOL     OW95490   7.784   4.702   8.462 -0.0421  0.2558 -0.1226
29885SOL    HW195491   7.689   4.688   8.454  0.0378 -0.3261 -0.1167
29885SOL    HW295492   7.795   4.796   8.453 -0.7707  0.4961  1.2248
29886SOL     OW95493   1.991   6.819   0.726  0.1006  0.2127 -0.0805
29886SOL    HW195494   2.013   6.730   0.701 -0.1784 -0.5101  2.0606
29886SOL    HW295495   1.897   6.817   0.743  0.3481  0.4733  1.5024
29887SOL     OW95496   0.752   0.275   9.946  0.0515 -0.1011  0.2623
29887SOL    HW195497   0.763   0.300  10.038  1.4528  2.6755 -0.5600
29887SOL    HW295498   0.663   0.300   9.924 -0.2486 -0.6672  0.8016
29888SOL     OW95499   5.682   7.493   2.918  0.1029  0.5174 -0.4977
29888SOL    HW195500   5.656   7.549   2.845 -1.3350 -0.6444 -0.9378
29888SOL    HW295501   5.616   7.509   2.985  0.4105  0.2967 -0.1367
29889SOL     OW95502   6.594   0.091   2.616 -0.1531  0.3165 -0.2067
29889SOL    HW195503   6.686   0.088   2.641 -0.2715 -0.2878  0.1864
29889SOL    HW295504   6.589   0.161   2.551  0.6257  0.2088 -0.3945
29890SOL     OW95505   4.641   2.901   1.062 -0.5066  0.4466  0.4179
29890SOL    HW195506   4.580   2.920   0.992 -1.8151  1.2541  1.7147
29890SOL    HW295507   4.717   2.861   1.019 -1.3435  0.7449 -1.3904
29891SOL     OW95508   9.578   5.837   2.230  0.2243 -0.1420  0.4612
29891SOL    HW195509   9.485   5.823   2.252  0.1189  0.0918  0.1575
29891SOL    HW295510   9.581   5.924   2.191  0.2234 -1.0083 -1.5849
29892SOL     OW95511   4.636   3.769   8.126  0.2492  0.3382  0.4086
29892SOL    HW195512   4.600   3.833   8.064  1.0965  3.1251  2.5517
29892SOL    HW295513   4.730   3.770   8.110  0.3617  0.3093  1.0265
29893SOL     OW95514   7.131   6.498   9.245  0.6575  0.2730  0.2297
29893SOL    HW195515   7.145   6.410   9.212  0.1276 -0.0570  0.8603
29893SOL    HW295516   7.118   6.551   9.167 -0.0011 -0.3885 -0.1221
29894SOL     OW95517   5.671   5.133   3.243  0.2013  0.0569 -0.0618
29894SOL    HW195518   5.594   5.157   3.295 -0.1127 -0.3005 -0.3564
29894SOL    HW295519   5.702   5.052   3.284  0.9112  0.6306  0.5660
29895SOL     OW95520   1.130   4.802   7.451 -0.1922 -0.3641 -0.1051
29895SOL    HW195521   1.129   4.856   7.372 -1.4602  0.5219  0.4941
29895SOL    HW295522   1.078   4.725   7.428  1.0053 -1.0213 -0.7183
29896SOL     OW95523   8.401   4.210   1.471 -0.2676 -0.0359 -0.1260
29896SOL    HW195524   8.458   4.269   1.421  2.3534 -0.5341  2.0856
29896SOL    HW295525   8.362   4.266   1.538  0.3022 -0.3383  0.4622
29897SOL     OW95526   6.915  10.656   2.369 -0.5046  0.2680  0.2315
29897SOL    HW195527   6.937  10.569   2.335 -0.6786 -0.3611  1.6557
29897SOL    HW295528   6.855  10.692   2.304  0.2321 -0.3104 -0.8118
29898SOL     OW95529   7.767   4.930   4.383 -0.6071  0.5391  0.2144
29898SOL    HW195530   7.805   4.977   4.309 -0.2705  2.3549  1.4926
29898SOL    HW295531   7.841   4.917   4.443 -1.4272  1.7347  1.5374
29899SOL     OW95532   7.392   0.533   4.656 -0.1153  0.2593  0.1041
29899SOL    HW195533   7.305   0.545   4.695 -0.7674 -1.0346 -0.8411
29899SOL    HW295534   7.412   0.440   4.671  1.7399  0.8268  1.4857
29900SOL     OW95535   9.872   2.609   2.894  0.0826  0.6980  0.8265
29900SOL    HW195536   9.919   2.527   2.904  0.6611  0.8897 -0.2082
29900SOL    HW295537   9.780   2.586   2.906  0.0388 -0.4725 -1.3149
29901SOL     OW95538   4.152   9.309   5.538 -0.0586  0.3844  0.5016
29901SOL    HW195539   4.105   9.284   5.459 -0.3545 -0.1198  0.8280
29901SOL    HW295540   4.221   9.243   5.546 -0.0469  0.4174  0.6790
29902SOL     OW95541   8.586   4.603   0.908  0.3102 -0.1229 -0.1006
29902SOL    HW195542   8.646   4.549   0.857 -0.5738 -0.0967 -1.2028
29902SOL    HW295543   8.532   4.648   0.843 -1.1465 -0.4193  0.8579
29903SOL     OW95544   9.407   8.306   2.002 -0.4178  0.2188 -0.0897
29903SOL    HW195545   9.436   8.251   1.929  0.3549  0.6969 -0.1475
29903SOL    HW295546   9.317   8.331   1.979 -0.6130 -0.6239 -0.2849
29904SOL     OW95547   9.761   4.631   1.454  0.6557  0.1429  0.0970
29904SOL    HW195548   9.758   4.696   1.524  1.2157  0.2236  0.0518
29904SOL    HW295549   9.833   4.659   1.398  0.8716 -0.4876  0.0488
29905SOL     OW95550   5.279   5.381   2.849 -0.7792 -0.6277  0.1661
29905SOL    HW195551   5.237   5.412   2.768  2.9303 -0.4088 -1.8845
29905SOL    HW295552   5.325   5.458   2.883 -0.1926 -1.3444  1.0225
29906SOL     OW95553   1.990   5.648   4.877 -0.0509  0.1113  0.4795
29906SOL    HW195554   2.036   5.710   4.820  0.7423  0.4436  1.4404
29906SOL    HW295555   1.907   5.691   4.897 -0.4052 -0.0863 -0.5597
29907SOL     OW95556   7.966   2.009   4.973  0.4272  0.0338  0.3623
29907SOL    HW195557   8.040   2.001   4.913 -0.1193  0.3351 -0.3723
29907SOL    HW295558   7.895   1.961   4.929  0.5050 -1.3207  1.6217
29908SOL     OW95559   6.151   4.749   0.595  0.2673  0.1690  0.5305
29908SOL    HW195560   6.124   4.662   0.622 -2.6385  1.1447  1.0834
29908SOL    HW295561   6.088   4.775   0.528  1.4237  1.6393 -0.0645
29909SOL     OW95562   7.444   6.566  10.567  0.0381  0.1621 -0.7497
29909SOL    HW195563   7.517   6.623  10.591  0.1427  0.7370 -2.3007
29909SOL    HW295564   7.481   6.504  10.504 -0.3578 -0.8680  0.0046
29910SOL     OW95565   4.238   5.655   7.103  0.2721 -0.6074  0.7101
29910SOL    HW195566   4.302   5.697   7.045 -0.6493  0.1564  0.2140
29910SOL    HW295567   4.284   5.579   7.139  0.8463 -1.1706 -1.1053
29911SOL     OW95568   6.609   1.568  10.004  0.3487  0.3005  0.0397
29911SOL    HW195569   6.604   1.525  10.089  0.8387 -0.0595 -0.1074
29911SOL    HW295570   6.703   1.581   9.989  0.2285  1.2557 -0.0045
29912SOL     OW95571   8.850   3.346  10.014 -0.2360  0.2225 -0.5329
29912SOL    HW195572   8.779   3.282  10.013 -0.0124 -0.0243 -1.6407
29912SOL    HW295573   8.909   3.318   9.944  0.4462  0.9853 -0.2726
29913SOL     OW95574   1.251   0.648   3.425 -0.1389  0.5984 -0.3352
29913SOL    HW195575   1.222   0.656   3.516 -1.7415 -0.5631 -0.6970
29913SOL    HW295576   1.297   0.564   3.422  1.9180  1.6572 -0.1489
29914SOL     OW95577   5.905   1.014   4.644  0.3983 -0.0052 -0.0794
29914SOL    HW195578   5.840   0.955   4.683 -1.0057  0.4927 -1.5354
29914SOL    HW295579   5.976   0.956   4.616  0.0135 -0.7358  0.4174
29915SOL     OW95580   1.673   3.252   3.074 -0.2169 -0.4935 -0.1558
29915SOL    HW195581   1.696   3.310   3.001 -0.3349  1.3707  1.1991
29915SOL    HW295582   1.740   3.184   3.074  2.7537  2.1674  0.8653
29916SOL     OW95583   1.297   9.738   3.070  0.1768  0.0125 -0.1792
29916SOL    HW195584   1.221   9.781   3.030 -0.2490 -0.1208  0.4583
29916SOL    HW295585   1.328   9.800   3.136 -1.7186 -1.4019  2.2274
29917SOL     OW95586   1.448   1.522   8.831 -0.0525 -0.1782  0.1804
29917SOL    HW195587   1.362   1.479   8.834  0.4607 -1.1838  1.1962
29917SOL    HW295588   1.508   1.454   8.799  0.7183 -0.1499  1.5123
29918SOL     OW95589   2.185   7.518   9.259 -0.3401  0.8214  0.4033
29918SOL    HW195590   2.174   7.603   9.300  0.2759  2.0617 -1.8227
29918SOL    HW295591   2.250   7.473   9.313  0.5943  2.4416  0.6760
29919SOL     OW95592   5.254   0.381   7.923 -0.5426 -0.3218 -0.0839
29919SOL    HW195593   5.278   0.398   8.014 -2.7513  2.1909  0.1706
29919SOL    HW295594   5.310   0.440   7.872 -1.5520  0.7658 -0.0006
29920SOL     OW95595   8.419   1.331   0.675  0.6443  0.0114 -0.2782
29920SOL    HW195596   8.363   1.294   0.744  0.6587  1.7487  0.7034
29920SOL    HW295597   8.470   1.256   0.644  1.2083 -0.7033  2.1583
29921SOL     OW95598   2.283   9.451  10.636 -0.5557 -0.6326 -0.2850
29921SOL    HW195599   2.252   9.427  10.549  0.1371 -1.8395 -0.2249
29921SOL    HW295600   2.373   9.417  10.640 -0.3731 -0.0940  0.7019
29922SOL     OW95601   6.213   0.426   4.571  0.2753  0.4727  0.0170
29922SOL    HW195602   6.277   0.424   4.643  1.0623  0.3704 -0.6775
29922SOL    HW295603   6.199   0.519   4.554  1.0566  0.4889 -0.5456
29923SOL     OW95604   1.578   3.587   5.144  0.6040  0.3095 -0.3017
29923SOL    HW195605   1.645   3.646   5.111  0.6999 -0.8130 -2.2963
29923SOL    HW295606   1.538   3.633   5.218  3.1373  1.2530  0.5567
29924SOL     OW95607   8.114   9.590   3.330  0.2075 -0.3662  0.2214
29924SOL    HW195608   8.029   9.616   3.363 -0.9078 -2.5996 -0.6427
29924SOL    HW295609   8.095   9.525   3.262  2.5789 -0.5543 -0.3789
29925SOL     OW95610   6.244   1.873   1.506  0.0033 -0.2486  0.1086
29925SOL    HW195611   6.327   1.829   1.526  0.4732  0.7785  0.4798
29925SOL    HW295612   6.230   1.933   1.579 -0.5166  0.3632 -0.4805
29926SOL     OW95613   5.480  10.238   7.577  0.2426 -0.4833 -0.3133
29926SOL    HW195614   5.492  10.305   7.644  0.3617 -1.1717  0.3688
29926SOL    HW295615   5.420  10.277   7.514 -0.9862 -0.3167  0.9140
29927SOL     OW95616   7.468   6.168   8.513 -0.0333  0.4159 -0.0438
29927SOL    HW195617   7.402   6.136   8.452 -1.0821  0.9172  0.7880
29927SOL    HW295618   7.545   6.186   8.459 -0.6263 -0.0392 -1.0531
29928SOL     OW95619   1.802   8.548  10.085  0.5030 -0.0934  0.8554
29928SOL    HW195620   1.897   8.549  10.080  0.5237 -0.2928  1.1514
29928SOL    HW295621   1.783   8.553  10.179  0.2533 -1.7164  0.9085
29929SOL     OW95622   6.590   6.990   6.914 -0.0095  0.0616 -0.2672
29929SOL    HW195623   6.598   7.083   6.936 -1.3854 -0.0693  0.9637
29929SOL    HW295624   6.578   6.989   6.819  1.4843  1.0161 -0.5000
29930SOL     OW95625   8.571   9.037   5.551  0.3357 -0.5098 -0.4572
29930SOL    HW195626   8.490   9.019   5.598 -0.3887 -0.4815 -1.6438
29930SOL    HW295627   8.634   9.061   5.619 -0.7818 -0.0293  0.4355
29931SOL     OW95628   5.149   4.668   2.938 -0.0091  0.6332 -0.0139
29931SOL    HW195629   5.056   4.670   2.915 -0.3944  2.7513  1.5036
29931SOL    HW295630   5.159   4.589   2.991 -1.0249  0.5747  0.1127
29932SOL     OW95631   3.025   2.427   6.402  0.0627 -0.3159  0.3264
29932SOL    HW195632   3.010   2.438   6.496 -0.5459  0.9213  0.1115
29932SOL    HW295633   3.118   2.405   6.395  0.0928 -0.5177  1.2221
29933SOL     OW95634   8.332   2.385   8.663  0.4066  0.0766 -0.4369
29933SOL    HW195635   8.398   2.337   8.714 -0.0362  1.5727  1.7181
29933SOL    HW295636   8.249   2.349   8.693  0.1573  0.0817 -1.1144
29934SOL     OW95637   0.491   9.041   9.981  0.3594  0.2593 -0.0961
29934SOL    HW195638   0.532   8.992   9.910  0.8653  1.7907 -0.8969
29934SOL    HW295639   0.563   9.086  10.025 -0.1881  0.9504  0.1032
29935SOL     OW95640   6.743   3.717   3.492  0.8694 -0.2292 -0.2485
29935SOL    HW195641   6.791   3.636   3.512  1.1377  0.3426  1.6204
29935SOL    HW295642   6.656   3.686   3.465  1.5299 -1.1834 -1.4019
29936SOL     OW95643   1.721   4.681   1.343  0.3401 -0.5057  0.0028
29936SOL    HW195644   1.739   4.773   1.325  2.4030 -0.7886  0.3971
29936SOL    HW295645   1.642   4.683   1.398  0.7958  1.0964  0.6698
29937SOL     OW95646   9.885   5.878   9.472 -0.2855 -0.1367 -0.2446
29937SOL    HW195647   9.842   5.795   9.449 -0.8982  0.2660 -0.5692
29937SOL    HW295648   9.840   5.944   9.419 -0.0054  0.4522  0.2440
29938SOL     OW95649   0.940  10.321   1.055  0.1028  0.1789 -0.0500
29938SOL    HW195650   0.866  10.292   1.108 -0.4471 -0.0797 -0.9408
29938SOL    HW295651   0.981  10.391   1.107 -0.3485 -0.1505  0.7591
29939SOL     OW95652   1.581   8.707   1.521 -0.2808 -0.0556 -0.1799
29939SOL    HW195653   1.566   8.726   1.428 -0.0322 -0.5170 -0.3157
29939SOL    HW295654   1.637   8.630   1.521 -1.8646 -1.2750  0.3640
29940SOL     OW95655   6.497   4.578   4.750  0.1021 -0.2634  0.4806
29940SOL    HW195656   6.540   4.662   4.765 -0.5822 -0.1449  1.8794
29940SOL    HW295657   6.415   4.601   4.706 -0.1585 -0.1746  1.0049
29941SOL     OW95658   3.366   4.875   5.094  0.2139  0.4455  0.5104
29941SOL    HW195659   3.390   4.887   5.186  0.7224  2.0181  0.1999
29941SOL    HW295660   3.420   4.802   5.065 -0.3613 -0.4449  1.5876
29942SOL     OW95661   7.605   2.142   9.845  0.1742  0.1767 -0.0703
29942SOL    HW195662   7.654   2.219   9.875  4.0867 -1.6123 -1.2472
29942SOL    HW295663   7.607   2.147   9.750 -3.3611  0.6720 -0.2615
29943SOL     OW95664   9.662   3.277   9.198 -0.0735 -0.0701  0.0796
29943SOL    HW195665   9.694   3.188   9.211  0.7470  0.3387  0.9545
29943SOL    HW295666   9.726   3.333   9.243 -1.4746  0.8329  1.0521
29944SOL     OW95667   5.675   3.448   5.758 -0.2730 -0.0170  0.3478
29944SOL    HW195668   5.595   3.428   5.805 -0.3948  0.4355  0.3438
29944SOL    HW295669   5.668   3.542   5.739 -1.0472 -0.4908 -2.0720
29945SOL     OW95670   9.359   8.524   5.156  0.3624 -0.0018  0.8335
29945SOL    HW195671   9.361   8.542   5.062 -0.7349  1.6517  1.0727
29945SOL    HW295672   9.271   8.552   5.184  0.5215 -0.8337  2.2828
29946SOL     OW95673   4.773   2.696   6.018 -0.6599  0.6729  0.3249
29946SOL    HW195674   4.806   2.730   6.101  3.2235 -0.1816 -0.6954
29946SOL    HW295675   4.845   2.709   5.956 -1.6799 -2.7678 -1.8595
29947SOL     OW95676   7.646   8.585   9.293  0.5116 -0.3175  0.2938
29947SOL    HW195677   7.667   8.503   9.339  0.4920 -0.0725  0.7476
29947SOL    HW295678   7.561   8.610   9.329 -0.2589 -0.9361 -1.0116
29948SOL     OW95679   4.391   1.995   0.790  0.2841 -0.0147 -0.0091
29948SOL    HW195680   4.351   1.961   0.870  1.9375 -2.0528  0.0391
29948SOL    HW295681   4.357   1.939   0.721 -0.0150  0.8059 -0.5374
29949SOL     OW95682   4.535   7.644   0.769  0.1690  0.0962 -0.1287
29949SOL    HW195683   4.517   7.551   0.786 -0.4270  0.0441 -1.0017
29949SOL    HW295684   4.614   7.643   0.714  0.7480  0.1594  0.6889
29950SOL     OW95685   5.504   1.251   6.973 -0.2618  0.1202  0.3431
29950SOL    HW195686   5.596   1.266   6.953 -0.4721  2.2747  0.6559
29950SOL    HW295687   5.502   1.231   7.066  0.0535 -2.3168 -0.1226
29951SOL     OW95688   3.068   4.030   6.765  0.4906 -0.0537  0.3041
29951SOL    HW195689   3.086   4.106   6.710  1.0642  0.8715  1.7192
29951SOL    HW295690   3.154   4.002   6.796  0.1868 -0.6470  0.6220
29952SOL     OW95691   5.258   7.618   7.535  0.3835  0.2406 -0.0988
29952SOL    HW195692   5.217   7.551   7.481  1.2180  0.3491 -0.8951
29952SOL    HW295693   5.349   7.619   7.506  0.0293  3.0077 -1.4726
29953SOL     OW95694   6.699   0.800   4.142 -0.7219 -0.0174  0.2158
29953SOL    HW195695   6.755   0.852   4.199  1.3230  0.0686 -1.7466
29953SOL    HW295696   6.610   0.820   4.171  0.1512  1.7875  1.8318
29954SOL     OW95697   8.480   6.711   3.396  0.2449  0.0731  0.1941
29954SOL    HW195698   8.397   6.735   3.438  0.2804 -1.0420  0.9308
29954SOL    HW295699   8.517   6.795   3.368 -0.8877  0.6348  0.3088
29955SOL     OW95700   7.225   6.912   6.157  0.6879 -0.5422 -0.0956
29955SOL    HW195701   7.142   6.955   6.137  0.6744 -0.0105  1.0519
29955SOL    HW295702   7.251   6.870   6.075 -0.6715 -0.6470 -0.4895
29956SOL     OW95703   7.982   3.929   0.168  0.0762 -0.3493 -0.0220
29956SOL    HW195704   8.026   3.994   0.223  1.6651 -0.3037 -1.2649
29956SOL    HW295705   8.023   3.845   0.192 -0.1367 -0.5076 -0.2104
29957SOL     OW95706   2.386   0.504   9.993 -0.0957 -0.2047  0.0347
29957SOL    HW195707   2.416   0.591   9.969  0.1646 -0.3605 -0.2003
29957SOL    HW295708   2.343   0.516  10.078 -0.8868  0.3167 -0.4214
29958SOL     OW95709   1.024   3.640   0.736  0.2862  0.2345  0.4477
29958SOL    HW195710   1.015   3.709   0.670 -0.5992 -0.6290 -0.3670
29958SOL    HW295711   0.938   3.634   0.777  0.2873 -0.5308  0.3521
29959SOL     OW95712   1.584   1.525   1.611 -0.0006  0.1728 -0.3346
29959SOL    HW195713   1.514   1.550   1.671 -0.5925 -0.5474 -0.6958
29959SOL    HW295714   1.586   1.429   1.616  1.4391  0.2043  0.1932
29960SOL     OW95715   7.439   0.807   5.331  0.2309  0.0859 -0.2448
29960SOL    HW195716   7.519   0.808   5.383  0.8495  1.8939 -1.1588
29960SOL    HW295717   7.402   0.895   5.339 -0.6544 -0.1522 -1.3343
29961SOL     OW95718   8.951   9.197   5.481 -0.0341 -0.6614  0.1965
29961SOL    HW195719   8.880   9.207   5.544  0.0902  1.3784  0.0840
29961SOL    HW295720   8.906   9.177   5.398 -0.5914  1.2894 -0.0229
29962SOL     OW95721   2.232   5.539  10.043 -0.7037  0.0899 -0.6399
29962SOL    HW195722   2.217   5.565   9.952 -0.1463 -0.2905 -0.8423
29962SOL    HW295723   2.310   5.588  10.069 -0.5732 -0.1850 -0.5219
29963SOL     OW95724   8.116   1.964   5.644 -0.2646 -0.4109 -0.2361
29963SOL    HW195725   8.097   2.054   5.615 -1.3562 -0.7403 -0.5902
29963SOL    HW295726   8.174   1.929   5.577  2.7344  0.9651  1.4017
29964SOL     OW95727   2.873   6.581   7.083 -0.0721 -0.2392 -0.6370
29964SOL    HW195728   2.843   6.671   7.079  0.4164 -0.0142  0.3920
29964SOL    HW295729   2.932   6.578   7.158  0.2061 -1.3306 -0.8695
29965SOL     OW95730   0.750   3.538   0.758 -0.0856  0.2569  0.6380
29965SOL    HW195731   0.772   3.467   0.819  2.9870  0.0458 -0.5405
29965SOL    HW295732   0.705   3.602   0.813 -0.3809 -1.3292  2.3791
29966SOL     OW95733   8.477   9.336   7.499 -0.0765  0.2992  0.1469
29966SOL    HW195734   8.435   9.316   7.582  2.0544  0.5828  1.3591
29966SOL    HW295735   8.410   9.317   7.433 -1.0279 -2.4185  1.7352
29967SOL     OW95736   0.488   0.194   7.035 -0.2898 -0.0765 -0.2021
29967SOL    HW195737   0.480   0.162   7.125 -1.4197 -0.8322 -0.5509
29967SOL    HW295738   0.532   0.278   7.043 -0.6179 -0.0129  1.0887
29968SOL     OW95739   6.475   9.177  10.693 -0.2246  0.0362 -0.2032
29968SOL    HW195740   6.489   9.270  10.705  2.1134 -0.1622 -0.9195
29968SOL    HW295741   6.478   9.164  10.598  0.3659 -0.8693 -0.0730
29969SOL     OW95742  10.437   7.309   0.706 -0.2115 -0.4250 -0.5041
29969SOL    HW195743  10.460   7.227   0.750 -0.4556 -1.1820 -1.7382
29969SOL    HW295744  10.376   7.282   0.637 -0.6057  0.8578 -0.6697
29970SOL     OW95745   1.575   4.616   0.719  0.3121  0.1867 -0.6194
29970SOL    HW195746   1.659   4.662   0.716  0.2362  0.3520 -0.2808
29970SOL    HW295747   1.544   4.629   0.809  0.2909 -0.5349 -0.5181
29971SOL     OW95748   8.086   9.028   5.409  0.9638  0.3613 -0.5251
29971SOL    HW195749   8.050   9.051   5.494 -0.4930  2.5329 -1.6442
29971SOL    HW295750   8.070   8.934   5.401 -3.0167  0.8255 -0.1576
29972SOL     OW95751   8.460  10.022   9.172 -0.6056  0.0456  0.3922
29972SOL    HW195752   8.440  10.104   9.217 -0.1066  0.6531 -0.4607
29972SOL    HW295753   8.389   9.963   9.196 -1.0237  0.7622  0.9423
29973SOL     OW95754   6.628  10.140   0.917 -0.3365 -0.2975 -0.4709
29973SOL    HW195755   6.713  10.130   0.960 -0.5215 -1.1860 -0.2788
29973SOL    HW295756   6.642  10.207   0.851  0.7383 -0.9823 -0.9693
29974SOL     OW95757   2.495   6.831  10.398  0.5858  0.5938 -0.3068
29974SOL    HW195758   2.551   6.799  10.327 -1.8135 -1.0334 -1.6283
29974SOL    HW295759   2.468   6.918  10.370  1.0758  0.6929 -0.4841
29975SOL     OW95760   8.110  10.157   0.930  0.0226 -0.1205  1.1628
29975SOL    HW195761   8.151  10.229   0.979 -1.0118 -0.0552  1.9600
29975SOL    HW295762   8.126  10.079   0.985 -0.0952 -0.2551  1.0070
29976SOL     OW95763   8.454   2.937   9.945  0.2899  0.1792 -0.2908
29976SOL    HW195764   8.485   2.884  10.018  0.6065 -0.6813 -1.0313
29976SOL    HW295765   8.383   2.886   9.906 -0.6843  1.1734  0.1119
29977SOL     OW95766   4.791   0.426  10.332  0.4791  0.3339  0.1142
29977SOL    HW195767   4.748   0.511  10.336  0.5977  0.3712  0.6839
29977SOL    HW295768   4.807   0.412  10.239 -0.5607  0.4179 -0.0951
29978SOL     OW95769   6.137   5.629   9.806 -0.5424  0.1350  0.2580
29978SOL    HW195770   6.110   5.720   9.793 -0.7069  0.1507  0.6963
29978SOL    HW295771   6.078   5.578   9.751  0.9222  0.4480 -1.6719
29979SOL     OW95772   9.537   9.228   2.886 -0.0953 -0.2407  0.3502
29979SOL    HW195773   9.573   9.139   2.890 -2.6489 -1.3274  1.3093
29979SOL    HW295774   9.533   9.248   2.793  0.9643 -0.9330  0.1406
29980SOL     OW95775   3.670   4.596   8.601 -0.0351  0.6428  0.4738
29980SOL    HW195776   3.619   4.519   8.628 -1.4660  1.6091  0.6381
29980SOL    HW295777   3.761   4.572   8.620 -0.5077 -0.7399  1.1571
29981SOL     OW95778   2.453   7.075   1.660  0.7609  0.2472  0.1540
29981SOL    HW195779   2.511   6.999   1.650  0.2863 -0.3725  1.7161
29981SOL    HW295780   2.380   7.042   1.713 -0.0008  1.5301 -0.0623
29982SOL     OW95781   9.850   4.164   7.557  0.1475 -0.6405 -0.7827
29982SOL    HW195782   9.942   4.189   7.547 -0.2282  0.8333 -0.8229
29982SOL    HW295783   9.815   4.166   7.468 -0.2560  0.2506 -0.6164
29983SOL     OW95784   6.829   6.979   3.386 -0.0561  0.2638  0.1636
29983SOL    HW195785   6.804   6.889   3.408 -0.6353  0.1231 -0.9898
29983SOL    HW295786   6.805   6.989   3.294 -0.7903  1.8780  0.4911
29984SOL     OW95787   3.931   0.087   5.454 -0.5712 -0.0719  0.6111
29984SOL    HW195788   3.936   0.178   5.483  1.3600 -0.4137  1.5492
29984SOL    HW295789   3.843   0.078   5.419  0.3336  3.2563 -3.2916
29985SOL     OW95790   3.476   3.951   3.003  0.0277  0.0580  0.1942
29985SOL    HW195791   3.402   3.991   2.958 -1.2394 -1.0475  1.2053
29985SOL    HW295792   3.437   3.905   3.077  1.5955 -1.4408  0.1576
29986SOL     OW95793   7.266   2.509   0.062  0.5351 -0.1690  0.4442
29986SOL    HW195794   7.258   2.429   0.010 -0.0551  0.2728 -0.1584
29986SOL    HW295795   7.178   2.525   0.096  0.8970 -0.4093  1.5292
29987SOL     OW95796   6.357   9.566   1.150  0.4481 -0.0288  0.7687
29987SOL    HW195797   6.368   9.531   1.239 -0.9783  1.1127  1.4329
29987SOL    HW295798   6.267   9.545   1.126  1.2671 -1.6824 -1.0791
29988SOL     OW95799   6.608   1.083   8.387 -0.0166 -0.1660  0.7702
29988SOL    HW195800   6.610   1.070   8.293  2.4988  1.2917  0.5478
29988SOL    HW295801   6.524   1.127   8.403 -0.4256 -0.3169 -0.7857
29989SOL     OW95802   8.811   5.598   1.340 -0.2821 -0.2960  0.2424
29989SOL    HW195803   8.772   5.593   1.252  0.5405 -1.0780 -0.0902
29989SOL    HW295804   8.853   5.513   1.353  1.3092  0.5003  0.5886
29990SOL     OW95805   8.385   8.399   9.533 -0.2541 -0.5046  0.0150
29990SOL    HW195806   8.396   8.337   9.461 -0.5003 -2.4037  1.5335
29990SOL    HW295807   8.432   8.478   9.504 -0.2523 -1.2238 -2.1363
29991SOL     OW95808   2.138   4.659   8.980 -0.3421 -0.2018 -0.3680
29991SOL    HW195809   2.090   4.647   9.062  0.2005 -1.2507 -0.1937
29991SOL    HW295810   2.162   4.752   8.980 -0.0413 -0.2605  0.8395
29992SOL     OW95811   5.359   3.247   1.121 -0.0773 -0.3341  0.4498
29992SOL    HW195812   5.432   3.283   1.071 -0.9841 -2.7575 -2.9611
29992SOL    HW295813   5.363   3.153   1.107 -3.2946 -0.6583  0.8492
29993SOL     OW95814   4.503   8.596   9.762 -0.2038 -0.2284 -0.0874
29993SOL    HW195815   4.544   8.525   9.713  1.1369  1.6624 -1.8860
29993SOL    HW295816   4.573   8.660   9.774 -1.5100  1.0792  0.9155
29994SOL     OW95817   2.566   3.010   6.153 -0.1266  0.1050  0.7236
29994SOL    HW195818   2.564   3.091   6.204  0.1228 -0.1324  1.1204
29994SOL    HW295819   2.616   2.949   6.208 -1.5846 -0.7845  1.1188
29995SOL     OW95820   2.326   1.943   2.345 -0.4517  0.0678 -0.0171
29995SOL    HW195821   2.390   1.885   2.303 -0.5128 -0.4480  0.5839
29995SOL    HW295822   2.371   1.973   2.425 -0.2998  1.1076 -0.4742
29996SOL     OW95823   0.368   0.720   5.779 -0.0726  0.2123 -0.1805
29996SOL    HW195824   0.370   0.666   5.858  0.0594  0.6841  0.1447
29996SOL    HW295825   0.295   0.685   5.728 -0.8799  0.6122  0.6671
29997SOL     OW95826   1.217   4.543   3.790 -0.4142 -0.1087 -0.4253
29997SOL    HW195827   1.186   4.456   3.813 -2.2712  0.1173 -1.8895
29997SOL    HW295828   1.156   4.603   3.833 -0.4882  0.4239 -1.2499
29998SOL     OW95829   7.151   5.905   6.813  0.1943 -0.3836 -0.1053
29998SOL    HW195830   7.095   5.830   6.831 -1.7000  0.6140 -1.4582
29998SOL    HW295831   7.176   5.937   6.900  0.8584 -2.3824  0.4947
29999SOL     OW95832   2.579  10.665   5.076  0.1685  0.3633 -0.2815
29999SOL    HW195833   2.650  10.728   5.091  0.1829  0.1537  0.5415
29999SOL    HW295834   2.507  10.696   5.131  0.4315 -0.7637  0.7261
30000SOL     OW95835   2.154   9.932   2.705 -0.3488 -0.3983 -0.2872
30000SOL    HW195836   2.135   9.893   2.620  0.1732 -0.3277 -0.4404
30000SOL    HW295837   2.145   9.860   2.768 -0.1745 -0.5813 -0.4725
30001SOL     OW95838   3.051   7.527   9.092  0.2811  0.2406  0.0195
30001SOL    HW195839   3.073   7.434   9.097 -2.6216 -0.6014 -0.8620
30001SOL    HW295840   3.062   7.549   8.999  0.3139  0.6092  0.1098
30002SOL     OW95841   4.574   8.286   4.092 -0.2663  0.0106 -0.6342
30002SOL    HW195842   4.620   8.333   4.022  0.9688 -1.7449 -1.0652
30002SOL    HW295843   4.500   8.243   4.048  0.2559 -0.7365 -0.7940
30003SOL     OW95844   6.692   1.633   8.880  0.3457  0.2118 -0.9437
30003SOL    HW195845   6.683   1.708   8.938  0.4616  0.7571 -1.6133
30003SOL    HW295846   6.771   1.651   8.829  1.0432 -0.9377 -0.3027
30004SOL     OW95847   7.763   0.664   1.287 -0.4551  0.1255 -0.4336
30004SOL    HW195848   7.710   0.708   1.352  1.1689  1.8956 -0.2116
30004SOL    HW295849   7.728   0.694   1.203  0.0024  1.1250 -0.2899
30005SOL     OW95850   8.717   0.316   7.145 -0.0702  0.2708 -0.4137
30005SOL    HW195851   8.702   0.286   7.234 -0.3725  0.4145 -0.4158
30005SOL    HW295852   8.668   0.398   7.138  0.5796  0.6595 -0.4739
30006SOL     OW95853   0.352  10.690   8.317  0.7150 -0.0437 -0.2018
30006SOL    HW195854   0.368  10.659   8.406  3.6076 -0.7922 -0.8649
30006SOL    HW295855   0.364  10.612   8.262 -0.8512  0.4291 -1.2739
30007SOL     OW95856   5.134   8.355   9.441  0.6232 -0.3477 -0.1181
30007SOL    HW195857   5.220   8.390   9.463  0.8505 -2.0855  2.1814
30007SOL    HW295858   5.119   8.286   9.506 -1.0350 -2.4491 -2.5345
30008SOL     OW95859   2.799   3.022   0.943 -0.2546  0.0189  0.4833
30008SOL    HW195860   2.771   3.059   1.027 -0.4879  1.4688 -0.1873
30008SOL    HW295861   2.888   2.993   0.959 -0.3710  0.0640  1.2984
30009SOL     OW95862   0.443   4.540   5.009 -0.3032  0.1490  0.1923
30009SOL    HW195863   0.506   4.610   5.027 -0.4558  0.3412 -0.0187
30009SOL    HW295864   0.425   4.502   5.095 -0.8555  0.9193  0.4266
30010SOL     OW95865   5.391   0.128   0.006 -0.1571 -0.5731  0.0352
30010SOL    HW195866   5.442   0.063  -0.042  0.2192  0.2828 -0.7433
30010SOL    HW295867   5.437   0.211  -0.007 -1.6861  0.2196 -0.6594
30011SOL     OW95868   2.295   8.431  10.343 -0.1305  0.2545  0.0192
30011SOL    HW195869   2.311   8.411  10.250 -2.3327  3.0099 -1.0936
30011SOL    HW295870   2.214   8.383  10.363 -0.3138  0.6056  0.1266
30012SOL     OW95871   6.491   6.575   4.847  0.8372  0.3110  0.1534
30012SOL    HW195872   6.508   6.667   4.826  1.6748 -0.1373 -1.2612
30012SOL    HW295873   6.506   6.529   4.765  0.8096 -1.1466  0.9449
30013SOL     OW95874   8.801   8.280  10.653  0.2050 -0.4065  0.3144
30013SOL    HW195875   8.814   8.303  10.745  1.6245 -1.7386  0.4934
30013SOL    HW295876   8.840   8.192  10.644  2.0390  0.5241 -1.9956
30014SOL     OW95877   8.395   5.234   5.525  0.8110 -0.4222  1.0212
30014SOL    HW195878   8.391   5.198   5.436 -0.4637  2.7429 -0.3541
30014SOL    HW295879   8.411   5.158   5.581  0.0220 -2.8032 -1.7298
30015SOL     OW95880   3.829   7.009   0.585 -0.7793 -0.6828  0.1676
30015SOL    HW195881   3.885   6.936   0.611  0.7298  1.1047  2.2975
30015SOL    HW295882   3.786   7.036   0.666 -0.1787  1.6398 -0.2081
30016SOL     OW95883   5.277  10.669   0.165  0.7339 -0.2931  0.1976
30016SOL    HW195884   5.324  10.722   0.100  0.6177  0.8628  1.0379
30016SOL    HW295885   5.312  10.581   0.153  0.1970 -0.2919 -1.9367
30017SOL     OW95886   3.587   8.728   5.104 -0.0289 -0.4577  0.1585
30017SOL    HW195887   3.650   8.784   5.058  0.3485 -0.1234  1.0703
30017SOL    HW295888   3.505   8.777   5.100  0.6720  1.0856  2.5033
30018SOL     OW95889   6.578   8.789   6.170 -0.8545 -0.1383  0.3200
30018SOL    HW195890   6.564   8.877   6.205  0.1509  0.3102 -0.3560
30018SOL    HW295891   6.579   8.800   6.075  0.6814 -0.6165  0.2407
30019SOL     OW95892   1.041   3.045   9.738 -0.1300  0.1072  0.2207
30019SOL    HW195893   1.075   3.002   9.816  1.4500  0.6310 -0.1321
30019SOL    HW295894   1.117   3.054   9.681 -1.0298  0.7118 -0.9347
30020SOL     OW95895   6.379   8.591   9.359 -0.3454  0.4430  0.4391
30020SOL    HW195896   6.406   8.682   9.348 -2.2860  1.2240  1.8280
30020SOL    HW295897   6.424   8.562   9.439  0.6660 -0.0263 -0.2685
30021SOL     OW95898   4.655   4.880  10.612  0.0576  0.2705  0.1794
30021SOL    HW195899   4.732   4.875  10.669  0.0414  1.7971  0.3686
30021SOL    HW295900   4.660   4.966  10.571 -1.1792  0.1236 -0.3418
30022SOL     OW95901   4.644   5.636   2.932 -0.2697 -0.7218 -0.1580
30022SOL    HW195902   4.656   5.621   2.838 -1.9483  0.7189 -0.6733
30022SOL    HW295903   4.627   5.731   2.938  0.7736 -0.6175  1.7252
30023SOL     OW95904   2.595   7.393   7.066 -0.0665 -0.3268  0.1504
30023SOL    HW195905   2.689   7.380   7.055 -0.1327 -2.1482  1.2747
30023SOL    HW295906   2.582   7.487   7.058  1.9730  0.0471  0.8453
30024SOL     OW95907   3.458   4.487   6.499 -0.1228 -0.5786  0.1750
30024SOL    HW195908   3.423   4.576   6.501 -1.3933 -1.0621  0.8956
30024SOL    HW295909   3.400   4.438   6.557  2.0906 -1.3256  1.9089
30025SOL     OW95910   7.000   7.500   5.857  0.4620  0.2639  0.1175
30025SOL    HW195911   7.095   7.499   5.866  0.8383  0.5478 -2.8547
30025SOL    HW295912   6.984   7.559   5.783 -1.9851 -0.3164  0.1206
30026SOL     OW95913   8.128  10.603   1.430  0.2151 -0.0229  0.2142
30026SOL    HW195914   8.147  10.667   1.498  0.8891  0.3999 -0.3580
30026SOL    HW295915   8.096  10.655   1.356  2.6964 -0.0585 -0.9979
30027SOL     OW95916   4.263   3.516   8.659 -0.2545  0.2423 -0.1845
30027SOL    HW195917   4.294   3.481   8.575  2.7970  1.4050  0.3415
30027SOL    HW295918   4.225   3.601   8.636 -0.1082  0.2306 -0.4865
30028SOL     OW95919   0.618   8.817   1.164  0.0455  0.4341 -0.4764
30028SOL    HW195920   0.586   8.844   1.250  0.8046 -1.4504  0.4589
30028SOL    HW295921   0.541   8.820   1.108 -0.4924  1.5691  0.2729
30029SOL     OW95922   0.639   0.630   5.631 -0.6503 -0.2348  0.4697
30029SOL    HW195923   0.647   0.543   5.670 -3.5182 -0.2078  1.3479
30029SOL    HW295924   0.553   0.661   5.660 -0.8603  1.7964 -2.0367
30030SOL     OW95925   3.186  10.397   6.427 -0.5339  0.6286 -0.2539
30030SOL    HW195926   3.172  10.328   6.363  0.3361  0.3800 -0.1901
30030SOL    HW295927   3.218  10.472   6.377 -1.4875  1.0094 -0.3251
30031SOL     OW95928   4.850   1.200   0.312 -0.5689  0.5825 -0.3458
30031SOL    HW195929   4.905   1.181   0.389  0.3226  1.5698 -0.7214
30031SOL    HW295930   4.855   1.295   0.302 -2.2072  0.6751 -0.5144
30032SOL     OW95931   3.204  10.525  10.456  0.3127 -0.0662 -0.7639
30032SOL    HW195932   3.260  10.594  10.420  0.9718 -0.0413  0.2696
30032SOL    HW295933   3.223  10.448  10.402  1.8428 -0.2294 -0.0573
30033SOL     OW95934   9.701   6.263   0.801 -0.1902 -0.0638  0.3411
30033SOL    HW195935   9.745   6.348   0.805 -1.2604  0.6174 -1.2933
30033SOL    HW295936   9.765   6.205   0.759  0.8673 -0.3323  2.2245
30034SOL     OW95937   5.805   3.323   2.419 -0.2918  0.0482 -0.3201
30034SOL    HW195938   5.805   3.227   2.419 -0.4127  0.0396 -1.0693
30034SOL    HW295939   5.894   3.346   2.394  0.3430  0.1698  1.8639
30035SOL     OW95940   7.590   8.153   4.075 -0.0128 -0.6868  0.0514
30035SOL    HW195941   7.620   8.071   4.037  1.4129 -0.4748  0.6361
30035SOL    HW295942   7.558   8.204   4.001  1.6877 -0.7039 -0.7300
30036SOL     OW95943   8.633   9.011   6.254 -0.2439 -0.2011  0.4563
30036SOL    HW195944   8.600   9.098   6.276  0.9141  0.1647  0.8379
30036SOL    HW295945   8.695   9.027   6.183  0.2956 -0.6544  0.8210
30037SOL     OW95946   4.937   6.949   2.083  0.2440  0.1795 -0.0168
30037SOL    HW195947   4.966   7.016   2.022 -0.0267  1.1399  0.8862
30037SOL    HW295948   4.861   6.987   2.127  0.7553 -0.2568  1.3105
30038SOL     OW95949   5.059  10.539   6.983  0.0450 -0.0079 -0.1382
30038SOL    HW195950   5.027  10.471   7.042 -3.1814  0.4307 -1.1780
30038SOL    HW295951   5.049  10.621   7.032 -0.8476  0.1659 -0.5834
30039SOL     OW95952   4.624   7.148   3.010 -0.1663  0.2320 -0.6499
30039SOL    HW195953   4.708   7.143   3.055 -0.5966 -0.1154  0.1404
30039SOL    HW295954   4.591   7.058   3.009 -0.4050  0.3204 -1.1968
30040SOL     OW95955   7.967   3.520   7.801  0.3811 -0.3176 -0.0359
30040SOL    HW195956   7.940   3.567   7.722  1.6684  1.8033  0.6967
30040SOL    HW295957   7.911   3.443   7.803 -0.3885  0.0858 -2.4600
30041SOL     OW95958   6.646   6.204   3.277 -0.6088 -0.3690 -0.0805
30041SOL    HW195959   6.589   6.203   3.354 -1.2919  1.3188 -0.5411
30041SOL    HW295960   6.732   6.228   3.312 -0.6063 -0.9177  0.3186
30042SOL     OW95961   5.539   5.177   5.395  0.1753 -0.4060 -0.5972
30042SOL    HW195962   5.614   5.217   5.439  0.6706 -0.5338 -1.3181
30042SOL    HW295963   5.494   5.250   5.353 -0.6401 -0.1940  0.5822
30043SOL     OW95964  10.653   8.524   1.788  0.0281  0.0743  0.1678
30043SOL    HW195965  10.610   8.476   1.859 -3.2344  1.6877 -0.5368
30043SOL    HW295966  10.661   8.459   1.717 -1.9030 -0.2060  0.1297
30044SOL     OW95967   9.657   3.061   1.934  0.3587 -0.1319  0.4850
30044SOL    HW195968   9.634   3.130   1.996  0.2321 -1.1889  1.6655
30044SOL    HW295969   9.608   3.082   1.855 -1.2632  0.0394  1.4961
30045SOL     OW95970   8.160   4.290   5.675 -0.2300 -0.1283  0.1211
30045SOL    HW195971   8.174   4.198   5.699 -1.8817  0.0293  1.9402
30045SOL    HW295972   8.097   4.287   5.603 -0.7662 -0.4201  0.5962
30046SOL     OW95973   5.138   9.308   6.214 -0.6066  0.0197  0.3623
30046SOL    HW195974   5.183   9.376   6.264 -1.5382  1.0754 -0.1822
30046SOL    HW295975   5.045   9.322   6.233 -0.7854 -1.4639  0.6622
30047SOL     OW95976   7.400   3.546   9.281 -0.1352  0.8894 -0.1056
30047SOL    HW195977   7.437   3.623   9.238 -1.0805  1.9697  0.9570
30047SOL    HW295978   7.326   3.579   9.331  0.1126 -0.5236  1.2892
30048SOL     OW95979   2.921  10.484   9.969  0.0723 -0.4131 -0.0205
30048SOL    HW195980   2.843  10.431   9.952 -0.0752  0.4859 -2.5005
30048SOL    HW295981   2.893  10.574   9.954  1.2180  0.0591  0.5891
30049SOL     OW95982   9.047   9.045   2.724 -0.0672 -0.1815  0.0923
30049SOL    HW195983   8.956   9.067   2.702 -0.8010 -3.0211 -0.2029
30049SOL    HW295984   9.046   9.029   2.818  0.3307  0.4914  0.2198
30050SOL     OW95985   0.272   1.610   3.676  0.4248  0.1049  0.1158
30050SOL    HW195986   0.219   1.620   3.597  0.4951 -1.8075 -0.2225
30050SOL    HW295987   0.354   1.573   3.645  1.3691  1.5038  0.8358
30051SOL     OW95988   2.791   3.451   0.398 -0.0811 -0.1902 -0.0371
30051SOL    HW195989   2.726   3.510   0.361  0.9187  0.8684 -0.1619
30051SOL    HW295990   2.874   3.498   0.388  0.6084 -1.2096  0.7510
30052SOL     OW95991   5.291   6.905  10.220  0.3792 -0.1682  0.8994
30052SOL    HW195992   5.208   6.857  10.217 -0.4163  1.2159 -0.4814
30052SOL    HW295993   5.348   6.849  10.273 -1.3823 -1.2018  1.8255
30053SOL     OW95994   9.749   4.196   0.581 -0.1223 -0.0930 -0.7817
30053SOL    HW195995   9.661   4.221   0.554 -0.1907  0.1676 -0.3264
30053SOL    HW295996   9.773   4.123   0.523 -0.1830  0.5924 -1.6780
30054SOL     OW95997   3.249   5.620   5.404 -0.5381 -0.0232 -1.0583
30054SOL    HW195998   3.218   5.532   5.425  1.0375 -0.3406  0.1332
30054SOL    HW295999   3.211   5.639   5.318 -1.5910 -1.5080 -0.9641
30055SOL     OW96000   6.052   8.231   2.745  0.1824 -0.1387 -0.2079
30055SOL    HW196001   6.098   8.273   2.818 -0.3440  0.0049  0.0501
30055SOL    HW296002   5.976   8.189   2.787 -1.6228  2.1269 -0.9624
30056SOL     OW96003   9.363   5.044   9.778  0.1183  0.4839 -0.1189
30056SOL    HW196004   9.403   5.125   9.807  1.8426  0.1370 -1.3663
30056SOL    HW296005   9.377   4.983   9.851  0.4301  0.8079  0.0947
30057SOL     OW96006   2.319  10.014   0.740 -0.0704  0.5173 -0.1019
30057SOL    HW196007   2.365  10.085   0.695  1.7156  0.3359  1.3263
30057SOL    HW296008   2.302  10.049   0.828  0.1646 -0.5608  0.3790
30058SOL     OW96009   7.462   6.808   5.089  0.2292  0.5887  0.6600
30058SOL    HW196010   7.412   6.838   5.165  1.4066  0.6515  1.4354
30058SOL    HW296011   7.446   6.714   5.085 -0.0409  0.6274  0.8312
30059SOL     OW96012   4.210   3.335  10.144  0.3399  0.4876  0.4070
30059SOL    HW196013   4.244   3.422  10.124  0.6643  0.7585  2.0105
30059SOL    HW296014   4.273   3.275  10.105  0.5663  0.9640  0.0307
30060SOL     OW96015   9.917   4.555  10.486  0.0140  0.2738  0.8060
30060SOL    HW196016   9.984   4.503  10.442 -0.6422 -1.3209  1.6192
30060SOL    HW296017   9.962   4.594  10.561  0.3551  0.3898  0.5476
30061SOL     OW96018   6.378   3.080   9.951 -0.5015  0.1075  0.4164
30061SOL    HW196019   6.393   2.986   9.953 -0.8052 -0.0473 -2.1146
30061SOL    HW296020   6.466   3.118   9.953 -0.3553 -0.2453  0.7752
30062SOL     OW96021   6.512   5.746   7.923  0.4832 -0.4883  0.2580
30062SOL    HW196022   6.419   5.730   7.942 -0.2695  0.2736 -2.3561
30062SOL    HW296023   6.556   5.735   8.007 -2.3169  1.6979  2.2172
30063SOL     OW96024   8.569   4.438   1.380 -0.4458 -0.4218 -0.7030
30063SOL    HW196025   8.623   4.497   1.328 -0.6098  0.8447  0.5021
30063SOL    HW296026   8.554   4.485   1.462  1.4146 -3.0334  1.3435
30064SOL     OW96027   1.836   1.861   4.942 -0.1516  0.3162 -0.1711
30064SOL    HW196028   1.795   1.940   4.974 -1.5281 -1.1890  2.0755
30064SOL    HW296029   1.919   1.855   4.991 -1.1160 -0.7280  1.4274
30065SOL     OW96030   6.348   8.765  10.257 -0.0636 -0.1578  0.3808
30065SOL    HW196031   6.284   8.741  10.324  0.1420 -2.3369 -0.1354
30065SOL    HW296032   6.422   8.801  10.306 -0.5692 -0.1792  1.1787
30066SOL     OW96033   7.222   9.146  10.309  0.2042  0.4867 -0.6232
30066SOL    HW196034   7.252   9.136  10.219  0.6615  0.6150 -0.4872
30066SOL    HW296035   7.224   9.058  10.345 -0.5795  0.3373 -0.9194
30067SOL     OW96036   0.358   5.742  10.660 -0.3361  0.0447  0.3674
30067SOL    HW196037   0.416   5.787  10.722 -0.6479 -1.0336  1.4784
30067SOL    HW296038   0.273   5.783  10.672 -0.7414 -1.1192  1.7537
30068SOL     OW96039   9.946   4.652   3.140 -0.1038  0.0551  0.5025
30068SOL    HW196040  10.007   4.658   3.066  0.6501 -1.7386  0.9359
30068SOL    HW296041   9.962   4.732   3.191 -0.8419  1.4798 -1.3694
30069SOL     OW96042   8.797   4.349   3.960  0.2743 -0.1146  0.0890
30069SOL    HW196043   8.704   4.325   3.967  0.9880 -2.8690  1.2269
30069SOL    HW296044   8.795   4.443   3.941 -2.7596 -0.4248 -1.9164
30070SOL     OW96045  10.369   1.029   4.847  0.2969  0.0447  0.1880
30070SOL    HW196046  10.277   1.023   4.822  0.5152 -0.1382 -0.6080
30070SOL    HW296047  10.414   1.057   4.768  0.7061  1.9601  1.0542
30071SOL     OW96048   7.829   0.570   5.529 -0.4189 -0.1674 -0.6306
30071SOL    HW196049   7.797   0.482   5.550  0.8871 -0.4826  0.1131
30071SOL    HW296050   7.923   0.560   5.518  0.2785  1.6090  2.4760
30072SOL     OW96051   4.908   7.430   2.214 -0.7528  0.4149 -0.5405
30072SOL    HW196052   4.888   7.486   2.140  0.3514 -0.3693 -1.4599
30072SOL    HW296053   4.824   7.392   2.239 -1.0890  0.4804 -1.5570
30073SOL     OW96054   7.775   6.885   2.973  0.0445 -0.5156 -0.0640
30073SOL    HW196055   7.695   6.936   2.984  0.7848  0.7063 -0.1411
30073SOL    HW296056   7.811   6.914   2.889 -0.3555 -2.4007 -0.9514
30074SOL     OW96057   1.839   7.176   5.451  0.3827  0.3770  0.4573
30074SOL    HW196058   1.766   7.134   5.495  0.2848  1.0958  1.0043
30074SOL    HW296059   1.903   7.106   5.438  0.2082  0.0449  1.3190
30075SOL     OW96060   0.550  10.275   0.192  0.0431 -0.8861 -0.2143
30075SOL    HW196061   0.625  10.257   0.134 -0.1169 -1.6204 -0.1951
30075SOL    HW296062   0.552  10.370   0.203  0.4728 -0.8067 -0.8933
30076SOL     OW96063   3.103   9.301   9.341  0.2734  0.1474  0.3973
30076SOL    HW196064   3.047   9.323   9.266 -1.1970  0.9502  1.6810
30076SOL    HW296065   3.163   9.376   9.348  1.2580 -0.5058 -0.7045
30077SOL     OW96066   0.444   7.777   0.962  0.1515  0.1183  0.2588
30077SOL    HW196067   0.498   7.725   0.902  0.6311  0.7747  0.1096
30077SOL    HW296068   0.492   7.859   0.972 -0.2608  0.2728  1.0201
30078SOL     OW96069   4.949   7.116   1.587  0.2677 -0.3873  0.1627
30078SOL    HW196070   4.890   7.121   1.511  1.4602 -1.9381 -0.9359
30078SOL    HW296071   4.982   7.205   1.597 -0.4964  0.0068 -0.6547
30079SOL     OW96072   5.602   8.768   8.775 -0.5181 -0.1082 -0.6910
30079SOL    HW196073   5.695   8.754   8.754 -0.3734 -0.3642  0.0956
30079SOL    HW296074   5.565   8.680   8.782 -0.8159 -0.0070 -0.9543
30080SOL     OW96075   2.971   3.370   2.976 -0.4504 -0.8226 -0.1155
30080SOL    HW196076   2.896   3.321   3.011 -1.1149 -0.7859 -1.4413
30080SOL    HW296077   3.025   3.303   2.933 -0.3987 -0.6528 -0.3137
30081SOL     OW96078   3.579   8.430   7.264  0.0037  0.2132  0.2081
30081SOL    HW196079   3.550   8.519   7.243 -4.8184 -0.4348  2.5577
30081SOL    HW296080   3.606   8.393   7.180  0.4173  3.2728 -1.1435
30082SOL     OW96081  10.443   4.062   6.253  0.1771 -0.1157 -0.2152
30082SOL    HW196082  10.448   3.993   6.187 -0.9474 -0.2582 -0.1684
30082SOL    HW296083  10.442   4.143   6.202  0.2923 -0.1831 -0.3263
30083SOL     OW96084   6.766   2.734   1.707 -0.3355 -0.0023  0.1704
30083SOL    HW196085   6.707   2.800   1.670 -0.8923 -0.7870 -0.3632
30083SOL    HW296086   6.802   2.689   1.631 -1.0711 -1.2675  0.5416
30084SOL     OW96087   3.879  10.634   5.016 -0.1595 -0.2250  0.1009
30084SOL    HW196088   3.940  10.673   4.954  0.4569  0.9455  1.3788
30084SOL    HW296089   3.909  10.543   5.024  0.1423 -0.2180 -0.8156
30085SOL     OW96090   3.995   0.289   1.346  0.0098 -0.9586 -0.3578
30085SOL    HW196091   3.906   0.299   1.381  0.0588  1.6500 -0.7291
30085SOL    HW296092   4.038   0.372   1.366  2.0944 -1.8146 -0.9976
30086SOL     OW96093   5.602   9.666   4.686 -0.1948  0.1432 -0.1145
30086SOL    HW196094   5.685   9.653   4.641 -0.1870  0.8974 -0.3344
30086SOL    HW296095   5.581   9.581   4.724  0.9087  0.0621  0.3305
30087SOL     OW96096   9.846   1.697   2.630  0.4729 -0.3103 -0.2434
30087SOL    HW196097   9.885   1.666   2.548 -0.6308  0.6738 -1.1739
30087SOL    HW296098   9.796   1.622   2.663 -0.2066 -0.3031 -1.2089
30088SOL     OW96099   2.497   2.199   1.453  0.0531 -0.0454 -0.0361
30088SOL    HW196100   2.540   2.269   1.502 -1.1178  1.6129 -1.3141
30088SOL    HW296101   2.526   2.210   1.363 -2.7409  0.9763 -0.9074
30089SOL     OW96102  10.589   7.112   3.467  0.6818  1.1757 -0.2953
30089SOL    HW196103  10.542   7.142   3.389 -1.1180  0.5157  0.4689
30089SOL    HW296104  10.590   7.017   3.459  0.1732  1.0780  0.6182
30090SOL     OW96105   0.511   2.307   1.441 -0.0045  0.3042 -0.9877
30090SOL    HW196106   0.547   2.317   1.529  0.5920 -1.4404 -0.9937
30090SOL    HW296107   0.586   2.320   1.383  0.3327 -1.6808 -1.0688
30091SOL     OW96108   7.965   3.517   8.479 -0.0077 -0.0285 -0.0223
30091SOL    HW196109   8.015   3.574   8.421  0.4757  1.0668  1.4017
30091SOL    HW296110   7.938   3.443   8.424  3.0675 -0.6231 -0.8989
30092SOL     OW96111  10.193   6.133   3.138  0.0405 -0.1497 -0.0948
30092SOL    HW196112  10.272   6.175   3.172 -0.3769  0.1830  0.4840
30092SOL    HW296113  10.148   6.101   3.216 -1.3098  1.2759 -0.2439
30093SOL     OW96114   4.423   6.159   5.957  0.1234 -0.6090 -0.2010
30093SOL    HW196115   4.450   6.179   5.867 -1.8873 -0.9090 -0.9276
30093SOL    HW296116   4.373   6.078   5.949 -0.6977 -0.2557  1.0693
30094SOL     OW96117   8.496   7.172   9.932  0.0161 -0.3163  0.4334
30094SOL    HW196118   8.495   7.090   9.883 -0.9852 -0.3113  0.4228
30094SOL    HW296119   8.403   7.191   9.949  0.2504  0.6783  0.6586
30095SOL     OW96120   6.222   4.257   2.135 -0.0663  0.2838 -0.3558
30095SOL    HW196121   6.165   4.295   2.067  0.2863 -0.4773 -1.0916
30095SOL    HW296122   6.163   4.204   2.188  0.1530 -1.7699 -2.0433
30096SOL     OW96123   0.081   4.813   4.818  0.0602  0.3630 -0.4679
30096SOL    HW196124   0.041   4.876   4.878 -2.6628 -1.5810 -0.0361
30096SOL    HW296125   0.009   4.781   4.765  1.9491  0.0651 -3.0716
30097SOL     OW96126   3.012  10.479   6.806  0.2690  0.4684 -0.4937
30097SOL    HW196127   2.948  10.548   6.790 -0.1835  0.5176  1.2502
30097SOL    HW296128   3.019  10.476   6.902  1.3438 -0.9429 -0.5919
30098SOL     OW96129   6.440   9.818   8.233 -0.1029 -1.1029  0.4481
30098SOL    HW196130   6.377   9.776   8.175 -0.6081  0.5795 -0.2914
30098SOL    HW296131   6.462   9.751   8.299 -1.9259 -2.0224  0.1611
30099SOL     OW96132   3.590   8.214   0.105 -0.2726 -0.4171 -0.2722
30099SOL    HW196133   3.606   8.121   0.122 -1.3698 -0.4865  0.4715
30099SOL    HW296134   3.544   8.245   0.183  0.4062  0.8508 -0.3440
30100SOL     OW96135   7.660  10.270   3.605 -0.8984  0.0726 -0.1047
30100SOL    HW196136   7.723  10.205   3.574 -0.7420  1.1283 -2.1640
30100SOL    HW296137   7.581  10.220   3.625 -0.1093 -0.9907  0.4318
30101SOL     OW96138   6.766   5.331   5.248 -0.5787 -0.6140  0.5436
30101SOL    HW196139   6.835   5.274   5.283  1.1980  0.5115 -0.9273
30101SOL    HW296140   6.731   5.283   5.173 -1.9826 -1.5154  1.7301
30102SOL     OW96141   7.036   7.176   0.151  0.1712 -0.1637 -0.2312
30102SOL    HW196142   6.997   7.091   0.168  0.0794 -0.2373 -0.7990
30102SOL    HW296143   7.069   7.205   0.236  0.9288 -1.1315 -0.1738
30103SOL     OW96144   5.111   5.992   4.625  0.0468 -0.1396 -0.2414
30103SOL    HW196145   5.053   5.988   4.549 -0.7379 -1.1461  0.3894
30103SOL    HW296146   5.086   5.916   4.678  2.4900 -1.0927 -0.3356
30104SOL     OW96147  10.531   8.520   0.876 -0.4781  0.2601 -0.4955
30104SOL    HW196148  10.452   8.475   0.844  0.3419 -1.0391 -0.8005
30104SOL    HW296149  10.568   8.562   0.798  0.1364 -0.7517 -0.7776
30105SOL     OW96150   4.095   7.248   3.320  0.7799  0.4038 -0.4471
30105SOL    HW196151   4.055   7.162   3.335  2.5063 -0.4856 -0.6925
30105SOL    HW296152   4.092   7.290   3.406  2.0588 -0.8896  0.2918
30106SOL     OW96153   9.463   4.638   5.784  0.1484  0.7540 -0.3219
30106SOL    HW196154   9.405   4.594   5.846  1.5288 -0.0394  0.4346
30106SOL    HW296155   9.482   4.572   5.717 -1.8226  1.7726 -2.0423
30107SOL     OW96156   0.343   4.787   0.425  0.4580  0.6049  0.1853
30107SOL    HW196157   0.268   4.735   0.455  0.8590  1.1736  2.3776
30107SOL    HW296158   0.417   4.727   0.432  0.2284 -0.0391 -2.2383
30108SOL     OW96159   5.891   5.799  10.272 -0.3305  0.1277  0.1742
30108SOL    HW196160   5.807   5.759  10.248  1.2975 -2.2985 -1.9502
30108SOL    HW296161   5.934   5.732  10.326  1.1806  0.2932 -0.7875
30109SOL     OW96162   6.251   4.273   5.818 -0.2075  0.2068 -0.1926
30109SOL    HW196163   6.253   4.369   5.818  0.9490  0.2116 -1.2548
30109SOL    HW296164   6.167   4.250   5.780  0.6762  0.8649 -2.7624
30110SOL     OW96165   5.851   9.669   1.547  0.6208  0.2722  0.2264
30110SOL    HW196166   5.861   9.697   1.456 -1.6298 -0.8369 -0.4112
30110SOL    HW296167   5.758   9.677   1.565  0.8194 -0.8541  2.0026
30111SOL     OW96168   7.478  10.026   7.550 -0.1786 -0.9833  0.2277
30111SOL    HW196169   7.443  10.018   7.461 -0.6966  1.1152  0.2035
30111SOL    HW296170   7.407  10.065   7.601  0.2279 -1.8413  1.5230
30112SOL     OW96171   4.294   0.581   3.530 -0.4469 -0.0640 -1.3814
30112SOL    HW196172   4.334   0.664   3.504  1.5166 -0.5402 -0.0741
30112SOL    HW296173   4.239   0.602   3.605  0.3672  0.0169 -0.7979
30113SOL     OW96174   3.217   8.778   0.213 -0.0768 -0.4293 -0.2103
30113SOL    HW196175   3.245   8.686   0.212  0.7353 -0.2168 -1.8162
30113SOL    HW296176   3.123   8.774   0.228 -0.1000 -1.5642 -0.5195
30114SOL     OW96177   1.630   4.135   1.088 -0.3197 -0.7332  0.3364
30114SOL    HW196178   1.561   4.191   1.051 -0.8049 -1.0462  0.7459
30114SOL    HW296179   1.696   4.197   1.121  0.7847 -0.4590 -2.2134
30115SOL     OW96180   8.845   1.791   0.424  0.1252  0.1621  0.5788
30115SOL    HW196181   8.933   1.806   0.456  0.6183  1.2153 -1.0945
30115SOL    HW296182   8.796   1.758   0.499  1.7451  0.2983  1.7275
30116SOL     OW96183   2.353   7.543   4.048  0.3188  0.2428  0.3032
30116SOL    HW196184   2.390   7.627   4.020  0.8323  0.2169  0.8728
30116SOL    HW296185   2.259   7.555   4.045  0.3930  0.8422  0.3989
30117SOL     OW96186   8.869   6.404   2.513  0.1924  0.0229  0.2586
30117SOL    HW196187   8.942   6.369   2.461  1.4754 -0.7275  2.4208
30117SOL    HW296188   8.857   6.340   2.583 -1.9560  0.6189  0.4991
30118SOL     OW96189   4.643   4.035   7.242 -0.0956 -0.5980  0.2583
30118SOL    HW196190   4.701   4.100   7.202  0.3475 -1.1274  0.0268
30118SOL    HW296191   4.629   4.067   7.331 -1.9163  1.1223 -0.5730
30119SOL     OW96192   9.042   7.286   7.224  0.5597  0.0582 -0.1573
30119SOL    HW196193   8.950   7.280   7.249  0.8092 -2.4814  0.5176
30119SOL    HW296194   9.040   7.302   7.130 -0.6301 -0.7470 -0.3051
30120SOL     OW96195  10.649   9.244   1.524  0.2969  0.1822 -0.3012
30120SOL    HW196196  10.583   9.180   1.551  0.3426  0.1328 -0.3075
30120SOL    HW296197  10.699   9.262   1.604 -0.5137  1.1626  0.0093
30121SOL     OW96198   8.384  10.362   0.391 -0.6270  0.2995 -0.0584
30121SOL    HW196199   8.427  10.321   0.316  1.3713  0.2238  1.0588
30121SOL    HW296200   8.337  10.291   0.434 -1.0611  0.1702 -0.7297
30122SOL     OW96201   4.314   2.426   3.033 -1.3917 -0.2290  0.1976
30122SOL    HW196202   4.239   2.382   2.992 -2.4394  0.4665  1.2791
30122SOL    HW296203   4.350   2.360   3.093 -0.5419 -0.8722 -0.9799
30123SOL     OW96204   5.836   3.405   5.978 -0.3248 -0.1111 -0.0999
30123SOL    HW196205   5.829   3.490   6.021  3.7618  0.1161  0.5030
30123SOL    HW296206   5.781   3.413   5.900 -0.0875  3.0860 -0.0711
30124SOL     OW96207   6.300  10.720  10.014 -0.0777 -1.1075 -0.1756
30124SOL    HW196208   6.365  10.650  10.027  1.3545  0.5871  3.2109
30124SOL    HW296209   6.310  10.744   9.922  1.8060 -3.0734 -0.5971
30125SOL     OW96210  10.602   1.839   8.165  0.0950  0.1276  0.1611
30125SOL    HW196211  10.541   1.859   8.237  2.0143  1.4875  1.5215
30125SOL    HW296212  10.548   1.796   8.099 -2.4085  1.6092  1.1033
30126SOL     OW96213   0.281   2.572   8.063  0.0889 -0.1730  0.5930
30126SOL    HW196214   0.314   2.631   7.995 -1.7916 -0.4326 -0.6149
30126SOL    HW296215   0.186   2.571   8.050 -0.1546 -1.6051  2.1274
30127SOL     OW96216   4.611   2.060  10.384 -0.8497  0.2894  0.0310
30127SOL    HW196217   4.571   1.981  10.347 -1.3371  0.5190  0.0609
30127SOL    HW296218   4.700   2.033  10.408 -0.7026  0.0023 -0.8229
30128SOL     OW96219   3.475   4.541   9.508 -0.3672  0.4430  0.0242
30128SOL    HW196220   3.517   4.466   9.466 -2.4412 -1.9171  1.8537
30128SOL    HW296221   3.545   4.606   9.517  1.5976 -1.3401 -1.3605
30129SOL     OW96222   2.551   9.707   6.652 -0.2541 -0.2018 -0.0119
30129SOL    HW196223   2.646   9.707   6.638 -0.1482  0.3619  0.6906
30129SOL    HW296224   2.517   9.764   6.582  0.0981  1.0041  0.7578
30130SOL     OW96225   8.168   6.377   2.698 -0.0772  0.5353  0.1578
30130SOL    HW196226   8.209   6.452   2.655  1.6792  0.3372  1.4197
30130SOL    HW296227   8.180   6.392   2.791 -0.8808 -0.6651  0.4829
30131SOL     OW96228   7.374   1.859   3.185  0.4110 -0.1378 -0.3146
30131SOL    HW196229   7.445   1.807   3.148 -0.0972 -0.2937 -1.1052
30131SOL    HW296230   7.383   1.849   3.279  3.1141  2.0816 -0.2156
30132SOL     OW96231   5.446   9.231   6.485 -0.6046  0.6370 -0.5645
30132SOL    HW196232   5.442   9.147   6.439 -1.0125  0.1526  0.3414
30132SOL    HW296233   5.430   9.210   6.577  1.8533  1.3593  0.1206
30133SOL     OW96234   5.608   5.884   9.923  0.0323 -0.1099  0.2842
30133SOL    HW196235   5.692   5.859   9.886  0.5314  2.3792 -0.4227
30133SOL    HW296236   5.543   5.857   9.858  0.3667 -1.0416  0.3315
30134SOL     OW96237   0.873   9.666   4.561 -0.3241  0.4634  0.2628
30134SOL    HW196238   0.916   9.684   4.644  1.2791  0.9147 -0.6299
30134SOL    HW296239   0.779   9.678   4.579 -0.0201  0.3032  2.0437
30135SOL     OW96240   1.018   9.811   7.344 -0.2132  0.5234 -0.4300
30135SOL    HW196241   0.955   9.767   7.402  0.3871  0.8237  0.4778
30135SOL    HW296242   0.976   9.812   7.259 -0.5257 -1.2169 -0.3272
30136SOL     OW96243   3.966  10.406   5.117 -0.0252  0.1109 -0.0125
30136SOL    HW196244   4.047  10.385   5.164 -0.0588 -0.3694 -0.1579
30136SOL    HW296245   3.896  10.388   5.179 -0.0419  0.0941 -0.0360
30137SOL     OW96246   2.791   1.722   5.098 -0.2782 -0.2331 -0.0206
30137SOL    HW196247   2.715   1.719   5.156 -2.2506 -0.4566 -2.4317
30137SOL    HW296248   2.800   1.632   5.066 -1.4627  0.4380 -2.5603
30138SOL     OW96249   6.113   7.946  10.001  0.0596 -0.1916  0.1654
30138SOL    HW196250   6.052   7.969  10.071 -1.4632 -0.6636 -0.9493
30138SOL    HW296251   6.069   7.874   9.955  1.1312 -0.0478 -1.1249
30139SOL     OW96252   6.775   1.927   7.629 -0.3569 -0.6373 -0.2389
30139SOL    HW196253   6.861   1.966   7.616 -0.9839  0.5737 -0.8940
30139SOL    HW296254   6.759   1.877   7.550 -0.2002 -0.9806 -0.0551
30140SOL     OW96255   6.981   2.863   1.880  0.1963  0.4187  0.1727
30140SOL    HW196256   6.983   2.777   1.924  0.4886 -0.5100 -1.5612
30140SOL    HW296257   6.906   2.857   1.820  0.0054  1.5266  0.2805
30141SOL     OW96258  10.094   5.093   8.386  0.0861  0.1013  0.7955
30141SOL    HW196259  10.166   5.069   8.328  0.6470 -0.8976  1.8645
30141SOL    HW296260  10.114   5.050   8.469 -3.1324 -2.7480  0.3698
30142SOL     OW96261   5.292   4.868   5.296 -0.5084  0.0371  0.5856
30142SOL    HW196262   5.343   4.906   5.224 -0.3993  0.2496  0.7738
30142SOL    HW296263   5.204   4.857   5.260 -0.6072  0.7071  0.6091
30143SOL     OW96264   7.872   0.961   3.851 -0.4140 -0.4727 -0.1615
30143SOL    HW196265   7.950   0.907   3.842 -1.7561 -2.4021 -1.0487
30143SOL    HW296266   7.839   0.970   3.761 -0.0089  2.3157 -0.1319
30144SOL     OW96267   8.871   9.809   0.500  0.4632  0.0839  0.5780
30144SOL    HW196268   8.898   9.901   0.498 -0.1718  0.2938 -1.6053
30144SOL    HW296269   8.780   9.811   0.529  0.6352  0.0803  1.1195
30145SOL     OW96270   2.311   3.274   4.227  0.8570 -0.3307 -0.2917
30145SOL    HW196271   2.350   3.362   4.216  0.6527 -0.3430 -1.2176
30145SOL    HW296272   2.248   3.267   4.156  0.2674 -0.9202  0.2764
30146SOL     OW96273   9.788   1.704   9.993 -0.1196 -0.4550  0.4691
30146SOL    HW196274   9.873   1.670   9.964 -0.3788  0.2023 -1.1998
30146SOL    HW296275   9.724   1.640   9.962 -0.4732  0.6724 -1.3099
30147SOL     OW96276   7.712   6.968   0.657 -0.2671 -0.7354  0.3424
30147SOL    HW196277   7.778   7.019   0.704 -0.8590 -1.2770  1.7966
30147SOL    HW296278   7.759   6.932   0.582  0.6428  0.3101  0.3792
30148SOL     OW96279   1.261   3.187   6.915  0.3499  0.8057 -0.0947
30148SOL    HW196280   1.203   3.144   6.978  0.6161  1.8533  0.9036
30148SOL    HW296281   1.249   3.138   6.834  0.1122 -0.6833  0.8096
30149SOL     OW96282   7.548   3.176   5.418 -0.0208  0.1918  0.0965
30149SOL    HW196283   7.504   3.095   5.442  1.4826 -0.8890 -0.5809
30149SOL    HW296284   7.597   3.201   5.497 -0.5180  0.4834  0.3189
30150SOL     OW96285   3.568   9.309   6.911 -0.3288  0.0925  0.3509
30150SOL    HW196286   3.571   9.398   6.876 -1.7171  0.4681  1.1410
30150SOL    HW296287   3.520   9.259   6.845  0.6354 -0.1504 -0.1952
30151SOL     OW96288   6.173   5.431   1.537  0.0734 -0.1497  0.2719
30151SOL    HW196289   6.174   5.341   1.571  2.9624  0.3424  1.7676
30151SOL    HW296290   6.086   5.464   1.560 -0.7511 -2.2772  0.4177
30152SOL     OW96291   9.088   4.659   0.078  0.4744  0.0860 -0.1119
30152SOL    HW196292   9.046   4.573   0.066  1.0732 -0.6792  2.6413
30152SOL    HW296293   9.020   4.713   0.119  1.3138 -0.4177  2.0765
30153SOL     OW96294   4.618  10.407   0.880 -0.4630 -0.2950  0.0447
30153SOL    HW196295   4.601  10.493   0.844  0.1910 -1.1135 -2.3808
30153SOL    HW296296   4.533  10.363   0.878 -1.2551  0.8168  3.1398
30154SOL     OW96297   3.229  10.524   9.705 -0.1963 -0.3799 -0.1703
30154SOL    HW196298   3.164  10.455   9.715  0.3021 -0.5988  2.0541
30154SOL    HW296299   3.312  10.478   9.693 -0.2542 -0.1031 -1.9111
30155SOL     OW96300   8.129   1.027   5.905 -0.3105  0.1692  0.1404
30155SOL    HW196301   8.184   1.074   5.966 -0.0542  0.0100  0.0360
30155SOL    HW296302   8.046   1.074   5.905  0.2131  1.1079 -0.5850
30156SOL     OW96303   1.374   3.063   1.040 -0.1652  0.2339 -0.2664
30156SOL    HW196304   1.332   3.083   0.956  1.0023  2.0800 -0.4788
30156SOL    HW296305   1.344   3.133   1.098  1.0784  0.4833  0.1028
30157SOL     OW96306   1.939   4.957   5.888 -0.5728  0.1091 -0.0158
30157SOL    HW196307   1.877   4.976   5.818 -0.1288 -2.4435 -1.2134
30157SOL    HW296308   1.991   5.036   5.896 -0.0360  0.2275 -3.2700
30158SOL     OW96309   0.903  10.211   9.174 -0.0565  0.5881  0.2243
30158SOL    HW196310   0.941  10.154   9.240  0.7050  1.0015  0.1546
30158SOL    HW296311   0.977  10.262   9.140 -0.2690 -0.2274 -1.5773
30159SOL     OW96312   2.897   6.194   4.669  0.7527 -0.2817 -0.2184
30159SOL    HW196313   2.940   6.278   4.653 -3.7794  2.2274 -1.1092
30159SOL    HW296314   2.870   6.164   4.582 -0.4862 -0.9133  0.3569
30160SOL     OW96315   7.861   1.166   5.818 -0.3029  0.2201  0.6418
30160SOL    HW196316   7.824   1.126   5.896  0.6059 -2.8031 -0.3480
30160SOL    HW296317   7.799   1.147   5.748  0.9014 -0.9823 -0.1612
30161SOL     OW96318   6.441   0.306   2.112 -0.1224 -0.2103  0.0735
30161SOL    HW196319   6.515   0.363   2.092  0.4618 -0.8472  0.4013
30161SOL    HW296320   6.417   0.328   2.202  0.3821 -0.7793  0.3516
30162SOL     OW96321   0.199   6.282   3.982  0.1832  0.0217 -0.0107
30162SOL    HW196322   0.227   6.329   4.060  0.5271 -0.1930 -0.0027
30162SOL    HW296323   0.280   6.246   3.945 -0.0068 -0.0826 -0.3299
30163SOL     OW96324   2.690   0.092   1.228 -0.0090 -0.7043  0.7745
30163SOL    HW196325   2.716   0.181   1.253  2.0469 -1.1021  0.2649
30163SOL    HW296326   2.705   0.040   1.307 -0.3955 -0.7402  0.8233
30164SOL     OW96327   2.505   0.370   0.083  0.1938 -0.4140  0.3092
30164SOL    HW196328   2.501   0.441   0.019 -0.7389 -1.0048 -0.3216
30164SOL    HW296329   2.444   0.304   0.049 -0.7535 -0.5136  2.0941
30165SOL     OW96330   9.069   7.347   6.032 -0.2073 -0.3461  0.2678
30165SOL    HW196331   8.995   7.325   5.974 -0.1386 -0.6752  0.3014
30165SOL    HW296332   9.108   7.262   6.052  1.6830 -0.0387 -1.7100
30166SOL     OW96333  10.563   9.002   1.699  0.1796 -0.3095 -0.0577
30166SOL    HW196334  10.472   9.005   1.670  0.3792  3.2555 -0.7097
30166SOL    HW296335  10.558   8.976   1.791 -1.6454  0.9215  0.2532
30167SOL     OW96336   9.070   7.065   3.835 -0.1191  0.0299 -0.0920
30167SOL    HW196337   9.026   7.028   3.759  0.2144  0.1843 -0.3599
30167SOL    HW296338   9.000   7.080   3.898 -0.5393  0.8120 -0.7324
30168SOL     OW96339   0.022   5.168   9.612  0.4189  0.5114  0.2619
30168SOL    HW196340   0.085   5.228   9.572  0.5103 -0.2980 -0.8531
30168SOL    HW296341   0.037   5.085   9.567 -0.4613 -0.0620  1.0097
30169SOL     OW96342  10.581   0.239   7.779 -0.1948  0.5118 -0.5853
30169SOL    HW196343  10.635   0.180   7.830 -0.7489  0.5292  0.0244
30169SOL    HW296344  10.537   0.183   7.715 -0.0113  0.4042 -0.6186
30170SOL     OW96345   3.144   7.752   4.186 -0.5707 -0.0821 -0.0671
30170SOL    HW196346   3.129   7.672   4.237 -0.4862  0.1944  0.3932
30170SOL    HW296347   3.097   7.737   4.104  0.9982 -1.4083 -0.7939
30171SOL     OW96348   5.144   6.760   2.444  0.1575 -0.5149 -0.5550
30171SOL    HW196349   5.084   6.804   2.504 -0.1897 -2.5732  0.7358
30171SOL    HW296350   5.093   6.747   2.364 -0.8063 -1.2749  0.1510
30172SOL     OW96351   8.947   0.315   4.289 -0.6736 -0.0382  0.1910
30172SOL    HW196352   8.971   0.405   4.311  2.2162  0.2463 -3.2087
30172SOL    HW296353   8.994   0.262   4.352 -0.7071  0.7545  0.9135
30173SOL     OW96354  10.148   8.264   3.474 -0.4439 -0.0680 -0.1559
30173SOL    HW196355  10.062   8.239   3.442 -1.9214  1.7436  2.1022
30173SOL    HW296356  10.138   8.356   3.500  2.2110  0.2291  0.0896
30174SOL     OW96357   8.055   9.965   3.138  0.1345  0.2320 -0.4526
30174SOL    HW196358   8.072   9.918   3.220  0.4416 -0.0351 -0.6664
30174SOL    HW296359   7.960   9.961   3.127 -0.0891  1.5343  0.6421
30175SOL     OW96360   2.636   5.165   9.036 -0.3888 -0.0608 -0.0326
30175SOL    HW196361   2.602   5.093   8.982 -2.3881 -0.3562  1.4714
30175SOL    HW296362   2.582   5.240   9.011 -0.0095  0.2804  0.1813
30176SOL     OW96363   8.328   9.942   6.130 -0.0533 -0.1092 -0.1271
30176SOL    HW196364   8.348   9.987   6.048  2.3871 -0.1123  0.4081
30176SOL    HW296365   8.252   9.990   6.165  1.5307  2.7237 -0.2816
30177SOL     OW96366  10.455   4.136   4.300 -0.0104 -0.5266  0.0512
30177SOL    HW196367  10.489   4.101   4.218  1.2811  0.3529  0.1701
30177SOL    HW296368  10.527   4.189   4.335 -0.3715 -1.2093  1.9689
30178SOL     OW96369  10.088   1.909   6.973  0.1896  0.2528  0.4121
30178SOL    HW196370  10.012   1.966   6.991 -0.0570  0.0737 -0.0437
30178SOL    HW296371  10.049   1.823   6.955  0.4687  0.2825 -0.3464
30179SOL     OW96372   5.103   4.709   8.886 -0.1968  0.2283  0.3587
30179SOL    HW196373   5.032   4.660   8.927  1.0443 -3.1462 -1.1645
30179SOL    HW296374   5.071   4.726   8.797 -0.3504  1.7650  0.6742
30180SOL     OW96375   1.977   7.187   9.690 -0.5613  0.0337  0.0135
30180SOL    HW196376   2.046   7.140   9.644 -0.9913  0.6248 -1.2971
30180SOL    HW296377   1.958   7.133   9.766  1.0574 -0.3440  0.1956
30181SOL     OW96378   6.613   0.552   6.317 -0.3472 -0.4082 -0.0149
30181SOL    HW196379   6.676   0.614   6.354 -1.4730  0.6945  0.1299
30181SOL    HW296380   6.594   0.586   6.230  0.6376 -1.7806 -0.8078
30182SOL     OW96381   2.397   0.433   3.941  0.3250 -0.3577 -0.2477
30182SOL    HW196382   2.312   0.438   3.898  0.8482  0.3124 -1.2391
30182SOL    HW296383   2.377   0.440   4.035 -0.8173 -1.6926 -0.3637
30183SOL     OW96384  10.194   2.151   3.428 -0.3865 -0.1589 -0.1100
30183SOL    HW196385  10.249   2.074   3.444  0.2992  0.1013 -1.0943
30183SOL    HW296386  10.231   2.219   3.484 -1.8010 -0.8549  1.7614
30184SOL     OW96387   0.014   6.611   7.741 -0.7584  0.5267  0.2623
30184SOL    HW196388  -0.022   6.678   7.799 -2.8811 -0.0020 -0.3483
30184SOL    HW296389  -0.055   6.544   7.737  0.8741 -1.2312  0.0714
30185SOL     OW96390   2.277   9.823   9.134  0.3987 -0.0468  0.5391
30185SOL    HW196391   2.318   9.898   9.178  1.8357 -0.4108 -0.0962
30185SOL    HW296392   2.349   9.760   9.123 -0.5895 -1.1663  0.2957
30186SOL     OW96393   8.160   3.145   4.732 -0.3691  0.0305 -0.0479
30186SOL    HW196394   8.205   3.198   4.798  0.3777  0.5172 -0.9309
30186SOL    HW296395   8.123   3.072   4.782  1.7748 -0.6471  0.6673
30187SOL     OW96396   0.100   0.238   1.803  0.5147 -0.0542 -0.4662
30187SOL    HW196397   0.121   0.175   1.734  0.4212 -0.2516 -0.3156
30187SOL    HW296398   0.112   0.324   1.762  0.0077 -0.1728 -0.8615
30188SOL     OW96399   7.014   4.271   2.059  0.4138  0.0092 -0.3851
30188SOL    HW196400   6.987   4.307   2.144 -1.4314 -0.0227 -0.9119
30188SOL    HW296401   6.955   4.312   1.996  1.5736 -0.1819 -1.6251
30189SOL     OW96402   4.807   0.033   1.316  0.0729 -0.4813  0.5802
30189SOL    HW196403   4.736   0.097   1.320  0.0695 -0.5528  2.0698
30189SOL    HW296404   4.877   0.078   1.268  0.4284  1.0283  2.4090
30190SOL     OW96405   2.584   8.037   4.969 -0.0826 -0.0343 -0.2320
30190SOL    HW196406   2.533   7.958   4.953 -1.8306  1.1115 -0.6128
30190SOL    HW296407   2.590   8.080   4.884  1.8442 -0.2719 -0.2670
30191SOL     OW96408   7.026   3.026   1.002  0.3489  0.3894 -0.0866
30191SOL    HW196409   7.021   3.019   1.098 -0.9002  0.0424 -0.1487
30191SOL    HW296410   6.940   2.994   0.972  0.5616  0.9141 -1.3000
30192SOL     OW96411  10.335   0.731   6.271  0.7640  0.3259 -0.3541
30192SOL    HW196412  10.378   0.707   6.189  1.4933  1.9774 -0.4954
30192SOL    HW296413  10.327   0.648   6.319  1.1723 -0.5176 -1.6827
30193SOL     OW96414   8.498   1.030   8.908 -0.4146  0.4982 -0.8414
30193SOL    HW196415   8.588   1.063   8.914 -0.4084  0.4271 -0.5195
30193SOL    HW296416   8.485   0.983   8.991 -1.1298  1.4465 -0.4061
30194SOL     OW96417   6.984   2.206   7.033  0.2240  0.6897 -0.2380
30194SOL    HW196418   6.924   2.281   7.041 -0.4288  0.2469 -0.8266
30194SOL    HW296419   7.068   2.239   7.065 -0.2381  1.4412  0.2475
30195SOL     OW96420  10.269  10.439   3.892 -0.0144  0.4695  0.4646
30195SOL    HW196421  10.236  10.400   3.811  0.3144  1.1287  0.0042
30195SOL    HW296422  10.213  10.403   3.961 -0.3224 -0.0674 -0.0582
30196SOL     OW96423   8.701   7.297   7.329  0.2140  0.1403 -0.0147
30196SOL    HW196424   8.710   7.243   7.407  0.7937  1.1002  0.6070
30196SOL    HW296425   8.646   7.245   7.270 -0.5457 -0.4393  1.1678
30197SOL     OW96426   8.337   3.813   9.113 -0.4027 -0.3387  0.1896
30197SOL    HW196427   8.264   3.754   9.131  0.9738 -2.1065  0.2746
30197SOL    HW296428   8.361   3.794   9.022  1.2912 -1.3843  0.8133
30198SOL     OW96429   6.546   9.705   8.438 -0.0352 -0.3931  0.0960
30198SOL    HW196430   6.606   9.779   8.436  0.4466 -0.7882 -0.2979
30198SOL    HW296431   6.582   9.645   8.503  0.3170 -0.8916 -0.5494
30199SOL     OW96432   9.916   1.031   1.240 -0.3413  0.3774 -0.4434
30199SOL    HW196433   9.939   0.944   1.209 -0.1250  0.3221 -0.1294
30199SOL    HW296434   9.877   1.016   1.326  0.4153  0.6559 -0.0424
30200SOL     OW96435   3.739   1.940   3.849 -0.1394 -0.0807  0.5087
30200SOL    HW196436   3.797   1.922   3.774  0.0283  0.2204  0.5631
30200SOL    HW296437   3.796   1.930   3.925  0.5840  2.9076  0.4650
30201SOL     OW96438   8.875   4.245   6.859  0.4742  0.7447 -0.1193
30201SOL    HW196439   8.848   4.249   6.767  1.4850  0.3010 -0.4468
30201SOL    HW296440   8.969   4.227   6.856  0.3708 -0.1033  1.0165
30202SOL     OW96441   7.661   2.580   0.912 -0.5200  0.2391  0.4313
30202SOL    HW196442   7.591   2.518   0.933 -1.5781  1.3381  0.2728
30202SOL    HW296443   7.616   2.664   0.902  0.7057  0.8133 -0.5622
30203SOL     OW96444   5.061   0.718   9.172 -0.1332  0.0809  0.0029
30203SOL    HW196445   5.041   0.759   9.256 -0.2486  0.2606 -0.1099
30203SOL    HW296446   5.157   0.715   9.169 -0.1349 -0.2535  0.2945
30204SOL     OW96447   1.651   6.455  10.290 -0.6004  0.1177 -0.1683
30204SOL    HW196448   1.725   6.440  10.348 -0.0573  1.3346 -0.5227
30204SOL    HW296449   1.574   6.435  10.344 -0.1164  1.3610  1.0311
30205SOL     OW96450   8.308   6.258   2.123  0.4550  0.8107  0.1384
30205SOL    HW196451   8.296   6.166   2.145 -1.6207  1.0774  0.3111
30205SOL    HW296452   8.367   6.257   2.047  1.7114 -0.5325  1.0846
30206SOL     OW96453   2.853   8.931   2.176 -0.3793 -0.3150  0.4596
30206SOL    HW196454   2.864   9.004   2.114  0.0689  0.4632  1.4262
30206SOL    HW296455   2.940   8.893   2.184  0.0925  1.0112  2.2870
30207SOL     OW96456   3.786   3.511   5.293  0.5483  0.3679  0.2379
30207SOL    HW196457   3.794   3.417   5.278  1.4217  0.1666  1.8502
30207SOL    HW296458   3.862   3.534   5.347 -0.7724  1.5823  1.6722
30208SOL     OW96459   7.575   1.713   0.312  0.5838  0.3646 -0.0112
30208SOL    HW196460   7.505   1.756   0.262 -0.2607 -0.2366  0.6214
30208SOL    HW296461   7.551   1.620   0.310  2.4989 -0.1746 -1.5845
30209SOL     OW96462   5.682   1.988   7.005 -0.5502 -0.1329  0.3473
30209SOL    HW196463   5.692   1.913   6.947 -0.6440 -1.8608  2.4705
30209SOL    HW296464   5.618   2.044   6.961 -0.6948 -1.4170 -1.1416
30210SOL     OW96465   5.221   6.366   8.846 -0.2643 -0.1398  1.0721
30210SOL    HW196466   5.230   6.370   8.751  2.0908  3.2823  1.2766
30210SOL    HW296467   5.233   6.274   8.867  1.6258 -0.6699 -1.7707
30211SOL     OW96468   8.683   7.715   2.081  0.0072 -0.3846 -0.0833
30211SOL    HW196469   8.743   7.718   2.007 -0.0915 -0.6932 -0.1787
30211SOL    HW296470   8.736   7.741   2.156  0.4041 -1.1647 -0.0785
30212SOL     OW96471   3.852   8.360   4.384 -0.1237 -0.3382  0.0253
30212SOL    HW196472   3.898   8.277   4.369 -0.4246 -0.3040 -1.2107
30212SOL    HW296473   3.849   8.369   4.479  1.5203 -0.8338  0.1556
30213SOL     OW96474   2.617   0.251   9.893 -0.4442  0.0825  0.6113
30213SOL    HW196475   2.611   0.268   9.987  0.5778 -1.2651  0.9464
30213SOL    HW296476   2.617   0.339   9.854 -2.1419  0.6467  1.7403
30214SOL     OW96477   7.462   6.200   0.803 -0.6709  0.3430 -0.2404
30214SOL    HW196478   7.537   6.234   0.851  0.0052 -0.4416 -0.7048
30214SOL    HW296479   7.494   6.118   0.764 -0.9045  1.3484 -2.7259
30215SOL     OW96480  10.289   6.243  10.567 -0.4529  0.0740 -0.0072
30215SOL    HW196481  10.232   6.183  10.615 -1.9450  0.2461 -1.4549
30215SOL    HW296482  10.236   6.273  10.493  0.9072  1.7010 -0.4056
30216SOL     OW96483   2.033   4.132   5.248  0.3112 -0.3225 -0.3759
30216SOL    HW196484   1.942   4.158   5.235  0.5760  2.1610  1.8960
30216SOL    HW296485   2.030   4.068   5.319  0.3534  0.1447  0.0528
30217SOL     OW96486   9.106   2.078   8.096 -0.7164 -0.3289 -0.3808
30217SOL    HW196487   9.183   2.131   8.081 -1.3104 -0.2310 -4.0167
30217SOL    HW296488   9.102   2.066   8.191  2.0023  2.1761  0.1631
30218SOL     OW96489   8.650   4.740   3.108 -0.7415  0.7659  0.3767
30218SOL    HW196490   8.658   4.666   3.168  2.4380  0.9072  0.2587
30218SOL    HW296491   8.629   4.815   3.164  0.3028  0.5503  1.0696
30219SOL     OW96492  10.168   6.054   3.641 -0.4393 -0.1122  0.2681
30219SOL    HW196493  10.105   6.098   3.697 -0.8808 -1.2556  0.7096
30219SOL    HW296494  10.168   5.963   3.672  3.2884  0.3028  2.0300
30220SOL     OW96495   9.299   3.131   8.158 -0.0396 -0.1365  0.2078
30220SOL    HW196496   9.269   3.093   8.076  0.5300 -0.5546  0.1860
30220SOL    HW296497   9.232   3.105   8.222  0.2123 -0.9782  0.1440
30221SOL     OW96498   2.416   3.897   1.019 -0.0252 -1.0221  0.1169
30221SOL    HW196499   2.429   3.986   0.984 -1.5567 -0.9657 -0.4042
30221SOL    HW296500   2.452   3.901   1.107 -0.7028  0.3604  0.3755
30222SOL     OW96501   4.429   0.323   9.190 -0.7026  0.2360  0.0070
30222SOL    HW196502   4.370   0.373   9.133 -0.4741  0.1977 -0.2704
30222SOL    HW296503   4.511   0.372   9.188  0.0411 -0.9587 -1.5508
30223SOL     OW96504   3.083   2.292   7.039 -0.0420  0.0619 -0.3607
30223SOL    HW196505   3.025   2.217   7.026  0.5191 -0.1753 -1.5853
30223SOL    HW296506   3.164   2.255   7.074  0.4737 -0.0056 -1.5899
30224SOL     OW96507   7.793   0.438   7.882  0.2361 -0.5562  0.2000
30224SOL    HW196508   7.825   0.527   7.892  0.3283 -0.4205 -1.0794
30224SOL    HW296509   7.855   0.398   7.821  0.8760 -1.8628  1.6456
30225SOL     OW96510   7.875   9.752   9.102 -0.4512  0.5822  0.0453
30225SOL    HW196511   7.808   9.697   9.060 -1.4140  0.0211  2.1743
30225SOL    HW296512   7.864   9.838   9.062 -0.0491 -0.3199 -2.1470
30226SOL     OW96513   6.153   7.409   6.350  0.3870  0.1341  0.0629
30226SOL    HW196514   6.226   7.424   6.410  0.5516  0.0829 -0.1236
30226SOL    HW296515   6.160   7.479   6.285 -1.4032  1.8775  1.6135
30227SOL     OW96516   4.388   4.753   9.972 -0.0015  0.2494  0.1528
30227SOL    HW196517   4.437   4.833   9.989 -0.4002  0.1759  1.8862
30227SOL    HW296518   4.433   4.686  10.024 -0.0357 -0.5292 -0.7914
30228SOL     OW96519   7.787   3.699   4.400 -0.5293  0.1040 -0.2081
30228SOL    HW196520   7.701   3.664   4.426 -0.9898  1.3758  0.0876
30228SOL    HW296521   7.767   3.786   4.366  0.7359  0.7614  0.6470
30229SOL     OW96522   7.677   5.511   2.867  0.2998 -0.6357 -0.1306
30229SOL    HW196523   7.678   5.602   2.899  0.4765 -0.2904 -1.0713
30229SOL    HW296524   7.618   5.465   2.926 -0.3009  0.2505 -0.0231
30230SOL     OW96525   2.502   2.787  10.350 -0.3980 -0.0965  0.3508
30230SOL    HW196526   2.589   2.821  10.372  0.1069 -0.8642 -0.4126
30230SOL    HW296527   2.517   2.696  10.326 -0.9002  0.4805 -2.6964
30231SOL     OW96528   7.357   1.441   3.644  0.4686 -0.0351 -0.3437
30231SOL    HW196529   7.444   1.401   3.650  0.5877 -0.0309 -1.7053
30231SOL    HW296530   7.298   1.377   3.683  1.0499 -0.1109  0.4409
30232SOL     OW96531   6.178   0.945   7.753  0.0298  0.1803 -0.0230
30232SOL    HW196532   6.149   0.854   7.752 -3.6664  1.1494  2.1429
30232SOL    HW296533   6.210   0.961   7.664 -0.4260 -2.8063 -0.8411
30233SOL     OW96534   5.597   9.976   5.787 -0.5032  0.3127  0.1770
30233SOL    HW196535   5.505   9.952   5.775 -0.1607 -0.9976 -0.0035
30233SOL    HW296536   5.595  10.053   5.843 -1.6414 -1.0932  2.2165
30234SOL     OW96537   8.893   1.387   0.039 -0.4040 -0.0205  0.0857
30234SOL    HW196538   8.956   1.321   0.010 -0.0578 -0.0165  0.8089
30234SOL    HW296539   8.839   1.404  -0.039  0.1273 -0.4299 -0.3855
30235SOL     OW96540   6.355   6.614  10.642 -0.6511  0.2595 -0.3515
30235SOL    HW196541   6.285   6.608  10.707 -0.4943 -2.2414 -0.3394
30235SOL    HW296542   6.337   6.696  10.595 -0.9418  2.0386  2.5867
30236SOL     OW96543   7.592   1.171   7.163  0.0392  0.6352  0.3279
30236SOL    HW196544   7.600   1.162   7.068  0.0594  2.8494  0.0536
30236SOL    HW296545   7.528   1.105   7.188  0.5426 -0.4705 -1.1021
30237SOL     OW96546   8.392   3.333   8.747  0.1404  0.4508 -0.3463
30237SOL    HW196547   8.454   3.402   8.771 -1.2839  1.9948 -0.9377
30237SOL    HW296548   8.315   3.380   8.715 -2.0333 -1.3221  1.8868
30238SOL     OW96549   4.242   0.339  10.627 -0.2205 -0.3859 -0.3346
30238SOL    HW196550   4.305   0.273  10.599  0.2523 -0.8094  1.5598
30238SOL    HW296551   4.244   0.334  10.723 -3.0078 -0.2944 -0.2025
30239SOL     OW96552   0.809   3.476   1.541 -0.5816 -0.3422 -0.8520
30239SOL    HW196553   0.811   3.380   1.548 -1.5403 -0.2664  0.8339
30239SOL    HW296554   0.745   3.493   1.472 -0.6122 -0.9094 -0.9708
30240SOL     OW96555   2.957   3.292   4.668  0.4784  0.1842  0.4199
30240SOL    HW196556   2.979   3.212   4.619  0.7995  0.0071  0.8417
30240SOL    HW296557   2.970   3.363   4.606  0.1154 -0.0979  0.0138
30241SOL     OW96558   6.766   5.960  10.382 -0.2181  0.1982  0.0952
30241SOL    HW196559   6.809   5.939  10.465  2.5136  0.8075 -1.0680
30241SOL    HW296560   6.810   6.039  10.351 -1.8445  0.5511 -1.4880
30242SOL     OW96561   9.899   5.664   3.591 -0.2430  0.2426 -0.0803
30242SOL    HW196562   9.814   5.707   3.578 -1.0157 -1.0370  0.4807
30242SOL    HW296563   9.926   5.690   3.679  0.7874  1.9745 -0.8584
30243SOL     OW96564   0.547  10.074   2.116 -0.0514 -0.0377  0.8086
30243SOL    HW196565   0.452  10.083   2.126 -0.1472  1.0774 -0.7260
30243SOL    HW296566   0.577  10.043   2.201 -1.9139 -1.5126  1.0039
30244SOL     OW96567   3.838   3.092   4.434  0.2632 -0.1624 -0.7626
30244SOL    HW196568   3.854   3.112   4.342 -0.3972 -1.5811 -1.2179
30244SOL    HW296569   3.778   3.017   4.432  0.0518 -0.0689  0.8248
30245SOL     OW96570   4.315   1.040   2.891 -0.4895  0.3875 -0.4361
30245SOL    HW196571   4.321   1.134   2.902 -0.2731  0.3100  0.1632
30245SOL    HW296572   4.394   1.006   2.934 -0.4688 -0.0489 -0.8136
30246SOL     OW96573   0.086   1.214   8.103 -0.6070 -0.0359  0.2524
30246SOL    HW196574   0.090   1.227   8.009  1.8691 -1.0653  0.1568
30246SOL    HW296575   0.070   1.302   8.139  1.9831  1.0151 -0.9751
30247SOL     OW96576   0.556   4.103   3.691 -0.4043 -0.1887 -0.1843
30247SOL    HW196577   0.539   4.195   3.671  0.6177  0.0875  0.1333
30247SOL    HW296578   0.556   4.059   3.606  1.5687  0.5600 -0.6154
30248SOL     OW96579   9.622   5.386   3.602  0.1002  0.0657  0.0140
30248SOL    HW196580   9.568   5.330   3.658 -0.5936 -1.4306 -2.0256
30248SOL    HW296581   9.595   5.475   3.624 -0.4646 -0.4901  1.7003
30249SOL     OW96582   0.988   5.122   6.159 -0.5566 -0.0238 -0.4800
30249SOL    HW196583   0.946   5.159   6.237 -1.4585  0.4786 -1.1877
30249SOL    HW296584   0.916   5.085   6.108  0.1319 -1.2229 -0.6245
30250SOL     OW96585   3.539   4.114   6.976 -0.1860  0.3918  0.2949
30250SOL    HW196586   3.602   4.068   6.922 -1.2694 -0.9506  0.1391
30250SOL    HW296587   3.583   4.126   7.060  0.5522  0.1982 -0.0616
30251SOL     OW96588   1.386   3.237   3.004  0.8490 -0.7653 -0.5044
30251SOL    HW196589   1.464   3.182   3.002  1.4770  0.0958 -0.3802
30251SOL    HW296590   1.366   3.253   2.912 -0.3804 -2.6031 -0.6004
30252SOL     OW96591   5.811   2.995   1.243 -0.2817 -0.9434 -0.0738
30252SOL    HW196592   5.894   2.979   1.287  0.0207  0.5908 -0.0147
30252SOL    HW296593   5.749   3.013   1.314 -0.1335  0.0667 -0.1767
30253SOL     OW96594   9.147   7.115   4.150  0.2189 -0.4469 -0.4912
30253SOL    HW196595   9.083   7.069   4.096 -0.8447  1.9738 -1.4347
30253SOL    HW296596   9.096   7.150   4.223  1.0827 -1.0731  0.4461
30254SOL     OW96597   3.123   2.745   2.217  0.2176  0.0670  0.4260
30254SOL    HW196598   3.109   2.662   2.261 -0.4824 -0.0708 -0.0521
30254SOL    HW296599   3.206   2.778   2.254  1.2728 -1.5142 -0.4283
30255SOL     OW96600   4.467   4.904   8.317 -0.0681  0.6706  0.3970
30255SOL    HW196601   4.451   4.924   8.225 -1.9422  0.6931  0.6856
30255SOL    HW296602   4.481   4.810   8.320  2.8648  0.9988 -0.2216
30256SOL     OW96603   4.037   8.040   7.856  0.0321  0.0934 -0.4816
30256SOL    HW196604   4.060   7.984   7.782  2.1914  0.5731 -0.2235
30256SOL    HW296605   4.095   8.116   7.849 -0.5957  0.7577  0.9871
30257SOL     OW96606   0.359   8.709   4.872 -0.1429  0.2411 -0.3726
30257SOL    HW196607   0.374   8.665   4.789  1.2348 -0.6475  0.3114
30257SOL    HW296608   0.426   8.777   4.875  1.6131 -1.4392  1.1308
30258SOL     OW96609   0.432   6.402   9.852  0.1452  0.0420 -0.0034
30258SOL    HW196610   0.395   6.490   9.863  0.1320 -0.0044  0.3419
30258SOL    HW296611   0.501   6.397   9.919  0.1040 -0.2360  0.0188
30259SOL     OW96612   5.364   9.500  10.211 -0.4675  0.2507  0.4006
30259SOL    HW196613   5.356   9.528  10.120 -1.0866 -0.1525  0.3309
30259SOL    HW296614   5.292   9.545  10.256  0.2062  0.9365  0.8140
30260SOL     OW96615   7.958   6.217   7.897 -0.0558 -0.4445 -0.5530
30260SOL    HW196616   8.017   6.290   7.919  0.6710 -0.8359 -1.1931
30260SOL    HW296617   7.948   6.222   7.802 -0.6369 -0.7133 -0.5110
30261SOL     OW96618   2.782   9.720   8.475  0.2319  0.1710 -0.4162
30261SOL    HW196619   2.742   9.689   8.394 -0.1304 -0.9270  0.1594
30261SOL    HW296620   2.804   9.640   8.523  2.3331  0.7744 -0.3170
30262SOL     OW96621   7.323   2.539   1.082  0.4677 -0.5005 -0.1601
30262SOL    HW196622   7.261   2.566   1.014 -0.5232 -0.0010  0.8966
30262SOL    HW296623   7.371   2.465   1.044  0.1832 -0.0215 -1.5097
30263SOL     OW96624   0.259   9.477   2.853 -0.3665 -0.4154 -0.1343
30263SOL    HW196625   0.164   9.472   2.863 -0.3644  1.0876  1.0206
30263SOL    HW296626   0.273   9.549   2.791  0.0114 -1.3067 -1.1090
30264SOL     OW96627   3.052   7.076   4.987 -0.1789  0.1440 -0.7140
30264SOL    HW196628   3.070   6.982   4.987 -0.1848  0.1359 -0.0242
30264SOL    HW296629   2.966   7.084   4.946 -1.3508 -0.4193  1.4677
30265SOL     OW96630   8.878  10.026  10.167  0.0237 -0.3906  0.0785
30265SOL    HW196631   8.788  10.059  10.170  0.3338  0.5457 -0.5192
30265SOL    HW296632   8.928  10.097  10.129  1.1874 -0.5748  1.2175
30266SOL     OW96633   0.398   9.864   2.581 -0.1564 -0.0884  0.3909
30266SOL    HW196634   0.342   9.932   2.543 -0.1718  0.3221  1.1328
30266SOL    HW296635   0.470   9.913   2.622  0.5631 -0.5900 -0.2482
30267SOL     OW96636   0.012   9.812   1.083 -0.0965 -0.3599  0.0807
30267SOL    HW196637  -0.020   9.776   1.165 -0.0356  1.3028  0.8725
30267SOL    HW296638   0.100   9.845   1.104 -1.1776  2.7617  0.2164
30268SOL     OW96639   5.376   6.910   6.219 -0.8374  0.6420 -0.0716
30268SOL    HW196640   5.433   6.987   6.211  0.2207 -0.1006  0.0368
30268SOL    HW296641   5.400   6.871   6.303 -0.2201 -0.6723 -0.8193
30269SOL     OW96642   8.357   5.997   7.661 -0.1807 -0.0261 -0.2669
30269SOL    HW196643   8.409   5.961   7.589 -1.1037  2.0084 -2.0720
30269SOL    HW296644   8.420   6.043   7.715  0.1865  0.7659 -1.3372
30270SOL     OW96645   9.771   6.581   2.045 -0.1029  0.6780 -0.6373
30270SOL    HW196646   9.836   6.512   2.048  0.3323  1.1046  1.8752
30270SOL    HW296647   9.816   6.655   2.005 -0.3338 -0.1679 -2.6001
30271SOL     OW96648   8.344   4.086   2.398 -0.0172  0.3981 -0.1086
30271SOL    HW196649   8.405   4.019   2.430  0.1936  1.4693  1.8878
30271SOL    HW296650   8.305   4.122   2.477 -1.8373  1.0888 -1.2572
30272SOL     OW96651   7.923   3.152   0.026 -0.0170  0.3590  1.2265
30272SOL    HW196652   7.842   3.116   0.063 -0.2093  0.8866  1.3236
30272SOL    HW296653   7.950   3.218   0.089  2.2806 -2.0242  2.9293
30273SOL     OW96654   7.890  10.341  10.310  0.3762  0.0235 -0.0554
30273SOL    HW196655   7.892  10.397  10.232  2.0966 -0.0677 -0.1226
30273SOL    HW296656   7.932  10.394  10.378  0.0457 -0.3792  0.4663
30274SOL     OW96657   7.323   3.879   8.180 -0.3770 -0.1684  0.1469
30274SOL    HW196658   7.286   3.954   8.227  1.6986  0.9692  0.1103
30274SOL    HW296659   7.341   3.913   8.092  0.2056 -0.8239  0.0082
30275SOL     OW96660   1.826  10.077   7.526 -0.2011  0.4014  0.0030
30275SOL    HW196661   1.777  10.159   7.524 -0.8852 -0.0083 -0.4263
30275SOL    HW296662   1.785  10.022   7.460 -2.1006 -1.5706  2.5968
30276SOL     OW96663   2.096   6.561   3.885 -0.0835  0.2296 -0.4046
30276SOL    HW196664   2.125   6.602   3.966  0.0491 -0.0280 -0.3203
30276SOL    HW296665   2.048   6.630   3.839  0.5988  0.6396 -0.5135
30277SOL     OW96666   9.454   7.623   3.558  0.0605  0.0304  0.1127
30277SOL    HW196667   9.403   7.649   3.481 -0.2087 -2.8319 -0.8052
30277SOL    HW296668   9.504   7.547   3.528  0.7906 -0.4851  2.4831
30278SOL     OW96669   2.124  10.176   8.552 -0.0768  0.1428  0.2220
30278SOL    HW196670   2.151  10.107   8.490 -0.9349  0.9847 -1.1416
30278SOL    HW296671   2.092  10.246   8.496 -1.5935  0.6492  1.6731
30279SOL     OW96672   0.258   3.773   6.719 -0.0108 -0.2763  0.2596
30279SOL    HW196673   0.330   3.819   6.676 -0.3634  1.0337  1.0069
30279SOL    HW296674   0.213   3.727   6.648 -0.6681  1.9495 -0.8426
30280SOL     OW96675   5.609   8.412   0.640 -0.3276  0.0505  0.4162
30280SOL    HW196676   5.576   8.444   0.556 -0.7904 -0.4561  0.4028
30280SOL    HW296677   5.690   8.366   0.618 -0.4637 -0.1059  0.2438
30281SOL     OW96678   6.379   9.029   1.539 -0.1688 -0.4210  0.0922
30281SOL    HW196679   6.414   8.975   1.469 -0.0376 -1.4800  0.9572
30281SOL    HW296680   6.307   8.977   1.576 -0.9446  0.5864  0.0508
30282SOL     OW96681   0.033   8.773   5.015 -0.1434  0.5062  0.2630
30282SOL    HW196682  -0.058   8.785   5.041 -0.3071 -1.3052  0.6878
30282SOL    HW296683   0.032   8.784   4.919 -1.1478 -1.0683  0.0517
30283SOL     OW96684   8.611   8.240   6.513 -0.2882  0.2669  0.0136
30283SOL    HW196685   8.623   8.334   6.524 -0.3446  0.5550 -1.9887
30283SOL    HW296686   8.562   8.213   6.591 -0.3926  1.9186  0.5632
30284SOL     OW96687   4.893   7.475   4.435  0.1595  0.4803 -0.0687
30284SOL    HW196688   4.963   7.410   4.437 -0.1847  0.1138  1.2334
30284SOL    HW296689   4.932   7.554   4.471 -0.2240  0.1047  1.2359
30285SOL     OW96690   6.700   8.247   8.348  0.3690  0.0947  0.1296
30285SOL    HW196691   6.750   8.197   8.284  0.7459 -0.2168  0.6556
30285SOL    HW296692   6.764   8.309   8.384  1.1038 -1.8880  2.5500
30286SOL     OW96693   7.960   1.652   5.946  0.5949  0.4933 -0.2911
30286SOL    HW196694   7.963   1.567   5.990 -1.3472 -0.3044 -1.5653
30286SOL    HW296695   8.014   1.641   5.868 -1.2579 -0.2709 -1.5085
30287SOL     OW96696   3.669   1.938   5.220  0.2128  0.2504 -0.4688
30287SOL    HW196697   3.626   2.004   5.165 -0.2306  0.7243  0.4264
30287SOL    HW296698   3.614   1.933   5.298  0.6533 -0.6516 -0.2085
30288SOL     OW96699   3.654   2.798   9.848 -0.6730 -0.1472  0.6115
30288SOL    HW196700   3.725   2.761   9.901 -0.7028 -1.1335 -0.0158
30288SOL    HW296701   3.671   2.766   9.760 -0.4784  1.6791 -0.0619
30289SOL     OW96702   1.701   3.637   1.179 -0.0346 -0.2560 -0.0067
30289SOL    HW196703   1.778   3.611   1.129 -0.2197  1.3616 -1.2133
30289SOL    HW296704   1.628   3.591   1.136  0.1113 -1.0097  0.5228
30290SOL     OW96705   8.883   1.699   0.038  0.3107  0.0899  0.0562
30290SOL    HW196706   8.798   1.665   0.009  0.2756  0.5081 -0.3486
30290SOL    HW296707   8.893   1.666   0.127  1.2389 -2.6977 -0.9993
30291SOL     OW96708   0.466   7.202   3.131  0.0222  0.3092  0.5397
30291SOL    HW196709   0.547   7.219   3.180  0.6122 -0.1702 -0.2332
30291SOL    HW296710   0.470   7.262   3.057 -0.4612  0.4618  0.6350
30292SOL     OW96711   8.051   4.514   7.583  0.8665 -0.9213 -0.2900
30292SOL    HW196712   8.008   4.462   7.514  0.5847 -0.0014 -0.8188
30292SOL    HW296713   8.026   4.604   7.564 -0.3685 -0.7579  1.8528
30293SOL     OW96714   3.827   8.794   9.759  0.4156 -0.2787  0.1882
30293SOL    HW196715   3.823   8.746   9.842 -1.3531  1.2053  1.0340
30293SOL    HW296716   3.919   8.820   9.751  0.9199 -1.7433  0.8959
30294SOL     OW96717   3.042   2.015   2.712 -0.3477  0.5812  0.0883
30294SOL    HW196718   3.026   1.954   2.785 -0.6868 -0.2086 -0.6349
30294SOL    HW296719   3.039   1.960   2.634 -0.1895  1.4605 -0.5452
30295SOL     OW96720   3.038   1.806   0.726 -0.3808 -0.0113  0.3162
30295SOL    HW196721   3.085   1.889   0.719 -2.1700  1.0448  0.3101
30295SOL    HW296722   3.015   1.784   0.636 -0.6710 -0.0467  0.3968
30296SOL     OW96723   0.763  10.081   5.576  0.7920 -0.3420 -0.5610
30296SOL    HW196724   0.783  10.153   5.635  0.8496 -0.9429  0.1706
30296SOL    HW296725   0.833  10.083   5.510  0.5535  0.5253 -0.8010
30297SOL     OW96726   1.763   1.605   9.608  0.0552 -1.1272  0.6780
30297SOL    HW196727   1.782   1.545   9.680  2.4845  0.5721  1.5963
30297SOL    HW296728   1.835   1.591   9.546  0.7683  0.8391  0.9886
30298SOL     OW96729   2.429   0.308   0.504  0.2055 -0.2413  0.0112
30298SOL    HW196730   2.392   0.241   0.561  0.8314 -0.1638  0.5115
30298SOL    HW296731   2.399   0.391   0.541 -1.2001 -0.2353 -1.0393
30299SOL     OW96732   3.997   4.083  10.302 -0.1370 -0.0993  0.8391
30299SOL    HW196733   3.981   3.988  10.308 -0.9640 -0.0330 -0.0654
30299SOL    HW296734   3.929   4.122  10.357  0.5434 -0.0389  1.6563
30300SOL     OW96735   6.335   6.176  10.230 -0.0687  0.6348 -0.0893
30300SOL    HW196736   6.393   6.253  10.224 -0.5103  0.8777 -1.6269
30300SOL    HW296737   6.251   6.207  10.195 -0.0629 -0.7193 -1.3970
30301SOL     OW96738   4.876   7.702   6.727  0.2499  0.2643 -0.1383
30301SOL    HW196739   4.821   7.773   6.760 -0.0482 -0.0373  0.0167
30301SOL    HW296740   4.839   7.622   6.766  1.6169  0.1807  1.0377
30302SOL     OW96741   3.987   2.839   5.922 -0.5433  0.4986 -0.1192
30302SOL    HW196742   4.025   2.927   5.931 -2.0577  1.2215 -0.3509
30302SOL    HW296743   3.895   2.856   5.902 -0.8347 -1.1621 -0.2739
30303SOL     OW96744   2.565   0.659   7.832 -0.5724  0.2483  0.1767
30303SOL    HW196745   2.501   0.604   7.787 -0.2339 -0.8140  0.9409
30303SOL    HW296746   2.586   0.610   7.911  1.3939  0.4384 -0.1894
30304SOL     OW96747   2.617   0.060   3.405 -0.0592  0.1068 -0.3095
30304SOL    HW196748   2.624   0.034   3.497 -0.9623  1.4871  0.1823
30304SOL    HW296749   2.637   0.154   3.406  2.0561 -0.2553 -1.8478
30305SOL     OW96750   7.658   0.666   0.229 -0.1954  0.1169  0.1101
30305SOL    HW196751   7.676   0.647   0.321 -1.6374  1.5958  0.7543
30305SOL    HW296752   7.628   0.757   0.229 -1.8398 -0.3667 -1.5876
30306SOL     OW96753   9.117   1.331   2.066 -0.7263 -0.4307 -0.2366
30306SOL    HW196754   9.061   1.272   2.116  0.8205 -1.9547 -0.2084
30306SOL    HW296755   9.190   1.350   2.125 -0.5724  0.4955 -0.7124
30307SOL     OW96756   8.236   5.640   4.689  0.2028  0.0846  0.0351
30307SOL    HW196757   8.170   5.705   4.664 -1.2840 -1.3398  0.0488
30307SOL    HW296758   8.209   5.611   4.776  1.9284  0.7632  0.8243
30308SOL     OW96759   1.989   3.127   0.332 -0.6161  0.2668  0.6133
30308SOL    HW196760   2.068   3.180   0.316 -0.6411  0.2526  0.4359
30308SOL    HW296761   1.969   3.141   0.424  0.1944 -0.5582  0.9290
30309SOL     OW96762   6.614   5.836   1.268 -0.7182  0.7273  0.1442
30309SOL    HW196763   6.597   5.754   1.314 -0.5162  0.5982 -0.0094
30309SOL    HW296764   6.651   5.894   1.334 -0.7434  0.6527  0.2239
30310SOL     OW96765   6.060   0.943   9.512 -0.5591  0.0770  0.3618
30310SOL    HW196766   5.984   0.948   9.570 -0.8879 -1.5121  0.1245
30310SOL    HW296767   6.118   0.880   9.554  0.5528  1.1202  0.4300
30311SOL     OW96768   5.417   8.089   1.430  0.0770 -0.5195 -0.1379
30311SOL    HW196769   5.410   8.065   1.522  0.0527  0.5726  0.1664
30311SOL    HW296770   5.366   8.170   1.423  1.3528  0.2673 -0.7691
30312SOL     OW96771   5.571   8.039   5.573 -0.7964  0.1134  0.3157
30312SOL    HW196772   5.520   8.107   5.528  0.5206 -0.1626 -1.7247
30312SOL    HW296773   5.519   7.959   5.561  0.2009 -0.2444 -2.0935
30313SOL     OW96774   0.674   2.822   7.041 -0.4137  0.3841 -0.0577
30313SOL    HW196775   0.598   2.869   7.076 -0.2886  0.0802  0.6470
30313SOL    HW296776   0.721   2.792   7.119 -0.0191 -0.1489 -0.4928
30314SOL     OW96777   9.504   8.115   7.658 -0.3627  0.5105  0.0634
30314SOL    HW196778   9.447   8.179   7.699  1.3305  2.8313 -0.9790
30314SOL    HW296779   9.591   8.154   7.662  0.2284 -0.0222 -3.7302
30315SOL     OW96780   2.216   4.011   5.061 -0.0660  0.4945 -0.3638
30315SOL    HW196781   2.153   4.059   5.114  0.3289  0.9020 -0.2587
30315SOL    HW296782   2.242   4.073   4.993  0.1827  0.3059 -0.4414
30316SOL     OW96783   3.608   4.097   8.862  0.4405  0.0231  0.2166
30316SOL    HW196784   3.625   4.006   8.838  0.8378  0.4555 -1.2244
30316SOL    HW296785   3.543   4.092   8.932  0.6901 -1.3770  0.3622
30317SOL     OW96786   0.455   9.983   7.978  0.2491  0.6438 -0.1045
30317SOL    HW196787   0.361   9.987   7.961  0.1837 -0.2932 -0.0537
30317SOL    HW296788   0.468   9.897   8.018  1.0482  0.9987  0.4218
30318SOL     OW96789   9.202   7.161   3.499 -0.1293 -0.3356  0.0487
30318SOL    HW196790   9.174   7.090   3.557 -0.4516 -1.4808 -1.4425
30318SOL    HW296791   9.246   7.223   3.557  1.3374 -2.3528  1.2379
30319SOL     OW96792   5.601   9.070   6.984  0.4822 -0.1533 -0.2127
30319SOL    HW196793   5.668   9.137   6.997  0.7733 -0.5823  0.5987
30319SOL    HW296794   5.650   8.989   6.968  0.1630 -0.3994  0.0205
30320SOL     OW96795   0.142   3.223   7.339  0.1669  0.1434 -0.2143
30320SOL    HW196796   0.158   3.240   7.246  1.2393 -1.7074 -0.3993
30320SOL    HW296797   0.068   3.163   7.340  1.1927 -1.1554  0.0149
30321SOL     OW96798   5.628   6.333   3.007 -0.6340  0.2891 -1.0952
30321SOL    HW196799   5.610   6.246   3.042 -0.7755  0.6967 -0.1198
30321SOL    HW296800   5.541   6.371   2.990 -0.6166  0.7640 -0.1688
30322SOL     OW96801  10.329   2.793   0.732 -0.4999  0.0788 -0.1702
30322SOL    HW196802  10.386   2.728   0.692 -1.1843 -0.0610 -0.9578
30322SOL    HW296803  10.295   2.751   0.810 -0.8796 -0.5017 -0.6350
30323SOL     OW96804   5.112   9.992   5.211  0.4739 -0.4627  0.1748
30323SOL    HW196805   5.158  10.066   5.251 -2.8490  1.9840 -0.1568
30323SOL    HW296806   5.133   9.918   5.269 -0.3759  1.9004  3.8781
30324SOL     OW96807   0.451   4.697   4.070 -0.1923 -0.1931  0.0309
30324SOL    HW196808   0.373   4.725   4.119  0.5663 -0.0241  1.1819
30324SOL    HW296809   0.514   4.673   4.138  1.0828  0.5318 -0.8737
30325SOL     OW96810   3.682   8.714   2.770 -0.2536 -0.2607 -0.3688
30325SOL    HW196811   3.658   8.747   2.683  0.7263  1.4631 -0.0108
30325SOL    HW296812   3.609   8.738   2.826  0.9201  2.5145  0.1364
30326SOL     OW96813   8.266   0.129   1.504  0.4115  0.2502 -0.4084
30326SOL    HW196814   8.215   0.209   1.496 -1.3382 -0.7595  0.1817
30326SOL    HW296815   8.278   0.099   1.414 -1.3884 -0.2897 -0.4950
30327SOL     OW96816   4.511   7.686   4.936 -0.3367 -0.0119  0.3022
30327SOL    HW196817   4.440   7.668   4.998 -0.8393 -1.3724 -0.6183
30327SOL    HW296818   4.552   7.601   4.921  0.8161  0.5814  0.0017
30328SOL     OW96819   6.186   9.873   1.540 -1.0914  0.2994  0.1145
30328SOL    HW196820   6.280   9.854   1.541 -0.6958  2.1120  0.6802
30328SOL    HW296821   6.170   9.914   1.455 -0.7628  2.5495  1.0650
30329SOL     OW96822   9.895   0.882   0.835 -0.0001  0.0086 -0.5364
30329SOL    HW196823   9.914   0.836   0.917 -1.9598 -1.0363 -0.6086
30329SOL    HW296824   9.801   0.870   0.822  0.3587 -0.4695 -3.2893
30330SOL     OW96825   3.642   7.514   3.559  0.3424 -0.4483  0.2404
30330SOL    HW196826   3.552   7.496   3.587 -0.2608  1.3331 -0.3932
30330SOL    HW296827   3.642   7.498   3.465 -0.0073  1.7638 -0.2025
30331SOL     OW96828   0.092   3.057   0.299  0.7524 -0.0278  0.8494
30331SOL    HW196829   0.147   2.990   0.339 -0.9113 -1.8047  0.3027
30331SOL    HW296830   0.020   3.069   0.361 -0.3915 -0.7889 -0.2886
30332SOL     OW96831   4.410  10.488   5.945 -0.0453  0.0025  0.2843
30332SOL    HW196832   4.497  10.505   5.909  0.4884 -0.2297  1.4230
30332SOL    HW296833   4.350  10.507   5.873  0.8797  1.0867 -0.2301
30333SOL     OW96834   3.226   6.983   9.431 -0.2779  0.1495  0.0084
30333SOL    HW196835   3.227   7.072   9.396 -2.0871  0.9906  1.8772
30333SOL    HW296836   3.209   6.927   9.355 -1.6080  1.6403 -0.8608
30334SOL     OW96837   2.400   5.021   7.218  0.2945 -0.4915  0.1635
30334SOL    HW196838   2.432   4.960   7.151 -0.4637 -1.5288  0.7208
30334SOL    HW296839   2.394   4.968   7.297  3.9827  1.3531  1.8954
30335SOL     OW96840   7.561   6.376   7.785 -0.1023 -0.1819  0.1557
30335SOL    HW196841   7.495   6.398   7.719  1.8795  2.4299 -1.1364
30335SOL    HW296842   7.542   6.435   7.858  0.2995 -0.0316  0.1387
30336SOL     OW96843   6.141   5.322   7.270 -0.1929  0.0793 -0.6972
30336SOL    HW196844   6.191   5.318   7.351  3.8087  2.4942 -2.7243
30336SOL    HW296845   6.108   5.412   7.267  0.6919  0.3841 -2.2027
30337SOL     OW96846   7.984   2.726   4.136 -0.4375 -0.2022 -0.3030
30337SOL    HW196847   7.905   2.707   4.085 -0.1906 -2.9922  0.1544
30337SOL    HW296848   7.970   2.680   4.219  1.1578  0.2878  0.2725
30338SOL     OW96849   5.591   7.477   2.458  0.5383  0.2835  0.2011
30338SOL    HW196850   5.617   7.437   2.375 -0.2566  2.8741 -1.4192
30338SOL    HW296851   5.511   7.432   2.483  0.7541 -0.4980 -0.4725
30339SOL     OW96852   6.311   1.639   9.161  0.0519  0.9558 -0.4963
30339SOL    HW196853   6.308   1.705   9.092  1.8743  2.1831  0.5067
30339SOL    HW296854   6.396   1.597   9.151 -1.0826 -1.3796 -1.1553
30340SOL     OW96855   5.938   4.513   5.369  0.0764 -0.2028  0.4243
30340SOL    HW196856   5.847   4.489   5.353  0.0339  0.3532 -0.2171
30340SOL    HW296857   5.987   4.431   5.360 -0.3104 -0.4285  0.3662
30341SOL     OW96858   7.376   9.510   7.551 -0.1370  0.1684 -0.2483
30341SOL    HW196859   7.289   9.534   7.520 -0.2607 -0.5143 -0.4483
30341SOL    HW296860   7.380   9.541   7.641 -1.4024 -1.6974  0.5094
30342SOL     OW96861   1.192   8.704   3.945  0.2797 -0.4774  0.7470
30342SOL    HW196862   1.139   8.732   4.020 -1.2241  0.1058 -0.4752
30342SOL    HW296863   1.160   8.617   3.924 -1.4393  0.5098 -1.0103
30343SOL     OW96864   6.517   9.227   5.400  0.0035  0.1192 -0.7827
30343SOL    HW196865   6.436   9.239   5.351 -0.4961 -0.3847 -0.1056
30343SOL    HW296866   6.565   9.159   5.352  0.1143  0.5511 -1.2865
30344SOL     OW96867   4.498   1.683   6.112 -0.6389 -0.0236 -0.2682
30344SOL    HW196868   4.579   1.692   6.161 -0.2286  0.2660 -0.9868
30344SOL    HW296869   4.444   1.756   6.140 -0.4502  0.0767 -0.1673
30345SOL     OW96870   9.465   7.524   9.856 -0.1092  0.2599 -0.2043
30345SOL    HW196871   9.412   7.555   9.930 -0.5602 -0.1192 -0.3661
30345SOL    HW296872   9.408   7.464   9.809 -0.1475  1.1911 -1.3899
30346SOL     OW96873   1.701   4.654   1.032 -0.2246 -0.3330  0.3286
30346SOL    HW196874   1.732   4.677   1.120 -0.0677  0.5328  0.0636
30346SOL    HW296875   1.761   4.700   0.973 -0.6577 -0.4660 -0.2223
30347SOL     OW96876   1.639   0.991   3.658  0.2297  0.1162  0.4215
30347SOL    HW196877   1.649   0.906   3.702  1.6367  0.5701  1.0210
30347SOL    HW296878   1.625   1.053   3.729  1.3339  0.6891  0.1519
30348SOL     OW96879   8.141   1.175  10.684  0.0204 -0.0272 -0.4576
30348SOL    HW196880   8.216   1.207  10.735  0.2521 -0.5882 -0.4438
30348SOL    HW296881   8.114   1.095  10.728  0.4775 -0.7449 -1.4422
30349SOL     OW96882   4.003   9.542   4.791 -0.1470  0.2197  0.1469
30349SOL    HW196883   3.922   9.569   4.748  0.5856  0.0606 -1.4334
30349SOL    HW296884   4.056   9.622   4.793  0.2495 -0.0266 -0.2822
30350SOL     OW96885   5.333   4.872   8.932  0.6248 -0.4753  0.1966
30350SOL    HW196886   5.396   4.844   8.866  0.3183  1.2483 -0.8897
30350SOL    HW296887   5.249   4.836   8.903  0.4468  0.4800 -0.5309
30351SOL     OW96888   2.064   8.239   2.390  0.2652  0.2057  0.2072
30351SOL    HW196889   2.023   8.305   2.333 -2.2061 -0.1157  1.4667
30351SOL    HW296890   2.018   8.158   2.369  1.4288 -0.5566  0.5514
30352SOL     OW96891   2.035   1.569   5.829  0.2428 -0.0279 -0.1818
30352SOL    HW196892   2.103   1.502   5.819  0.4383  0.1117  0.1524
30352SOL    HW296893   2.011   1.564   5.922  1.1880  1.2292  0.1577
30353SOL     OW96894   0.938   1.731   8.049  0.1759 -0.1708 -0.1053
30353SOL    HW196895   0.945   1.728   7.954  2.2608 -0.0560  0.0072
30353SOL    HW296896   0.920   1.823   8.069 -0.3645 -0.2136 -0.3823
30354SOL     OW96897   2.091  10.273   7.539  0.2284  0.3693 -0.4154
30354SOL    HW196898   2.042  10.207   7.490 -0.6080 -0.9338  1.9803
30354SOL    HW296899   2.071  10.254   7.631  0.6628  3.4299  0.4375
30355SOL     OW96900   2.284   4.903   7.832 -0.8738  0.6454  0.2379
30355SOL    HW196901   2.194   4.881   7.809 -0.2969  0.1103 -1.7026
30355SOL    HW296902   2.300   4.857   7.915 -1.6135 -1.3293 -0.6621
30356SOL     OW96903   7.330   9.286  10.554  0.5953  0.5754 -0.3398
30356SOL    HW196904   7.260   9.260  10.494 -0.4745  0.2415  1.0115
30356SOL    HW296905   7.341   9.380  10.539 -1.1576  0.9446  0.4126
30357SOL     OW96906   9.157   7.709   1.433  0.2394 -0.1301 -1.1528
30357SOL    HW196907   9.171   7.620   1.402  1.5234 -0.1451 -0.5784
30357SOL    HW296908   9.244   7.740   1.458 -0.3377  0.9037 -0.3447
30358SOL     OW96909   2.675   8.443   9.266  0.0939  0.0183  0.4493
30358SOL    HW196910   2.770   8.442   9.277  0.1344  0.4121  0.1704
30358SOL    HW296911   2.662   8.460   9.173 -0.2504  0.1467  0.5189
30359SOL     OW96912   6.206   7.331   2.487  0.3929 -0.9943 -0.5089
30359SOL    HW196913   6.157   7.364   2.562 -0.5712 -1.2530 -1.0113
30359SOL    HW296914   6.213   7.406   2.428  1.3622 -0.7239 -0.0751
30360SOL     OW96915   8.082   1.624   9.072 -0.1172  0.5702  0.1012
30360SOL    HW196916   8.001   1.648   9.116 -0.1382 -1.1873  1.1404
30360SOL    HW296917   8.073   1.657   8.983 -2.8151 -1.1849 -0.3876
30361SOL     OW96918   9.873   0.899   6.932 -0.3615 -1.2486 -0.5669
30361SOL    HW196919   9.790   0.872   6.971  1.0234 -1.5938  2.4979
30361SOL    HW296920   9.925   0.819   6.928  0.3249 -0.7932 -1.0721
30362SOL     OW96921   3.553   9.497   0.887  0.4298  0.1734  0.1869
30362SOL    HW196922   3.557   9.461   0.799  0.7182  0.3744  0.1171
30362SOL    HW296923   3.464   9.532   0.895 -0.4947 -2.0895  0.8693
30363SOL     OW96924   6.359   3.085   7.872  0.1275 -0.0473  0.6384
30363SOL    HW196925   6.390   3.172   7.898  1.9143 -0.0747 -1.1784
30363SOL    HW296926   6.420   3.024   7.915 -0.2492 -0.3448  0.7533
30364SOL     OW96927   1.131   5.430   8.507 -0.8024  0.5728  0.2086
30364SOL    HW196928   1.128   5.336   8.528 -0.0963  0.0672 -1.6509
30364SOL    HW296929   1.104   5.434   8.415 -0.7146  2.2006  0.2269
30365SOL     OW96930   2.568   7.308   9.897 -0.1024  0.2653  0.3401
30365SOL    HW196931   2.556   7.227   9.847  1.2274 -0.1273  0.6164
30365SOL    HW296932   2.662   7.325   9.892  0.1813 -0.0804  3.1283
30366SOL     OW96933   8.645   4.047   9.292  0.1819 -0.0234  0.1921
30366SOL    HW196934   8.706   4.019   9.360 -1.7784 -0.0380  2.0198
30366SOL    HW296935   8.595   3.969   9.270 -0.0044  0.2584 -0.4148
30367SOL     OW96936   6.541   3.867   9.280 -0.2697  0.5215 -0.3558
30367SOL    HW196937   6.576   3.948   9.243  1.2502 -0.3225 -0.8637
30367SOL    HW296938   6.524   3.812   9.204  0.1813 -0.1818  0.0429
30368SOL     OW96939   3.718   5.915   0.633  0.3962  0.3586  0.2851
30368SOL    HW196940   3.722   5.956   0.719  1.2513  1.1094 -0.0965
30368SOL    HW296941   3.808   5.917   0.601  0.2835 -0.9153 -0.1722
30369SOL     OW96942   1.877   5.858   9.622  0.4436  0.1010 -0.4229
30369SOL    HW196943   1.851   5.924   9.687 -2.5398 -0.0867 -1.2762
30369SOL    HW296944   1.956   5.894   9.581 -1.4567  3.6022 -1.3922
30370SOL     OW96945   9.422   2.261   7.638 -0.2554 -0.3347 -0.4270
30370SOL    HW196946   9.506   2.291   7.603 -0.0990 -0.3517 -0.0675
30370SOL    HW296947   9.367   2.248   7.561  0.0960 -0.3960 -0.6667
30371SOL     OW96948   0.105   0.597   6.817 -0.0814 -0.1600  0.0158
30371SOL    HW196949   0.087   0.638   6.732  0.2525 -0.3015 -0.1260
30371SOL    HW296950   0.058   0.514   6.813  3.0246 -2.0400 -1.6413
30372SOL     OW96951   8.805   3.566   6.269 -0.0798  0.2932 -0.0157
30372SOL    HW196952   8.837   3.478   6.288  0.5073  0.7263  1.1335
30372SOL    HW296953   8.750   3.588   6.344  0.6336  1.2907  0.2421
30373SOL     OW96954   1.172   2.586   1.955 -0.3061  0.3334  0.3183
30373SOL    HW196955   1.173   2.671   1.998  0.2890  0.0941  0.7881
30373SOL    HW296956   1.249   2.586   1.899 -0.4828  0.2220  0.0678
30374SOL     OW96957   2.593   3.260   3.415  0.5055  0.0240 -0.6840
30374SOL    HW196958   2.620   3.169   3.430 -0.6363 -0.0785  1.0049
30374SOL    HW296959   2.649   3.311   3.473 -1.6126 -0.0356  1.5373
30375SOL     OW96960   3.432   9.179   6.690  0.3910 -0.0906 -0.3248
30375SOL    HW196961   3.347   9.183   6.646  0.3980 -1.2231 -0.4602
30375SOL    HW296962   3.469   9.095   6.663  2.9477  1.6603 -2.7763
30376SOL     OW96963   1.294   8.648   0.896  0.0824 -0.1050 -0.0259
30376SOL    HW196964   1.239   8.596   0.837 -1.2081  0.5824  0.5077
30376SOL    HW296965   1.302   8.733   0.852  0.5874 -0.1488 -0.0223
30377SOL     OW96966   4.624   1.023   2.659 -0.2183  0.1338 -0.2726
30377SOL    HW196967   4.536   0.989   2.639 -0.5657 -0.1008  1.4414
30377SOL    HW296968   4.610   1.116   2.677 -0.4892 -0.2709  1.8593
30378SOL     OW96969   6.176   4.170   4.463 -0.3213  0.0589 -0.3475
30378SOL    HW196970   6.253   4.181   4.408  0.7943  0.1798  1.1917
30378SOL    HW296971   6.167   4.252   4.510 -1.6466  0.1926 -0.7804
30379SOL     OW96972   5.409   4.472   3.264  0.0313 -0.3030  0.5095
30379SOL    HW196973   5.433   4.562   3.241 -1.3680 -0.6323 -2.8776
30379SOL    HW296974   5.492   4.430   3.284  0.8229  1.4649  1.1946
30380SOL     OW96975  10.485   3.485   5.859 -0.5979 -0.4763  0.6144
30380SOL    HW196976  10.523   3.427   5.793  0.5959  2.8515 -1.8721
30380SOL    HW296977  10.559   3.510   5.914 -0.9058 -0.4355  1.0175
30381SOL     OW96978   0.755  10.241   2.473  0.2631  0.2492  0.2762
30381SOL    HW196979   0.726  10.318   2.522  0.5868 -1.1837  2.8858
30381SOL    HW296980   0.850  10.237   2.488  1.1314  1.7289 -3.5445
30382SOL     OW96981   9.948   8.468   4.441  0.2528 -0.0202  0.3834
30382SOL    HW196982  10.035   8.429   4.439  1.2529  2.0628  0.7886
30382SOL    HW296983   9.906   8.437   4.360  0.5490 -2.6702  1.1355
30383SOL     OW96984   3.222   8.217   0.539  0.4264 -0.3253  0.3428
30383SOL    HW196985   3.170   8.159   0.483  0.5354 -0.4808  0.4037
30383SOL    HW296986   3.304   8.170   0.553  0.2893 -0.4115  0.8603
30384SOL     OW96987   8.869   2.235   8.064 -0.1927  0.1824  0.1781
30384SOL    HW196988   8.901   2.315   8.106  0.9145  0.0047 -0.2787
30384SOL    HW296989   8.945   2.176   8.065 -0.6363 -0.4183 -0.5780
30385SOL     OW96990   8.183  10.149   1.792  0.0860  0.2130 -0.1874
30385SOL    HW196991   8.244  10.223   1.801  0.5604  0.0314 -1.6995
30385SOL    HW296992   8.210  10.105   1.712 -0.6802 -1.1733  0.2870
30386SOL     OW96993   8.914   1.213   4.288 -0.6502  0.1823  0.3383
30386SOL    HW196994   8.933   1.208   4.382  0.1625 -0.1010  0.1706
30386SOL    HW296995   8.883   1.302   4.275 -0.0135  0.4712  0.7511
30387SOL     OW96996   5.436  10.373   7.815 -0.2141  0.0177  0.4729
30387SOL    HW196997   5.493  10.363   7.891 -0.3122 -0.5397  0.4784
30387SOL    HW296998   5.424  10.468   7.806  1.5499  0.2206 -0.1513
30388SOL     OW96999   7.350   4.433   0.447  0.1640  0.3431 -0.5900
30388SOL    HW197000   7.258   4.412   0.466  0.4814 -0.6010 -0.0616
30388SOL    HW297001   7.360   4.523   0.476 -0.4225  0.2330 -0.0084
30389SOL     OW97002  10.648   9.501   7.981  0.3882 -0.0798  0.0837
30389SOL    HW197003  10.661   9.589   7.947  0.3255 -0.5950 -1.3259
30389SOL    HW297004  10.555   9.498   8.006  0.5119  0.3989  0.6278
30390SOL     OW97005   2.659   9.120   6.822  0.3068  0.8204  0.2283
30390SOL    HW197006   2.563   9.119   6.831  0.3565 -2.5374  1.5998
30390SOL    HW297007   2.689   9.174   6.895 -0.4829  1.8153 -0.1473
30391SOL     OW97008   7.479   8.994   2.258  0.2051  0.0145  0.2964
30391SOL    HW197009   7.573   8.986   2.275 -0.3010 -2.1150  2.6780
30391SOL    HW297010   7.463   9.089   2.258  2.0184  0.3907  2.2063
30392SOL     OW97011   7.929   1.772   5.602 -0.2272  0.1784  0.3216
30392SOL    HW197012   7.991   1.841   5.623 -0.1605  0.9981 -2.2435
30392SOL    HW297013   7.844   1.817   5.598 -0.3157 -0.0518 -0.4956
30393SOL     OW97014   7.176   6.938   7.064 -0.0222  0.0155  0.6229
30393SOL    HW197015   7.217   7.013   7.105  0.0072 -1.0354  2.6331
30393SOL    HW297016   7.127   6.895   7.134 -1.1349 -1.1061 -0.7614
30394SOL     OW97017   4.218   5.015   2.753 -0.1385  0.0226 -0.1068
30394SOL    HW197018   4.204   4.972   2.837 -0.1202  0.7449  0.2721
30394SOL    HW297019   4.134   5.055   2.732  0.0126  0.3188 -0.1544
30395SOL     OW97020   1.812   4.252   4.484  0.1191 -0.1299  0.0207
30395SOL    HW197021   1.794   4.345   4.472  1.4719  0.6049  2.7157
30395SOL    HW297022   1.764   4.229   4.564 -1.5930 -2.2749 -1.5082
30396SOL     OW97023   3.091   1.574   9.853  0.0908  0.3144  0.0340
30396SOL    HW197024   3.050   1.656   9.826  0.9796  0.8372  0.2049
30396SOL    HW297025   3.182   1.599   9.873  0.3952 -0.7292 -0.0001
30397SOL     OW97026   4.954   0.291   9.100  0.4425 -0.7456 -0.1597
30397SOL    HW197027   4.864   0.271   9.074 -0.1807  2.1467 -0.5301
30397SOL    HW297028   4.991   0.206   9.124 -1.8724 -2.2444 -1.4932
30398SOL     OW97029   6.337   7.927   7.611 -0.3117  0.1706 -0.8923
30398SOL    HW197030   6.286   7.856   7.649  1.2950 -1.9623 -2.4306
30398SOL    HW297031   6.341   7.994   7.679 -1.5149 -1.4176  0.8234
30399SOL     OW97032  10.615  10.041   7.982  0.1899 -0.0454 -0.5863
30399SOL    HW197033  10.623  10.057   8.076  0.6126 -0.8760 -0.4695
30399SOL    HW297034  10.588  10.125   7.946  1.9451  0.8437  0.0326
30400SOL     OW97035   5.246   1.854   4.584  0.3034  0.0274 -0.7379
30400SOL    HW197036   5.239   1.950   4.586  2.1227  0.1746 -0.3172
30400SOL    HW297037   5.242   1.832   4.491  2.5986  0.7848 -1.0647
30401SOL     OW97038   7.559  10.142   2.395 -0.4424  0.6315  0.0305
30401SOL    HW197039   7.585  10.053   2.371  0.1933 -0.2339  3.3894
30401SOL    HW297040   7.639  10.194   2.384  0.2897 -0.0852  1.6308
30402SOL     OW97041   8.686   1.529   8.596 -0.5711 -0.0461 -0.3143
30402SOL    HW197042   8.723   1.596   8.652 -1.1003  0.9441 -1.1128
30402SOL    HW297043   8.656   1.461   8.656  1.8164 -0.5715  0.3988
30403SOL     OW97044  10.095   0.919   4.912  0.0394  0.6704  0.1796
30403SOL    HW197045  10.132   0.852   4.854 -1.6285  0.4038 -0.6241
30403SOL    HW297046  10.008   0.936   4.877 -1.9633 -1.0277  3.7751
30404SOL     OW97047   3.856   6.866   8.056  0.1094 -0.1863 -0.0689
30404SOL    HW197048   3.940   6.881   8.100 -0.9552  1.2875  1.5728
30404SOL    HW297049   3.840   6.772   8.068  0.4747 -0.0767  1.5927
30405SOL     OW97050   5.738   4.860   4.266 -0.2158 -0.1130 -0.2121
30405SOL    HW197051   5.807   4.878   4.331 -1.2651 -0.0695  0.9210
30405SOL    HW297052   5.684   4.792   4.306 -0.7455 -0.2658 -1.1576
30406SOL     OW97053  10.150   3.615   1.842 -0.5465 -0.0196  0.2499
30406SOL    HW197054  10.186   3.696   1.806 -0.6162  0.3294  0.9570
30406SOL    HW297055  10.194   3.546   1.792  0.2037  0.4288  0.2651
30407SOL     OW97056  10.469   4.627   6.410  0.0611  0.2908 -0.2165
30407SOL    HW197057  10.448   4.567   6.482  0.1475  2.0372  1.3729
30407SOL    HW297058  10.528   4.692   6.450  2.1165 -0.0099 -2.5084
30408SOL     OW97059   7.180   4.920   0.642 -0.4206 -0.3950 -0.1022
30408SOL    HW197060   7.199   4.999   0.691 -1.0165  0.0057 -0.5017
30408SOL    HW297061   7.146   4.859   0.708  0.2582 -0.4087  0.2450
30409SOL     OW97062   5.986   0.399   4.233  0.0836 -0.5668 -0.5599
30409SOL    HW197063   5.986   0.494   4.223  2.3944 -0.2967  1.0526
30409SOL    HW297064   5.910   0.380   4.288  0.4036  0.5586  0.3054
30410SOL     OW97065   2.776   7.893   1.808  0.1877  0.2202 -0.1613
30410SOL    HW197066   2.697   7.920   1.761 -1.9909 -0.6802  2.6742
30410SOL    HW297067   2.769   7.798   1.813  1.2836  0.1594  0.4512
30411SOL     OW97068   4.683   2.379  10.654 -0.5749 -0.2326 -0.0264
30411SOL    HW197069   4.614   2.320  10.684 -0.5238  0.0733  0.7081
30411SOL    HW297070   4.753   2.369  10.718 -0.3654  0.2466 -0.1742
30412SOL     OW97071   1.282   1.916   8.042  0.1211 -0.1301 -0.5005
30412SOL    HW197072   1.315   1.938   8.130 -0.1733 -1.3417 -0.0580
30412SOL    HW297073   1.360   1.888   7.994  0.1110 -0.6375 -0.2295
30413SOL     OW97074   0.564   3.902   3.485  0.2273  0.3153  0.5850
30413SOL    HW197075   0.585   3.809   3.482 -0.4463  0.1584  0.5527
30413SOL    HW297076   0.582   3.934   3.397 -1.5750 -0.2559 -0.0368
30414SOL     OW97077   3.355   8.377   7.937 -0.3757 -0.1757  0.2209
30414SOL    HW197078   3.339   8.288   7.904 -0.3264  0.5028 -1.7863
30414SOL    HW297079   3.402   8.364   8.019  0.8906 -2.0159 -0.7231
30415SOL     OW97080   6.017   3.863   0.976 -0.2194  0.2027  0.0460
30415SOL    HW197081   5.931   3.870   1.019  0.0525  2.9330  0.3401
30415SOL    HW297082   6.058   3.787   1.016 -0.8884  1.2745  3.0521
30416SOL     OW97083   5.371   7.223   8.195 -0.0446  0.3233  0.0136
30416SOL    HW197084   5.443   7.278   8.164 -0.2796 -0.4695 -2.0607
30416SOL    HW297085   5.367   7.241   8.289  1.3881  2.0716 -0.1939
30417SOL     OW97086   6.802   5.028   2.292 -0.5588 -0.0346 -0.2613
30417SOL    HW197087   6.746   4.969   2.242 -0.4257 -0.4547  0.0751
30417SOL    HW297088   6.788   5.003   2.383 -0.6626  0.6041 -0.0964
30418SOL     OW97089   2.474   9.070   1.282 -0.7978  0.7337 -0.3252
30418SOL    HW197090   2.403   9.035   1.335 -0.2484 -0.0402 -0.0877
30418SOL    HW297091   2.431   9.131   1.222 -1.9410 -1.0365 -1.4015
30419SOL     OW97092   1.513   4.022   7.006 -0.3233 -0.4350  0.0760
30419SOL    HW197093   1.473   4.103   7.036  0.2207 -0.3078  0.4737
30419SOL    HW297094   1.578   4.001   7.074  1.1147 -0.0117 -1.1101
30420SOL     OW97095   8.273   9.054   9.081  0.2861  0.1982 -0.0258
30420SOL    HW197096   8.308   9.057   9.170  2.0901  0.5795 -0.7076
30420SOL    HW297097   8.343   9.089   9.026 -0.6235 -0.4057 -1.6535
30421SOL     OW97098   7.066   5.504   8.444 -0.0028 -0.7733  0.2088
30421SOL    HW197099   7.050   5.479   8.353 -0.9310 -1.0227  0.4333
30421SOL    HW297100   7.144   5.560   8.440 -3.0754  4.0154 -1.5938
30422SOL     OW97101   5.129   5.061   5.429  0.0910 -0.1466  0.0083
30422SOL    HW197102   5.060   5.014   5.382 -0.1279  0.1384  0.0428
30422SOL    HW297103   5.203   5.061   5.369 -0.3113  0.5561 -0.5003
30423SOL     OW97104   0.288   7.200   1.959 -0.5425  1.1518 -0.0712
30423SOL    HW197105   0.281   7.127   2.021  1.1487 -0.9330 -2.1702
30423SOL    HW297106   0.369   7.184   1.912 -1.0129  3.4721 -1.8409
30424SOL     OW97107   4.543   4.194   6.773 -0.0242  0.6075  0.4417
30424SOL    HW197108   4.593   4.126   6.728 -1.2225  1.2024 -1.9187
30424SOL    HW297109   4.478   4.146   6.824  0.9862 -0.0630  1.1501
30425SOL     OW97110   7.478   9.337   1.869  0.1507  0.1568  0.0257
30425SOL    HW197111   7.438   9.361   1.952 -1.8911  0.9015 -1.1015
30425SOL    HW297112   7.563   9.300   1.893  0.0158  1.1867  2.3592
30426SOL     OW97113   9.839   5.560   5.962 -0.4812  0.4340  0.2032
30426SOL    HW197114   9.911   5.513   6.004 -0.2807 -0.3962 -1.0090
30426SOL    HW297115   9.862   5.560   5.869 -1.0688  1.9233  0.0227
30427SOL     OW97116   2.671   0.928   8.889 -0.5477 -0.0230 -0.1855
30427SOL    HW197117   2.706   1.012   8.859 -0.2171 -0.6481 -1.6294
30427SOL    HW297118   2.660   0.939   8.983  2.0574  0.7324  0.1077
30428SOL     OW97119   1.668   0.997   8.081  0.4973  0.0482 -0.3053
30428SOL    HW197120   1.736   0.975   8.018  0.5808  0.0449 -0.2142
30428SOL    HW297121   1.643   1.087   8.059  1.3758  0.4820  0.4184
30429SOL     OW97122   6.154   1.060  10.458  0.3911  1.0338 -0.1155
30429SOL    HW197123   6.225   1.075  10.520 -0.7633 -0.3466  1.6209
30429SOL    HW297124   6.098   1.138  10.467 -0.3597  0.3435  1.4609
30430SOL     OW97125   1.782   5.211  10.087 -0.2178  0.3765  0.0178
30430SOL    HW197126   1.728   5.186  10.162 -1.6806  2.1064 -0.3830
30430SOL    HW297127   1.826   5.291  10.115 -0.9965  1.1958 -1.0364
30431SOL     OW97128   1.313   4.468   9.328 -0.3184 -0.3907 -0.2994
30431SOL    HW197129   1.272   4.474   9.242 -0.2127  0.7249 -0.2942
30431SOL    HW297130   1.310   4.375   9.350  0.2108 -0.8037 -1.7834
30432SOL     OW97131   8.425  10.459   8.994 -0.2114  0.3485 -0.0569
30432SOL    HW197132   8.468  10.389   8.945 -1.4816 -1.2505  1.0088
30432SOL    HW297133   8.369  10.502   8.929  0.8334  0.6159 -0.8037
30433SOL     OW97134   9.667   2.874   1.217  0.5679 -0.5945 -0.3707
30433SOL    HW197135   9.647   2.828   1.298 -0.8277  1.8559  0.8005
30433SOL    HW297136   9.585   2.871   1.167  0.2521  0.9538 -0.0241
30434SOL     OW97137   7.855   0.970   2.694 -0.2749 -0.1957  0.1630
30434SOL    HW197138   7.925   1.033   2.679 -0.2090 -0.2307  0.3222
30434SOL    HW297139   7.780   1.005   2.645 -0.7032  0.8272  1.4860
30435SOL     OW97140   1.541   2.068   2.293 -0.0757  0.7203  0.2216
30435SOL    HW197141   1.513   1.994   2.239  1.8181  0.4408 -0.4482
30435SOL    HW297142   1.468   2.130   2.289 -0.6407  0.0026 -1.3415
30436SOL     OW97143   2.682   5.992   5.543  0.3478  0.2865  0.1862
30436SOL    HW197144   2.634   5.997   5.626 -0.2038 -0.2669 -0.0972
30436SOL    HW297145   2.773   5.978   5.569  0.5035  2.0458  0.7561
30437SOL     OW97146   3.237   5.925  10.068  0.3762  0.0334  0.1971
30437SOL    HW197147   3.232   5.844  10.118  1.1088 -0.2774 -0.2202
30437SOL    HW297148   3.182   5.909   9.991  3.2841 -1.4868 -1.7766
30438SOL     OW97149   2.569   4.683   7.587 -0.2233 -0.1553  0.3426
30438SOL    HW197150   2.621   4.763   7.577 -2.8942  1.5764 -0.6927
30438SOL    HW297151   2.547   4.680   7.680 -0.3906  0.5004  0.3263
30439SOL     OW97152   7.703   8.685   4.683 -0.2682  0.6479  0.3880
30439SOL    HW197153   7.787   8.702   4.726  0.5298 -1.9027  0.0263
30439SOL    HW297154   7.708   8.593   4.656 -3.5450  0.1071  1.1440
30440SOL     OW97155   1.043   2.548   1.508  0.0247  0.6824  0.5308
30440SOL    HW197156   0.984   2.537   1.582  0.0647  0.2531  0.5030
30440SOL    HW297157   1.000   2.613   1.452 -0.5272  0.2133  0.4030
30441SOL     OW97158   8.923   0.659   4.955 -0.6151 -0.1079  0.0627
30441SOL    HW197159   8.859   0.634   4.888  0.5891  1.0976 -1.6250
30441SOL    HW297160   8.991   0.705   4.907  1.2309 -0.7700  1.8943
30442SOL     OW97161   8.296   2.492   5.141  0.4058 -0.2858  0.2244
30442SOL    HW197162   8.214   2.447   5.161  0.0667  0.7550  1.2750
30442SOL    HW297163   8.288   2.515   5.048 -1.5654  1.8384  0.8189
30443SOL     OW97164   5.373  10.119   4.120 -0.1135 -0.1705 -0.5760
30443SOL    HW197165   5.317  10.052   4.081 -0.2386 -0.6946  0.4745
30443SOL    HW297166   5.461  10.097   4.091  0.0456 -1.6866  0.9578
30444SOL     OW97167   7.373   8.989   8.048  0.1955 -0.0814  0.1223
30444SOL    HW197168   7.360   8.946   8.132  1.3206  0.0820  0.4081
30444SOL    HW297169   7.289   9.031   8.029 -0.6446 -1.6450  0.2556
30445SOL     OW97170   0.270   2.828   5.976  0.0791  0.0179  0.1114
30445SOL    HW197171   0.215   2.888   6.026  0.1906  0.7893 -0.6660
30445SOL    HW297172   0.266   2.746   6.025  0.2210  0.7472  1.4143
30446SOL     OW97173  10.376   5.522   3.710 -0.3727  0.2564 -0.0223
30446SOL    HW197174  10.438   5.449   3.700  0.7091  0.7793  2.3894
30446SOL    HW297175  10.349   5.542   3.620  1.2578 -1.4195 -0.9575
30447SOL     OW97176   1.044   0.080   3.260 -0.4241  0.0305  0.1501
30447SOL    HW197177   1.051   0.033   3.343  0.0026 -0.2160 -0.0187
30447SOL    HW297178   1.100   0.030   3.200 -0.3947  0.4471 -0.1712
30448SOL     OW97179   4.655   2.017   7.240  0.6759  0.0109  0.0288
30448SOL    HW197180   4.732   1.993   7.187 -0.1299 -0.5424 -0.9145
30448SOL    HW297181   4.581   1.975   7.196 -0.2255  0.8235  0.7264
30449SOL     OW97182  10.329   2.367   2.204 -0.9510 -0.0342 -0.2907
30449SOL    HW197183  10.299   2.421   2.277 -0.8522 -0.6955  0.2555
30449SOL    HW297184  10.371   2.428   2.144 -0.5090  0.4515  0.4908
30450SOL     OW97185   9.106   9.201   8.815 -0.2094 -0.0592 -0.0214
30450SOL    HW197186   9.033   9.197   8.877  0.3659 -1.2702  0.5991
30450SOL    HW297187   9.159   9.124   8.835  1.2086  0.7593 -0.5090
30451SOL     OW97188   5.277  10.003  10.658 -0.0276  0.0350 -0.5148
30451SOL    HW197189   5.251   9.920  10.699  0.5438  0.2355  0.2739
30451SOL    HW297190   5.370  10.011  10.678  0.1296  0.4337 -1.3691
30452SOL     OW97191   4.141   7.270   2.675  0.0935  0.3215 -0.1103
30452SOL    HW197192   4.119   7.222   2.596 -1.6396  0.6685  0.1288
30452SOL    HW297193   4.210   7.218   2.717 -0.9360 -1.3609 -0.4147
30453SOL     OW97194   0.781   2.238   5.448  0.0425  0.0588 -0.5394
30453SOL    HW197195   0.751   2.150   5.425 -0.5102  0.3007 -0.7928
30453SOL    HW297196   0.721   2.296   5.399 -0.1257  0.5781  0.2676
30454SOL     OW97197   5.366   3.260   5.587 -0.8046  0.5407 -0.4389
30454SOL    HW197198   5.347   3.219   5.502 -2.2545  0.3718 -0.0616
30454SOL    HW297199   5.297   3.229   5.645 -0.4844  1.5350  0.5208
30455SOL     OW97200   3.131   3.276   4.880 -0.0368  0.7051  0.1118
30455SOL    HW197201   3.195   3.218   4.839 -0.8800  0.3920 -0.7987
30455SOL    HW297202   3.062   3.286   4.814 -1.8120 -0.4180  1.6844
30456SOL     OW97203   9.378   4.660   7.204 -0.3003 -0.2602  0.3581
30456SOL    HW197204   9.319   4.674   7.278 -1.8111  0.1087 -0.8472
30456SOL    HW297205   9.443   4.598   7.236 -1.7062 -1.1785  1.5868
30457SOL     OW97206   8.436   3.644   2.313  0.2610 -0.0059 -0.4041
30457SOL    HW197207   8.413   3.604   2.397 -0.9160  0.9126 -0.2563
30457SOL    HW297208   8.426   3.573   2.249  0.1421 -0.4461  0.0989
30458SOL     OW97209   4.017   4.115   7.028  0.2817 -0.6556  0.1253
30458SOL    HW197210   4.052   4.196   6.989  0.1859 -0.4174  0.5232
30458SOL    HW297211   4.030   4.048   6.961  0.2008 -0.2716 -0.2768
30459SOL     OW97212   8.635   9.712   6.896  0.5871  0.1279  0.1760
30459SOL    HW197213   8.665   9.778   6.834  0.1051  1.5307  1.3703
30459SOL    HW297214   8.585   9.650   6.843  0.0627  1.3585 -0.8218
30460SOL     OW97215   9.395   9.215   9.465 -0.5566 -0.4438 -0.3085
30460SOL    HW197216   9.325   9.278   9.483 -0.1562  0.0757 -0.5851
30460SOL    HW297217   9.454   9.223   9.540  0.3355  0.6645 -1.1043
30461SOL     OW97218   7.769  10.300   0.893  0.1848 -0.3290  0.3169
30461SOL    HW197219   7.835  10.362   0.862  1.5978 -1.3661  1.1666
30461SOL    HW297220   7.749  10.328   0.982 -2.5133  1.5320 -0.7309
30462SOL     OW97221   6.436   6.380   9.890  0.2509  0.3466 -0.1094
30462SOL    HW197222   6.468   6.376   9.980 -0.7396  1.0267  0.2873
30462SOL    HW297223   6.341   6.392   9.898 -0.1351 -1.4264 -1.2552
30463SOL     OW97224   9.152   9.219   4.440 -0.3745  0.4936  0.1397
30463SOL    HW197225   9.092   9.290   4.414  0.5209  1.9011  1.6936
30463SOL    HW297226   9.133   9.148   4.379 -0.3204  2.5737 -2.4791
30464SOL     OW97227   6.196   9.307   9.087  0.0149 -0.2763  0.2557
30464SOL    HW197228   6.122   9.275   9.036 -0.2165  1.4681 -0.5898
30464SOL    HW297229   6.192   9.259   9.169 -0.8568 -1.6351 -0.5576
30465SOL     OW97230   4.384   7.044   5.085  0.2360  1.1795  0.0260
30465SOL    HW197231   4.440   7.021   5.010 -0.8224  0.3238 -0.5303
30465SOL    HW297232   4.313   7.096   5.047  0.1503  1.4643  0.5760
30466SOL     OW97233   6.355   6.595   7.046  0.0059  0.3272  0.1470
30466SOL    HW197234   6.362   6.668   6.984 -1.4364 -0.7428 -1.3884
30466SOL    HW297235   6.329   6.520   6.991 -1.1781 -0.7142  2.0304
30467SOL     OW97236   4.395   5.452   3.602  0.0624  0.1136  0.4512
30467SOL    HW197237   4.337   5.458   3.678  0.4813  0.8087  0.7199
30467SOL    HW297238   4.358   5.514   3.539 -1.5108 -1.9269 -0.7738
30468SOL     OW97239   6.911  10.221   4.929 -0.4158  0.3360  0.1958
30468SOL    HW197240   6.917  10.304   4.883  1.4694  0.3734  0.4234
30468SOL    HW297241   6.905  10.244   5.022 -3.0129  0.2347  0.1176
30469SOL     OW97242   8.487   2.979   8.704 -0.1207 -0.3685  0.4230
30469SOL    HW197243   8.409   2.935   8.737 -0.6324  1.5180  1.8659
30469SOL    HW297244   8.556   2.956   8.766  0.0075 -0.4443  0.2547
30470SOL     OW97245   3.168  10.358   8.957  0.3374  0.5815  0.0149
30470SOL    HW197246   3.156  10.268   8.927  0.7516  0.3491  0.5254
30470SOL    HW297247   3.255  10.359   8.997  1.2273  1.7408 -1.8392
30471SOL     OW97248   5.669   2.500   5.138  0.3425  0.6508 -0.2987
30471SOL    HW197249   5.762   2.490   5.159  0.5254 -0.8731 -1.6310
30471SOL    HW297250   5.624   2.443   5.201  0.4626  0.1095 -0.6936
30472SOL     OW97251   4.819   7.075   9.941  0.0926  0.1320  0.1560
30472SOL    HW197252   4.796   7.114   9.857  0.1766  1.2155  0.6230
30472SOL    HW297253   4.794   7.141  10.006  1.2761 -0.1235  0.8932
30473SOL     OW97254   4.346   8.952   3.471  0.4213  0.0515  0.1053
30473SOL    HW197255   4.356   8.983   3.381  0.4828  1.1489  0.4818
30473SOL    HW297256   4.261   8.908   3.472 -0.2838  1.3629 -0.1297
30474SOL     OW97257  10.183   5.862   1.393  0.3084 -1.1125  0.0122
30474SOL    HW197258  10.180   5.956   1.378  0.5910 -1.0134  0.5681
30474SOL    HW297259  10.103   5.829   1.352  0.6173 -0.7434 -0.9243
30475SOL     OW97260   6.869   3.384   6.504 -0.2587 -0.2075  0.4841
30475SOL    HW197261   6.862   3.314   6.440  0.5546  0.0023  0.1459
30475SOL    HW297262   6.781   3.420   6.511 -0.4860 -0.6556 -0.0290
30476SOL     OW97263   9.780   8.998   2.265  0.4523  0.1176  0.5786
30476SOL    HW197264   9.698   8.973   2.309 -0.8728  1.0132 -1.2611
30476SOL    HW297265   9.813   9.072   2.317 -1.3781  1.5293 -0.1512
30477SOL     OW97266   3.304   1.229   5.734  0.2987  0.3205 -0.4956
30477SOL    HW197267   3.324   1.189   5.648  0.7912  0.2316 -0.3454
30477SOL    HW297268   3.308   1.156   5.795 -1.5070  0.1069 -0.5785
30478SOL     OW97269   4.350   3.964   9.447 -0.0762  0.2436  0.0438
30478SOL    HW197270   4.359   4.058   9.465  0.1726  0.3042 -0.3704
30478SOL    HW297271   4.280   3.959   9.382  0.5859  0.2416 -0.6932
30479SOL     OW97272   2.599   3.596   9.442  0.7701  0.0955  0.3854
30479SOL    HW197273   2.527   3.655   9.460  0.5140  0.0541 -0.4300
30479SOL    HW297274   2.563   3.509   9.458  1.0415  0.1415  1.2516
30480SOL     OW97275   6.880   2.898   9.402  0.4515 -0.3257 -0.0646
30480SOL    HW197276   6.973   2.897   9.425  0.7517 -1.5310 -1.2406
30480SOL    HW297277   6.835   2.899   9.487  1.4472  3.1353  0.6159
30481SOL     OW97278   1.494   0.880   5.367  0.2276 -0.7353  0.0105
30481SOL    HW197279   1.402   0.857   5.381 -0.6274  0.7163 -2.5977
30481SOL    HW297280   1.531   0.804   5.323 -0.4241 -0.3772 -1.1944
30482SOL     OW97281   8.054   7.368   2.841 -0.6364 -0.2200 -0.3397
30482SOL    HW197282   8.061   7.450   2.889  0.1911  0.2524 -1.2281
30482SOL    HW297283   8.066   7.300   2.907  0.3163  0.4030  0.1503
30483SOL     OW97284   8.714   8.480   2.843  0.2406 -0.5750  0.0678
30483SOL    HW197285   8.750   8.561   2.806 -0.2526 -0.4957 -0.2551
30483SOL    HW297286   8.786   8.418   2.838 -0.4517 -1.3163 -3.4225
30484SOL     OW97287   5.895  10.019   8.596 -0.7341 -0.3065 -0.2589
30484SOL    HW197288   5.965  10.021   8.661 -0.2237 -0.4692 -0.7985
30484SOL    HW297289   5.840   9.945   8.622 -0.9043  0.0317  0.3649
30485SOL     OW97290   6.770   8.027   5.434  0.0920  0.3890  0.2892
30485SOL    HW197291   6.851   7.976   5.424  0.3720  1.2125 -2.7840
30485SOL    HW297292   6.798   8.108   5.478  1.2441  1.1305 -1.6691
30486SOL     OW97293   4.040   5.813   6.103  0.2729  0.1092  0.6370
30486SOL    HW197294   4.045   5.897   6.058 -1.7600 -0.1258 -0.1080
30486SOL    HW297295   3.981   5.828   6.176 -0.0547 -0.6364  0.5388
30487SOL     OW97296   7.233  10.402   6.669 -0.4134  0.0010  0.2674
30487SOL    HW197297   7.246  10.426   6.577  0.6719 -1.9549 -0.1559
30487SOL    HW297298   7.139  10.404   6.682 -0.5252  1.2254 -0.6062
30488SOL     OW97299   8.298   0.730   0.383  0.0000 -0.8242  0.3944
30488SOL    HW197300   8.247   0.721   0.302  2.6005 -0.9027 -1.3446
30488SOL    HW297301   8.330   0.641   0.401 -0.7676 -0.8591  1.7056
30489SOL     OW97302   2.304   2.004  10.373  0.3906 -0.5479  0.0495
30489SOL    HW197303   2.221   1.975  10.410 -0.6737  0.2137 -1.6269
30489SOL    HW297304   2.345   2.055  10.442 -0.9700 -0.1640  0.5939
30490SOL     OW97305   3.596   8.444   8.975 -0.5212  0.3396 -0.1105
30490SOL    HW197306   3.680   8.406   9.000  0.4240  1.6433 -1.1172
30490SOL    HW297307   3.547   8.371   8.937 -0.1363 -0.5880  1.0962
30491SOL     OW97308   6.254   1.907   3.124 -0.6786  0.4282 -0.1799
30491SOL    HW197309   6.222   1.891   3.035  0.5389  0.2894 -0.6081
30491SOL    HW297310   6.277   2.000   3.125  1.7300 -0.1055 -0.8438
30492SOL     OW97311   6.427   2.527   4.102  0.1423 -1.0799 -0.5643
30492SOL    HW197312   6.516   2.559   4.084  0.3858 -1.4080  0.0065
30492SOL    HW297313   6.376   2.553   4.026  1.1761 -2.6085 -1.8265
30493SOL     OW97314   4.336   2.550   1.931 -0.0658  0.5002 -0.3663
30493SOL    HW197315   4.299   2.515   2.013  1.8421  1.3070  0.8977
30493SOL    HW297316   4.294   2.498   1.862 -2.4163  0.3914  1.0272
30494SOL     OW97317   6.340   7.662   4.642  0.1869  0.2249  0.0523
30494SOL    HW197318   6.338   7.662   4.546  0.7827 -0.5326  0.0333
30494SOL    HW297319   6.379   7.577   4.666 -1.0181 -0.0984  0.9864
30495SOL     OW97320  10.215   0.726   4.782  0.0941 -0.4542 -0.4458
30495SOL    HW197321  10.277   0.658   4.754  0.0238 -1.1482  1.0239
30495SOL    HW297322  10.136   0.708   4.731 -0.0057 -1.6452  0.0986
30496SOL     OW97323   1.556   0.055   8.005  0.1239 -0.4518  0.0167
30496SOL    HW197324   1.524   0.027   8.091  2.3464 -0.9555  0.7442
30496SOL    HW297325   1.556   0.151   8.009 -1.1323 -0.4373  0.0183
30497SOL     OW97326   2.560   5.001   0.506 -0.5410 -0.4177 -0.0189
30497SOL    HW197327   2.615   4.957   0.442  0.6081 -0.4796  0.9709
30497SOL    HW297328   2.508   4.932   0.546 -0.6584 -0.4902 -0.2929
30498SOL     OW97329   6.937   0.459   2.903  0.0615  0.1918 -0.3781
30498SOL    HW197330   7.008   0.445   2.965 -1.1189 -1.2082  0.7098
30498SOL    HW297331   6.956   0.545   2.864  1.0926  0.9048  1.5587
30499SOL     OW97332   2.138  10.118   3.388  0.1346 -0.1410  0.4865
30499SOL    HW197333   2.178  10.037   3.420  0.0101  0.6370  2.7794
30499SOL    HW297334   2.048  10.092   3.365  0.7252 -1.0690 -0.9747
30500SOL     OW97335   7.930   9.679   8.309 -0.1550  0.4255  0.1939
30500SOL    HW197336   7.941   9.588   8.281 -0.5738  0.7087 -0.9423
30500SOL    HW297337   7.908   9.727   8.229  0.3291  1.5848  0.7210
30501SOL     OW97338   2.400   1.975   8.647 -0.4417  0.1025  0.0988
30501SOL    HW197339   2.398   2.068   8.626 -0.7626  0.3558  1.2167
30501SOL    HW297340   2.389   1.931   8.562 -0.8339  1.0774 -0.3669
30502SOL     OW97341   5.873   3.059   2.320 -0.7371  0.3524 -0.2458
30502SOL    HW197342   5.949   3.100   2.361 -0.1738 -0.6143 -0.2851
30502SOL    HW297343   5.904   2.971   2.296 -1.9956 -0.2104  0.1299
30503SOL     OW97344   7.798   7.108   1.626  0.2549  0.3239  0.1748
30503SOL    HW197345   7.747   7.184   1.600  0.8826  0.3438 -1.0684
30503SOL    HW297346   7.889   7.138   1.622  0.4168  0.0868  1.6670
30504SOL     OW97347   0.197  10.656   2.820  0.1316  0.0945  0.9739
30504SOL    HW197348   0.271  10.613   2.863 -0.4975 -0.2395  1.7492
30504SOL    HW297349   0.233  10.739   2.789  1.5194 -1.1674 -1.0427
30505SOL     OW97350   9.379   7.209   1.675 -0.3577 -0.1969 -0.4620
30505SOL    HW197351   9.391   7.282   1.735  1.9239 -0.0906 -0.9545
30505SOL    HW297352   9.444   7.145   1.702  0.4564 -0.3115 -2.5154
30506SOL     OW97353   3.052   2.869   4.287  0.1900 -0.4713  0.3085
30506SOL    HW197354   3.106   2.904   4.216 -1.2092 -1.7514 -1.4672
30506SOL    HW297355   3.028   2.781   4.258 -0.1857 -1.1696  2.5362
30507SOL     OW97356   8.882   8.283   0.469 -0.1578 -0.4557  0.2430
30507SOL    HW197357   8.820   8.211   0.461  0.2306 -0.6545 -1.4517
30507SOL    HW297358   8.857   8.329   0.549 -1.9935 -0.9795 -0.0028
30508SOL     OW97359   0.211   7.046   0.931 -0.3466  0.0282  0.1500
30508SOL    HW197360   0.151   7.118   0.914 -0.1474  0.4675  1.1890
30508SOL    HW297361   0.258   7.034   0.848 -0.5054  0.9790 -0.0972
30509SOL     OW97362   3.852   7.417   2.112 -0.1074 -0.6483  0.3363
30509SOL    HW197363   3.898   7.388   2.034  0.0182  0.8899 -0.1799
30509SOL    HW297364   3.921   7.427   2.178 -0.0772 -0.9364  0.3512
30510SOL     OW97365   3.246   9.638   8.333 -0.3198 -0.5582 -0.0641
30510SOL    HW197366   3.270   9.611   8.421  0.9039 -1.6384 -0.6949
30510SOL    HW297367   3.166   9.588   8.313 -1.6850  1.0472  1.0536
30511SOL     OW97368   5.155   9.615   8.572 -0.0788 -0.2475 -0.0825
30511SOL    HW197369   5.190   9.639   8.486 -1.6418 -0.0068 -0.7058
30511SOL    HW297370   5.108   9.533   8.556 -0.4026 -0.1849  0.5266
30512SOL     OW97371   5.073   1.604   8.456 -0.3498  0.2421  0.0227
30512SOL    HW197372   5.110   1.664   8.391  0.9266  2.0928  2.2952
30512SOL    HW297373   4.992   1.646   8.484 -0.9310 -0.5826 -0.4106
30513SOL     OW97374   7.462   9.708   5.977 -0.7028 -0.5973 -0.1928
30513SOL    HW197375   7.532   9.773   5.971  0.3121 -1.4598  1.6188
30513SOL    HW297376   7.440   9.689   5.886  1.0838  0.0597 -0.8062
30514SOL     OW97377   4.787  10.018   3.705 -0.2935  0.7098  0.2719
30514SOL    HW197378   4.750   9.945   3.656 -0.6609  1.0500  0.0344
30514SOL    HW297379   4.735  10.094   3.679  1.1956  1.4099 -0.8370
30515SOL     OW97380   4.914   2.032   2.373 -0.3380 -0.0141  0.5835
30515SOL    HW197381   4.863   2.098   2.326 -2.1008 -2.3967 -1.0731
30515SOL    HW297382   4.997   2.027   2.325 -1.1727 -0.6869 -0.8672
30516SOL     OW97383   7.330   9.278   5.431 -0.0996 -0.3275  0.0052
30516SOL    HW197384   7.235   9.285   5.442 -0.3247 -0.6892 -1.5690
30516SOL    HW297385   7.341   9.225   5.352  1.4272 -1.1046  0.7073
30517SOL     OW97386  10.663   1.008   2.362 -0.1400  0.0402 -0.3288
30517SOL    HW197387  10.630   1.026   2.450 -1.1705 -2.2678 -0.1633
30517SOL    HW297388  10.682   1.095   2.326 -2.6831  1.3044  1.0367
30518SOL     OW97389   6.249   5.203   8.547  0.3978 -0.2783  0.0819
30518SOL    HW197390   6.313   5.235   8.484 -1.0238 -0.4956 -1.5370
30518SOL    HW297391   6.187   5.152   8.495 -0.8566 -0.4480  1.6598
30519SOL     OW97392   6.284   0.357   4.306  0.1655  0.2970 -0.6727
30519SOL    HW197393   6.240   0.369   4.390 -1.4187 -2.8227 -0.9195
30519SOL    HW297394   6.214   0.372   4.241  0.8161  0.4531 -1.3508
30520SOL     OW97395   8.871   5.547   9.629 -0.1385  0.1219  0.1637
30520SOL    HW197396   8.881   5.620   9.567 -0.8102  0.5482  0.5434
30520SOL    HW297397   8.778   5.524   9.623 -0.0282 -0.3867  0.4071
30521SOL     OW97398   5.501   6.524   7.429  0.0642  0.7204 -0.2113
30521SOL    HW197399   5.428   6.558   7.480  0.3087 -1.2558  1.5844
30521SOL    HW297400   5.464   6.448   7.383  0.7020  0.3867 -0.1782
30522SOL     OW97401   1.335   6.081   8.786 -0.2321 -0.3040  0.0359
30522SOL    HW197402   1.423   6.068   8.751 -0.4911 -1.1794 -0.3206
30522SOL    HW297403   1.282   6.106   8.710 -0.4434 -0.4988  0.1187
30523SOL     OW97404   7.248   1.829   1.702  0.1511 -0.1937 -0.6489
30523SOL    HW197405   7.311   1.779   1.649  1.2293 -1.6290  1.7867
30523SOL    HW297406   7.302   1.893   1.748  0.0039 -1.6252  1.6856
30524SOL     OW97407   0.612   1.220   4.967  0.5518 -0.2743  0.2312
30524SOL    HW197408   0.681   1.153   4.968  0.7178 -0.1055  1.1573
30524SOL    HW297409   0.531   1.171   4.982  0.6883 -0.2693  1.0509
30525SOL     OW97410   9.628   3.313   9.953  0.0819 -0.1310  0.3191
30525SOL    HW197411   9.572   3.288   9.880 -0.4519 -0.1399  0.7215
30525SOL    HW297412   9.582   3.386   9.994  1.1671  0.9308 -0.2960
30526SOL     OW97413   2.530   9.795   0.199 -0.2837 -0.2988 -0.5807
30526SOL    HW197414   2.476   9.726   0.238 -0.7745  0.3130 -0.1679
30526SOL    HW297415   2.551   9.762   0.112 -1.5549 -0.4324 -0.8531
30527SOL     OW97416   4.244   8.186   3.810 -0.3083  0.0561  0.0737
30527SOL    HW197417   4.206   8.273   3.797 -0.5482  0.0376  0.6272
30527SOL    HW297418   4.224   8.164   3.901 -0.0762 -0.4945 -0.0018
30528SOL     OW97419   6.506   2.399   9.866  0.0094 -0.0120 -0.2712
30528SOL    HW197420   6.439   2.344   9.906  2.1102 -2.1665  0.5503
30528SOL    HW297421   6.518   2.364   9.778  0.2202  0.2027 -0.3332
30529SOL     OW97422  10.296   8.320   2.824  0.0473  0.0518 -0.5877
30529SOL    HW197423  10.213   8.274   2.815  0.0744 -0.2291  0.4753
30529SOL    HW297424  10.272   8.410   2.843 -0.0089  0.1378 -1.0606
30530SOL     OW97425   9.152   3.075   6.652  0.2566 -0.0776 -0.1977
30530SOL    HW197426   9.205   3.109   6.580 -1.3597  3.0397 -0.0774
30530SOL    HW297427   9.164   3.139   6.723 -1.1038 -1.0374  0.9608
30531SOL     OW97428   2.467   6.106   1.740  0.2151  0.8786  0.3333
30531SOL    HW197429   2.442   6.177   1.680  0.2508  0.5684 -0.0511
30531SOL    HW297430   2.420   6.125   1.820 -2.3931 -0.4482 -0.7813
30532SOL     OW97431   8.902   8.312   2.788  0.4286 -0.1606 -0.0065
30532SOL    HW197432   8.958   8.246   2.830 -1.0920 -0.6646  1.3488
30532SOL    HW297433   8.920   8.303   2.695  1.6058 -1.2377  0.2932
30533SOL     OW97434   4.564  10.033  10.252 -0.2893 -0.1374 -0.3793
30533SOL    HW197435   4.478  10.042  10.291 -0.7859 -1.9025 -0.9893
30533SOL    HW297436   4.623  10.080  10.312 -1.4817  0.0593  0.6744
30534SOL     OW97437   6.785   0.187   0.013 -0.4052  0.7368 -0.3944
30534SOL    HW197438   6.777   0.267   0.065 -0.7965 -0.1941  1.0126
30534SOL    HW297439   6.878   0.181  -0.007 -0.1449  0.7675  0.7611
30535SOL     OW97440   2.886   2.510   3.166 -0.1432 -0.1557  0.0864
30535SOL    HW197441   2.909   2.434   3.220 -1.3388 -1.1789 -0.7751
30535SOL    HW297442   2.876   2.582   3.229 -0.3883 -1.0535  1.1032
30536SOL     OW97443   4.390   8.426   4.544 -0.2482  0.1055 -0.3191
30536SOL    HW197444   4.295   8.422   4.556 -0.4491  2.4364 -0.6151
30536SOL    HW297445   4.424   8.351   4.592 -2.1800 -0.1242  0.7639
30537SOL     OW97446   4.972   9.747   0.162 -0.5686 -0.0460  0.0031
30537SOL    HW197447   4.887   9.739   0.119 -0.5730  0.1888 -0.0303
30537SOL    HW297448   4.950   9.764   0.254 -0.5988 -2.7676  0.5892
30538SOL     OW97449   6.902   2.127   9.014  0.1269 -0.1948 -0.4429
30538SOL    HW197450   6.952   2.207   9.029  1.3398 -0.9424 -0.3477
30538SOL    HW297451   6.933   2.067   9.082 -0.4601 -0.8796 -0.7687
30539SOL     OW97452   7.601   3.094   8.772  0.8610  0.1264  0.4214
30539SOL    HW197453   7.552   3.150   8.832  1.8269  1.1194  0.3087
30539SOL    HW297454   7.670   3.150   8.737  2.1948 -1.2639  0.7047
30540SOL     OW97455   7.582   4.887   9.512  0.6902 -0.0476 -0.0291
30540SOL    HW197456   7.675   4.892   9.535  0.5615  3.2687  0.2418
30540SOL    HW297457   7.580   4.909   9.419  0.1763 -0.2793 -0.0750
30541SOL     OW97458   2.581   1.738   9.180 -0.2118  0.2128  0.1787
30541SOL    HW197459   2.546   1.649   9.185 -0.0613  0.1438  0.0168
30541SOL    HW297460   2.539   1.784   9.252  0.2555 -0.1794  0.7179
30542SOL     OW97461  10.372  10.006   0.297 -0.5370 -0.2375  0.0990
30542SOL    HW197462  10.367   9.933   0.359 -2.2802  1.0070  1.4900
30542SOL    HW297463  10.430  10.069   0.339  0.3249 -0.4312 -0.7481
30543SOL     OW97464   4.356   0.623   3.863 -0.3831 -0.3827 -0.0251
30543SOL    HW197465   4.408   0.594   3.788 -0.8396  0.5663 -0.7272
30543SOL    HW297466   4.418   0.623   3.936  0.8019  1.2883 -0.9530
30544SOL     OW97467   6.178   4.864   8.354  0.0889  0.1318  0.7566
30544SOL    HW197468   6.196   4.777   8.318  0.3423  0.7522 -0.6678
30544SOL    HW297469   6.262   4.910   8.347 -0.2278  0.7212  0.8127
30545SOL     OW97470   0.892   4.708   3.235 -0.4481 -0.1805  0.0193
30545SOL    HW197471   0.796   4.711   3.231 -0.4453  0.6772  0.4389
30545SOL    HW297472   0.911   4.669   3.320 -0.4164 -0.8250 -0.2743
30546SOL     OW97473   1.312   7.501   3.103 -0.1603 -0.3467 -0.0715
30546SOL    HW197474   1.396   7.547   3.097  0.1135 -0.8675 -0.2745
30546SOL    HW297475   1.317   7.433   3.036 -0.5040 -0.7651  0.3221
30547SOL     OW97476   8.542   4.665   9.436  1.0920 -0.4164 -0.1361
30547SOL    HW197477   8.562   4.607   9.363  0.8159 -1.1898  0.3880
30547SOL    HW297478   8.448   4.655   9.450  0.9162  0.6669 -0.4603
30548SOL     OW97479   1.174   7.807   3.515 -0.0962 -0.0967  0.3018
30548SOL    HW197480   1.135   7.887   3.478 -2.0191 -0.7722  0.7540
30548SOL    HW297481   1.184   7.748   3.440  0.3579  0.1919  0.1323
30549SOL     OW97482   8.596   7.833   4.689 -0.1467 -0.0353  0.2724
30549SOL    HW197483   8.628   7.922   4.680 -2.2380  0.9075  1.4220
30549SOL    HW297484   8.512   7.832   4.642  0.2761 -1.6740 -0.5272
30550SOL     OW97485   7.781   5.199   3.413  0.1177 -0.5240 -0.5116
30550SOL    HW197486   7.858   5.192   3.357  1.8106 -0.2374  1.6386
30550SOL    HW297487   7.815   5.189   3.502 -2.4946 -1.3998  0.4819
30551SOL     OW97488   2.698   3.946   2.602  0.0207 -0.4977  1.0449
30551SOL    HW197489   2.772   4.003   2.622 -0.6173  1.5688 -1.7575
30551SOL    HW297490   2.737   3.868   2.562  0.7730  0.3828 -0.0061
30552SOL     OW97491   1.628   8.171   5.653 -0.1700 -0.7642  0.4928
30552SOL    HW197492   1.649   8.088   5.694 -1.6528 -1.2835  0.2748
30552SOL    HW297493   1.535   8.185   5.672  0.0359  0.8416  0.5242
30553SOL     OW97494  10.252   1.895   5.521  0.2396 -0.1779 -0.0296
30553SOL    HW197495  10.285   1.948   5.449 -0.0775  0.5323  0.3249
30553SOL    HW297496  10.165   1.932   5.539  0.9564  0.7576  1.7699
30554SOL     OW97497   9.283   0.187   1.074  0.3215 -0.6620 -0.5253
30554SOL    HW197498   9.378   0.188   1.062  0.4128 -1.0725  0.1177
30554SOL    HW297499   9.247   0.166   0.988  0.8419 -1.2267 -0.6062
30555SOL     OW97500   4.111   2.140   2.083 -0.3561  0.1236 -0.0338
30555SOL    HW197501   4.046   2.199   2.122 -0.5660 -1.1836  1.7208
30555SOL    HW297502   4.059   2.074   2.037 -0.2277 -0.1348  0.1903
30556SOL     OW97503   7.029   9.763   8.295  0.1491  0.2440  0.2039
30556SOL    HW197504   7.091   9.811   8.241  0.4279  2.2114  2.1759
30556SOL    HW297505   7.081   9.729   8.368 -0.4529 -1.2691 -0.0288
30557SOL     OW97506   5.536   9.338   1.259 -0.2046 -0.2697 -0.3681
30557SOL    HW197507   5.495   9.269   1.311 -0.5799  0.0801 -0.1910
30557SOL    HW297508   5.473   9.410   1.260  0.3020  0.1882 -0.3031
30558SOL     OW97509   0.179  10.521  10.159 -0.2362  0.3372 -0.2571
30558SOL    HW197510   0.261  10.569  10.152 -0.7303  1.3193  0.4006
30558SOL    HW297511   0.149  10.538  10.248 -2.1688  1.6918 -1.1154
30559SOL     OW97512   3.424   1.798   6.412  0.3580  1.0805  0.1913
30559SOL    HW197513   3.488   1.852   6.459  1.9826  1.9207 -2.6659
30559SOL    HW297514   3.418   1.717   6.462  1.6416  2.0292  1.9889
30560SOL     OW97515   7.354   9.295   1.309 -0.1546  0.1153 -0.1276
30560SOL    HW197516   7.406   9.364   1.350 -0.6581 -0.3982  1.4617
30560SOL    HW297517   7.370   9.218   1.362 -0.9499 -0.5628 -0.8353
30561SOL     OW97518   8.489   0.392   2.040 -0.3560  0.2682 -0.5418
30561SOL    HW197519   8.580   0.420   2.042 -0.1969 -0.2550 -0.2594
30561SOL    HW297520   8.493   0.297   2.051 -0.9088  0.1898 -0.9764
30562SOL     OW97521   2.714   2.901  10.506 -0.2322  0.4104  0.4082
30562SOL    HW197522   2.708   2.828  10.567  1.6152 -0.4494 -0.3732
30562SOL    HW297523   2.797   2.943  10.527  0.3549  0.2086 -1.3566
30563SOL     OW97524   0.054   9.968   6.781  0.1610  0.2611  0.1511
30563SOL    HW197525   0.023  10.057   6.765  1.2309  0.8466  1.1511
30563SOL    HW297526   0.100   9.974   6.865 -1.2913 -1.6248  1.1708
30564SOL     OW97527   0.343  10.306   5.940  0.1385  0.5597  0.1864
30564SOL    HW197528   0.325  10.269   5.853  2.5081 -0.9508  0.2335
30564SOL    HW297529   0.360  10.230   5.995  1.4060  1.5912  1.2834
30565SOL     OW97530   5.533   4.737   5.565  0.1231  0.4826  0.3150
30565SOL    HW197531   5.569   4.802   5.505  2.0272 -2.4877 -2.0519
30565SOL    HW297532   5.608   4.708   5.617 -0.4913 -0.3665  0.7591
30566SOL     OW97533  10.603   5.128   1.884 -0.0435  0.4485 -0.0465
30566SOL    HW197534  10.517   5.102   1.915  0.7008 -3.3194 -0.7003
30566SOL    HW297535  10.621   5.210   1.930 -2.5518 -0.3696  2.6833
30567SOL     OW97536   2.108   6.595   8.801  0.2467  0.0827  0.4151
30567SOL    HW197537   2.156   6.549   8.733  0.1586 -2.1903  1.7815
30567SOL    HW297538   2.028   6.626   8.758  0.9246  0.1146 -0.8598
30568SOL     OW97539   3.869   5.592   2.783  0.7951  0.4325  0.4088
30568SOL    HW197540   3.845   5.633   2.866  0.2972 -1.1476  1.0804
30568SOL    HW297541   3.965   5.598   2.781  0.8831 -0.2331  1.5171
30569SOL     OW97542   9.262  10.230   4.349 -0.1624  0.0785  0.0743
30569SOL    HW197543   9.211  10.168   4.297 -1.4110  1.5961 -0.5921
30569SOL    HW297544   9.342  10.245   4.298 -0.7208  0.4419 -0.7245
30570SOL     OW97545   3.956   7.070   8.572  0.3832 -0.2819 -0.0264
30570SOL    HW197546   4.021   7.136   8.598  0.0833  0.4598 -1.0818
30570SOL    HW297547   3.928   7.097   8.485  0.2286 -1.8136 -0.4760
30571SOL     OW97548   6.027   3.742   2.893  0.7541 -0.3847 -0.5717
30571SOL    HW197549   5.985   3.704   2.816 -2.5717 -1.0962  1.3796
30571SOL    HW297550   6.006   3.836   2.887 -2.7827 -0.9090  1.0968
30572SOL     OW97551   7.734   9.943   0.373  0.0191  0.0690 -0.2687
30572SOL    HW197552   7.660   9.993   0.338  1.5077  0.9108 -2.4832
30572SOL    HW297553   7.769   9.998   0.442 -1.2443 -0.2411  0.6616
30573SOL     OW97554   1.102   1.516   1.799  0.1579  0.0412  0.4908
30573SOL    HW197555   1.154   1.559   1.866 -1.5514 -0.5090  2.2699
30573SOL    HW297556   1.014   1.554   1.809 -0.1459 -0.0386 -1.4674
30574SOL     OW97557   1.435   2.851   1.998  0.0617  0.2792  0.2978
30574SOL    HW197558   1.355   2.903   2.008 -1.1445 -1.3640 -0.1671
30574SOL    HW297559   1.501   2.912   1.968 -1.2228  1.5572 -0.0214
30575SOL     OW97560   1.789   0.593   1.831 -0.3161  0.0734  0.7313
30575SOL    HW197561   1.742   0.567   1.910  1.7905 -0.3110  1.9380
30575SOL    HW297562   1.784   0.689   1.831  1.0953  0.1893  2.3298
30576SOL     OW97563   0.182   2.340   6.343 -0.1562 -0.4121 -0.2298
30576SOL    HW197564   0.112   2.397   6.311 -1.3395 -1.6997 -0.0551
30576SOL    HW297565   0.168   2.335   6.438  3.0413  3.0011  0.6515
30577SOL     OW97566   8.484   3.076   0.494  0.6971  0.2877 -0.3307
30577SOL    HW197567   8.562   3.088   0.548  0.9303  0.3443 -0.6748
30577SOL    HW297568   8.449   3.165   0.482 -0.3899  0.1127  1.2245
30578SOL     OW97569   0.751   9.638   6.357 -0.1091 -0.4637 -0.1979
30578SOL    HW197570   0.777   9.546   6.371  0.1771 -0.9239 -3.0221
30578SOL    HW297571   0.656   9.638   6.370 -0.3407 -1.5535 -1.5478
30579SOL     OW97572   1.782   9.284   0.268  0.3020 -0.3955  0.1995
30579SOL    HW197573   1.729   9.255   0.342 -1.0485 -0.7470 -0.8576
30579SOL    HW297574   1.742   9.366   0.240  1.6863  0.4744  0.7301
30580SOL     OW97575   5.639   9.242   4.559  0.8222 -0.7981 -0.6066
30580SOL    HW197576   5.556   9.289   4.567  2.1526  1.5499  1.0164
30580SOL    HW297577   5.658   9.242   4.465  0.2967  1.2008 -0.7648
30581SOL     OW97578   0.278   2.675   7.581  0.3729  0.3465  0.1661
30581SOL    HW197579   0.251   2.765   7.563  0.2899  0.1682 -0.6208
30581SOL    HW297580   0.373   2.675   7.571  0.3831  0.3619  0.2577
30582SOL     OW97581  10.479   0.677   7.667  0.1829  0.0226 -0.6489
30582SOL    HW197582  10.393   0.661   7.707  0.0509 -0.6621 -1.1814
30582SOL    HW297583  10.539   0.623   7.717  0.1693 -0.1322 -0.7999
30583SOL     OW97584   5.751   2.242   2.354  0.1208 -0.3686  0.6528
30583SOL    HW197585   5.695   2.189   2.298 -0.1358  0.1368  0.4193
30583SOL    HW297586   5.792   2.180   2.414  0.2351 -0.8951  0.0390
30584SOL     OW97587   2.793   6.041  10.563 -0.3783  0.4327  0.0937
30584SOL    HW197588   2.730   6.017  10.631  1.2842 -0.3276  1.4360
30584SOL    HW297589   2.782   5.975  10.495  0.1542 -0.7716  1.1363
30585SOL     OW97590  10.376   8.926   2.207  0.0417 -0.5749  0.0967
30585SOL    HW197591  10.432   8.941   2.132 -0.2865  0.0665 -0.0290
30585SOL    HW297592  10.330   8.845   2.187  0.3809 -0.7122 -0.1282
30586SOL     OW97593  10.202   0.323   6.263 -0.0377 -0.3001  0.5015
30586SOL    HW197594  10.199   0.394   6.326  0.9817  0.5900 -0.4141
30586SOL    HW297595  10.287   0.281   6.277  0.0871 -0.2606 -0.0780
30587SOL     OW97596   9.005   5.072   3.943 -0.1242 -0.0961  0.8829
30587SOL    HW197597   8.916   5.046   3.921  0.3393 -0.8674 -0.2079
30587SOL    HW297598   8.995   5.135   4.014 -1.4737 -0.9067  1.4489
30588SOL     OW97599  10.553  10.354   4.344  0.2532  0.1743 -0.0297
30588SOL    HW197600  10.458  10.357   4.331  0.3330  0.7662 -0.5727
30588SOL    HW297601  10.580  10.446   4.344  1.0491 -0.0133 -1.7564
30589SOL     OW97602   3.367   2.409   9.070  0.2367  0.4912 -0.5832
30589SOL    HW197603   3.321   2.472   9.127  1.1895  0.4396  0.2712
30589SOL    HW297604   3.402   2.344   9.131 -1.2127 -1.2344 -1.4793
30590SOL     OW97605   0.409   0.630   1.884 -0.2364  0.2345 -0.4032
30590SOL    HW197606   0.450   0.717   1.891  3.3949 -1.3807  1.0725
30590SOL    HW297607   0.394   0.603   1.974  2.7662 -2.2488 -0.4941
30591SOL     OW97608   8.269  10.395   1.906 -0.0027  0.1115  0.3044
30591SOL    HW197609   8.306  10.441   1.831 -0.0818  1.6597  1.1806
30591SOL    HW297610   8.262  10.461   1.974 -0.1945 -1.1885  1.6057
30592SOL     OW97611   6.697   0.827   5.636  0.0829  0.6500  0.2373
30592SOL    HW197612   6.614   0.839   5.590  0.1688  0.4878  0.0402
30592SOL    HW297613   6.712   0.911   5.679 -1.4158 -0.0728  2.3271
30593SOL     OW97614   8.206   9.980   7.226  1.4184 -0.4111 -0.1380
30593SOL    HW197615   8.175  10.071   7.229 -0.0160 -0.8918  0.7459
30593SOL    HW297616   8.257   9.969   7.306  1.2981 -0.4784 -0.0702
30594SOL     OW97617   8.767   1.341   8.367 -0.1849  0.1699 -0.1275
30594SOL    HW197618   8.752   1.288   8.288  1.6327  0.4242 -0.7111
30594SOL    HW297619   8.853   1.311   8.399 -0.2059  1.1296  0.8839
30595SOL     OW97620   3.785   2.485   6.369 -0.3784  0.0832 -0.4242
30595SOL    HW197621   3.822   2.406   6.409 -0.2759  0.9278  1.2539
30595SOL    HW297622   3.769   2.461   6.278  0.0489 -1.7294 -0.0595
30596SOL     OW97623   3.411   3.852   7.877  0.2069  0.1573  0.2339
30596SOL    HW197624   3.387   3.940   7.907  0.7977  0.3494  0.1526
30596SOL    HW297625   3.330   3.817   7.841  0.2916  1.2344 -1.0866
30597SOL     OW97626  10.154   4.783   2.219  0.8527 -0.1741 -0.2873
30597SOL    HW197627  10.249   4.792   2.231  1.2643 -2.9278 -0.7376
30597SOL    HW297628  10.126   4.731   2.294 -0.3363  0.6756 -0.1253
30598SOL     OW97629   9.475   8.240   1.749  0.1061 -0.2574  0.4204
30598SOL    HW197630   9.420   8.169   1.714 -0.4958  0.2817  0.2501
30598SOL    HW297631   9.483   8.303   1.677 -0.6880  0.5947  1.0466
30599SOL     OW97632   9.215   0.897   2.805 -0.4738 -0.5204  0.0412
30599SOL    HW197633   9.265   0.818   2.825 -0.8188 -0.8752 -0.4856
30599SOL    HW297634   9.144   0.867   2.748 -1.1195  0.0209  0.5404
30600SOL     OW97635   0.661   6.703   9.655 -0.1174  0.1466  0.3525
30600SOL    HW197636   0.611   6.645   9.597 -0.1862  0.8137 -0.2735
30600SOL    HW297637   0.663   6.787   9.608  3.3819 -0.3670 -0.7155
30601SOL     OW97638  10.221   2.864   2.862  0.1283  0.3780 -0.0633
30601SOL    HW197639  10.184   2.820   2.939  0.2537  0.2933 -0.0506
30601SOL    HW297640  10.158   2.849   2.792  0.7642 -0.9090 -0.3868
30602SOL     OW97641   7.201   7.422   4.527 -0.1648 -0.2993  0.0398
30602SOL    HW197642   7.283   7.470   4.536 -1.6531  2.5903 -0.5481
30602SOL    HW297643   7.156   7.435   4.610 -1.6540  1.6468 -0.9761
30603SOL     OW97644   0.490   3.180   8.351  0.1668  0.0665  0.2477
30603SOL    HW197645   0.473   3.251   8.412  0.9278  0.1296  0.4056
30603SOL    HW297646   0.453   3.209   8.268  3.5985  2.3552 -0.6942
30604SOL     OW97647   6.072   2.921   3.461  0.4802  0.5138  0.0139
30604SOL    HW197648   6.007   2.979   3.501 -0.7146 -0.6291 -0.1754
30604SOL    HW297649   6.126   2.892   3.534  0.9310  1.6461  0.1466
30605SOL     OW97650  10.421   1.264   1.803 -0.0438  0.0027  0.1530
30605SOL    HW197651  10.497   1.209   1.823  0.1155  0.0752 -0.2423
30605SOL    HW297652  10.444   1.350   1.836  0.9717  0.5774 -1.8564
30606SOL     OW97653   1.788   4.878   3.040 -0.4268 -0.1257  0.2113
30606SOL    HW197654   1.822   4.832   2.962  0.9651 -2.6968  2.1751
30606SOL    HW297655   1.700   4.843   3.052  0.2568 -1.6354  1.1135
30607SOL     OW97656   1.447   1.783  10.203 -0.2813 -0.4974  0.4913
30607SOL    HW197657   1.539   1.801  10.185 -0.5105 -0.9976 -1.3302
30607SOL    HW297658   1.436   1.690  10.185 -0.8180 -0.8280  2.2820
30608SOL     OW97659   4.081   7.089   2.472  0.1269 -0.1548 -0.2876
30608SOL    HW197660   3.988   7.109   2.466  0.3572  0.9586 -0.4820
30608SOL    HW297661   4.092   7.009   2.421 -0.1945  1.5426 -3.2575
30609SOL     OW97662   6.377  10.402   7.950 -0.4142  0.0593 -0.0243
30609SOL    HW197663   6.404  10.313   7.925 -1.1006 -0.0922 -0.2470
30609SOL    HW297664   6.448  10.434   8.004 -0.2920 -0.7427  0.3020
30610SOL     OW97665   8.080   8.267   4.271 -0.0069 -0.1344  0.0972
30610SOL    HW197666   7.988   8.267   4.243  0.4936  1.6094 -1.8368
30610SOL    HW297667   8.095   8.355   4.305  1.0135 -0.2986  0.1114
30611SOL     OW97668   2.686   5.909   2.470  0.0347  0.4099 -0.1707
30611SOL    HW197669   2.727   5.889   2.385 -1.6667  1.6375 -1.3554
30611SOL    HW297670   2.737   5.859   2.534  2.9196  1.2914 -1.6026
30612SOL     OW97671   2.403   2.038  10.129  0.0399  0.3380  0.3282
30612SOL    HW197672   2.360   2.023  10.213  0.6883 -1.3284  0.4179
30612SOL    HW297673   2.424   2.131  10.128  0.5442  0.2738  2.2754
30613SOL     OW97674   4.203   1.062   6.595 -0.2155  0.4199 -0.0503
30613SOL    HW197675   4.224   1.053   6.502  0.3698  0.6732  0.0490
30613SOL    HW297676   4.169   0.976   6.621 -3.2226  1.1366 -1.1662
30614SOL     OW97677   4.476   6.326  10.445 -0.1301  0.6287  0.3555
30614SOL    HW197678   4.441   6.400  10.396  0.9880  1.2624  0.4665
30614SOL    HW297679   4.477   6.253  10.383  0.5273  1.2144 -0.3451
30615SOL     OW97680   8.570   3.264   5.580 -0.0019  0.4587  0.2446
30615SOL    HW197681   8.638   3.305   5.632 -0.7591  1.1010  0.7568
30615SOL    HW297682   8.605   3.177   5.559 -0.2168 -0.4255  3.0630
30616SOL     OW97683   0.476   6.392   8.396 -0.2355  0.3739  0.2220
30616SOL    HW197684   0.568   6.370   8.407 -0.6886 -1.7277  0.2503
30616SOL    HW297685   0.475   6.461   8.330  1.2579 -1.0369 -1.3699
30617SOL     OW97686   4.768   6.649   6.551  0.3335  0.1555 -0.3049
30617SOL    HW197687   4.812   6.669   6.634  0.9880 -2.6713  0.1198
30617SOL    HW297688   4.834   6.602   6.500 -0.4609  0.7803 -1.9766
30618SOL     OW97689   7.222   1.794   8.972 -0.5924 -0.4063  0.2746
30618SOL    HW197690   7.150   1.825   9.027 -1.5852  0.5265 -1.4445
30618SOL    HW297691   7.208   1.839   8.888  0.1680 -2.6257 -1.1085
30619SOL     OW97692   6.368   1.857  10.494  0.4610  0.2705  0.4780
30619SOL    HW197693   6.287   1.901  10.467  0.1787  1.0196  2.3810
30619SOL    HW297694   6.417   1.924  10.542  2.5804  0.0429 -1.1902
30620SOL     OW97695  10.291   9.608   1.112 -0.0814 -0.1486 -0.3514
30620SOL    HW197696  10.319   9.520   1.134  0.5512  0.7187  2.7431
30620SOL    HW297697  10.196   9.602   1.102 -0.2596 -0.9466  1.4758
30621SOL     OW97698   8.102   1.636   0.524  0.3147 -0.4192 -0.4539
30621SOL    HW197699   8.180   1.679   0.489  1.2713 -1.9088 -0.2111
30621SOL    HW297700   8.125   1.613   0.614  0.4409 -2.8309 -1.0394
30622SOL     OW97701   1.906   5.511   5.188 -0.5833  0.0284  0.1107
30622SOL    HW197702   2.001   5.500   5.199 -0.4760  0.9676  0.1982
30622SOL    HW297703   1.887   5.467   5.106 -0.1712 -0.6944  0.3907
30623SOL     OW97704   6.771   2.050   8.008  0.9336  0.1363 -0.5151
30623SOL    HW197705   6.848   2.008   8.048  0.8467 -0.0875 -0.5859
30623SOL    HW297706   6.721   1.978   7.970 -0.5708 -0.0507  1.6109
30624SOL     OW97707   7.998   5.180   3.240  0.3964  0.1492 -0.3108
30624SOL    HW197708   7.988   5.224   3.155  0.5217 -0.4158 -0.6261
30624SOL    HW297709   8.071   5.119   3.226  0.9843  0.6550  0.4604
30625SOL     OW97710   3.016   3.503   7.527 -0.4109  0.6679  0.5204
30625SOL    HW197711   3.006   3.591   7.490 -1.3754  0.7845  1.0143
30625SOL    HW297712   3.104   3.476   7.502 -1.2317  0.4087 -2.5320
30626SOL     OW97713   6.494   6.551   8.933 -0.2072  0.1876  0.0665
30626SOL    HW197714   6.442   6.563   8.854  0.6541 -0.0726 -0.5678
30626SOL    HW297715   6.441   6.588   9.004  0.1699  3.1009 -1.0121
30627SOL     OW97716   3.320   3.281   9.255 -0.4288  0.1526 -0.1077
30627SOL    HW197717   3.290   3.372   9.257 -0.1632  0.2258  0.8883
30627SOL    HW297718   3.414   3.287   9.269 -0.4196 -0.2839  0.0274
30628SOL     OW97719   0.969   3.836  10.675 -0.0589  0.5266  0.0669
30628SOL    HW197720   1.008   3.923  10.668  0.2847  0.3726  0.0320
30628SOL    HW297721   0.879   3.847  10.645  0.0466  0.8259 -0.1407
30629SOL     OW97722   4.350   9.244   1.698 -0.1876  0.0756  0.5658
30629SOL    HW197723   4.255   9.248   1.712 -0.0827 -1.6935  2.1381
30629SOL    HW297724   4.360   9.190   1.620 -0.4751  0.4756  0.2475
30630SOL     OW97725   7.480  10.144   6.209 -0.3493  0.0308  0.5962
30630SOL    HW197726   7.459  10.198   6.285 -0.0950  0.9828  0.0119
30630SOL    HW297727   7.562  10.181   6.175  0.2019 -1.1643  0.5756
30631SOL     OW97728   2.080   0.969   5.090  0.1261 -0.2035  0.4165
30631SOL    HW197729   2.098   1.028   5.017  1.4329 -2.5936 -1.3438
30631SOL    HW297730   1.990   0.989   5.115 -0.9245 -0.2096 -2.8650
30632SOL     OW97731   2.382   3.229  10.006 -0.4809  0.0040  0.0330
30632SOL    HW197732   2.412   3.275   9.927 -1.9131  1.9276  0.5447
30632SOL    HW297733   2.431   3.269  10.077 -0.4539 -0.5152  0.3096
30633SOL     OW97734   4.812   7.718   1.661  0.3847  0.5741 -0.2799
30633SOL    HW197735   4.802   7.813   1.659 -1.2493  0.4176 -1.4420
30633SOL    HW297736   4.756   7.690   1.733 -1.1431  0.3352 -1.5132
30634SOL     OW97737   1.888   4.173   6.442 -0.1993 -0.0526 -0.4729
30634SOL    HW197738   1.821   4.167   6.373 -0.1493 -0.5467 -0.4779
30634SOL    HW297739   1.838   4.194   6.521 -0.3160 -0.0234 -0.5525
30635SOL     OW97740   3.552   8.605   0.052 -0.5663 -0.2188  0.5111
30635SOL    HW197741   3.547   8.700   0.046 -2.3868 -0.3244 -0.3189
30635SOL    HW297742   3.466   8.578   0.084 -0.9494 -1.7111 -1.5610
30636SOL     OW97743   0.881   7.235   2.086 -0.0050 -0.6143 -0.7804
30636SOL    HW197744   0.889   7.264   1.995 -1.3650 -1.0602 -1.0662
30636SOL    HW297745   0.846   7.146   2.081  1.1282 -1.1475  0.1664
30637SOL     OW97746   4.531   5.731   7.104  0.1680  0.4538  0.0914
30637SOL    HW197747   4.514   5.823   7.086  1.4059  0.6129 -0.3281
30637SOL    HW297748   4.480   5.684   7.038 -0.3970  0.8301  0.2552
30638SOL     OW97749   1.493   0.054   5.950 -0.2822  0.2267 -0.0763
30638SOL    HW197750   1.498   0.044   5.855  2.7580 -0.5767  0.0793
30638SOL    HW297751   1.554   0.125   5.971 -0.5763  0.1093  1.3250
30639SOL     OW97752   0.621   4.352   1.908 -0.3553 -0.3620  0.0166
30639SOL    HW197753   0.714   4.333   1.925 -0.5344  0.1522  1.6949
30639SOL    HW297754   0.623   4.420   1.841  0.5323  0.2693  0.6555
30640SOL     OW97755   1.971   2.946   2.593 -0.5323 -0.1239 -0.0340
30640SOL    HW197756   2.060   2.922   2.618  0.3359  2.3939 -0.4329
30640SOL    HW297757   1.947   2.883   2.525  1.1805 -0.4637 -0.3615
30641SOL     OW97758   2.116   4.330   7.997 -0.4408 -0.0210  0.3182
30641SOL    HW197759   2.139   4.335   8.089 -0.3436  0.8304  0.2611
30641SOL    HW297760   2.081   4.417   7.977 -1.2894 -0.4741 -0.2292
30642SOL     OW97761   7.081   8.919   1.850  0.0500 -0.5507  0.4729
30642SOL    HW197762   7.114   8.963   1.771 -0.1103 -0.9273  0.1900
30642SOL    HW297763   7.157   8.916   1.909 -0.0800  0.5734  0.7159
30643SOL     OW97764   2.612   0.912   8.168  0.1943  0.8672  0.8889
30643SOL    HW197765   2.639   0.821   8.159 -1.4917  0.3555  0.6872
30643SOL    HW297766   2.600   0.942   8.078 -0.4072  0.9098  0.9796
30644SOL     OW97767   5.415   5.036   7.250 -0.3539 -0.3151 -0.2111
30644SOL    HW197768   5.460   5.121   7.251 -0.9446  0.0027  0.7210
30644SOL    HW297769   5.472   4.980   7.198  1.8612 -0.2974  2.0276
30645SOL     OW97770   3.979   2.892   1.491 -0.5054  0.0767 -0.1164
30645SOL    HW197771   4.074   2.877   1.485 -0.0381  1.8532  1.6656
30645SOL    HW297772   3.940   2.820   1.442  1.7438 -1.4384  0.1766
30646SOL     OW97773  10.459   3.523   3.916  0.3289 -0.1351 -0.1602
30646SOL    HW197774  10.518   3.577   3.969  0.3578  0.7092 -1.0343
30646SOL    HW297775  10.510   3.444   3.897  1.0021  0.3769 -0.4987
30647SOL     OW97776   2.676   6.509  10.528  0.2071  0.7462  0.5347
30647SOL    HW197777   2.766   6.498  10.556  0.5697  1.4456 -0.3161
30647SOL    HW297778   2.678   6.582  10.466 -0.9471  0.8090  0.5330
30648SOL     OW97779   0.098   5.333   4.200 -0.2683 -0.2516 -0.2028
30648SOL    HW197780   0.056   5.406   4.246 -0.1607 -0.1062 -0.3342
30648SOL    HW297781   0.128   5.275   4.269 -0.7475 -0.3894 -0.1085
30649SOL     OW97782   6.014   7.227   3.089  0.4561  0.0710  0.5096
30649SOL    HW197783   5.963   7.201   3.166 -0.6612  1.1681  0.1670
30649SOL    HW297784   6.104   7.234   3.121 -0.0714  1.0378  1.8624
30650SOL     OW97785   8.600   2.246   3.807 -0.2065 -0.3276 -0.0468
30650SOL    HW197786   8.513   2.219   3.836 -0.7990  0.7747 -0.7153
30650SOL    HW297787   8.649   2.264   3.887 -0.4601 -1.3101  0.3431
30651SOL     OW97788   2.002   9.974   8.207 -0.7531  0.3449 -0.3690
30651SOL    HW197789   1.970   9.941   8.123 -0.4857  1.8128 -1.0752
30651SOL    HW297790   1.927  10.023   8.243 -0.1730  1.5955 -0.8130
30652SOL     OW97791   5.065   6.686   3.547 -0.4179  0.0914 -0.0616
30652SOL    HW197792   5.090   6.593   3.552  1.2570  0.4563 -0.9798
30652SOL    HW297793   5.093   6.722   3.631  0.1328  0.0186 -0.2067
30653SOL     OW97794  10.649   4.317   6.452 -0.3848 -0.1628  0.1964
30653SOL    HW197795  10.663   4.402   6.494 -0.1358  0.4091 -1.0225
30653SOL    HW297796  10.644   4.336   6.359 -1.2192 -1.3796 -0.0393
30654SOL     OW97797   4.603   7.723   1.856  0.2549  0.0443  0.2324
30654SOL    HW197798   4.613   7.789   1.925  1.5444  1.4453 -1.2285
30654SOL    HW297799   4.520   7.745   1.814  0.8920  1.0782 -0.5390
30655SOL     OW97800   3.082   4.937  10.304 -0.2334 -0.0641 -0.1829
30655SOL    HW197801   3.029   4.970  10.377  0.9800  1.7042 -0.0303
30655SOL    HW297802   3.039   4.971  10.226 -0.1544  0.1543 -0.1340
30656SOL     OW97803   8.923   0.330  10.095 -0.1571  0.1654 -0.4899
30656SOL    HW197804   8.953   0.379  10.019 -0.2643 -0.2784 -0.8232
30656SOL    HW297805   8.881   0.252  10.059 -0.0442 -0.1433  0.0268
30657SOL     OW97806   3.832   7.612   2.640  0.1173  0.0887 -0.3011
30657SOL    HW197807   3.773   7.688   2.639 -0.5243 -0.3508  1.4493
30657SOL    HW297808   3.918   7.648   2.617 -0.1552  1.3602  0.5704
30658SOL     OW97809   0.678   5.273   0.451  0.3576 -0.2575  0.2932
30658SOL    HW197810   0.623   5.195   0.452  0.7411 -0.5362  2.2525
30658SOL    HW297811   0.747   5.252   0.388 -0.4104 -0.8530 -0.3780
30659SOL     OW97812   3.735   8.995   0.165  0.0302 -0.0732  0.1488
30659SOL    HW197813   3.803   9.058   0.188 -1.5265  2.0449 -0.7280
30659SOL    HW297814   3.779   8.932   0.108  1.1018  1.8353 -1.2721
30660SOL     OW97815   6.468   8.199   7.005  0.6056  0.6974  0.1217
30660SOL    HW197816   6.552   8.246   7.002  1.5312 -0.8121  0.9893
30660SOL    HW297817   6.455   8.180   7.098  0.8169 -1.6466 -0.2695
30661SOL     OW97818   8.375   5.004   4.575  0.1093  0.0541 -0.2793
30661SOL    HW197819   8.302   4.955   4.613 -0.1760  0.7342  0.0691
30661SOL    HW297820   8.439   5.011   4.646  0.3477 -0.1985 -0.4663
30662SOL     OW97821   4.522   3.969   1.525 -0.4088 -0.2249 -0.2560
30662SOL    HW197822   4.545   3.877   1.510  1.1991 -0.1132  1.1720
30662SOL    HW297823   4.565   3.991   1.608 -2.1308  1.3604  0.2843
30663SOL     OW97824   7.933   8.886   1.810  0.0957  0.5531  0.5247
30663SOL    HW197825   7.983   8.810   1.837 -0.1031 -0.2388 -1.1595
30663SOL    HW297826   7.841   8.858   1.814 -0.0420  1.0398  0.8632
30664SOL     OW97827   2.309   8.412   0.686 -0.4585  0.5216 -0.0010
30664SOL    HW197828   2.288   8.429   0.594 -0.0789 -1.0589 -0.4173
30664SOL    HW297829   2.250   8.341   0.711  0.4587 -0.0902  0.4978
30665SOL     OW97830   4.134   9.107   6.201  0.1626 -0.3799 -0.2773
30665SOL    HW197831   4.040   9.110   6.188  0.2806  1.8486 -1.0368
30665SOL    HW297832   4.171   9.115   6.113  1.0314  0.6913  0.1586
30666SOL     OW97833   5.906   2.901  10.115 -0.5966 -0.1513  0.2570
30666SOL    HW197834   5.901   2.849  10.035  0.4874 -0.7480  0.5570
30666SOL    HW297835   5.869   2.986  10.091  0.2542 -0.1210 -1.0341
30667SOL     OW97836   4.889   4.758   2.710  0.3758 -0.1481 -0.1308
30667SOL    HW197837   4.880   4.721   2.798 -1.6925 -1.1522 -0.7168
30667SOL    HW297838   4.840   4.840   2.714  0.6473  0.0217 -0.2432
30668SOL     OW97839  10.579   9.070   0.155  0.3579  0.6209 -0.2168
30668SOL    HW197840  10.627   9.025   0.225 -0.2246 -0.1328 -0.2888
30668SOL    HW297841  10.493   9.029   0.154  0.1220  1.1092 -0.9068
30669SOL     OW97842   4.431   1.715   0.925  0.0861 -0.0918  0.3043
30669SOL    HW197843   4.429   1.702   0.830  1.5336 -0.9831  0.3641
30669SOL    HW297844   4.517   1.753   0.942  1.2336 -2.9363  1.5358
30670SOL     OW97845   1.818   9.082  10.287  0.3673  0.6496 -0.0508
30670SOL    HW197846   1.896   9.044  10.325  0.6527  1.2170 -0.0560
30670SOL    HW297847   1.846   9.112  10.200  0.2501  1.2005  0.0970
30671SOL     OW97848   7.871   4.420   5.040 -0.7003  0.0648 -0.0476
30671SOL    HW197849   7.827   4.504   5.025 -0.4703  0.4627  1.3657
30671SOL    HW297850   7.963   4.443   5.049 -0.8357 -0.0791  2.0813
30672SOL     OW97851   7.608   9.128   4.690 -0.3007 -0.3716  1.0338
30672SOL    HW197852   7.528   9.085   4.721  0.1104 -0.4153  2.0840
30672SOL    HW297853   7.578   9.191   4.625 -1.0884 -1.0552  0.7188
30673SOL     OW97854   2.673   7.658   0.665  0.1232 -0.0141  0.1616
30673SOL    HW197855   2.661   7.635   0.758 -0.0841 -1.1373 -0.1238
30673SOL    HW297856   2.592   7.703   0.641 -0.4989 -1.0930  0.1433
30674SOL     OW97857   1.326   8.188   6.196 -0.2502  0.7233 -0.3539
30674SOL    HW197858   1.393   8.249   6.226 -1.5579  2.0155  0.0539
30674SOL    HW297859   1.328   8.117   6.260 -0.6491  1.7587  0.8539
30675SOL     OW97860   4.246   2.302   4.545 -0.0041 -0.3997  0.3145
30675SOL    HW197861   4.285   2.275   4.463  0.2877 -0.1804  0.3801
30675SOL    HW297862   4.231   2.220   4.593 -1.6270 -0.6801 -0.5858
30676SOL     OW97863   6.513  10.250   6.375  0.0993  0.2275  0.0358
30676SOL    HW197864   6.525  10.313   6.446 -0.0171  0.3383 -0.0409
30676SOL    HW297865   6.483  10.303   6.301 -2.9846 -0.2580  0.8035
30677SOL     OW97866   7.980   2.708   7.548 -0.0233 -0.0095 -0.0991
30677SOL    HW197867   7.972   2.791   7.500 -1.0453  0.7915  1.3823
30677SOL    HW297868   8.075   2.695   7.558  0.1575  0.7212 -0.7752
30678SOL     OW97869   6.349   2.604   3.858  0.0612  0.1451 -0.0749
30678SOL    HW197870   6.439   2.617   3.831  0.2137 -0.0590  0.3264
30678SOL    HW297871   6.324   2.520   3.820 -1.1126  1.7202 -3.1590
30679SOL     OW97872   3.862   8.618   6.548 -0.2895 -0.1388 -0.0928
30679SOL    HW197873   3.808   8.573   6.614  1.2408 -1.0620  0.5770
30679SOL    HW297874   3.894   8.548   6.491 -0.8988  0.5579 -1.3430
30680SOL     OW97875   5.373   2.276  10.611  0.5474 -0.4561 -0.1122
30680SOL    HW197876   5.468   2.266  10.607  0.8133  1.6358 -0.1279
30680SOL    HW297877   5.349   2.307  10.524 -0.2131 -1.2375 -0.1965
30681SOL     OW97878   8.948   8.273   2.508  0.0289  0.2983 -0.2939
30681SOL    HW197879   8.898   8.354   2.494 -0.9075  0.1638  1.9157
30681SOL    HW297880   8.999   8.263   2.427 -2.4430  1.1984 -2.0939
30682SOL     OW97881   3.107   5.476   9.142  0.3368 -0.4779 -0.2351
30682SOL    HW197882   3.040   5.421   9.099 -1.6853  1.4745  0.2039
30682SOL    HW297883   3.127   5.544   9.077  0.4936  0.0154  0.3186
30683SOL     OW97884   6.279   8.412   3.345 -0.2441 -0.3696  0.0892
30683SOL    HW197885   6.362   8.460   3.353 -0.4814  0.0282  0.1559
30683SOL    HW297886   6.306   8.324   3.316  0.1346  0.0162 -0.7693
30684SOL     OW97887   7.906   9.536  10.587 -0.1228 -0.4880 -0.5778
30684SOL    HW197888   7.860   9.468  10.636 -0.4681  0.2143  0.0987
30684SOL    HW297889   7.947   9.490  10.513 -1.1881 -1.2614 -0.7033
30685SOL     OW97890   3.423   0.946   6.881  0.0428  0.3870  0.1962
30685SOL    HW197891   3.335   0.979   6.901 -0.2207  0.2067 -0.6344
30685SOL    HW297892   3.421   0.927   6.787  0.4172 -1.2722  0.4815
30686SOL     OW97893   3.418   6.644   3.426 -0.3191 -0.6917  0.2815
30686SOL    HW197894   3.360   6.719   3.440  0.0322 -0.4950  0.6879
30686SOL    HW297895   3.412   6.594   3.507 -1.6538 -1.8784 -0.4932
30687SOL     OW97896   9.254   6.456   2.233 -0.3315  0.2357 -0.6387
30687SOL    HW197897   9.235   6.454   2.139  0.9642 -1.7467 -0.9041
30687SOL    HW297898   9.225   6.371   2.265  3.3479 -1.0326 -0.1897
30688SOL     OW97899   7.363   7.595   4.835 -0.3186  0.2525 -0.1273
30688SOL    HW197900   7.429   7.558   4.894 -0.6479 -0.6377 -0.2964
30688SOL    HW297901   7.396   7.576   4.747  0.1246  1.4948 -0.2553
30689SOL     OW97902   9.511   8.892   3.631 -0.4420  0.1883  0.1069
30689SOL    HW197903   9.564   8.883   3.552 -2.0559 -1.7747 -0.8511
30689SOL    HW297904   9.556   8.838   3.696 -0.5801 -0.4404 -0.3144
30690SOL     OW97905   1.692   4.377   5.518 -0.6292 -0.1313 -0.1402
30690SOL    HW197906   1.754   4.310   5.491  0.3572  0.3604  0.8456
30690SOL    HW297907   1.665   4.418   5.436  0.3629 -0.3445 -0.5915
30691SOL     OW97908   8.841   0.781  10.063  0.5048 -0.1904 -0.4145
30691SOL    HW197909   8.866   0.765  10.153 -0.8911 -0.4101 -0.0387
30691SOL    HW297910   8.819   0.875  10.060 -1.8743 -0.6777  0.1393
30692SOL     OW97911   6.073   3.721   9.672 -0.7384  0.1466  0.2179
30692SOL    HW197912   6.140   3.788   9.662 -0.3702 -0.1164  0.8404
30692SOL    HW297913   5.991   3.765   9.653 -0.4127  0.5477 -0.2566
30693SOL     OW97914   7.657   6.106   8.924  0.3321  0.0572  0.5328
30693SOL    HW197915   7.699   6.152   8.996  1.3659  0.6604 -0.4157
30693SOL    HW297916   7.729   6.082   8.866 -0.3794 -1.2038  0.1339
30694SOL     OW97917   4.693   8.135   2.671 -0.5835 -0.4559 -0.0263
30694SOL    HW197918   4.609   8.150   2.714 -1.2091 -0.9122 -1.0495
30694SOL    HW297919   4.686   8.046   2.636  0.5017 -0.6660  0.2666
30695SOL     OW97920   0.991   0.408   3.933  0.5491 -0.2126  0.3305
30695SOL    HW197921   0.922   0.376   3.875 -0.7063  0.1887  1.5509
30695SOL    HW297922   1.072   0.375   3.894 -0.2203  0.2201 -1.7376
30696SOL     OW97923   5.298   8.486   6.320 -0.5433 -0.5902  0.6233
30696SOL    HW197924   5.327   8.472   6.230 -0.8354 -0.2383  0.4705
30696SOL    HW297925   5.205   8.509   6.312 -0.3767  0.2347  0.9478
30697SOL     OW97926   8.986   3.861  10.365 -0.0403 -0.2325 -0.1683
30697SOL    HW197927   8.987   3.884  10.458  0.9988  0.1585 -0.2620
30697SOL    HW297928   8.993   3.766  10.364 -1.7799 -0.3907  0.1727
30698SOL     OW97929  10.127   9.823   5.799  0.2582  0.4728 -0.2604
30698SOL    HW197930  10.217   9.853   5.783  0.7101 -0.2876  0.7500
30698SOL    HW297931  10.134   9.728   5.801 -0.8472  0.3294 -1.6152
30699SOL     OW97932   5.014   3.085   5.353 -0.3393  0.1987 -0.2000
30699SOL    HW197933   5.023   3.158   5.292  0.1803 -0.2372 -0.6515
30699SOL    HW297934   5.083   3.099   5.418 -0.7936  0.5776  0.2095
30700SOL     OW97935   4.105  10.315   5.364  0.1053 -0.0148 -0.0480
30700SOL    HW197936   4.071  10.389   5.415  0.6401  0.0714  0.1929
30700SOL    HW297937   4.154  10.264   5.428  0.4363 -0.1271 -0.3926
30701SOL     OW97938   3.950   8.510   9.631 -0.7808  0.0391 -0.2741
30701SOL    HW197939   3.864   8.468   9.626 -2.0561  2.3703  0.4424
30701SOL    HW297940   3.934   8.590   9.681  1.9249  0.3318  0.2407
30702SOL     OW97941   5.043   2.858   2.908 -0.0011 -0.5360 -0.0137
30702SOL    HW197942   5.128   2.851   2.863  0.0652 -1.2944  0.2038
30702SOL    HW297943   5.031   2.951   2.923  1.1966 -0.4722  0.7163
30703SOL     OW97944   7.947   1.534   3.400 -0.1837 -0.1652 -0.3433
30703SOL    HW197945   8.003   1.508   3.473 -0.7561 -1.6604 -0.3814
30703SOL    HW297946   7.858   1.532   3.436 -0.5154 -1.3634 -1.1597
30704SOL     OW97947   3.079   8.900   6.186 -0.4330  0.2777 -0.7107
30704SOL    HW197948   3.142   8.908   6.115 -0.0688  1.9448 -0.2457
30704SOL    HW297949   3.006   8.958   6.161 -1.5974 -1.2674 -1.0226
30705SOL     OW97950   2.674   5.764   8.806  0.1544  0.1251 -0.7281
30705SOL    HW197951   2.719   5.768   8.891 -4.4249  2.0510  1.9505
30705SOL    HW297952   2.689   5.849   8.767 -0.5647  0.5389 -0.1283
30706SOL     OW97953   4.484   8.656   5.112 -0.3569 -0.0817 -0.1732
30706SOL    HW197954   4.485   8.747   5.081  0.6488 -0.4536 -1.3467
30706SOL    HW297955   4.569   8.645   5.155 -0.9223 -0.1714  0.9663
30707SOL     OW97956   6.641   9.200   8.413  0.2607  0.2881 -0.0823
30707SOL    HW197957   6.728   9.214   8.451 -0.3280 -1.1221  1.9385
30707SOL    HW297958   6.580   9.224   8.483 -1.0823  2.3729 -1.8441
30708SOL     OW97959   9.031   3.326   7.103  0.6670 -0.5113 -0.5843
30708SOL    HW197960   8.984   3.265   7.046  0.7601 -0.2013 -0.9963
30708SOL    HW297961   9.094   3.369   7.046 -0.9242  1.6455 -0.8246
30709SOL     OW97962   9.883   3.325   2.211  0.4009 -0.0529  0.2879
30709SOL    HW197963   9.789   3.309   2.209  0.7195 -2.0488 -0.6758
30709SOL    HW297964   9.895   3.397   2.149 -0.5095  0.4682  0.6861
30710SOL     OW97965  10.694   3.029   8.229  0.5397  0.3327  0.5024
30710SOL    HW197966  10.703   2.947   8.279  0.4278  1.2270  2.0494
30710SOL    HW297967  10.750   3.091   8.276 -1.7917  1.9759  1.2774
30711SOL     OW97968   5.381   5.727   9.206  0.0753  0.2594  0.5893
30711SOL    HW197969   5.469   5.755   9.230 -0.3716  1.3395  1.0718
30711SOL    HW297970   5.366   5.766   9.120 -0.4858  1.4331  1.1883
30712SOL     OW97971   7.190   1.254   1.338  0.6639  0.1850 -0.0634
30712SOL    HW197972   7.204   1.257   1.244 -0.6602  1.7303 -0.2599
30712SOL    HW297973   7.167   1.163   1.356  2.0122 -0.3766 -1.0280
30713SOL     OW97974   4.292   4.622   2.441  0.5538 -0.1332  0.5454
30713SOL    HW197975   4.293   4.544   2.387 -1.1494  0.1890 -0.0074
30713SOL    HW297976   4.335   4.595   2.523 -0.9388 -1.9747  0.7877
30714SOL     OW97977   3.305   1.664   4.786 -0.3696 -0.2080  0.5220
30714SOL    HW197978   3.334   1.623   4.704 -0.1582 -0.2821  0.6336
30714SOL    HW297979   3.250   1.737   4.758  0.5478  0.4118  0.2851
30715SOL     OW97980   1.432  10.324   5.886  0.2253  0.3323 -0.3210
30715SOL    HW197981   1.436  10.257   5.955 -1.3546  0.1249 -0.4054
30715SOL    HW297982   1.412  10.275   5.807  1.6371  0.6240 -0.8828
30716SOL     OW97983   5.319   7.710   4.891  0.0918 -0.4324  0.3048
30716SOL    HW197984   5.350   7.643   4.951 -0.5762 -1.1444 -0.1381
30716SOL    HW297985   5.249   7.668   4.840 -0.4351  0.6300  0.1158
30717SOL     OW97986   4.901   5.479   2.518 -0.4908 -0.3605  0.3925
30717SOL    HW197987   4.878   5.550   2.458 -0.3737  0.0444  0.8183
30717SOL    HW297988   4.838   5.487   2.590 -1.0933 -1.2894 -0.0064
30718SOL     OW97989   1.465   7.735   9.004 -0.0756 -0.6568  0.9384
30718SOL    HW197990   1.428   7.674   9.068  0.4189  0.9880  2.9175
30718SOL    HW297991   1.522   7.791   9.056  0.9525  0.2954 -1.1238
30719SOL     OW97992   6.075   5.105   0.066 -0.3032  0.6813  0.0802
30719SOL    HW197993   6.090   5.025   0.015 -3.2117  0.7353 -1.0187
30719SOL    HW297994   6.113   5.085   0.152  0.8712 -1.0685 -0.7792
30720SOL     OW97995   8.857   7.783   1.559 -0.2949  0.3813 -0.1636
30720SOL    HW197996   8.919   7.808   1.491 -1.4143  2.1336 -0.6149
30720SOL    HW297997   8.771   7.800   1.520 -1.0474 -1.1659  0.7441
30721SOL     OW97998   7.875   8.595   6.454  0.0014 -0.6452  0.7270
30721SOL    HW197999   7.836   8.525   6.401  0.8352 -0.3991 -0.2361
30721SOL    HW298000   7.895   8.554   6.538  0.4601 -1.5490  0.1768
30722SOL     OW98001   4.361   3.579   0.043 -0.7331  0.0293 -0.0501
30722SOL    HW198002   4.388   3.518   0.112  0.0675  0.3347 -0.0903
30722SOL    HW298003   4.279   3.617   0.075 -0.3823  0.1479  0.7201
30723SOL     OW98004   2.461   4.084  10.340  0.2651 -0.4494  0.0631
30723SOL    HW198005   2.438   4.109  10.251  0.0880 -3.0668 -0.7226
30723SOL    HW298006   2.380   4.095  10.389  0.3072  0.8044 -0.1161
30724SOL     OW98007   2.856   9.759   6.893  0.0758 -0.1299  0.8573
30724SOL    HW198008   2.781   9.797   6.847  1.9186 -0.1114 -2.4123
30724SOL    HW298009   2.855   9.667   6.869  1.8089  0.1377 -0.4302
30725SOL     OW98010   2.404   4.979   8.489 -0.7061 -0.2169  0.0287
30725SOL    HW198011   2.428   5.030   8.412 -1.4836 -0.3693 -0.3219
30725SOL    HW298012   2.485   4.971   8.539 -0.5622  1.3945  0.1109
30726SOL     OW98013   7.171   2.714   6.796  0.2462 -0.0338 -0.2042
30726SOL    HW198014   7.232   2.642   6.778  0.2462  0.4437 -2.3774
30726SOL    HW298015   7.224   2.793   6.788 -0.3244  0.3162 -0.5699
30727SOL     OW98016   2.888   9.726   5.779  0.3431 -0.2274 -0.4946
30727SOL    HW198017   2.840   9.766   5.706  0.8439  0.3403 -0.5247
30727SOL    HW298018   2.968   9.778   5.787  0.6183 -0.7090  0.0212
30728SOL     OW98019   7.299   4.535   7.772  0.0115 -0.6525 -0.1606
30728SOL    HW198020   7.377   4.493   7.809 -0.9908 -1.1787  1.4644
30728SOL    HW298021   7.226   4.493   7.817 -1.1948  0.3150 -1.1494
30729SOL     OW98022   8.510   0.659   1.862 -0.2225  0.0830  0.1504
30729SOL    HW198023   8.597   0.629   1.888 -0.6054  0.0262  1.4359
30729SOL    HW298024   8.483   0.718   1.932 -1.2354  0.0645 -0.2099
30730SOL     OW98025   3.172   1.794   6.266  0.5770 -0.3947 -0.2579
30730SOL    HW198026   3.255   1.791   6.314  0.1640 -0.1707  0.4804
30730SOL    HW298027   3.194   1.760   6.179  1.1019 -1.8895  0.4266
30731SOL     OW98028   8.642   2.534  10.378 -0.3474  0.1220 -0.3030
30731SOL    HW198029   8.561   2.536  10.328 -0.5284 -2.3956 -0.2332
30731SOL    HW298030   8.711   2.549  10.313 -0.7635  0.4760 -0.6694
30732SOL     OW98031   5.362   5.915   1.232 -0.0906 -0.4153 -0.2121
30732SOL    HW198032   5.333   5.924   1.323 -0.6120  0.4031 -0.4580
30732SOL    HW298033   5.458   5.911   1.239  0.0469  2.0293  0.2252
30733SOL     OW98034   2.467   9.185   2.229 -0.1426 -0.4199 -0.5833
30733SOL    HW198035   2.412   9.223   2.161  0.1340  0.8574 -0.1086
30733SOL    HW298036   2.416   9.110   2.261  0.4067 -2.1021 -3.2545
30734SOL     OW98037   0.233   7.044   3.360  0.5707  0.2845  0.7800
30734SOL    HW198038   0.324   7.027   3.334  0.4379  0.4845  0.1720
30734SOL    HW298039   0.180   6.998   3.294  0.2287 -0.1621  1.3545
30735SOL     OW98040   3.126   9.238   1.924  0.2405  0.1939  0.3975
30735SOL    HW198041   3.182   9.307   1.959  0.4806  0.6779 -0.8966
30735SOL    HW298042   3.186   9.169   1.897 -0.0726 -1.4042  3.3442
30736SOL     OW98043   8.033  10.455   5.776 -0.0942 -0.0926 -0.1478
30736SOL    HW198044   8.108  10.448   5.717 -1.4884  0.4223 -2.1285
30736SOL    HW298045   8.016  10.366   5.804  0.3146 -0.4372 -0.9536
30737SOL     OW98046   3.748   0.982   2.521  0.2715 -0.3771 -0.4457
30737SOL    HW198047   3.654   0.986   2.500  0.0950 -0.3247  0.3119
30737SOL    HW298048   3.755   0.908   2.581  0.4010  0.7812  1.0099
30738SOL     OW98049  10.496   7.016   9.964 -0.0786  0.4194 -0.7306
30738SOL    HW198050  10.559   7.045  10.031 -1.4127  0.7993  0.4227
30738SOL    HW298051  10.471   6.928   9.992  2.0356 -0.9657 -2.8027
30739SOL     OW98052   0.812   9.677  10.389  0.1904 -0.1664 -0.1650
30739SOL    HW198053   0.759   9.609  10.429  1.1572 -0.4641  0.6583
30739SOL    HW298054   0.797   9.668  10.295 -0.0422 -1.2180 -0.0350
30740SOL     OW98055   9.355  10.662   5.782 -0.2447 -0.6466 -0.1657
30740SOL    HW198056   9.272  10.661   5.734  0.6486 -0.7145 -1.7800
30740SOL    HW298057   9.420  10.691   5.717  0.9660 -0.3617  1.1205
30741SOL     OW98058   3.630   4.815   4.548 -0.0623  0.2109  0.0896
30741SOL    HW198059   3.612   4.724   4.523 -0.3778  0.5816 -1.0786
30741SOL    HW298060   3.719   4.831   4.517 -0.3857  0.6121 -0.6616
30742SOL     OW98061   0.290   5.237   1.007 -0.6170 -0.4092  0.3515
30742SOL    HW198062   0.214   5.277   0.965 -0.1047  0.6557  0.4165
30742SOL    HW298063   0.343   5.205   0.934  0.2925  1.4733  0.1304
30743SOL     OW98064   4.642   9.340   5.244 -0.5386 -0.0994  0.2110
30743SOL    HW198065   4.670   9.279   5.175 -1.6712  0.4415 -0.7567
30743SOL    HW298066   4.565   9.298   5.283 -0.2547 -0.1208  0.7593
30744SOL     OW98067  10.030   8.818   9.280  0.2184 -0.8280 -0.2465
30744SOL    HW198068  10.008   8.885   9.346 -0.2518 -0.5063 -0.7215
30744SOL    HW298069   9.980   8.843   9.203  0.1076 -1.6878 -0.4616
30745SOL     OW98070   0.887   0.583   4.569  0.0668  0.4753  0.0855
30745SOL    HW198071   0.884   0.607   4.476  0.0576  1.1797  0.2634
30745SOL    HW298072   0.795   0.575   4.595  0.0291  1.6719  0.3772
30746SOL     OW98073   5.888   2.861   0.133 -0.4059 -0.7892 -0.6568
30746SOL    HW198074   5.832   2.885   0.207 -1.1264 -1.2895 -1.0377
30746SOL    HW298075   5.946   2.794   0.168  0.4797  0.2516 -0.0543
30747SOL     OW98076   9.744   2.861   4.123  0.1850 -0.3959 -0.1084
30747SOL    HW198077   9.722   2.820   4.207  0.2515 -0.5501 -0.1652
30747SOL    HW298078   9.703   2.947   4.127  1.2214  0.0797  0.5765
30748SOL     OW98079   6.941   6.551   3.254 -0.2485  0.0230 -0.2284
30748SOL    HW198080   6.973   6.629   3.299 -0.2791 -0.3977  0.5324
30748SOL    HW298081   6.846   6.558   3.258 -0.3344  1.2502 -2.4513
30749SOL     OW98082  10.606   1.930   3.441 -0.1197 -0.9807 -0.0297
30749SOL    HW198083  10.611   1.875   3.363  2.9406 -0.0918 -0.5819
30749SOL    HW298084  10.687   1.912   3.488 -0.0315  1.4571  0.8743
30750SOL     OW98085   4.746   3.712   0.813  0.1744  0.0415 -0.1908
30750SOL    HW198086   4.761   3.805   0.794  1.7599 -0.3825 -1.1488
30750SOL    HW298087   4.832   3.671   0.804 -1.0615 -2.2469 -4.1342
30751SOL     OW98088   4.804   8.407   4.792 -0.4595 -0.1695  0.1790
30751SOL    HW198089   4.794   8.369   4.705  0.6719 -0.7520  0.2802
30751SOL    HW298090   4.714   8.426   4.821 -0.7997  0.7543 -1.4005
30752SOL     OW98091   6.756   7.388   9.317 -0.3682 -0.3930 -0.0893
30752SOL    HW198092   6.747   7.423   9.228 -0.3522  0.8227  0.3627
30752SOL    HW298093   6.688   7.433   9.367 -0.3474 -1.0340  0.5195
30753SOL     OW98094   8.145   0.242   2.076  0.1593  0.6897  0.0665
30753SOL    HW198095   8.228   0.207   2.109 -0.4971 -1.0727 -0.0501
30753SOL    HW298096   8.163   0.268   1.986  0.1826 -1.4414 -0.5958
30754SOL     OW98097   2.076   7.639  10.146  0.2185 -0.1394  0.0430
30754SOL    HW198098   2.152   7.597  10.186  1.4469  0.5827 -1.4602
30754SOL    HW298099   2.029   7.567  10.104  0.2592 -0.5279  0.6440
30755SOL     OW98100   1.837   9.693   6.472 -0.1326 -0.2731 -0.1776
30755SOL    HW198101   1.832   9.605   6.509  0.0796 -0.0274  0.4412
30755SOL    HW298102   1.803   9.750   6.541  0.9248  0.2632 -0.0901
30756SOL     OW98103   6.282   7.066   7.705  0.2164  0.0899 -0.1180
30756SOL    HW198104   6.343   7.135   7.732  0.9089 -0.1868 -0.9423
30756SOL    HW298105   6.213   7.113   7.659 -0.5065  0.4661  1.2937
30757SOL     OW98106   4.409   1.408   9.282 -0.2800  0.1789 -0.2376
30757SOL    HW198107   4.401   1.498   9.312 -2.1514 -1.0170  3.4860
30757SOL    HW298108   4.361   1.406   9.199 -0.6428  2.4807 -0.1536
30758SOL     OW98109   8.394   1.555   8.244 -0.1089  0.1127 -0.0395
30758SOL    HW198110   8.404   1.469   8.283 -1.1641 -0.2691 -0.5490
30758SOL    HW298111   8.459   1.610   8.287  1.6524 -1.2907 -0.7937
30759SOL     OW98112   8.076   3.165   5.990 -0.0040  0.2202  0.0131
30759SOL    HW198113   8.121   3.247   6.007  0.3262 -0.1114  0.7690
30759SOL    HW298114   8.000   3.167   6.049  1.1256 -0.9155  1.6136
30760SOL     OW98115   2.456   7.857   8.561 -0.0359  0.3348 -0.9783
30760SOL    HW198116   2.387   7.909   8.604  0.5596 -0.3946  0.9822
30760SOL    HW298117   2.409   7.792   8.510 -0.7915  0.6783 -0.7398
30761SOL     OW98118   5.561   0.911   9.326 -0.4736  0.3356  0.1977
30761SOL    HW198119   5.482   0.901   9.379 -0.6332 -0.6815 -0.2180
30761SOL    HW298120   5.602   0.824   9.328 -0.6275  0.2012 -1.5860
30762SOL     OW98121   2.636   8.783   5.512 -0.4795 -0.6986 -0.2283
30762SOL    HW198122   2.682   8.836   5.576 -0.4987  0.9423 -1.5117
30762SOL    HW298123   2.559   8.751   5.559  0.4132 -1.0381  1.0679
30763SOL     OW98124   1.295   3.879  10.533  0.5036 -0.8530 -0.1941
30763SOL    HW198125   1.269   3.803  10.584 -0.6824  0.0756  0.6546
30763SOL    HW298126   1.251   3.953  10.576 -0.9383 -0.0749 -2.8281
30764SOL     OW98127   0.974   6.726   3.675 -0.5267  0.3216 -0.4292
30764SOL    HW198128   0.983   6.650   3.734  0.7933  0.2538 -0.7007
30764SOL    HW298129   0.987   6.690   3.588  0.1489  0.8641 -0.5586
30765SOL     OW98130   6.881  10.438   1.022 -0.2837  0.2507 -0.0581
30765SOL    HW198131   6.806  10.493   1.002 -1.3843 -1.6294 -1.3618
30765SOL    HW298132   6.856  10.390   1.101  0.0742  0.4961  0.2132
30766SOL     OW98133   3.207   2.992   2.038 -0.8669  0.2699 -0.5092
30766SOL    HW198134   3.228   2.981   2.131 -0.2689  1.2446 -0.5138
30766SOL    HW298135   3.112   3.001   2.035 -0.9357 -0.2549 -0.0545
30767SOL     OW98136   4.354  10.203   3.222 -0.2353 -0.4673 -0.2745
30767SOL    HW198137   4.264  10.223   3.250 -0.3503 -1.5446  0.1834
30767SOL    HW298138   4.348  10.113   3.189  0.8879 -0.9669  0.8057
30768SOL     OW98139   0.093   3.387   4.514  0.2128 -0.4147  0.1756
30768SOL    HW198140   0.038   3.337   4.575  1.0712  1.2723  2.4943
30768SOL    HW298141   0.032   3.447   4.470 -0.3931 -1.5373 -0.5756
30769SOL     OW98142  10.507  10.717   8.955  0.7171  0.2759  0.3550
30769SOL    HW198143  10.527  10.727   8.862  0.3250 -0.2147  0.2140
30769SOL    HW298144  10.467  10.801   8.980 -0.3564 -0.0395 -0.2369
30770SOL     OW98145   9.285   4.416   1.321  0.0455  0.1762  0.4140
30770SOL    HW198146   9.301   4.509   1.329  0.3629  0.2821 -1.0528
30770SOL    HW298147   9.321   4.377   1.400  1.9296  1.0781  0.0357
30771SOL     OW98148   0.410  10.610   8.571 -0.0557 -0.4250 -0.0344
30771SOL    HW198149   0.400  10.657   8.654  0.9258  0.7635 -0.5464
30771SOL    HW298150   0.468  10.537   8.591  0.2539 -0.0852  0.3070
30772SOL     OW98151   2.881   9.811   5.271 -0.3620  0.0500 -0.0514
30772SOL    HW198152   2.825   9.742   5.236  0.1167 -0.1241 -0.4893
30772SOL    HW298153   2.913   9.858   5.194  0.3648 -0.0708  0.1662
30773SOL     OW98154   5.054   7.397   2.466 -0.1639  0.5023 -0.3006
30773SOL    HW198155   5.073   7.305   2.485 -0.4927  0.5328  0.2096
30773SOL    HW298156   5.020   7.397   2.377 -0.8652  0.0325 -0.0400
30774SOL     OW98157   9.222   7.518   2.246 -0.4076 -0.0329  0.0765
30774SOL    HW198158   9.161   7.591   2.261  0.4860  1.3157 -2.3114
30774SOL    HW298159   9.300   7.541   2.297 -1.0079 -0.6182  1.3050
30775SOL     OW98160   7.613   8.857  10.410 -0.5605 -0.7435 -0.1900
30775SOL    HW198161   7.630   8.855  10.316 -0.9383 -1.5041 -0.2482
30775SOL    HW298162   7.532   8.808  10.421 -0.3530 -0.9339  0.5664
30776SOL     OW98163   9.342   0.962   7.384 -0.7864 -0.2552 -0.6339
30776SOL    HW198164   9.333   1.041   7.332 -2.1369  0.1024  0.0890
30776SOL    HW298165   9.436   0.947   7.390 -0.4870  1.4743 -0.5272
30777SOL     OW98166   5.906   1.616   2.702  0.4948  0.4175  0.2809
30777SOL    HW198167   5.856   1.584   2.627  0.3961  1.5158 -0.1361
30777SOL    HW298168   5.994   1.581   2.689  0.3442  0.1525 -0.0491
30778SOL     OW98169   1.211   4.408   3.096 -0.4489  0.9701  0.4320
30778SOL    HW198170   1.222   4.400   3.191  0.2314 -2.4008  0.1988
30778SOL    HW298171   1.129   4.456   3.086 -2.1430 -1.1749  2.8188
30779SOL     OW98172   4.682   7.111  10.351 -0.0114 -0.3604  0.2010
30779SOL    HW198173   4.736   7.136  10.276 -0.2897 -1.9494 -0.5830
30779SOL    HW298174   4.627   7.188  10.368  1.0230  0.5253 -0.3197
30780SOL     OW98175   4.602   8.632   7.594 -0.2704  0.0145  0.0262
30780SOL    HW198176   4.548   8.562   7.630  1.5622 -1.9571 -0.8052
30780SOL    HW298177   4.542   8.684   7.541 -1.8811 -0.3262  1.4440
30781SOL     OW98178   0.110   8.337   8.474  0.1751 -0.2130 -0.9924
30781SOL    HW198179   0.055   8.261   8.496  0.7292 -0.7024 -1.2651
30781SOL    HW298180   0.131   8.376   8.559  2.2807 -2.0800 -0.5633
30782SOL     OW98181   9.366   6.871   1.721  0.1194  0.8091  0.0283
30782SOL    HW198182   9.350   6.942   1.659 -1.4906  0.7999  0.3903
30782SOL    HW298183   9.454   6.840   1.700  0.7912  2.7715 -0.2668
30783SOL     OW98184   3.816  10.352   5.818 -0.5537  0.1384  0.2494
30783SOL    HW198185   3.722  10.361   5.836 -0.4351  1.3508  0.3931
30783SOL    HW298186   3.824  10.366   5.724 -0.4037  1.2376  0.4157
30784SOL     OW98187   0.659   9.725   5.846  0.6071  0.6075 -0.5837
30784SOL    HW198188   0.667   9.759   5.757 -1.4506  2.0771 -0.2850
30784SOL    HW298189   0.732   9.766   5.894  1.7176 -0.1782 -1.5457
30785SOL     OW98190   5.138  10.013   9.976  0.4064 -0.0049 -0.7713
30785SOL    HW198191   5.185   9.945  10.023 -0.1122 -1.7159 -2.6105
30785SOL    HW298192   5.204  10.081   9.959  1.5022 -1.0584 -0.8082
30786SOL     OW98193   0.773   1.161   6.726 -0.3666 -0.3200  0.0604
30786SOL    HW198194   0.717   1.129   6.797  1.5636 -0.7123  1.4996
30786SOL    HW298195   0.742   1.250   6.709 -1.1955 -0.3958  1.0457
30787SOL     OW98196   3.667   3.723   8.521  0.9000 -0.1693 -0.1481
30787SOL    HW198197   3.632   3.641   8.557  0.9685 -0.2962 -0.3677
30787SOL    HW298198   3.732   3.695   8.457  0.1350  0.0387 -1.0275
30788SOL     OW98199   8.610   4.225   0.889  0.4216  0.1596 -0.5908
30788SOL    HW198200   8.660   4.303   0.864 -2.1010  1.5446 -1.6952
30788SOL    HW298201   8.577   4.190   0.806 -1.2432 -0.0787  0.1277
30789SOL     OW98202   3.413   9.680   7.819  0.2253  0.3857  0.4144
30789SOL    HW198203   3.369   9.670   7.735 -1.8209 -0.3963  1.5071
30789SOL    HW298204   3.384   9.765   7.852  1.0365  0.7007  0.3417
30790SOL     OW98205   3.763   8.751   4.351 -0.2834  0.2486  0.3819
30790SOL    HW198206   3.751   8.732   4.258 -1.7778  0.1761  0.5799
30790SOL    HW298207   3.851   8.790   4.356  0.0333 -0.2496 -0.9688
30791SOL     OW98208   7.297   5.851   5.924 -0.4254  0.0977  0.4181
30791SOL    HW198209   7.208   5.872   5.897 -0.7484  0.4555  1.6731
30791SOL    HW298210   7.286   5.789   5.997  0.3741 -0.3503  0.1701
30792SOL     OW98211   4.880   1.610   4.063  0.2300 -0.8517 -0.2865
30792SOL    HW198212   4.806   1.578   4.012 -0.8057 -2.1280  1.8861
30792SOL    HW298213   4.844   1.681   4.116  0.9129 -0.5391 -0.2264
30793SOL     OW98214   7.807   9.921   4.599 -0.6031 -0.4758 -0.4595
30793SOL    HW198215   7.900   9.940   4.611 -0.6314  0.6470 -1.7828
30793SOL    HW298216   7.772  10.000   4.558 -1.6440 -1.7861 -2.2370
30794SOL     OW98217   3.849   0.945   2.827 -0.2153  0.3917  0.0618
30794SOL    HW198218   3.933   0.906   2.802 -0.9127 -0.1302 -1.5924
30794SOL    HW298219   3.873   1.026   2.873  1.1888  0.4820 -0.7633
30795SOL     OW98220   1.371   2.389   6.167 -1.1065  0.8918 -0.3125
30795SOL    HW198221   1.293   2.441   6.150 -1.2635  0.2504 -1.7648
30795SOL    HW298222   1.400   2.361   6.080 -0.3814 -0.4845  0.3385
30796SOL     OW98223   9.191   5.165  10.299 -0.2657  0.4031  0.2862
30796SOL    HW198224   9.220   5.245  10.255  0.3649 -0.4677 -0.9525
30796SOL    HW298225   9.261   5.146  10.362 -0.1014  0.4857  0.1291
30797SOL     OW98226   9.514   9.522   8.027  0.3871 -0.3814 -0.3784
30797SOL    HW198227   9.434   9.471   8.044  0.6883 -1.0439 -0.8984
30797SOL    HW298228   9.493   9.610   8.058 -0.9469 -0.2586 -1.5321
30798SOL     OW98229   1.322   0.588   3.131 -0.5266 -0.1938 -0.1345
30798SOL    HW198230   1.362   0.507   3.100 -1.2859 -0.7972  0.4363
30798SOL    HW298231   1.292   0.568   3.220  1.3237  1.3847  0.9378
30799SOL     OW98232   4.842   1.731   0.537 -0.2648 -0.1319 -0.1754
30799SOL    HW198233   4.815   1.794   0.604 -0.7133 -0.7529  0.2339
30799SOL    HW298234   4.917   1.686   0.576 -0.3398 -0.2894 -0.2141
30800SOL     OW98235   2.206  10.095   5.373  0.7962  0.4322 -0.3639
30800SOL    HW198236   2.213  10.146   5.453 -0.4785  2.6967 -1.5781
30800SOL    HW298237   2.114  10.071   5.367  0.0620  3.2347 -2.6870
30801SOL     OW98238   9.686   6.713   4.275  0.1080 -0.2521 -0.0227
30801SOL    HW198239   9.748   6.785   4.273  0.0902 -0.2421 -1.4798
30801SOL    HW298240   9.736   6.638   4.308  0.4257  0.1601  0.4334
30802SOL     OW98241   2.546   9.257   8.841  0.0795 -0.2047  0.4851
30802SOL    HW198242   2.571   9.249   8.933  0.8800  1.2540  0.4328
30802SOL    HW298243   2.481   9.328   8.840  1.9159  1.5895 -0.3045
30803SOL     OW98244   7.398   0.733  10.571 -0.4314 -0.1063 -0.1972
30803SOL    HW198245   7.373   0.778  10.491 -0.9813  0.3916  0.2443
30803SOL    HW298246   7.387   0.799  10.640 -3.2715 -1.4241  0.7692
30804SOL     OW98247   4.970   3.110   4.658  0.2077 -0.6296 -0.7863
30804SOL    HW198248   5.032   3.062   4.713 -0.9564 -0.5702  0.6421
30804SOL    HW298249   4.885   3.076   4.683 -0.5352  1.0847 -0.8441
30805SOL     OW98250   8.470   4.852   7.709 -0.2623  0.2120  0.1607
30805SOL    HW198251   8.542   4.913   7.700  0.7267 -1.0346 -0.8152
30805SOL    HW298252   8.509   4.774   7.749 -1.3644 -0.0043  0.8711
30806SOL     OW98253   1.394   0.183   2.650  0.1630  0.6664 -0.0977
30806SOL    HW198254   1.334   0.193   2.576 -1.3509  0.4667  1.0604
30806SOL    HW298255   1.339   0.196   2.727  1.7113  0.9116  1.0094
30807SOL     OW98256  10.454   0.132   4.722 -0.0426 -0.3433  0.5048
30807SOL    HW198257  10.441   0.120   4.816  1.5451 -2.2707  0.5484
30807SOL    HW298258  10.544   0.101   4.706  0.2305  1.2572 -1.4417
30808SOL     OW98259   5.051   1.612   0.606  0.1447 -0.0915 -0.7196
30808SOL    HW198260   5.038   1.671   0.680 -1.2207 -0.4573 -0.6395
30808SOL    HW298261   5.104   1.540   0.640  2.8630  1.5870 -1.1039
30809SOL     OW98262   2.932   7.180   7.946 -0.5284 -0.0463 -0.0491
30809SOL    HW198263   2.953   7.247   8.012 -1.8355 -1.0244  1.4311
30809SOL    HW298264   2.948   7.097   7.991  2.1661 -0.8608 -2.2069
30810SOL     OW98265   2.425  10.002  10.500  0.8424 -0.1976  0.4555
30810SOL    HW198266   2.460   9.938  10.438  1.3456 -0.6476  1.1936
30810SOL    HW298267   2.362   9.952  10.553 -1.8042  0.7973 -1.4889
30811SOL     OW98268   6.870   4.479   9.929  0.3205 -0.2149  0.1993
30811SOL    HW198269   6.946   4.520   9.887  1.2707 -1.1170  0.9973
30811SOL    HW298270   6.834   4.547   9.986  1.6202 -0.3125  1.1755
30812SOL     OW98271   8.971   2.667   4.785  0.5154 -0.1893 -0.7414
30812SOL    HW198272   9.005   2.755   4.776 -0.0983  0.4700  2.2442
30812SOL    HW298273   9.049   2.611   4.789  0.9904  0.4735 -0.6369
30813SOL     OW98274   7.865   7.189   1.184  0.1931 -0.3393  0.2506
30813SOL    HW198275   7.925   7.116   1.196 -0.6870 -0.8709  1.6205
30813SOL    HW298276   7.778   7.152   1.199 -0.3273  0.8169  0.2160
30814SOL     OW98277   5.753   6.541   4.482  0.4062  0.0266 -0.0236
30814SOL    HW198278   5.691   6.526   4.554 -0.2327  0.5221 -0.4557
30814SOL    HW298279   5.697   6.553   4.405  1.0432  0.4588 -0.4259
30815SOL     OW98280   3.398   1.707   4.223 -0.6608 -0.0115  0.4765
30815SOL    HW198281   3.342   1.678   4.150 -0.0237 -0.4481  0.1563
30815SOL    HW298282   3.358   1.790   4.251 -0.9996  0.0943 -0.2753
30816SOL     OW98283   2.891   5.991   2.681 -0.1880  0.8893 -0.3170
30816SOL    HW198284   2.869   5.898   2.677 -1.7243  1.2292 -0.6250
30816SOL    HW298285   2.986   5.994   2.689 -0.1643 -0.7142  0.2566
30817SOL     OW98286   8.482   4.981   5.068  0.3328 -0.1479  0.2191
30817SOL    HW198287   8.562   4.940   5.099  0.4668  0.6234  0.9083
30817SOL    HW298288   8.447   4.919   5.003  0.1740 -1.6799  1.6994
30818SOL     OW98289   2.269   6.844  10.551  0.5998  0.0150 -0.2194
30818SOL    HW198290   2.347   6.843  10.495 -0.1960  0.2011 -1.3814
30818SOL    HW298291   2.258   6.754  10.579  0.3574 -0.3273 -1.3466
30819SOL     OW98292   7.887  10.270   0.026  0.5697  0.1151  0.0500
30819SOL    HW198293   7.919  10.266   0.116  2.0762 -2.1483 -0.4938
30819SOL    HW298294   7.962  10.302  -0.025 -0.0380  0.6995 -0.4981
30820SOL     OW98295   6.747   5.398   0.931  0.3866  0.0340 -0.3703
30820SOL    HW198296   6.765   5.491   0.914  0.4942 -0.0446 -0.7113
30820SOL    HW298297   6.792   5.380   1.013 -0.8312  0.6348  0.4453
30821SOL     OW98298  10.061   2.435   6.135 -0.5320  0.5625  0.0277
30821SOL    HW198299   9.970   2.415   6.113  0.0771 -0.9483 -1.2882
30821SOL    HW298300  10.110   2.360   6.103  1.0910  0.9174  1.5721
30822SOL     OW98301   0.576   1.604   4.086 -0.2675 -0.3887 -0.0790
30822SOL    HW198302   0.501   1.545   4.074 -1.0745  0.5354  0.2451
30822SOL    HW298303   0.642   1.572   4.025 -1.5632 -0.2105 -1.6602
30823SOL     OW98304   2.617   1.709   4.515  0.0986 -0.4150  0.3410
30823SOL    HW198305   2.580   1.797   4.517  1.6822  0.2754  2.1518
30823SOL    HW298306   2.556   1.658   4.462 -0.2135  2.0395 -1.8544
30824SOL     OW98307   3.903   9.309   1.196 -0.4617 -0.6666  0.0108
30824SOL    HW198308   3.893   9.230   1.250 -1.9990  0.8777  2.1609
30824SOL    HW298309   3.824   9.313   1.144 -0.6413 -0.2735  0.3105
30825SOL     OW98310   3.501   1.422   5.975  0.4921  0.2770  0.3757
30825SOL    HW198311   3.547   1.506   5.965  0.8143 -0.0512 -0.9649
30825SOL    HW298312   3.560   1.357   5.938 -0.5276 -0.3146 -0.2427
30826SOL     OW98313   7.176   1.110   2.086  0.5776 -0.0561  0.9256
30826SOL    HW198314   7.204   1.020   2.105 -2.0885 -1.2600 -0.3307
30826SOL    HW298315   7.081   1.107   2.093  0.2866  2.2262 -0.9189
30827SOL     OW98316   8.451   9.969   5.005  0.1198 -0.0046 -1.0559
30827SOL    HW198317   8.370  10.006   5.041  0.9227 -1.4062  2.6594
30827SOL    HW298318   8.422   9.895   4.951 -1.1412 -0.2792 -0.0634
30828SOL     OW98319   6.767   9.730   8.861  0.0192  0.5922  0.7203
30828SOL    HW198320   6.858   9.706   8.842 -0.7056 -1.7533 -0.1488
30828SOL    HW298321   6.764   9.824   8.845  2.0772  0.5816 -0.1540
30829SOL     OW98322   1.739  10.474   2.995 -0.0639  0.0275 -0.0793
30829SOL    HW198323   1.766  10.554   3.041  1.8230 -0.0811 -0.9027
30829SOL    HW298324   1.809  10.458   2.932  0.8342 -3.5441  1.5936
30830SOL     OW98325   2.346   9.808   9.474 -0.5653  0.1943  0.2637
30830SOL    HW198326   2.334   9.719   9.441 -0.1613  0.2080  0.0797
30830SOL    HW298327   2.259   9.847   9.470 -0.7435 -0.1898  0.3374
30831SOL     OW98328   2.379   9.399   6.606  0.1452  0.1825  0.2589
30831SOL    HW198329   2.452   9.443   6.651  0.5202 -0.4672  0.3050
30831SOL    HW298330   2.420   9.358   6.530 -0.2140  0.0133  0.1563
30832SOL     OW98331   2.124   0.431   3.848 -0.1660 -0.2224 -0.0475
30832SOL    HW198332   2.092   0.455   3.935  0.1786 -0.5621  0.1697
30832SOL    HW298333   2.049   0.450   3.790 -0.6416 -0.6715  0.4114
30833SOL     OW98334   4.048   6.912   6.674 -0.3705  0.2781  0.1807
30833SOL    HW198335   4.134   6.891   6.711 -1.0454 -1.7312  0.7501
30833SOL    HW298336   3.997   6.832   6.685 -2.6815  1.7422  0.8310
30834SOL     OW98337   7.612   8.834   0.678 -0.4386  0.4959  0.5610
30834SOL    HW198338   7.585   8.875   0.596 -1.6348  1.0555  1.2186
30834SOL    HW298339   7.695   8.875   0.700  1.2211 -1.4294 -1.6269
30835SOL     OW98340   5.656   3.361  10.607 -0.4391 -0.0461  0.5386
30835SOL    HW198341   5.645   3.411  10.526 -0.8439  0.3632  0.8377
30835SOL    HW298342   5.633   3.271  10.584 -1.0741  0.1705  0.3314
30836SOL     OW98343   3.879   1.289   3.306 -0.9359  0.2650  0.3641
30836SOL    HW198344   3.803   1.304   3.362 -1.1018  2.4912 -0.3729
30836SOL    HW298345   3.921   1.374   3.299  1.9519 -0.9677  1.1179
30837SOL     OW98346   0.377  10.386   7.393 -0.3572 -0.4313 -0.1278
30837SOL    HW198347   0.311  10.324   7.424 -1.4724  1.2098  0.9356
30837SOL    HW298348   0.451  10.375   7.452  0.0375 -1.7034 -0.8223
30838SOL     OW98349   0.899   0.007   5.924 -0.0316  0.3344 -0.9883
30838SOL    HW198350   0.814   0.029   5.886 -0.7033  1.0466  0.8444
30838SOL    HW298351   0.896   0.042   6.013  1.6626 -0.8399 -0.4139
30839SOL     OW98352   6.259   5.190   0.841 -0.0131  0.6089 -0.3189
30839SOL    HW198353   6.334   5.149   0.799 -0.4506 -0.9697  0.3498
30839SOL    HW298354   6.296   5.247   0.909  0.6054 -1.3188  1.0399
30840SOL     OW98355   2.661   1.591   1.625  0.5849 -0.0386  0.2496
30840SOL    HW198356   2.742   1.543   1.604  0.3308 -0.2709 -0.2127
30840SOL    HW298357   2.689   1.658   1.687  0.5996 -2.0381  2.5158
30841SOL     OW98358   6.518   5.023   0.793  0.1110  0.2397 -0.1371
30841SOL    HW198359   6.511   4.977   0.876  1.0336  0.8991  0.3159
30841SOL    HW298360   6.485   4.960   0.728 -0.2703 -0.4126  0.6699
30842SOL     OW98361  10.680   1.475   4.354  0.2981 -0.4265  0.2201
30842SOL    HW198362  10.602   1.528   4.338  1.5467  1.2384 -0.6645
30842SOL    HW298363  10.706   1.444   4.267  1.8620  0.9264  0.1542
30843SOL     OW98364   0.977   7.996   4.565  0.2555 -0.0195  0.0376
30843SOL    HW198365   0.888   8.012   4.535 -0.8695 -3.0870  1.2720
30843SOL    HW298366   0.987   7.901   4.559  3.5575  0.2393 -0.2593
30844SOL     OW98367   2.963   2.136  10.685 -0.3841 -0.4451 -0.0717
30844SOL    HW198368   3.025   2.094  10.625  0.6303 -1.0913  1.3672
30844SOL    HW298369   2.985   2.100  10.771 -2.2635 -0.1007  0.6009
30845SOL     OW98370   5.968   4.358   7.574  0.2116  0.1356 -0.1847
30845SOL    HW198371   5.894   4.386   7.521 -0.9122 -0.1961  1.1485
30845SOL    HW298372   5.994   4.274   7.537  0.1360  0.3913 -0.8410
30846SOL     OW98373   6.033   6.483   2.550  0.2310 -0.4076 -0.0617
30846SOL    HW198374   5.957   6.444   2.508  1.1803 -1.6902 -0.6674
30846SOL    HW298375   6.106   6.427   2.523  1.3227  0.5417  0.8372
30847SOL     OW98376   0.901   2.816   1.819  0.3016 -0.6527  0.3629
30847SOL    HW198377   0.969   2.876   1.852 -1.3129  1.1248  0.6317
30847SOL    HW298378   0.936   2.729   1.836  3.1407  0.1431 -0.8176
30848SOL     OW98379   2.356   3.789   5.401 -0.3230 -0.1235 -0.3758
30848SOL    HW198380   2.408   3.737   5.462 -0.3480  1.1254  0.7597
30848SOL    HW298381   2.419   3.823   5.338  0.3450  1.5415  1.1001
30849SOL     OW98382   3.131   1.438   7.125  0.1944 -0.4606 -0.1317
30849SOL    HW198383   3.050   1.406   7.164  0.8042 -2.2701 -0.2870
30849SOL    HW298384   3.115   1.531   7.111 -1.8603 -0.7801 -0.1787
30850SOL     OW98385   2.842   7.305   9.876  0.2712  0.2407  0.1156
30850SOL    HW198386   2.869   7.261   9.957 -0.6956  1.0178  0.8840
30850SOL    HW298387   2.897   7.383   9.871 -1.5974  1.7744  1.6328
30851SOL     OW98388   0.097   6.667   4.023  0.3034  0.8200  0.1236
30851SOL    HW198389   0.087   6.691   4.115  0.2709  0.6161  0.1741
30851SOL    HW298390   0.184   6.699   4.000  0.1230  1.2938  0.0911
30852SOL     OW98391   0.423   0.228   9.276 -0.0817  0.0354 -0.0759
30852SOL    HW198392   0.339   0.272   9.273  1.1694  2.8930  1.9175
30852SOL    HW298393   0.424   0.182   9.360 -0.2031 -1.3063 -0.7840
30853SOL     OW98394   9.954   4.559   9.798  0.2179 -0.4224 -0.1323
30853SOL    HW198395   9.881   4.605   9.839 -0.1719  0.2004 -1.4598
30853SOL    HW298396   9.960   4.596   9.710  0.1709 -2.5978 -1.1286
30854SOL     OW98397   3.690   7.700   5.623 -0.7007 -0.0694  0.4965
30854SOL    HW198398   3.636   7.736   5.552  0.5866  0.7389 -0.1002
30854SOL    HW298399   3.732   7.624   5.584 -1.9399 -1.1557  1.1904
30855SOL     OW98400   0.085  10.210   0.597  0.4472 -0.0807  0.0659
30855SOL    HW198401   0.136  10.195   0.677  0.4603  1.4237  0.3671
30855SOL    HW298402   0.000  10.168   0.614  0.1907  0.8397  1.1894
30856SOL     OW98403   8.813   2.986   0.178 -0.3642 -0.4752  0.2320
30856SOL    HW198404   8.909   2.989   0.176 -0.3747 -0.3936 -0.3297
30856SOL    HW298405   8.786   3.078   0.180 -0.4152 -0.4932  2.3259
30857SOL     OW98406   4.321   4.280   7.015  0.3360 -0.0913 -0.1392
30857SOL    HW198407   4.321   4.193   6.975  1.4780 -0.1103 -0.1362
30857SOL    HW298408   4.313   4.340   6.941 -1.9861 -0.1784 -0.0506
30858SOL     OW98409   3.002   1.357  10.276 -0.8710 -0.0162 -0.2522
30858SOL    HW198410   3.027   1.445  10.303 -0.8896  0.2645 -1.1085
30858SOL    HW298411   3.007   1.359  10.180 -1.0681 -0.8867 -0.2911
30859SOL     OW98412   0.802   9.226   5.619 -0.6446  0.4392  0.1292
30859SOL    HW198413   0.860   9.294   5.584  0.3547 -1.2789 -1.7536
30859SOL    HW298414   0.845   9.196   5.699 -1.1728  2.0516  1.0634
30860SOL     OW98415  10.445   8.147   0.645 -0.0940  0.4251 -0.1449
30860SOL    HW198416  10.382   8.117   0.712  0.7402 -2.3509 -0.5027
30860SOL    HW298417  10.392   8.159   0.566 -0.4442 -0.2762 -0.0202
30861SOL     OW98418   2.789   7.585   3.360 -0.2693 -0.1833 -0.1428
30861SOL    HW198419   2.761   7.583   3.269 -0.2211 -0.7963 -0.1486
30861SOL    HW298420   2.866   7.528   3.363 -0.0795  0.0824  0.2196
30862SOL     OW98421  10.467  10.142   1.995  0.1948 -0.4600 -0.6845
30862SOL    HW198422  10.554  10.126   2.031 -0.0873  0.4258  0.4621
30862SOL    HW298423  10.457  10.237   1.995 -0.4159 -0.5054 -1.7111
30863SOL     OW98424   6.514   5.940   6.844 -0.0048 -0.3242 -0.2820
30863SOL    HW198425   6.443   5.903   6.792 -0.7495 -1.8589  1.7178
30863SOL    HW298426   6.528   5.878   6.915 -0.6588  2.6833  2.7506
30864SOL     OW98427   7.256   3.728   3.125 -0.2921 -0.0916 -0.3855
30864SOL    HW198428   7.319   3.718   3.054  0.2730 -0.7019  0.1867
30864SOL    HW298429   7.309   3.752   3.201 -0.8734  0.4343 -0.1313
30865SOL     OW98430   9.557   5.343   1.457 -0.3727 -0.0917  0.0402
30865SOL    HW198431   9.586   5.319   1.545 -0.8297  0.1336  0.2551
30865SOL    HW298432   9.471   5.382   1.470  0.0808  1.0887 -0.3640
30866SOL     OW98433   0.858   8.370   2.031 -0.5085  0.1594 -0.0391
30866SOL    HW198434   0.784   8.416   2.070 -0.4585 -0.2206  0.5336
30866SOL    HW298435   0.916   8.439   2.000 -1.9791  0.4929 -2.3036
30867SOL     OW98436   5.144   4.719   5.913 -0.0446  0.6133  0.0947
30867SOL    HW198437   5.107   4.793   5.865 -0.0574  0.7478  0.3105
30867SOL    HW298438   5.122   4.643   5.860  0.2999  0.8030 -0.3275
30868SOL     OW98439   1.941   2.451   9.955 -0.1288 -0.2910 -0.0198
30868SOL    HW198440   1.867   2.427  10.009  0.3224  0.7249  1.0928
30868SOL    HW298441   1.993   2.510  10.009  0.3899  0.7028 -1.5201
30869SOL     OW98442   5.989   6.738   6.853  0.1325  0.1414  0.4849
30869SOL    HW198443   5.975   6.832   6.865  1.8938  0.0942  5.3389
30869SOL    HW298444   6.070   6.733   6.803 -0.7352  1.0827 -1.1073
30870SOL     OW98445   1.872   5.397   4.463 -0.6338 -0.5957  0.4350
30870SOL    HW198446   1.816   5.424   4.390  0.0609  0.3938  0.2427
30870SOL    HW298447   1.847   5.455   4.535  0.3808  0.1118  0.2346
30871SOL     OW98448   4.502   2.676   4.499 -0.2966 -0.4547 -0.0417
30871SOL    HW198449   4.542   2.749   4.452  0.3973 -1.3059 -0.8123
30871SOL    HW298450   4.409   2.698   4.503 -0.0286  0.7221  0.2167
30872SOL     OW98451   0.495   3.709   5.482 -0.3553  0.2035 -0.0009
30872SOL    HW198452   0.581   3.670   5.494 -0.9853 -1.8558 -1.7391
30872SOL    HW298453   0.505   3.769   5.409 -0.3642  0.0910 -0.0939
30873SOL     OW98454   1.641   7.642   5.759 -0.1278  0.7188  0.2917
30873SOL    HW198455   1.679   7.567   5.805 -1.8415  0.4594  1.3589
30873SOL    HW298456   1.566   7.668   5.812 -1.2061  1.4627 -1.4884
30874SOL     OW98457   0.480   4.319   0.047  0.2365  0.1360 -0.5402
30874SOL    HW198458   0.556   4.327  -0.010  0.2080  1.0458 -0.4621
30874SOL    HW298459   0.504   4.367   0.126 -0.1474 -0.1834 -0.2229
30875SOL     OW98460   6.092   6.584   3.496 -0.0577  0.3298 -0.2284
30875SOL    HW198461   6.061   6.644   3.429  0.3023  0.2964 -0.4303
30875SOL    HW298462   6.155   6.635   3.546 -0.2692  0.3319  0.0350
30876SOL     OW98463   6.145   1.950   3.690 -0.5544 -0.0460  0.8395
30876SOL    HW198464   6.081   1.896   3.643  0.6354 -1.5760  0.9025
30876SOL    HW298465   6.177   2.012   3.624  1.1084 -2.1771 -0.4895
30877SOL     OW98466   4.804   2.270   1.745 -0.3493 -1.0202  0.1527
30877SOL    HW198467   4.797   2.192   1.689 -0.5530 -2.2623  1.8147
30877SOL    HW298468   4.716   2.308   1.744 -0.7858 -1.9712  0.8761
30878SOL     OW98469   8.464   0.178   4.991 -0.0910 -0.2554  0.0562
30878SOL    HW198470   8.455   0.158   4.897  0.6722  1.6354 -0.4650
30878SOL    HW298471   8.558   0.189   5.003 -0.3396  1.5255  0.5758
30879SOL     OW98472   1.456   2.961   0.666 -0.1961  0.0582 -0.4511
30879SOL    HW198473   1.397   2.890   0.640 -1.6882  0.3461  1.8337
30879SOL    HW298474   1.405   3.012   0.729  2.4174  0.4251  1.5336
30880SOL     OW98475   3.182   7.509   5.049 -0.0767  0.4780  0.0602
30880SOL    HW198476   3.154   7.566   4.978  0.2396  1.0732  0.4060
30880SOL    HW298477   3.159   7.421   5.020 -0.5824  0.7829 -0.4708
30881SOL     OW98478   3.915   4.362   5.861  0.0665 -0.5704 -0.1492
30881SOL    HW198479   3.859   4.384   5.787  1.2523  1.7747 -0.4596
30881SOL    HW298480   3.982   4.304   5.824 -0.4797 -1.0239 -0.4404
30882SOL     OW98481   1.658  10.298  10.428  0.6227  0.3284  0.3229
30882SOL    HW198482   1.738  10.345  10.402 -0.3757  2.1134  0.3375
30882SOL    HW298483   1.653  10.311  10.523  0.5662 -0.2129  0.3972
30883SOL     OW98484   7.230   6.797   0.174  0.5476  0.0574  0.3735
30883SOL    HW198485   7.182   6.872   0.138 -0.8542 -1.2394 -0.5523
30883SOL    HW298486   7.185   6.720   0.140  1.1863 -1.2516  2.3071
30884SOL     OW98487   1.937   7.432   5.509  0.1744  0.0291 -0.1036
30884SOL    HW198488   1.969   7.437   5.599  3.5367  1.4261 -1.2264
30884SOL    HW298489   1.922   7.339   5.494 -1.0961 -0.1679  2.0474
30885SOL     OW98490   6.567   4.516   2.501 -0.0466 -0.2768  0.0156
30885SOL    HW198491   6.541   4.478   2.417 -1.3391  1.6931 -0.5644
30885SOL    HW298492   6.655   4.550   2.485 -0.6912  1.0442 -0.9347
30886SOL     OW98493   1.150   9.797   1.469  0.0473  0.2152  0.1490
30886SOL    HW198494   1.205   9.724   1.443  0.8392  1.2089 -1.0273
30886SOL    HW298495   1.203   9.875   1.453 -0.8404  1.0794  1.2123
30887SOL     OW98496   6.515   5.906  10.325  0.1350 -0.1656  0.4455
30887SOL    HW198497   6.605   5.932  10.344 -0.1035  1.6169 -0.6462
30887SOL    HW298498   6.479   5.978  10.273 -1.4758 -1.4917 -0.3973
30888SOL     OW98499   4.401   6.961   3.982 -0.9343 -0.3891 -0.3558
30888SOL    HW198500   4.420   6.967   3.889  1.9634 -0.4820  0.1481
30888SOL    HW298501   4.347   7.038   4.001 -0.3614  0.4107 -1.8487
30889SOL     OW98502   5.936   4.269   9.586 -0.8141  0.7943  0.2356
30889SOL    HW198503   5.980   4.337   9.534 -1.8448  0.6154 -0.9108
30889SOL    HW298504   5.893   4.318   9.657 -0.3088  1.1685  0.2876
30890SOL     OW98505   0.673  10.631   7.110 -0.2048 -0.0813 -0.0262
30890SOL    HW198506   0.615  10.703   7.084 -0.5181 -0.8166 -1.5249
30890SOL    HW298507   0.746  10.674   7.154 -1.7754  0.8843  1.7932
30891SOL     OW98508   6.538   0.896   9.371  0.4324  0.0214 -0.0734
30891SOL    HW198509   6.514   0.826   9.310 -0.6393  1.3374 -1.2278
30891SOL    HW298510   6.535   0.855   9.457 -1.2721 -1.0896 -0.6088
30892SOL     OW98511   4.524   8.215   3.480  0.2758  0.2457 -0.6034
30892SOL    HW198512   4.476   8.235   3.561  3.3884  1.2079  1.1752
30892SOL    HW298513   4.545   8.300   3.442  0.7801 -0.1294 -1.1924
30893SOL     OW98514   7.905   4.234  10.492 -0.5569 -0.0421  0.3643
30893SOL    HW198515   7.921   4.201  10.580 -1.0042 -0.7011  0.2051
30893SOL    HW298516   7.948   4.171  10.434 -1.1893 -0.2132  0.0698
30894SOL     OW98517   2.620   3.082   2.124 -0.5919  0.0689 -0.0978
30894SOL    HW198518   2.578   3.077   2.038  1.2186  1.3816 -1.1435
30894SOL    HW298519   2.624   3.176   2.143 -0.5645 -0.1806  1.2233
30895SOL     OW98520  10.178  10.187   0.892  0.1488  0.0293 -0.1311
30895SOL    HW198521  10.087  10.158   0.894  0.1501  0.0520  0.3082
30895SOL    HW298522  10.225  10.124   0.947  0.8278 -1.4016 -2.2002
30896SOL     OW98523   7.903   1.664   1.955  0.5189  0.5161 -0.1487
30896SOL    HW198524   7.938   1.705   2.034 -0.7428  1.1807  0.0848
30896SOL    HW298525   7.971   1.677   1.889  0.7210  1.7758  0.2870
30897SOL     OW98526   3.572   4.487   2.232  0.3499  0.1560 -0.3845
30897SOL    HW198527   3.579   4.489   2.136 -0.8533 -1.1748 -0.5193
30897SOL    HW298528   3.529   4.570   2.254 -0.4381 -0.0555 -1.0926
30898SOL     OW98529   7.653   7.300   8.848 -0.4772 -0.0156  0.2680
30898SOL    HW198530   7.688   7.373   8.797 -0.9865  0.0392 -0.0042
30898SOL    HW298531   7.577   7.337   8.893  0.4205  0.1648  1.7161
30899SOL     OW98532   1.704   8.675   1.852  0.2160 -0.5072 -0.7527
30899SOL    HW198533   1.709   8.585   1.885  4.4031 -0.5381 -0.9798
30899SOL    HW298534   1.731   8.729   1.926 -0.1545  0.3958 -1.2625
30900SOL     OW98535   5.471   3.772   4.891 -0.2300 -0.4376 -0.6403
30900SOL    HW198536   5.405   3.805   4.952  0.6999  0.3997 -0.0579
30900SOL    HW298537   5.488   3.845   4.832 -0.0153 -0.7370 -0.9576
30901SOL     OW98538   9.295  10.043   4.554  0.0110  0.3804 -0.3251
30901SOL    HW198539   9.209  10.003   4.539 -0.0106 -0.0221  0.7906
30901SOL    HW298540   9.310  10.097   4.476 -1.3116  0.5738 -0.4708
30902SOL     OW98541   2.893   3.706   7.343 -0.1451  0.3953 -0.1364
30902SOL    HW198542   2.884   3.694   7.249 -2.2585 -2.9253  0.3373
30902SOL    HW298543   2.809   3.741   7.371  0.2936  0.8870  0.6033
30903SOL     OW98544   4.331  10.265   8.849 -0.4620  0.4450 -1.1182
30903SOL    HW198545   4.243  10.302   8.842 -0.2195  1.1378 -0.5943
30903SOL    HW298546   4.365  10.268   8.759 -1.5904 -1.4630 -1.6766
30904SOL     OW98547   3.774   2.615   3.826  0.3593 -0.1676  0.4221
30904SOL    HW198548   3.718   2.688   3.853 -0.5442 -0.2175 -1.1618
30904SOL    HW298549   3.856   2.656   3.799  0.3202  0.1309  0.7536
30905SOL     OW98550   6.344   5.210   0.292 -0.0742  0.0075  0.0529
30905SOL    HW198551   6.293   5.129   0.298 -0.7215  0.4834  1.0982
30905SOL    HW298552   6.365   5.232   0.382 -0.5104  1.3779 -0.1605
30906SOL     OW98553   9.046   5.064   5.732 -0.0818  0.1501 -0.1842
30906SOL    HW198554   9.093   4.983   5.755 -2.0946 -1.1447 -0.4029
30906SOL    HW298555   9.046   5.115   5.813  0.4075 -0.4659  0.2216
30907SOL     OW98556   2.965   1.556   0.146  0.5477 -0.7398 -0.4213
30907SOL    HW198557   3.018   1.483   0.113 -0.0784 -0.3250 -2.5084
30907SOL    HW298558   3.024   1.631   0.144  0.7098 -0.8541  0.0801
30908SOL     OW98559   4.003   1.606   3.339  0.0117  0.0576 -0.0117
30908SOL    HW198560   3.938   1.660   3.294 -0.5709 -1.6212 -1.2894
30908SOL    HW298561   4.011   1.645   3.426 -1.9809  0.8887 -0.1555
30909SOL     OW98562   3.983   6.115   6.239  0.3505  0.0044 -0.6074
30909SOL    HW198563   4.040   6.192   6.237  1.5174 -0.8636 -2.4871
30909SOL    HW298564   4.019   6.061   6.309  0.5106  0.4182 -0.3635
30910SOL     OW98565   6.837   4.211   4.079 -0.2520  0.2964 -0.5818
30910SOL    HW198566   6.848   4.215   4.174  0.7347 -0.2466 -0.6559
30910SOL    HW298567   6.750   4.175   4.067  0.1877 -1.0909  0.1504
30911SOL     OW98568   5.768   5.649  10.617  0.5556  0.1850 -0.1391
30911SOL    HW198569   5.854   5.665  10.580  0.7247 -0.4584 -0.0450
30911SOL    HW298570   5.785   5.600  10.698  0.0655 -1.3263 -0.8962
30912SOL     OW98571   0.739   4.301   7.137 -0.1935 -0.5567 -0.0587
30912SOL    HW198572   0.699   4.225   7.095  0.7049 -0.0259 -1.9966
30912SOL    HW298573   0.782   4.348   7.066 -0.4520  1.6247  1.1263
30913SOL     OW98574   6.195  10.724   7.213 -0.0659  0.3395 -0.0576
30913SOL    HW198575   6.183  10.746   7.121  0.6396 -3.6723 -1.2932
30913SOL    HW298576   6.120  10.764   7.258 -1.0309  1.4507 -2.5173
30914SOL     OW98577   6.386   1.121   9.316  0.2628  0.1149 -0.4293
30914SOL    HW198578   6.431   1.057   9.372 -2.4490 -0.9124  0.7347
30914SOL    HW298579   6.400   1.205   9.360  0.5394 -0.2706  0.2264
30915SOL     OW98580   5.136  10.091   8.674 -0.4604 -0.2912 -0.7308
30915SOL    HW198581   5.134  10.168   8.618  0.3639 -1.2338 -2.0885
30915SOL    HW298582   5.194  10.030   8.630  0.9163 -0.7787  1.5652
30916SOL     OW98583   9.974   0.535   3.653 -0.3618  0.0098  0.2238
30916SOL    HW198584   9.962   0.442   3.671  1.7302 -0.0935  1.4407
30916SOL    HW298585  10.035   0.565   3.721  0.5884  1.8015 -1.3114
30917SOL     OW98586   7.921   5.420  10.283 -0.2574  0.9001 -0.4268
30917SOL    HW198587   7.859   5.447  10.215 -1.0493 -0.0195 -0.0884
30917SOL    HW298588   7.893   5.332  10.307  0.2221  1.0737  0.8439
30918SOL     OW98589   8.386   7.708   8.093 -0.2194 -0.6273 -0.6490
30918SOL    HW198590   8.331   7.767   8.041  2.1645  1.1561 -1.3278
30918SOL    HW298591   8.439   7.766   8.147 -0.5337 -2.3611  1.6425
30919SOL     OW98592   9.645   7.879  10.554  0.6683  0.3949 -0.1719
30919SOL    HW198593   9.550   7.875  10.557  0.6854  0.4150  0.4046
30919SOL    HW298594   9.665   7.973  10.558  0.7304  0.3625  0.3045
30920SOL     OW98595   1.404   1.855   5.536  0.1258  0.1302  0.4707
30920SOL    HW198596   1.464   1.929   5.540 -0.4374  0.5518  1.6059
30920SOL    HW298597   1.457   1.780   5.563  0.3719  0.3472  0.5943
30921SOL     OW98598   0.140   5.682   3.823  0.7017  0.5836 -0.8314
30921SOL    HW198599   0.171   5.612   3.880 -0.4094 -0.6253 -1.6666
30921SOL    HW298600   0.045   5.684   3.837  0.8052  2.7044  0.0112
30922SOL     OW98601   1.234   4.377   7.390  0.0315  0.6112  0.4454
30922SOL    HW198602   1.327   4.399   7.396 -0.0624  0.7683  1.3809
30922SOL    HW298603   1.220   4.312   7.459 -0.3294 -0.2362 -0.4016
30923SOL     OW98604   3.794   5.873   6.929 -0.0388  0.1941  0.3925
30923SOL    HW198605   3.840   5.952   6.902 -0.7201  0.2660 -0.6394
30923SOL    HW298606   3.858   5.803   6.920 -0.9014 -0.3395 -4.5675
30924SOL     OW98607   8.174   8.020   3.715 -0.2385 -0.1681  0.3868
30924SOL    HW198608   8.121   7.944   3.737 -1.6385  0.4407 -0.7055
30924SOL    HW298609   8.121   8.069   3.651  1.3667  0.8066 -0.2735
30925SOL     OW98610   7.597   5.732   6.070 -0.0568 -0.7429 -0.5576
30925SOL    HW198611   7.561   5.698   6.152  2.2526 -0.1311  0.7844
30925SOL    HW298612   7.605   5.655   6.014  0.1961 -1.5271  0.5244
30926SOL     OW98613   1.146  10.499   7.623 -0.0462  0.2264  0.1739
30926SOL    HW198614   1.202  10.544   7.687 -0.2252  0.5301  0.1215
30926SOL    HW298615   1.178  10.409   7.622  1.6588  0.7677 -1.1920
30927SOL     OW98616   8.369   9.413   4.744  0.6736 -0.2006  0.5683
30927SOL    HW198617   8.401   9.499   4.718  0.0828 -0.4332 -1.0436
30927SOL    HW298618   8.280   9.409   4.708  0.4715 -1.2655  1.1454
30928SOL     OW98619  10.188   0.570   1.703 -0.2415  0.1284  0.4774
30928SOL    HW198620  10.222   0.567   1.793  0.8313 -0.4118  0.0784
30928SOL    HW298621  10.195   0.479   1.673  2.0533  0.7153 -1.0605
30929SOL     OW98622   0.462   0.771   9.361 -0.1761 -0.4707  0.1937
30929SOL    HW198623   0.445   0.709   9.290  0.7313  1.5457 -1.9324
30929SOL    HW298624   0.387   0.830   9.360 -0.1305 -0.3957  0.8994
30930SOL     OW98625   4.265   1.948   5.027 -0.2415 -0.1515  0.3223
30930SOL    HW198626   4.262   1.852   5.032  1.1007 -0.2649 -0.5129
30930SOL    HW298627   4.183   1.977   5.068 -0.3531 -1.6202  1.2072
30931SOL     OW98628   3.917   9.167   7.542 -0.1379 -0.5361  0.0384
30931SOL    HW198629   3.892   9.124   7.460 -3.7418 -2.4598  1.8768
30931SOL    HW298630   3.944   9.096   7.599  0.6414  0.5580  1.0899
30932SOL     OW98631   0.274   5.517   1.349  0.2571  0.0576 -0.7318
30932SOL    HW198632   0.268   5.603   1.307 -1.4377  0.6143  0.5272
30932SOL    HW298633   0.364   5.513   1.382  0.1055  1.7624 -0.0070
30933SOL     OW98634   0.702   1.733   1.121  0.0450 -0.0523  0.1422
30933SOL    HW198635   0.623   1.757   1.170 -1.0387 -2.0324 -0.5048
30933SOL    HW298636   0.672   1.666   1.060  2.3479 -1.2059  0.1922
30934SOL     OW98637   4.989   1.267   3.174  0.5480 -0.6051 -0.2160
30934SOL    HW198638   4.979   1.177   3.203 -0.0810 -0.6514 -0.5627
30934SOL    HW298639   4.909   1.286   3.125 -0.0604  0.6618  1.1999
30935SOL     OW98640   8.827   3.893   1.685  0.1565  0.2873  0.4981
30935SOL    HW198641   8.762   3.956   1.654 -2.6570 -2.2690  0.7835
30935SOL    HW298642   8.821   3.820   1.623  1.2353 -0.9365  1.7698
30936SOL     OW98643   2.776   3.641   4.789  0.1347  0.3484 -0.0808
30936SOL    HW198644   2.696   3.693   4.801 -0.6953 -1.2463  1.6980
30936SOL    HW298645   2.812   3.631   4.877  0.7922 -1.2902 -0.5065
30937SOL     OW98646   4.102   3.932   4.166  0.3055  0.0931  0.3327
30937SOL    HW198647   4.177   3.948   4.109 -0.1814  1.3731  0.0298
30937SOL    HW298648   4.031   3.910   4.106 -0.4766  2.4404  0.3139
30938SOL     OW98649   0.899   9.145   5.035  0.2951 -0.5389  0.6464
30938SOL    HW198650   0.945   9.192   5.104 -0.6917 -2.1109  2.4680
30938SOL    HW298651   0.943   9.171   4.954  1.4753  1.3761  1.8482
30939SOL     OW98652   8.308   4.964   1.682 -0.2081 -0.0588  0.1795
30939SOL    HW198653   8.275   5.045   1.722  2.2436  1.4121 -0.5590
30939SOL    HW298654   8.253   4.895   1.720 -1.0567  1.7177  2.4475
30940SOL     OW98655  10.667   3.215   5.996  0.0962  0.3115 -0.7860
30940SOL    HW198656  10.713   3.149   5.944  0.7925 -1.6608  2.0482
30940SOL    HW298657  10.590   3.169   6.030  1.0625  0.5232  1.9914
30941SOL     OW98658   6.955   3.492   6.975 -0.5366  0.0514 -0.1610
30941SOL    HW198659   6.934   3.498   7.068  0.3047 -1.2410  0.1235
30941SOL    HW298660   7.050   3.498   6.972 -0.5981  0.8483 -1.0252
30942SOL     OW98661   6.305   9.925   2.320 -0.4203  0.1334  0.0417
30942SOL    HW198662   6.312  10.009   2.274  0.8767  0.8818  1.5036
30942SOL    HW298663   6.332   9.945   2.410  1.7823 -2.1799 -0.0030
30943SOL     OW98664   5.602   8.534   5.107  0.3469  0.6901 -0.8663
30943SOL    HW198665   5.602   8.573   5.019  0.6110  0.1427 -1.1172
30943SOL    HW298666   5.515   8.553   5.142  0.5134  1.5913 -0.9404
30944SOL     OW98667   0.769   0.842   6.548  0.4245  0.3933 -0.1706
30944SOL    HW198668   0.767   0.749   6.571  0.0994  1.0670  2.9949
30944SOL    HW298669   0.680   0.873   6.564  0.8134  1.4775 -0.0244
30945SOL     OW98670   7.164   4.051   1.616  0.2598  0.0828 -0.0671
30945SOL    HW198671   7.129   4.083   1.533 -0.3966 -0.2962  0.0528
30945SOL    HW298672   7.148   3.956   1.613 -0.0076  0.1020  0.5966
30946SOL     OW98673   8.636   6.960   4.182  0.4096  0.1695 -0.5459
30946SOL    HW198674   8.604   7.008   4.258  2.3305 -0.7494  0.9302
30946SOL    HW298675   8.560   6.952   4.125 -0.6553  2.4155  0.4462
30947SOL     OW98676   4.270   5.226   5.850 -0.2035  0.8115  0.1168
30947SOL    HW198677   4.300   5.298   5.796  3.2209  0.5222  1.3549
30947SOL    HW298678   4.257   5.264   5.937  2.4757 -0.0483  1.0002
30948SOL     OW98679   8.730   8.084   3.589 -0.0726 -0.1692  0.0599
30948SOL    HW198680   8.813   8.044   3.565 -0.5818 -2.2247  1.3345
30948SOL    HW298681   8.668   8.052   3.523  0.1829  1.7229 -1.1502
30949SOL     OW98682   3.234   7.915   5.664  0.0931 -0.2468  0.6642
30949SOL    HW198683   3.280   7.971   5.727  0.9357 -0.6056  0.3781
30949SOL    HW298684   3.200   7.977   5.599  0.1282  0.0290  0.9030
30950SOL     OW98685   8.429   3.848   2.769  0.3163 -0.1070  0.3750
30950SOL    HW198686   8.467   3.854   2.682 -0.4884 -0.2253  0.0104
30950SOL    HW298687   8.380   3.929   2.780  1.4778  0.5099  1.2465
30951SOL     OW98688  10.487   8.604   5.832  0.4466  0.2131 -0.0687
30951SOL    HW198689  10.459   8.541   5.898  0.4834 -1.7055 -1.8140
30951SOL    HW298690  10.410   8.618   5.778  0.5270  1.4841  0.1058
30952SOL     OW98691   1.972   3.037   5.724  0.0353 -0.3370 -0.0665
30952SOL    HW198692   1.948   2.954   5.683 -0.4261  0.6404 -1.8911
30952SOL    HW298693   1.899   3.095   5.704  0.0166  0.3378  1.8080
30953SOL     OW98694   0.883   2.329   8.905  0.2091  0.2759  0.1407
30953SOL    HW198695   0.898   2.247   8.954 -0.4350 -1.3543 -2.2248
30953SOL    HW298696   0.794   2.355   8.929  0.8982  1.1684  1.9925
30954SOL     OW98697   1.071   1.960   7.850  0.3888 -0.1142 -0.0242
30954SOL    HW198698   1.146   1.916   7.891  0.6049  0.7852  0.5664
30954SOL    HW298699   1.081   2.052   7.875 -1.0974 -0.0314  0.3487
30955SOL     OW98700   4.461   1.843  10.619 -0.2522  0.1380 -0.2218
30955SOL    HW198701   4.485   1.892  10.697 -0.4950  0.7762 -0.5476
30955SOL    HW298702   4.411   1.904  10.565  1.3460  0.2733 -1.6578
30956SOL     OW98703   2.843   0.469   8.091  0.0755  0.0335  0.1256
30956SOL    HW198704   2.811   0.558   8.103  2.4509  1.1952 -1.4516
30956SOL    HW298705   2.917   0.461   8.151 -0.3483 -1.0554  0.5437
30957SOL     OW98706   2.606   6.003   3.513  0.5465 -0.1709 -0.5181
30957SOL    HW198707   2.549   6.075   3.540  0.9117 -0.2165  0.4059
30957SOL    HW298708   2.674   6.000   3.580 -0.6804 -2.7742  0.7797
30958SOL     OW98709   9.863   3.980   0.031 -0.0386 -0.2357 -0.5129
30958SOL    HW198710   9.918   4.039   0.082 -0.1168 -0.8571  0.2989
30958SOL    HW298711   9.865   4.017  -0.058  1.1867  0.0977 -0.3666
30959SOL     OW98712   7.762   8.181   1.848  0.2791  0.6475  0.4698
30959SOL    HW198713   7.733   8.260   1.894  0.3631 -0.5355  2.6846
30959SOL    HW298714   7.802   8.127   1.916  2.0280 -0.4931 -1.3313
30960SOL     OW98715  10.721   0.612   2.706 -0.6244  0.2940  0.5155
30960SOL    HW198716  10.783   0.600   2.777  0.8769 -0.9165 -0.9387
30960SOL    HW298717  10.752   0.690   2.659 -0.4207 -0.0899  0.0086
30961SOL     OW98718   0.942   4.286   7.984 -0.2921  0.1379 -0.0245
30961SOL    HW198719   0.925   4.203   7.939  0.9265 -0.2327  0.1562
30961SOL    HW298720   0.860   4.307   8.029  0.0265 -2.1144  1.7468
30962SOL     OW98721   4.744   6.086   1.834 -0.0796 -0.0878 -0.2589
30962SOL    HW198722   4.691   6.014   1.868 -0.5185  0.2728 -0.1718
30962SOL    HW298723   4.683   6.140   1.785  0.2936  0.1037 -0.5231
30963SOL     OW98724  10.398   3.436   2.197  0.4917 -0.1493 -0.1414
30963SOL    HW198725  10.334   3.369   2.223 -0.3198 -0.0971 -1.9251
30963SOL    HW298726  10.436   3.403   2.116  1.9996  0.3375  0.3265
30964SOL     OW98727   9.962   7.851  10.214  0.1779  0.5550  0.6763
30964SOL    HW198728  10.014   7.931  10.201 -1.6629  2.7757  4.8234
30964SOL    HW298729  10.004   7.808  10.288 -1.5248  0.3148  1.5562
30965SOL     OW98730   7.018   3.201   3.945 -0.2096  0.0676 -0.4733
30965SOL    HW198731   7.069   3.167   3.871 -0.1079  0.0929 -0.4145
30965SOL    HW298732   7.074   3.188   4.021 -0.3607 -0.0637 -0.3829
30966SOL     OW98733   8.762   2.802   4.848  0.1103  0.1126 -0.0412
30966SOL    HW198734   8.835   2.742   4.828 -1.2906 -1.8469  0.3851
30966SOL    HW298735   8.713   2.808   4.767  0.4929  1.1201 -0.2161
30967SOL     OW98736   2.364   3.761   8.683 -0.4676  0.8112 -0.0959
30967SOL    HW198737   2.379   3.827   8.750 -1.0183  0.7579  0.0892
30967SOL    HW298738   2.394   3.679   8.721  0.2079  0.9478 -0.3214
30968SOL     OW98739   5.198   6.156   2.037  0.1840  0.2223  0.0479
30968SOL    HW198740   5.266   6.208   1.994  0.2667  1.5060  1.6491
30968SOL    HW298741   5.131   6.143   1.969  1.0850  0.6706 -0.9560
30969SOL     OW98742   1.569   1.180   5.639 -1.0454 -0.0033 -0.5053
30969SOL    HW198743   1.481   1.194   5.603 -1.4031  0.4744  0.5018
30969SOL    HW298744   1.554   1.134   5.722 -0.4383  0.9963  0.1795
30970SOL     OW98745   0.594   3.978   2.587  0.1994  0.3114 -0.3976
30970SOL    HW198746   0.633   3.893   2.564  0.8161  0.7754 -1.1308
30970SOL    HW298747   0.519   3.956   2.642  2.0098 -0.6062  1.8991
30971SOL     OW98748  10.169   6.688   3.690 -0.1520  0.1229  0.4737
30971SOL    HW198749  10.122   6.668   3.771 -0.2252 -0.6476  0.2476
30971SOL    HW298750  10.233   6.755   3.715  0.0407 -0.3399  1.2380
30972SOL     OW98751   5.697   0.030   8.151  0.1122 -0.3851 -0.2473
30972SOL    HW198752   5.670   0.047   8.061 -0.2519 -0.4956 -0.1619
30972SOL    HW298753   5.625  -0.022   8.188 -0.5836  1.1182  0.6164
30973SOL     OW98754   3.290   6.287   6.266 -0.5574 -0.3457  0.2725
30973SOL    HW198755   3.334   6.317   6.345  1.2978  1.2014 -1.2267
30973SOL    HW298756   3.216   6.235   6.297 -0.8820  1.5400  3.0292
30974SOL     OW98757   9.316   0.983   9.329 -0.3606 -0.1115  0.0020
30974SOL    HW198758   9.383   1.046   9.302 -3.0100  2.1077 -1.9370
30974SOL    HW298759   9.334   0.906   9.276  0.0991  0.8087 -1.2338
30975SOL     OW98760   6.139   8.110   3.518  0.4435  0.4552  0.6026
30975SOL    HW198761   6.079   8.080   3.450  0.3269 -0.8053  1.2308
30975SOL    HW298762   6.082   8.137   3.590  0.5806  1.2974  0.4020
30976SOL     OW98763   9.819   6.135   0.042  0.0258  0.1691 -0.2863
30976SOL    HW198764   9.766   6.079  -0.014  1.6730 -0.3353 -1.4218
30976SOL    HW298765   9.783   6.222   0.030  0.6485  0.1752 -2.6173
30977SOL     OW98766   8.982   5.393   1.369  0.0541 -0.1022  0.5816
30977SOL    HW198767   9.065   5.439   1.361  0.1747 -0.3766  0.2136
30977SOL    HW298768   8.975   5.343   1.288 -1.8821  2.2273 -0.8191
30978SOL     OW98769   9.486   0.261   8.863  0.3956  0.3134 -0.1021
30978SOL    HW198770   9.575   0.233   8.843  0.3969  1.5438 -2.0741
30978SOL    HW298771   9.431   0.186   8.840  0.7343  0.4368 -1.3854
30979SOL     OW98772  10.213   8.151   8.567 -0.2544 -0.0493  0.3146
30979SOL    HW198773  10.122   8.141   8.542 -0.4868 -0.0617  1.1458
30979SOL    HW298774  10.216   8.233   8.616 -0.0734 -0.7042  1.4208
30980SOL     OW98775   7.702   9.079   0.076  0.5220  0.2086  0.1328
30980SOL    HW198776   7.648   9.053   0.002  0.2050  0.4571  0.2726
30980SOL    HW298777   7.659   9.039   0.152  0.6485  0.2421  0.2224
30981SOL     OW98778   4.910   7.456   4.073 -0.1783 -0.0594 -0.3590
30981SOL    HW198779   4.883   7.398   4.144  0.0243  1.0660  0.6729
30981SOL    HW298780   4.995   7.491   4.102  0.8609 -1.0229 -2.0402
30982SOL     OW98781   8.316   9.752   3.289 -0.4346 -0.0148  0.2217
30982SOL    HW198782   8.304   9.730   3.196 -2.5357  1.2169  0.1586
30982SOL    HW298783   8.243   9.710   3.333  0.2482 -0.1271  1.2795
30983SOL     OW98784   3.759   4.908   5.368  0.4681  0.5180  0.2913
30983SOL    HW198785   3.678   4.957   5.385 -0.0113  0.2399 -1.0688
30983SOL    HW298786   3.762   4.899   5.273  2.7010  1.5185  0.2059
30984SOL     OW98787   5.948   9.649   2.145  0.5474  0.4918 -0.0253
30984SOL    HW198788   5.891   9.710   2.098  1.2089  2.2597  1.3738
30984SOL    HW298789   5.926   9.662   2.237  1.2397 -0.8713  0.3531
30985SOL     OW98790  10.652   7.791   9.704  0.1526  0.4361  0.0357
30985SOL    HW198791  10.702   7.868   9.734  2.8002 -0.9748 -0.4693
30985SOL    HW298792  10.688   7.718   9.754 -1.7615 -0.6575 -0.0709
30986SOL     OW98793   6.099   6.742   1.674  0.4855  0.3394 -0.5819
30986SOL    HW198794   6.178   6.732   1.727 -0.0012  1.3936  0.3796
30986SOL    HW298795   6.066   6.829   1.696 -2.4573 -1.0643  1.2061
30987SOL     OW98796   0.652   2.837   9.699  0.1310  0.2317  0.4788
30987SOL    HW198797   0.714   2.778   9.741  0.1005 -0.0728  0.1043
30987SOL    HW298798   0.693   2.858   9.614 -0.3110 -0.0293  0.1998
30988SOL     OW98799   7.912   3.309   5.424  0.4734  0.2957  0.0288
30988SOL    HW198800   7.959   3.318   5.507  2.6008  0.6649 -1.1436
30988SOL    HW298801   7.832   3.262   5.447  1.1360  0.1281  2.2334
30989SOL     OW98802   7.694   6.058   6.314 -0.2141 -0.2126 -0.0561
30989SOL    HW198803   7.775   6.100   6.343 -0.9227  0.4183  1.0509
30989SOL    HW298804   7.670   5.998   6.385 -1.9075  1.2704  0.7097
30990SOL     OW98805   1.038   2.613   2.580  0.1289  0.1029 -0.1562
30990SOL    HW198806   1.111   2.583   2.526  0.5042 -0.5257  0.6706
30990SOL    HW298807   0.968   2.631   2.517  0.6858 -0.2030 -0.8862
30991SOL     OW98808   1.819   9.700   8.414 -0.8163  0.2026 -0.8334
30991SOL    HW198809   1.855   9.788   8.426  1.5630 -0.7714 -0.2121
30991SOL    HW298810   1.869   9.663   8.341  0.1885 -1.5541  0.6529
30992SOL     OW98811   7.030   3.585   8.606  0.5534  0.0611 -0.1377
30992SOL    HW198812   7.085   3.602   8.530  0.8542  1.0540  0.2794
30992SOL    HW298813   6.970   3.660   8.608  2.6212  1.8486  2.4142
30993SOL     OW98814   9.151   1.450   9.104 -0.0187 -0.6114 -1.0641
30993SOL    HW198815   9.170   1.425   9.194 -0.4475 -0.5805 -0.9605
30993SOL    HW298816   9.231   1.490   9.072 -0.2024  0.3442 -0.3530
30994SOL     OW98817   5.278   4.088   7.065 -0.2961  0.4428  0.2074
30994SOL    HW198818   5.342   4.091   6.993 -0.6234 -0.8921 -0.1713
30994SOL    HW298819   5.331   4.089   7.144  0.1268  0.7240 -0.0747
30995SOL     OW98820   9.646   7.454  10.380  0.0003  0.7286 -0.1683
30995SOL    HW198821   9.555   7.432  10.360 -0.0189  1.0174 -0.3953
30995SOL    HW298822   9.693   7.443  10.297  0.1446  0.7365 -0.0885
30996SOL     OW98823   4.210   1.209   4.359  0.2048  0.1175 -0.3033
30996SOL    HW198824   4.234   1.223   4.268  0.3263 -0.5618 -0.3763
30996SOL    HW298825   4.273   1.144   4.391 -0.7140 -0.7056 -0.1338
30997SOL     OW98826   7.348   4.074   6.736 -0.2856  0.4478  0.2685
30997SOL    HW198827   7.405   4.027   6.675 -2.3070 -1.0315 -0.6073
30997SOL    HW298828   7.366   4.034   6.821 -1.2083 -1.2459 -0.2937
30998SOL     OW98829   5.236   8.771   5.391  0.3541 -0.2379  0.7145
30998SOL    HW198830   5.294   8.786   5.316 -0.5178 -0.8567 -0.1118
30998SOL    HW298831   5.268   8.831   5.459  1.3581  0.1088 -0.0387
30999SOL     OW98832   7.698  10.210   3.973  0.2410  0.1971 -0.0938
30999SOL    HW198833   7.689  10.207   4.068  0.1485  0.1494 -0.1034
30999SOL    HW298834   7.685  10.302   3.951  2.0227  0.5267  0.1012
31000SOL     OW98835   8.106   6.620   2.998  0.4205  0.3619  0.1311
31000SOL    HW198836   8.157   6.539   2.989 -0.1328  0.1510 -1.4132
31000SOL    HW298837   8.156   6.684   2.946 -0.2774  0.4352 -0.4613
31001SOL     OW98838   3.299   5.267   5.866 -0.2702  0.0485  0.3439
31001SOL    HW198839   3.342   5.346   5.898 -0.4846  1.0895 -1.7940
31001SOL    HW298840   3.211   5.272   5.902 -0.5166  1.1920 -0.3800
31002SOL     OW98841   9.029   8.807   8.690 -0.6760 -0.0706  0.4933
31002SOL    HW198842   9.039   8.716   8.718  0.0134 -0.4732 -0.9653
31002SOL    HW298843   9.105   8.852   8.725 -0.6307 -0.2152  0.5830
31003SOL     OW98844   6.151   2.652   0.932 -0.2022 -0.5352  0.8190
31003SOL    HW198845   6.079   2.593   0.909 -2.6497  2.3156  0.4318
31003SOL    HW298846   6.167   2.635   1.025 -0.2754 -2.2854  0.5445
31004SOL     OW98847   6.950   4.965   2.598  0.6334  0.0385  0.3605
31004SOL    HW198848   7.006   5.022   2.652 -0.3335  0.9438  0.4463
31004SOL    HW298849   7.009   4.897   2.565  1.6896  0.7189  0.7987
31005SOL     OW98850   2.046   1.778   3.187 -0.4200 -0.5243  0.6854
31005SOL    HW198851   1.965   1.727   3.189 -1.0871  0.3126 -1.4806
31005SOL    HW298852   2.018   1.867   3.208 -0.5665  0.2081 -2.1514
31006SOL     OW98853   0.968   5.284   2.590 -0.0582 -0.5118 -0.0063
31006SOL    HW198854   0.911   5.345   2.543 -1.3884 -0.6295  1.3982
31006SOL    HW298855   1.029   5.341   2.638 -0.5207 -0.3026  0.3425
31007SOL     OW98856  10.176   3.501   4.015  0.1651 -0.1254 -0.4003
31007SOL    HW198857  10.268   3.498   4.039 -0.0007 -0.5495  0.2374
31007SOL    HW298858  10.169   3.572   3.952  0.7726  0.5181  0.2348
31008SOL     OW98859  10.227   8.887   0.969  0.1701 -0.7519 -0.1193
31008SOL    HW198860  10.257   8.970   1.006 -0.2363 -0.3630 -0.6490
31008SOL    HW298861  10.230   8.900   0.874 -0.1899 -1.2314 -0.1985
31009SOL     OW98862   3.566   2.168  10.407  0.7816 -0.4362 -0.3043
31009SOL    HW198863   3.642   2.222  10.425  0.2913 -0.1864  1.1983
31009SOL    HW298864   3.500   2.228  10.373  0.6391 -0.3076  0.1963
31010SOL     OW98865   1.544   7.104   4.775 -0.5171  0.3167  0.0198
31010SOL    HW198866   1.573   7.015   4.755 -0.7471  0.2855 -0.1814
31010SOL    HW298867   1.488   7.094   4.852 -1.7047  0.0864 -0.8440
31011SOL     OW98868   3.124   6.360  10.034 -0.1991 -0.0370 -0.2422
31011SOL    HW198869   3.087   6.338  10.120 -2.9224 -1.2699 -1.6049
31011SOL    HW298870   3.068   6.430  10.001  0.6118  0.2047 -1.1688
31012SOL     OW98871   9.077   4.006   5.702  0.2938  0.1391  0.3244
31012SOL    HW198872   9.047   4.093   5.675 -2.0677 -0.5565  0.4866
31012SOL    HW298873   9.139   4.023   5.773 -1.8510  1.7079  1.9810
31013SOL     OW98874   2.901   3.920   6.150  0.0474 -0.4567  0.3774
31013SOL    HW198875   2.882   3.894   6.240 -0.9784 -0.8482  0.0535
31013SOL    HW298876   2.924   3.839   6.105  0.1002 -0.3292  0.1706
31014SOL     OW98877   0.307   8.520   4.650 -0.0609  0.2506  0.4458
31014SOL    HW198878   0.223   8.486   4.681 -0.4522  1.0136  0.2509
31014SOL    HW298879   0.286   8.565   4.568  0.5930  0.1828  0.2358
31015SOL     OW98880   5.106   4.737   3.232 -0.2405  0.3201 -0.0188
31015SOL    HW198881   5.011   4.743   3.234 -0.2213  1.8533 -1.5935
31015SOL    HW298882   5.124   4.644   3.216 -1.5537  0.2719 -1.4913
31016SOL     OW98883   1.434   1.655   7.628 -0.1683  0.1471 -0.3995
31016SOL    HW198884   1.387   1.573   7.646 -1.2225  0.5368 -1.2409
31016SOL    HW298885   1.440   1.698   7.713 -1.6125  0.2076 -0.3036
31017SOL     OW98886   5.848   8.188   9.337 -0.5080 -0.1724 -0.6603
31017SOL    HW198887   5.855   8.228   9.250 -1.4504  0.8195 -0.2890
31017SOL    HW298888   5.811   8.101   9.320  0.3617 -0.4322 -1.3393
31018SOL     OW98889   7.511   0.504   8.507 -0.9134  0.7642  0.3116
31018SOL    HW198890   7.422   0.473   8.528 -0.9568  0.5901 -0.1196
31018SOL    HW298891   7.513   0.594   8.541 -0.4406 -0.0194  2.5097
31019SOL     OW98892   0.902   2.312   8.230 -0.7730  0.5512 -0.2361
31019SOL    HW198893   0.994   2.336   8.218 -0.6609  0.3210  0.1334
31019SOL    HW298894   0.885   2.326   8.323 -1.7674  2.7931 -0.6987
31020SOL     OW98895  10.081   1.452   4.135 -0.0948  0.5859  0.0896
31020SOL    HW198896  10.119   1.540   4.141 -2.1065  1.5085  0.5100
31020SOL    HW298897  10.023   1.447   4.212 -2.7867  0.3764 -1.7957
31021SOL     OW98898   5.644   2.879   9.121 -0.2465 -0.3937 -0.3515
31021SOL    HW198899   5.665   2.785   9.118  0.1622 -0.3046 -0.3101
31021SOL    HW298900   5.727   2.922   9.100 -0.6134 -0.0552 -1.1576
31022SOL     OW98901   7.219   7.343  10.343 -0.2447 -0.0944 -0.2234
31022SOL    HW198902   7.206   7.252  10.368  2.1146 -0.2354  0.7294
31022SOL    HW298903   7.189   7.393  10.419 -0.4026 -0.1329 -0.2600
31023SOL     OW98904   1.239   3.753   6.399 -0.1330 -0.8612 -0.5768
31023SOL    HW198905   1.172   3.714   6.456  0.5253 -0.9756  0.1341
31023SOL    HW298906   1.213   3.845   6.391 -0.6091 -1.0006 -0.6541
31024SOL     OW98907   3.463   1.027   0.445 -0.2478 -0.2744 -0.0923
31024SOL    HW198908   3.451   1.062   0.356 -1.5246 -1.7284 -0.5243
31024SOL    HW298909   3.401   1.076   0.499  1.6889  1.8233  0.4275
31025SOL     OW98910   6.824   9.311   5.369 -0.3483  0.5525 -0.6679
31025SOL    HW198911   6.774   9.314   5.450  1.7363  0.9951  0.6793
31025SOL    HW298912   6.804   9.225   5.332 -1.5048  0.4276  0.1796
31026SOL     OW98913   1.401   7.857   1.202 -0.5426 -0.1380 -0.1974
31026SOL    HW198914   1.414   7.785   1.263  0.2888  0.8359  0.8037
31026SOL    HW298915   1.458   7.927   1.234 -1.6994  1.1491 -0.8594
31027SOL     OW98916   0.466   1.704   9.817  0.0434 -0.1760  0.4309
31027SOL    HW198917   0.429   1.770   9.757  0.1526 -0.4352  0.0756
31027SOL    HW298918   0.394   1.685   9.878  1.3356  3.7106  3.5806
31028SOL     OW98919   0.204   5.353   8.966  0.5526 -0.0909  0.5570
31028SOL    HW198920   0.216   5.281   9.027 -0.0838 -0.5391  0.1588
31028SOL    HW298921   0.109   5.364   8.960  0.3478 -2.3565 -2.9633
31029SOL     OW98922   7.757   5.617   5.211  0.6855  0.2955  0.0329
31029SOL    HW198923   7.682   5.612   5.271  1.1816 -2.3977  0.5512
31029SOL    HW298924   7.828   5.649   5.265  0.3948  0.9151  0.0569
31030SOL     OW98925   0.735   3.821  10.550 -0.0689  0.2669 -0.2348
31030SOL    HW198926   0.704   3.748  10.496 -0.2476  1.1898 -1.4262
31030SOL    HW298927   0.660   3.843  10.606 -1.0226  1.3338 -1.8598
31031SOL     OW98928   2.336   4.948   4.677 -0.4272  0.3119 -0.0918
31031SOL    HW198929   2.399   4.890   4.633  1.2500  1.1018  1.1519
31031SOL    HW298930   2.356   5.035   4.642 -1.8713  0.4025 -0.7741
31032SOL     OW98931   7.738   6.964   0.997  0.0861 -0.4244 -0.0657
31032SOL    HW198932   7.684   7.007   0.931 -0.4170  0.1107  0.6784
31032SOL    HW298933   7.706   6.999   1.081  0.1355 -1.7276  0.5159
31033SOL     OW98934   4.698   4.071   9.722  0.3235  0.3680 -0.4396
31033SOL    HW198935   4.756   4.004   9.760  0.5269  0.4784 -0.5514
31033SOL    HW298936   4.743   4.098   9.642 -0.9324 -1.1022 -1.7059
31034SOL     OW98937   4.780   9.047   7.765 -0.2142 -0.1319  0.5728
31034SOL    HW198938   4.817   8.968   7.726 -1.2562 -0.6239  0.5414
31034SOL    HW298939   4.809   9.045   7.856  1.0554  0.2807  0.1928
31035SOL     OW98940   1.119   5.443  10.375 -0.3661 -0.4542 -0.2100
31035SOL    HW198941   1.128   5.425  10.282  2.4030  0.6488 -0.2369
31035SOL    HW298942   1.158   5.529  10.387 -0.8444 -0.4762  1.9423
31036SOL     OW98943   5.084   9.086   6.669 -0.8024 -0.4968 -0.5044
31036SOL    HW198944   5.020   9.016   6.663  0.4697 -1.6737 -0.6762
31036SOL    HW298945   5.169   9.042   6.668  0.0267  1.0241 -0.3709
31037SOL     OW98946   4.167   4.513   3.590  0.5179  0.4015 -0.5854
31037SOL    HW198947   4.226   4.448   3.629  0.3031  0.7895  0.4279
31037SOL    HW298948   4.082   4.469   3.588  0.2216  0.8450  0.7383
31038SOL     OW98949   6.008   5.997   1.962  1.1036 -0.1980  0.1893
31038SOL    HW198950   6.090   6.036   1.933  0.2907  2.0015  0.6236
31038SOL    HW298951   5.950   6.001   1.886  0.4815  1.1042  0.6999
31039SOL     OW98952   8.608   1.959   1.803 -0.3840 -0.1464  0.4008
31039SOL    HW198953   8.623   1.887   1.741 -2.0789  0.4612 -0.7812
31039SOL    HW298954   8.687   1.961   1.857  0.9155 -1.0960 -1.3641
31040SOL     OW98955   2.029   4.250   7.474  0.1742  0.0486 -0.4876
31040SOL    HW198956   2.022   4.169   7.526  1.1577  1.1143  1.4374
31040SOL    HW298957   2.070   4.222   7.392  4.0964 -1.0166  1.5406
31041SOL     OW98958   7.129   3.395   4.804  0.0969 -0.2767  0.0807
31041SOL    HW198959   7.056   3.412   4.864  0.1262  0.3646 -0.0573
31041SOL    HW298960   7.151   3.481   4.768 -1.0078 -0.8498 -2.1360
31042SOL     OW98961  10.153   1.630   5.084  0.3574  0.0750  0.3262
31042SOL    HW198962  10.229   1.629   5.027 -0.3307 -1.7244 -0.6582
31042SOL    HW298963  10.189   1.637   5.173  1.6361 -0.2282 -0.1534
31043SOL     OW98964   8.560   7.320   2.337  0.9653  0.2833  0.4597
31043SOL    HW198965   8.631   7.383   2.323  1.3201 -0.4706 -1.4594
31043SOL    HW298966   8.554   7.312   2.432  3.1147  0.7576  0.6940
31044SOL     OW98967   6.047   2.811   7.537 -0.2485 -0.5322 -0.0714
31044SOL    HW198968   6.108   2.879   7.565 -0.0677 -0.1878 -1.2131
31044SOL    HW298969   5.979   2.810   7.604  0.2862  0.0566  0.4894
31045SOL     OW98970  10.558   5.015  10.528  0.0752  0.3081  0.4218
31045SOL    HW198971  10.506   5.038  10.451 -1.2732 -1.2188  0.8285
31045SOL    HW298972  10.500   4.960  10.581  1.8952 -0.9887  1.1838
31046SOL     OW98973   6.725   9.024   1.124 -0.0226 -0.0672 -0.2208
31046SOL    HW198974   6.726   9.004   1.030  0.7502  0.3037 -0.3022
31046SOL    HW298975   6.678   9.107   1.130  1.3831  0.7803 -0.4856
31047SOL     OW98976   4.153   5.710   0.993 -0.2917  0.2385 -0.0985
31047SOL    HW198977   4.083   5.749   0.941  0.2188  0.0111 -0.9774
31047SOL    HW298978   4.230   5.765   0.975  0.1874 -0.5562 -0.5748
31048SOL     OW98979   2.365   5.052   3.452  0.3133  0.4436  0.1702
31048SOL    HW198980   2.362   5.020   3.362 -0.8570 -1.9098  0.9418
31048SOL    HW298981   2.453   5.030   3.482  0.5851  0.8953 -0.2863
31049SOL     OW98982   7.479   4.391   3.482  0.1468 -0.3196 -0.4079
31049SOL    HW198983   7.401   4.396   3.428  1.2423 -1.9585 -2.2734
31049SOL    HW298984   7.519   4.307   3.459  0.3822 -1.4763  3.4539
31050SOL     OW98985   3.055   2.611   3.757 -0.4174 -0.4919  0.2866
31050SOL    HW198986   3.149   2.629   3.761  0.4039 -3.8103 -0.6389
31050SOL    HW298987   3.041   2.545   3.825 -1.7133 -1.3453 -0.7687
31051SOL     OW98988   9.923   9.877   1.391 -0.5653 -0.2043  0.2305
31051SOL    HW198989   9.940   9.801   1.446 -1.3056  0.8706  2.0192
31051SOL    HW298990  10.009   9.909   1.366 -0.2263 -2.3551 -1.6888
31052SOL     OW98991   8.643   9.032   9.752  0.4506 -0.0441  0.3200
31052SOL    HW198992   8.685   9.095   9.811 -0.5962  0.6512  0.3571
31052SOL    HW298993   8.662   9.065   9.664 -0.5630  0.6707  0.3471
31053SOL     OW98994   6.014   8.550   7.912 -0.4884  0.3124 -0.6697
31053SOL    HW198995   6.089   8.607   7.924  0.5957 -1.2555  0.3296
31053SOL    HW298996   5.956   8.571   7.985  0.5570 -0.7951  0.5227
31054SOL     OW98997   3.041  10.017   9.251  0.0919 -0.7527 -0.3506
31054SOL    HW198998   3.033   9.921   9.256 -0.6506 -0.6315  1.6565
31054SOL    HW298999   2.957  10.046   9.217  0.0910 -0.7749 -0.3673
31055SOL     OW99000   4.356   8.966   8.408 -0.4626 -0.3494  0.7592
31055SOL    HW199001   4.273   9.013   8.403 -0.2385 -0.0679 -1.4785
31055SOL    HW299002   4.331   8.873   8.408 -0.8044 -0.2587  0.7336
31056SOL     OW99003   9.418   7.656  10.357  0.4058  0.5002 -0.5674
31056SOL    HW199004   9.399   7.690  10.445  0.0454 -0.0782 -0.4206
31056SOL    HW299005   9.435   7.735  10.305 -2.4556  1.1191 -0.7303
31057SOL     OW99006   7.029   3.083   7.987  0.1457  0.4087  0.3436
31057SOL    HW199007   6.988   3.147   7.929 -0.4469 -0.2420  0.0297
31057SOL    HW299008   7.087   3.033   7.929  0.5011  0.5640  0.5623
31058SOL     OW99009   4.527   8.107   0.392  0.1752 -0.3322 -0.0121
31058SOL    HW199010   4.572   8.083   0.473  2.0546 -0.4053 -1.0361
31058SOL    HW299011   4.559   8.044   0.327  1.0421  1.5566 -1.5089
31059SOL     OW99012   2.107   1.120   3.741  0.1530 -0.0288  0.4430
31059SOL    HW199013   2.200   1.126   3.720 -0.5080  1.8254 -2.6778
31059SOL    HW299014   2.064   1.119   3.655 -2.6886 -2.5959  1.7073
31060SOL     OW99015   5.620  10.329   8.501  0.3106 -0.1141  0.3546
31060SOL    HW199016   5.644  10.303   8.590 -0.0053  0.7996  0.7154
31060SOL    HW299017   5.676  10.404   8.482  1.7631 -1.4382 -0.9622
31061SOL     OW99018   3.693   3.528   8.726 -0.4993  0.5825 -0.4189
31061SOL    HW199019   3.764   3.557   8.783  0.1447  0.0436 -0.9366
31061SOL    HW299020   3.661   3.447   8.768  1.3876 -1.0353 -1.8837
31062SOL     OW99021  10.551   7.168   2.946 -0.2682  0.1966 -0.8208
31062SOL    HW199022  10.572   7.200   2.858 -1.7181  1.6388 -0.6910
31062SOL    HW299023  10.472   7.115   2.934  0.2113 -0.5856 -0.5458
31063SOL     OW99024   4.452   4.174   5.199 -0.0887 -0.3914 -0.1595
31063SOL    HW199025   4.397   4.096   5.191  0.6339 -0.8147 -1.0588
31063SOL    HW299026   4.457   4.210   5.111 -0.2830  0.5997  0.2153
31064SOL     OW99027   4.961   6.589   7.876 -0.6592  0.3172 -0.4782
31064SOL    HW199028   4.956   6.631   7.962  0.6469  0.4272 -0.4350
31064SOL    HW299029   4.901   6.515   7.883  0.8973 -0.8867  1.2522
31065SOL     OW99030   1.012   8.057   3.860 -0.0381  0.3178 -0.5359
31065SOL    HW199031   0.975   8.122   3.801 -2.1333 -0.5338 -0.2657
31065SOL    HW299032   0.937   8.005   3.888  1.0608 -0.0840  1.9240
31066SOL     OW99033   1.059   2.147   2.046  0.5752  0.1492  0.6174
31066SOL    HW199034   1.026   2.187   2.126  2.1070  0.4009  1.1530
31066SOL    HW299035   1.071   2.055   2.068 -0.9124 -0.2081  0.0374
31067SOL     OW99036   7.995   6.442   9.102  0.0022 -0.2290 -0.2033
31067SOL    HW199037   8.077   6.433   9.054 -0.2591 -0.8974 -0.5354
31067SOL    HW299038   7.966   6.532   9.084  1.2906  0.4418  0.9411
31068SOL     OW99039   4.794   7.602   4.721 -0.1058  0.0909 -0.2724
31068SOL    HW199040   4.854   7.602   4.795  1.3434  1.1957 -1.4134
31068SOL    HW299041   4.769   7.693   4.709  2.3369  0.5486 -3.1566
31069SOL     OW99042   9.404   1.963   3.628 -0.0089 -0.6557  0.1364
31069SOL    HW199043   9.366   1.964   3.540  0.4137  0.5000 -0.0498
31069SOL    HW299044   9.329   1.953   3.686 -0.6029  1.2206 -0.2439
31070SOL     OW99045   5.248   3.127   3.940 -0.1056 -0.2727  0.2779
31070SOL    HW199046   5.290   3.186   3.878 -0.8703 -0.0369 -0.0344
31070SOL    HW299047   5.290   3.145   4.024  1.5734 -1.2380 -0.3154
31071SOL     OW99048   3.572   9.074   4.846  0.0136 -0.6231 -0.0198
31071SOL    HW199049   3.565   8.986   4.808  0.0450  0.3642 -2.4620
31071SOL    HW299050   3.485   9.112   4.835 -0.5616 -0.8738  2.7064
31072SOL     OW99051   8.721   5.887   3.626  0.4302 -0.1520 -0.2439
31072SOL    HW199052   8.670   5.952   3.577 -0.2628  0.1286  0.8247
31072SOL    HW299053   8.784   5.939   3.676  1.1359 -0.4401 -0.8095
31073SOL     OW99054   1.955   4.754   8.214 -0.1346 -0.1629 -0.1361
31073SOL    HW199055   1.955   4.670   8.261  1.2699  0.1721  0.5278
31073SOL    HW299056   2.041   4.792   8.233 -0.3830  1.0072 -1.1965
31074SOL     OW99057   4.429   1.809   8.259 -0.1567  0.0250  0.1105
31074SOL    HW199058   4.451   1.723   8.224 -0.4170 -0.6701  1.6111
31074SOL    HW299059   4.372   1.848   8.192 -2.0360 -1.9441  0.4660
31075SOL     OW99060   9.041   9.371   6.954 -0.2614 -0.2067 -0.0760
31075SOL    HW199061   8.959   9.364   7.003 -0.7974 -0.2576 -0.9615
31075SOL    HW299062   9.076   9.281   6.953 -1.6112 -0.7601 -2.0626
31076SOL     OW99063   8.747   9.710   1.270  0.6243 -0.1940  0.5658
31076SOL    HW199064   8.733   9.621   1.236  1.1465 -0.0216 -0.1318
31076SOL    HW299065   8.840   9.726   1.257  0.2030  1.1696 -1.1420
31077SOL     OW99066   7.941   4.047   0.509  0.7984  0.1568  0.1238
31077SOL    HW199067   7.859   4.096   0.500  0.2061 -0.9287 -0.5795
31077SOL    HW299068   7.916   3.964   0.549  1.7470  0.2867  1.0346
31078SOL     OW99069   9.551   3.844   5.682  0.4669  0.0940  0.6634
31078SOL    HW199070   9.560   3.778   5.750  0.6079  0.5425  1.0892
31078SOL    HW299071   9.545   3.795   5.600  0.3598 -0.4452  0.9973
31079SOL     OW99072   6.621   7.203   2.628 -0.2183 -0.3114 -0.4764
31079SOL    HW199073   6.629   7.298   2.634  0.1152 -0.4006  0.7297
31079SOL    HW299074   6.683   7.170   2.692 -1.4820 -1.3074  0.2695
31080SOL     OW99075   5.684   7.787   8.863 -0.3243 -0.1502 -0.2998
31080SOL    HW199076   5.717   7.701   8.837 -0.7592  0.0458 -1.5951
31080SOL    HW299077   5.622   7.811   8.794  0.5625  1.6566 -0.5310
31081SOL     OW99078   1.863   4.219   4.933  0.0191  0.4053  0.0505
31081SOL    HW199079   1.905   4.148   4.885 -0.6398  0.9909 -1.4469
31081SOL    HW299080   1.924   4.292   4.928  0.1479  0.3373  0.5241
31082SOL     OW99081   8.069   6.044   8.587  0.3952 -0.0061  0.2072
31082SOL    HW199082   8.075   6.056   8.492 -0.3362  0.0402  0.1614
31082SOL    HW299083   8.076   5.950   8.600  0.0305 -0.0503  0.0725
31083SOL     OW99084   8.591   2.643   5.039  0.2534 -0.2539  0.1988
31083SOL    HW199085   8.631   2.699   4.972  1.2283  0.1375  1.0869
31083SOL    HW299086   8.579   2.559   4.995  0.1041  0.2264 -0.7170
31084SOL     OW99087   1.653   0.299   4.988 -0.8939  0.1735 -0.0892
31084SOL    HW199088   1.663   0.253   5.071 -0.3041 -1.0136 -0.7933
31084SOL    HW299089   1.622   0.233   4.927 -1.8884  1.1690 -0.6909
31085SOL     OW99090   6.634   8.344   1.341 -0.0170 -0.1614 -0.5385
31085SOL    HW199091   6.653   8.365   1.432  2.3193  0.2671 -1.0565
31085SOL    HW299092   6.609   8.252   1.342 -0.3348 -0.0701  0.5619
31086SOL     OW99093   9.546   7.898   7.996  0.0444  0.3192 -0.1516
31086SOL    HW199094   9.595   7.837   7.942  0.7472  0.2725  0.5154
31086SOL    HW299095   9.613   7.946   8.045 -0.5847 -1.1316  2.2926
31087SOL     OW99096   6.027   2.627   3.264 -0.3138  0.3972 -0.2434
31087SOL    HW199097   6.019   2.589   3.176  0.5534  0.4539 -0.3528
31087SOL    HW299098   6.066   2.714   3.249  0.5496  0.1037  0.2524
31088SOL     OW99099   0.630   3.429   3.621 -0.4739  0.2124  0.2470
31088SOL    HW199100   0.723   3.451   3.615 -0.7384  1.3915  0.3449
31088SOL    HW299101   0.601   3.423   3.530 -0.6497  1.4036  0.2146
31089SOL     OW99102   9.353   6.734   3.551  0.1762  0.1709  0.8023
31089SOL    HW199103   9.294   6.763   3.621  0.5714  0.6531  0.9421
31089SOL    HW299104   9.312   6.766   3.470 -0.0766 -0.0440  0.8448
31090SOL     OW99105   4.936   9.083   5.394 -0.4467 -0.3799 -0.1117
31090SOL    HW199106   4.923   9.080   5.488  0.2054  0.0445 -0.0046
31090SOL    HW299107   4.935   9.177   5.372  0.9545 -0.3893 -0.2971
31091SOL     OW99108  10.656   2.245   3.800 -0.0108 -0.0948  0.1864
31091SOL    HW199109  10.632   2.338   3.806  1.9467  0.5159 -0.6447
31091SOL    HW299110  10.739   2.239   3.846  0.2108 -1.3130 -0.3382
31092SOL     OW99111   7.249   8.801   2.842 -0.2484 -0.1490  0.2910
31092SOL    HW199112   7.305   8.857   2.896 -0.5469  1.5821 -1.0633
31092SOL    HW299113   7.206   8.863   2.782 -0.2638 -1.9018 -1.6049
31093SOL     OW99114   9.171   1.213   4.171 -0.0238  0.1648 -1.0163
31093SOL    HW199115   9.081   1.226   4.203  1.2051  0.2682  2.9630
31093SOL    HW299116   9.178   1.118   4.160 -0.2391 -0.0325  0.2852
31094SOL     OW99117   5.301   2.759   7.559  0.5085 -0.1510 -0.4362
31094SOL    HW199118   5.279   2.850   7.540  0.7128  0.0251  0.1460
31094SOL    HW299119   5.267   2.710   7.484 -2.3528  0.0176  0.6249
31095SOL     OW99120   5.846   7.572   9.256 -0.2405 -0.1363 -0.2477
31095SOL    HW199121   5.907   7.517   9.305 -0.2787  0.7408  0.8185
31095SOL    HW299122   5.902   7.633   9.209 -0.2503 -0.1988 -0.3413
31096SOL     OW99123   0.113  10.695   2.389  0.7119 -0.3021  0.0304
31096SOL    HW199124   0.133  10.775   2.437 -1.4678  0.8605 -0.8844
31096SOL    HW299125   0.142  10.712   2.300 -0.0541 -0.3854 -0.2411
31097SOL     OW99126   5.313   8.857   3.579 -0.0616 -0.0351 -0.6120
31097SOL    HW199127   5.234   8.853   3.632 -0.4385 -2.1791 -1.2483
31097SOL    HW299128   5.294   8.922   3.511 -0.5046  0.8905  0.3719
31098SOL     OW99129   3.572   0.739   6.123 -0.0411  0.2673 -0.3739
31098SOL    HW199130   3.637   0.676   6.153  0.1894  0.4780 -0.4279
31098SOL    HW299131   3.540   0.781   6.203 -0.1024  0.1715 -0.3481
31099SOL     OW99132   3.107   9.265   0.964  0.0835  0.0170  0.2913
31099SOL    HW199133   3.083   9.305   0.880 -0.1528  0.0880  0.3907
31099SOL    HW299134   3.143   9.337   1.016  1.0693 -0.2040 -0.0655
31100SOL     OW99135   1.267   3.316  10.622 -0.1666 -0.3739 -0.1523
31100SOL    HW199136   1.329   3.331  10.693 -0.6839  0.3335  0.1558
31100SOL    HW299137   1.321   3.320  10.542  0.5983 -2.2151  0.2242
31101SOL     OW99138   7.269   8.425   0.495  0.2699  0.0062 -0.0847
31101SOL    HW199139   7.236   8.335   0.490  0.8910 -0.1957 -0.7569
31101SOL    HW299140   7.229   8.461   0.574 -3.1000  0.4111 -1.7589
31102SOL     OW99141   8.998   0.587   7.143  0.1443  0.3841 -0.3999
31102SOL    HW199142   8.939   0.600   7.069  0.4103  0.9700 -0.5142
31102SOL    HW299143   8.977   0.659   7.202  0.8252  0.6605 -0.4949
31103SOL     OW99144   6.673   1.142  10.121 -0.0917  0.2253  0.0536
31103SOL    HW199145   6.579   1.135  10.135 -0.5844  0.3150 -2.5997
31103SOL    HW299146   6.695   1.232  10.144 -0.8520  0.4653 -0.1490
31104SOL     OW99147  10.538   4.740   0.095 -0.6631 -0.0229 -0.3031
31104SOL    HW199148  10.596   4.722   0.169 -3.1770 -0.0474  1.7849
31104SOL    HW299149  10.489   4.817   0.121 -0.6757  0.8344 -2.6175
31105SOL     OW99150   0.946   9.370   1.669  0.3521  0.1238  0.2442
31105SOL    HW199151   0.888   9.368   1.745 -0.2006 -1.5841 -0.1799
31105SOL    HW299152   1.024   9.416   1.699 -1.3600  3.0217  0.6866
31106SOL     OW99153   5.849   5.212   0.439 -0.6939  0.2799  0.2091
31106SOL    HW199154   5.832   5.153   0.365 -0.4788 -0.0940  0.4558
31106SOL    HW299155   5.780   5.193   0.502 -0.2053 -0.2300  0.6005
31107SOL     OW99156   1.260   9.224   9.935  0.2314 -0.2790  0.2143
31107SOL    HW199157   1.167   9.241   9.944  0.0121 -2.1673  2.9866
31107SOL    HW299158   1.266   9.152   9.872  0.0980  1.3777 -1.7747
31108SOL     OW99159   4.993   7.807   8.120 -0.2369  0.3965 -0.3942
31108SOL    HW199160   5.051   7.747   8.073 -0.9268 -0.6158  0.0180
31108SOL    HW299161   4.931   7.750   8.166 -0.0362  1.3636  1.1637
31109SOL     OW99162   4.478   2.160   6.387 -0.0518 -0.5319  0.1956
31109SOL    HW199163   4.503   2.113   6.467  0.9029  2.2180  1.6558
31109SOL    HW299164   4.547   2.226   6.376 -2.3282  1.9220 -0.4554
31110SOL     OW99165   3.628   9.597   2.174 -0.0935  0.0226 -0.1204
31110SOL    HW199166   3.647   9.645   2.255  1.0984  3.1637 -2.1044
31110SOL    HW299167   3.535   9.610   2.160  0.1261  1.4138 -0.3782
31111SOL     OW99168   3.561   1.484   8.010 -0.1053 -0.7186 -0.2300
31111SOL    HW199169   3.608   1.535   7.944 -0.0412  0.8740  0.9930
31111SOL    HW299170   3.472   1.519   8.010 -0.9246 -2.6210 -1.3883
31112SOL     OW99171   7.154   3.155   4.220  0.1174  0.1613  0.0416
31112SOL    HW199172   7.175   3.087   4.155 -2.7546  2.1532 -3.3561
31112SOL    HW299173   7.085   3.115   4.274  0.1595 -0.4551 -0.3443
31113SOL     OW99174   6.633   7.259   0.549 -0.3348  0.0128  0.1104
31113SOL    HW199175   6.594   7.317   0.484  2.3745  0.6716 -1.0507
31113SOL    HW299176   6.615   7.301   0.633  0.1068  1.6619 -0.5934
31114SOL     OW99177   7.677   5.186   5.939  0.4610 -0.0537  0.0742
31114SOL    HW199178   7.621   5.213   5.867  0.7466  1.7177  0.4728
31114SOL    HW299179   7.679   5.090   5.933 -1.3516 -0.0724 -0.8568
31115SOL     OW99180   0.240   1.318   7.189  0.4656 -0.1173  0.3052
31115SOL    HW199181   0.285   1.237   7.164 -2.4040 -1.6989 -0.1683
31115SOL    HW299182   0.198   1.297   7.272 -0.9657  0.5828 -0.2179
31116SOL     OW99183   6.015   3.862   1.326 -0.1190 -0.0318  0.4747
31116SOL    HW199184   6.040   3.779   1.285  1.4765 -0.3984  2.0869
31116SOL    HW299185   5.942   3.894   1.272  2.3003 -0.0506 -3.1199
31117SOL     OW99186   7.897   8.189   0.194 -0.0959 -0.0817 -0.3248
31117SOL    HW199187   7.933   8.251   0.258 -0.3956 -0.5175  0.2779
31117SOL    HW299188   7.908   8.103   0.235  0.1710 -0.4253 -1.0818
31118SOL     OW99189  10.598  10.439   4.627  0.3603 -0.1660  0.1937
31118SOL    HW199190  10.567  10.403   4.544  0.6266  1.1336 -0.4975
31118SOL    HW299191  10.521  10.486   4.662  0.6428  0.4553 -0.0078
31119SOL     OW99192   0.252   9.019   2.206  0.2433  0.1415  0.1336
31119SOL    HW199193   0.238   8.975   2.123  0.6127 -2.0015  1.1346
31119SOL    HW299194   0.215   8.960   2.272  1.5633  0.8864  1.6324
31120SOL     OW99195   0.792   9.084   0.225 -0.0704  0.0544  0.0535
31120SOL    HW199196   0.797   8.998   0.267  0.0742  1.2592  2.7327
31120SOL    HW299197   0.698   9.102   0.217 -0.1051  0.1052  0.5456
31121SOL     OW99198   3.630   9.764   3.574  0.0481 -0.2461  0.1484
31121SOL    HW199199   3.710   9.795   3.531 -0.1051 -2.6002 -2.1588
31121SOL    HW299200   3.563   9.827   3.549  0.4059 -0.4500 -1.4527
31122SOL     OW99201   4.497   9.882   9.396  0.4878 -0.1988  0.6010
31122SOL    HW199202   4.452   9.957   9.436 -0.4879  0.0374 -0.8454
31122SOL    HW299203   4.590   9.898   9.413  0.1627  0.2534  2.0995
31123SOL     OW99204   7.250   0.895   0.504 -0.2700  0.4267 -0.3833
31123SOL    HW199205   7.266   0.804   0.482 -2.4987 -0.5683  1.6369
31123SOL    HW299206   7.325   0.921   0.557  0.1314 -0.4305 -0.5195
31124SOL     OW99207   6.433   3.358  10.130  0.3448  0.6574  0.0452
31124SOL    HW199208   6.344   3.354  10.097 -0.2344 -0.7003  1.6037
31124SOL    HW299209   6.450   3.271  10.166  1.5997  1.4155  1.4692
31125SOL     OW99210   9.452   5.955   8.388 -0.3392  0.1546 -0.0484
31125SOL    HW199211   9.496   5.937   8.471  2.7494  1.5452 -1.2353
31125SOL    HW299212   9.490   5.892   8.327 -1.9358 -0.2720 -0.6518
31126SOL     OW99213   5.368   2.958   8.903 -0.3497 -0.2680  0.5723
31126SOL    HW199214   5.399   2.923   8.820  2.2839  0.0767  1.3147
31126SOL    HW299215   5.367   2.882   8.962 -0.3126 -0.1614  0.7110
31127SOL     OW99216   7.307   0.239   4.248 -0.1078 -0.6309  0.3106
31127SOL    HW199217   7.311   0.188   4.167 -0.2864 -0.2852  0.0849
31127SOL    HW299218   7.398   0.241   4.279  0.3960  1.2073 -1.1143
31128SOL     OW99219   6.628   0.942   8.994 -0.0095  0.0745 -0.4255
31128SOL    HW199220   6.539   0.968   8.972  0.1423  1.7319  0.6563
31128SOL    HW299221   6.672   0.930   8.910 -0.8202  0.9221 -0.9935
31129SOL     OW99222   9.626   2.753   5.933 -0.1907 -0.3542  0.3490
31129SOL    HW199223   9.572   2.677   5.912 -1.9248  1.2770 -1.4794
31129SOL    HW299224   9.651   2.789   5.848  0.0655  1.4708  1.1541
31130SOL     OW99225  10.420   7.050   6.949  0.3684  0.7571  0.6880
31130SOL    HW199226  10.432   7.093   7.033  3.2318 -0.1345  0.8360
31130SOL    HW299227  10.416   7.122   6.885  2.0612  1.3624  1.2273
31131SOL     OW99228   7.957   3.522   6.301  0.5085  0.1238 -0.2469
31131SOL    HW199229   7.928   3.518   6.210  0.6354 -0.2798 -0.2694
31131SOL    HW299230   8.020   3.451   6.310  0.5097  0.1718  0.1536
31132SOL     OW99231   8.336   1.024   7.327  0.2599  0.3741  0.2027
31132SOL    HW199232   8.337   1.088   7.256  0.4261 -0.1536 -0.2811
31132SOL    HW299233   8.408   1.050   7.385  0.1790  0.7540  0.1340
31133SOL     OW99234   4.927  10.410   2.963 -0.1465 -0.0034  0.4205
31133SOL    HW199235   4.883  10.493   2.984 -1.7787 -0.7621  0.1254
31133SOL    HW299236   4.902  10.391   2.873  1.8988  0.1683 -0.2497
31134SOL     OW99237   2.072   0.007   9.029  0.6732 -0.3871 -0.0942
31134SOL    HW199238   2.056   0.033   9.119  0.7329 -1.6003  0.2910
31134SOL    HW299239   2.160   0.038   9.009  0.3348  0.6347 -0.0328
31135SOL     OW99240   1.666  10.496   4.951 -0.2090 -0.1030  0.0112
31135SOL    HW199241   1.712  10.472   4.870 -0.7064 -0.7373 -0.0969
31135SOL    HW299242   1.605  10.424   4.965 -0.5797  0.3215  0.6059
31136SOL     OW99243   8.416  10.231   7.918  0.1555 -0.0248  0.3480
31136SOL    HW199244   8.497  10.281   7.913 -0.0832  0.2500 -1.4589
31136SOL    HW299245   8.371  10.267   7.995  1.0486  0.8847  0.4780
31137SOL     OW99246  10.155   1.424   6.240 -0.2846  0.5795  0.3404
31137SOL    HW199247  10.235   1.459   6.279  0.9001 -0.2107 -1.2690
31137SOL    HW299248  10.182   1.340   6.202 -2.3147 -0.6154  1.3615
31138SOL     OW99249   1.520   6.221   5.762  0.9698  0.0978  0.1225
31138SOL    HW199250   1.500   6.314   5.763 -1.0143 -0.2862 -0.3267
31138SOL    HW299251   1.599   6.214   5.709 -0.0119  1.3389 -1.5786
31139SOL     OW99252   9.929   4.809   4.619  0.3804 -0.0767 -0.3603
31139SOL    HW199253   9.941   4.715   4.634 -0.1757 -0.2007 -0.6710
31139SOL    HW299254  10.010   4.848   4.651  1.2342 -0.7849 -1.5686
31140SOL     OW99255   6.105   1.235   8.109 -0.4961  0.0674  0.1567
31140SOL    HW199256   6.065   1.149   8.105 -0.4039  0.0684 -1.6919
31140SOL    HW299257   6.176   1.232   8.044 -0.3515  1.4484  0.2049
31141SOL     OW99258   9.486   9.501   6.783  0.5289 -0.2201 -0.0735
31141SOL    HW199259   9.541   9.481   6.858  0.8040  1.0709  0.0966
31141SOL    HW299260   9.402   9.459   6.802  1.1374 -1.3902  0.1132
31142SOL     OW99261   8.127   5.494   8.662 -0.0645 -0.2293 -0.6497
31142SOL    HW199262   8.132   5.482   8.567  3.1403 -0.1190 -0.6019
31142SOL    HW299263   8.165   5.414   8.699  0.5392  0.5446  0.4626
31143SOL     OW99264   3.250   0.087   3.016  0.4369 -0.2421  0.5676
31143SOL    HW199265   3.295   0.164   3.053  0.0833  0.5460 -0.5716
31143SOL    HW299266   3.258   0.020   3.083  0.3231  0.9450  1.8193
31144SOL     OW99267   1.980   9.976   0.217  0.3542 -0.4004 -0.0627
31144SOL    HW199268   1.970  10.021   0.302 -1.4685  2.0209 -1.4047
31144SOL    HW299269   1.893   9.984   0.177  0.8503 -2.5364 -1.7064
31145SOL     OW99270  10.657   5.635   2.242 -0.6040  0.3273 -0.1266
31145SOL    HW199271  10.728   5.593   2.291 -0.0605  0.7751 -0.5201
31145SOL    HW299272  10.587   5.570   2.243 -0.0673 -0.2695 -0.0248
31146SOL     OW99273   7.550   8.375   8.635 -0.2241 -0.0040 -0.1953
31146SOL    HW199274   7.505   8.371   8.719  0.5479 -1.1872  0.1824
31146SOL    HW299275   7.628   8.322   8.647 -0.5292 -0.9053 -1.9157
31147SOL     OW99276   6.732   1.734   1.040  0.1668  0.1055 -0.0160
31147SOL    HW199277   6.769   1.804   0.987  1.6186 -0.8656 -0.3556
31147SOL    HW299278   6.771   1.654   1.005 -2.6483 -1.0802 -0.6882
31148SOL     OW99279  10.572   6.797   3.719  0.0218 -0.3232  0.3296
31148SOL    HW199280  10.616   6.727   3.670  1.0083  0.0275  0.7013
31148SOL    HW299281  10.641   6.859   3.740 -1.0352  1.3971 -1.0143
31149SOL     OW99282   7.669   7.995   2.936  0.6238  0.6407  0.2596
31149SOL    HW199283   7.625   7.911   2.927  1.4006  0.2825 -0.2479
31149SOL    HW299284   7.722   7.986   3.016  1.6825  0.1905 -0.4754
31150SOL     OW99285   1.741   3.213   4.497  0.1560  0.1668 -0.0311
31150SOL    HW199286   1.660   3.227   4.447 -0.2711  1.2779  0.9056
31150SOL    HW299287   1.764   3.300   4.529  1.4970 -0.2085  0.0913
31151SOL     OW99288   8.431   9.175   4.923 -0.0622  0.2678  0.4252
31151SOL    HW199289   8.399   9.247   4.869  0.2358 -0.7763 -1.2023
31151SOL    HW299290   8.507   9.141   4.876  0.7151 -0.1833  1.9324
31152SOL     OW99291   0.730   8.354   3.886 -0.6600  0.7256 -0.4433
31152SOL    HW199292   0.657   8.417   3.883 -0.1579  1.2996 -1.8064
31152SOL    HW299293   0.786   8.385   3.957 -1.5143  0.5419  0.3200
31153SOL     OW99294   6.797   8.824   6.947  0.2939  0.5942  0.0600
31153SOL    HW199295   6.875   8.799   6.898 -1.4808  0.3395 -2.8180
31153SOL    HW299296   6.779   8.914   6.920 -0.4005  0.6748  0.7465
31154SOL     OW99297   3.145   1.605   8.223  0.5391 -0.3793  0.0614
31154SOL    HW199298   3.084   1.669   8.259  0.9015 -1.0620  2.0407
31154SOL    HW299299   3.090   1.530   8.198  0.3723 -0.2568  0.0630
31155SOL     OW99300   9.307   0.148   6.561 -0.1109 -0.0638  0.2682
31155SOL    HW199301   9.354   0.231   6.555 -0.8474  0.3061 -0.7225
31155SOL    HW299302   9.349   0.092   6.496 -0.7525  0.1285 -0.3208
31156SOL     OW99303   0.006   1.454   0.937  0.1801  0.8478  0.0621
31156SOL    HW199304  -0.011   1.507   0.859  1.3988 -1.4717 -1.9368
31156SOL    HW299305   0.101   1.438   0.934 -0.1853 -1.7272  0.3043
31157SOL     OW99306   1.436   1.748   0.844 -0.4874 -0.1544  0.1088
31157SOL    HW199307   1.373   1.776   0.910  0.0582  0.0280  0.5568
31157SOL    HW299308   1.474   1.668   0.879  0.8633  0.7121  0.7333
31158SOL     OW99309   2.936   5.601   0.330 -0.5468 -0.3867  0.2257
31158SOL    HW199310   3.004   5.550   0.286 -1.0515 -0.2461 -0.7496
31158SOL    HW299311   2.854   5.554   0.311 -1.0354  0.8255 -0.7713
31159SOL     OW99312   3.837   5.809   8.243  0.2206 -0.2249  0.9018
31159SOL    HW199313   3.744   5.789   8.252  0.3226 -0.3731  1.6553
31159SOL    HW299314   3.882   5.729   8.271  0.5752 -0.6805 -0.8070
31160SOL     OW99315   1.386   1.017   0.302 -0.3473 -0.0080  0.2876
31160SOL    HW199316   1.409   1.075   0.230  1.8975 -0.9714  0.1355
31160SOL    HW299317   1.362   1.075   0.374 -1.7703  0.9847 -0.9283
31161SOL     OW99318   0.081   4.624   6.065 -0.5164 -0.5045 -0.7438
31161SOL    HW199319   0.168   4.659   6.086 -0.9275  1.4089 -1.9380
31161SOL    HW299320   0.022   4.676   6.120 -0.9824 -1.2492 -0.5298
31162SOL     OW99321  10.198   6.516   0.038 -0.0613 -0.0086  0.2841
31162SOL    HW199322  10.112   6.485   0.012 -0.1944  0.9253 -0.4587
31162SOL    HW299323  10.228   6.569  -0.037  0.4473  1.0298  1.1991
31163SOL     OW99324   0.657  10.330   9.174  0.6739 -0.6457 -0.4042
31163SOL    HW199325   0.721  10.259   9.172  2.1810  0.6608 -1.8038
31163SOL    HW299326   0.687  10.391   9.106 -0.9860  0.9578  0.2235
31164SOL     OW99327   7.671   0.004   6.379 -0.5627 -0.0453  0.2157
31164SOL    HW199328   7.661  -0.018   6.472 -0.7533  0.1636  0.2457
31164SOL    HW299329   7.759  -0.026   6.357 -1.0220 -1.3796  0.1062
31165SOL     OW99330   3.533   0.195   5.554 -0.2237  0.2743  0.2767
31165SOL    HW199331   3.581   0.210   5.635  1.2036  1.5472 -0.7432
31165SOL    HW299332   3.475   0.270   5.546  0.3044  0.6309 -0.3132
31166SOL     OW99333   7.463   9.329   1.077  0.2676 -0.0980 -0.0569
31166SOL    HW199334   7.425   9.318   1.164  1.5571  1.5306  0.7798
31166SOL    HW299335   7.411   9.272   1.020 -2.3211  0.7586  1.2939
31167SOL     OW99336   9.713   3.024   5.447 -0.3079 -0.2143  0.3355
31167SOL    HW199337   9.721   2.953   5.511 -0.3046 -1.6367 -1.1544
31167SOL    HW299338   9.791   3.077   5.460  0.6748 -1.5837  0.2594
31168SOL     OW99339   6.433   1.817   6.264 -0.8984 -0.0490 -0.4457
31168SOL    HW199340   6.404   1.908   6.274 -1.0021 -0.3760  3.4176
31168SOL    HW299341   6.394   1.770   6.338  2.9470 -2.2181  0.4619
31169SOL     OW99342   0.452   9.296   9.418  0.9270  0.3418 -0.4352
31169SOL    HW199343   0.395   9.225   9.390  0.4988  0.2066  0.7345
31169SOL    HW299344   0.531   9.286   9.365  1.2479 -1.5762  0.3381
31170SOL     OW99345   0.624   1.611   6.079  0.3015 -0.3648 -0.0911
31170SOL    HW199346   0.642   1.582   5.989  1.7324  0.3262 -0.0503
31170SOL    HW299347   0.646   1.535   6.133  0.7758 -0.3317 -0.2318
31171SOL     OW99348   5.762   1.319   4.481  0.0165  0.1388 -0.2152
31171SOL    HW199349   5.726   1.258   4.416  2.0517 -1.2793 -0.1134
31171SOL    HW299350   5.822   1.375   4.431  1.6587 -1.0149  0.3729
31172SOL     OW99351   4.177   1.953   8.111 -0.3860  0.1692 -0.2994
31172SOL    HW199352   4.132   1.907   8.182 -1.5156  0.0480 -1.0728
31172SOL    HW299353   4.118   1.945   8.036  0.6404  0.5615 -1.1755
31173SOL     OW99354   5.397   2.128   1.569  0.0312  0.2330 -0.0313
31173SOL    HW199355   5.376   2.060   1.633 -0.5223  0.2554 -0.1852
31173SOL    HW299356   5.489   2.113   1.548 -0.7262 -2.2675 -2.1709
31174SOL     OW99357  10.000   3.281   0.608 -0.0508 -0.1745 -0.0164
31174SOL    HW199358  10.062   3.213   0.635 -0.4549 -0.7263 -0.4586
31174SOL    HW299359   9.914   3.238   0.611 -0.2506  0.1446 -0.8327
31175SOL     OW99360   0.462   9.803   4.812  0.3355  0.0100 -0.1344
31175SOL    HW199361   0.448   9.724   4.865 -0.0201  0.6116  0.6896
31175SOL    HW299362   0.380   9.851   4.819  0.4733  0.3621 -0.8139
31176SOL     OW99363   4.824   6.630   2.655 -0.2191 -0.7245 -0.4810
31176SOL    HW199364   4.893   6.581   2.611  1.0262 -1.0056  1.6307
31176SOL    HW299365   4.853   6.721   2.652  0.2822 -0.8460  0.4311
31177SOL     OW99366   8.044   1.772   3.257  0.2225  0.3119 -0.7516
31177SOL    HW199367   8.016   1.708   3.321  1.2243  0.5031 -0.1010
31177SOL    HW299368   7.963   1.809   3.222 -0.3770  1.3939  1.5997
31178SOL     OW99369   0.058   9.103   8.014 -0.7256  0.0056 -0.1999
31178SOL    HW199370   0.085   9.053   7.937  2.1433 -0.4835  1.0158
31178SOL    HW299371   0.028   9.038   8.077  0.6794  0.0018  0.4918
31179SOL     OW99372   5.363   7.635   7.794 -0.2002  0.1838 -0.1631
31179SOL    HW199373   5.331   7.600   7.711 -1.1833  1.2294 -0.2441
31179SOL    HW299374   5.452   7.664   7.775  0.1776 -1.0876 -0.4109
31180SOL     OW99375   7.060  10.298   9.759  0.1495  0.1415  0.2298
31180SOL    HW199376   7.097  10.213   9.734 -1.2507 -0.9461  1.6053
31180SOL    HW299377   7.131  10.343   9.804  0.0610 -1.7369  2.4772
31181SOL     OW99378  10.427   8.915   8.810 -0.5678  0.0160  0.0170
31181SOL    HW199379  10.505   8.865   8.831 -1.4918 -0.9073  1.4081
31181SOL    HW299380  10.370   8.852   8.766 -1.6084 -0.1049  1.4780
31182SOL     OW99381   4.579   0.427   9.567  0.8126  0.3494  0.8923
31182SOL    HW199382   4.582   0.517   9.537  0.1245  0.0483 -0.1287
31182SOL    HW299383   4.486   0.408   9.578  0.9976  0.0904  2.1513
31183SOL     OW99384   5.923   7.565   2.439 -0.0400  0.0099 -0.4763
31183SOL    HW199385   6.000   7.545   2.387  1.0353  1.4672  0.4701
31183SOL    HW299386   5.908   7.658   2.426 -2.5911 -0.4976 -1.8078
31184SOL     OW99387   8.345   0.677   4.021 -0.2176  0.1968  0.4985
31184SOL    HW199388   8.300   0.759   4.041  0.7927  0.6124  1.1586
31184SOL    HW299389   8.324   0.660   3.929 -1.3260  0.6108  0.6614
31185SOL     OW99390   4.715   5.176   9.995 -0.1991 -0.5272 -0.6592
31185SOL    HW199391   4.740   5.199   9.906 -1.1228  0.1369 -0.7731
31185SOL    HW299392   4.685   5.258  10.033  0.3798 -0.7647  0.3390
31186SOL     OW99393   4.649   4.289   3.839 -0.0049 -0.9486  0.0347
31186SOL    HW199394   4.661   4.230   3.765 -0.1575  0.2613 -0.9902
31186SOL    HW299395   4.589   4.243   3.897 -0.8383 -1.4181 -1.1712
31187SOL     OW99396   1.224   9.643  10.498 -0.2392  0.2959  0.0247
31187SOL    HW199397   1.260   9.673  10.581  0.2412 -0.9921  0.3025
31187SOL    HW299398   1.299   9.644  10.438 -0.3149  0.0449 -0.0729
31188SOL     OW99399   8.797   9.928   7.478  0.1263 -0.0767 -0.6923
31188SOL    HW199400   8.814   9.967   7.392  1.1463 -1.3385 -1.1051
31188SOL    HW299401   8.750   9.847   7.458 -1.9642  0.8714  0.1427
31189SOL     OW99402   7.305   1.790   4.950  0.3539  0.3089 -0.0072
31189SOL    HW199403   7.373   1.723   4.950  1.7148  1.6203 -0.3584
31189SOL    HW299404   7.297   1.815   4.858 -1.0864 -0.2583 -0.0594
31190SOL     OW99405   5.179   6.020   7.050  0.3780 -0.1411  0.1136
31190SOL    HW199406   5.228   5.948   7.092  0.4041  0.2250  0.7194
31190SOL    HW299407   5.088   6.004   7.074  0.4384  0.2915  0.6580
31191SOL     OW99408   7.535   1.390   8.791  0.2709 -0.2376  0.3599
31191SOL    HW199409   7.600   1.455   8.766 -1.1315  1.0714 -0.0292
31191SOL    HW299410   7.580   1.334   8.854  2.6246 -1.1101 -1.8960
31192SOL     OW99411   9.099   1.653   9.552 -0.2494  0.2007 -0.3059
31192SOL    HW199412   9.189   1.634   9.579 -0.3431 -1.5311 -1.0539
31192SOL    HW299413   9.106   1.676   9.460 -0.5520  0.2150 -0.3264
31193SOL     OW99414   3.009   6.254   9.516  0.3991 -0.2737 -0.4058
31193SOL    HW199415   3.064   6.176   9.526  2.9527  0.9013 -3.7690
31193SOL    HW299416   3.033   6.310   9.590  1.5489 -0.9906 -0.2214
31194SOL     OW99417   2.446   7.687   4.551  0.3433  0.0802  0.0400
31194SOL    HW199418   2.364   7.688   4.600  0.0766 -0.7251 -0.3920
31194SOL    HW299419   2.421   7.681   4.459  0.8264  2.2104 -0.2963
31195SOL     OW99420   3.655   1.637   4.173 -0.3939 -0.0779 -0.2270
31195SOL    HW199421   3.676   1.575   4.244  1.1918 -0.0009 -0.5848
31195SOL    HW299422   3.564   1.662   4.189 -1.0514 -2.4111 -0.0068
31196SOL     OW99423   2.758   1.942   8.789 -0.4208  0.4292  0.6335
31196SOL    HW199424   2.794   1.873   8.846 -1.9257 -1.8708 -1.0041
31196SOL    HW299425   2.674   1.964   8.827 -0.7711 -0.0425  0.1567
31197SOL     OW99426   8.555   8.883   3.095  0.4647  0.5534  0.2606
31197SOL    HW199427   8.489   8.814   3.082 -0.0525  1.1782 -0.5293
31197SOL    HW299428   8.637   8.836   3.105  0.1904 -0.1701 -0.7409
31198SOL     OW99429   3.593   2.817   5.234 -0.1042 -0.3391 -0.1725
31198SOL    HW199430   3.569   2.725   5.230  0.1238 -0.3617 -1.9510
31198SOL    HW299431   3.512   2.863   5.257 -0.2316 -0.9552  0.6540
31199SOL     OW99432  10.533   5.781   2.767 -0.4282  0.5094 -0.0980
31199SOL    HW199433  10.600   5.720   2.799 -1.0768  0.5056  1.3379
31199SOL    HW299434  10.579   5.864   2.755 -0.3058  0.7405  1.7247
31200SOL     OW99435   9.594   8.513   1.938 -0.0123 -0.2891 -0.0733
31200SOL    HW199436   9.622   8.506   1.847  0.4288 -0.6433  0.0913
31200SOL    HW299437   9.567   8.425   1.962  0.5039 -0.3349  0.3472
31201SOL     OW99438   6.661   7.585   6.535  1.0222 -0.0880  0.3966
31201SOL    HW199439   6.722   7.622   6.471  0.7522  0.6429  0.5590
31201SOL    HW299440   6.616   7.660   6.573  0.8569 -0.5403  1.1320
31202SOL     OW99441   9.373   8.203   8.695 -0.1511  0.3491 -0.6072
31202SOL    HW199442   9.360   8.155   8.613  0.1247 -0.0827 -0.4030
31202SOL    HW299443   9.442   8.155   8.740  0.5532  1.2963 -0.6639
31203SOL     OW99444   2.019   2.208   0.312  0.4215 -0.1943 -0.0153
31203SOL    HW199445   1.964   2.266   0.260  0.2799 -0.3083  0.0055
31203SOL    HW299446   1.967   2.188   0.389  0.9784  0.6715  0.5931
31204SOL     OW99447   2.994   8.433   3.610 -0.2162  0.0625  0.2317
31204SOL    HW199448   2.999   8.348   3.565  0.0738 -0.9698  2.1336
31204SOL    HW299449   3.027   8.495   3.546 -0.6248 -1.2154 -1.2931
31205SOL     OW99450   3.421   1.737   5.697  0.4362  0.0523 -0.0363
31205SOL    HW199451   3.347   1.796   5.676  0.0565 -0.1853  0.6041
31205SOL    HW299452   3.468   1.783   5.767  0.0846 -0.4399  0.5319
31206SOL     OW99453   2.063   3.261   7.405  0.7197 -0.2104 -0.5634
31206SOL    HW199454   1.989   3.221   7.360  2.2827 -2.8568 -0.9990
31206SOL    HW299455   2.024   3.320   7.468 -1.6856 -0.2221 -1.9305
31207SOL     OW99456   7.648   0.291   5.370 -0.3619 -0.4610  0.4017
31207SOL    HW199457   7.561   0.261   5.398  0.3585 -2.4562  0.7065
31207SOL    HW299458   7.704   0.277   5.447  0.4601 -0.3308 -0.1566
31208SOL     OW99459  10.241   1.211   0.550  0.3839  0.3850 -0.2296
31208SOL    HW199460  10.243   1.197   0.455  0.3421 -0.5554 -0.1069
31208SOL    HW299461  10.151   1.189   0.576  0.1936  1.3366 -0.0661
31209SOL     OW99462   6.948   6.127   1.593  0.1358 -0.7460  0.4567
31209SOL    HW199463   6.908   6.081   1.667 -4.3399  1.8976 -0.0002
31209SOL    HW299464   6.996   6.199   1.633  2.4733 -2.3859  0.8586
31210SOL     OW99465   8.597   0.772   0.799 -0.2849 -0.4016 -0.4012
31210SOL    HW199466   8.517   0.740   0.840  0.2123 -0.7941  0.2759
31210SOL    HW299467   8.568   0.844   0.743 -1.0495 -0.2377  0.1936
31211SOL     OW99468  10.389   2.908   0.293  0.1605 -0.7257 -0.2485
31211SOL    HW199469  10.368   3.001   0.284  0.6575 -0.7892 -2.9643
31211SOL    HW299470  10.457   2.905   0.361  1.2530  1.1210 -1.1628
31212SOL     OW99471   9.966   8.693   0.045  0.4420  0.1369  0.0861
31212SOL    HW199472  10.019   8.686   0.124 -0.6146 -1.5279  0.6955
31212SOL    HW299473   9.876   8.700   0.076  0.0374 -0.1336 -0.9656
31213SOL     OW99474   5.951   4.892   4.427  0.1009 -0.3615  0.1234
31213SOL    HW199475   5.961   4.804   4.464 -0.7269 -1.0526 -1.2321
31213SOL    HW299476   6.034   4.911   4.385  0.9985  0.3629  2.0846
31214SOL     OW99477   7.919   8.915   8.253 -0.0580  0.4843  0.4743
31214SOL    HW199478   7.933   8.913   8.158  1.1628 -1.8808  0.6442
31214SOL    HW299479   7.834   8.873   8.266  0.5529 -0.7802  0.5043
31215SOL     OW99480   2.533   5.336   7.832 -0.2003 -0.0783 -0.4354
31215SOL    HW199481   2.438   5.334   7.820 -0.1836 -2.4325 -0.7251
31215SOL    HW299482   2.561   5.417   7.790 -2.1329  0.9698  0.2121
31216SOL     OW99483   5.422   8.259  10.319  0.0786  0.7391 -0.1185
31216SOL    HW199484   5.390   8.343  10.353  0.9415 -0.1109  3.1796
31216SOL    HW299485   5.349   8.199  10.333  0.9513  0.0573  1.8329
31217SOL     OW99486   3.904   2.378   5.878 -0.4583 -0.2640  0.6126
31217SOL    HW199487   3.912   2.466   5.842 -2.4930 -0.5933 -0.8107
31217SOL    HW299488   3.994   2.346   5.885  0.1754  0.9700 -1.3244
31218SOL     OW99489   1.054   4.669   7.127  0.7119  0.0058  0.3585
31218SOL    HW199490   0.973   4.672   7.076  0.2389 -2.7057  0.7800
31218SOL    HW299491   1.032   4.619   7.205  1.7134  3.0749  2.8144
31219SOL     OW99492   0.535   2.720   0.894  0.0777 -0.6137 -0.2835
31219SOL    HW199493   0.556   2.761   0.810  0.4217  1.4653  0.7509
31219SOL    HW299494   0.442   2.702   0.889 -0.0707  0.2524 -0.8173
31220SOL     OW99495   8.229   7.625   0.990  0.4008 -0.5079  0.2530
31220SOL    HW199496   8.302   7.572   0.957  0.8636 -0.5214  1.2496
31220SOL    HW299497   8.269   7.708   1.016  0.1034 -0.5761  0.9616
31221SOL     OW99498   9.023   2.994   3.517  0.3833  0.3663 -1.0420
31221SOL    HW199499   9.060   3.065   3.569  1.6273  0.8861 -2.5342
31221SOL    HW299500   9.100   2.950   3.479 -0.3678 -1.5772 -0.4545
31222SOL     OW99501   8.252   1.641   7.735 -0.1293  0.4172  0.3755
31222SOL    HW199502   8.285   1.633   7.825  0.4611  0.4181  0.1603
31222SOL    HW299503   8.182   1.576   7.730  1.0635 -0.9207  0.2897
31223SOL     OW99504   3.951   6.305   8.174  0.0852 -0.0622  0.0384
31223SOL    HW199505   3.961   6.215   8.205  2.9650  0.1912  0.1250
31223SOL    HW299506   3.976   6.302   8.082 -2.1257  0.3015 -0.6269
31224SOL     OW99507   2.386   2.330  10.118  0.1043  0.4562 -0.0931
31224SOL    HW199508   2.324   2.328  10.191 -0.4697  0.1612 -0.5796
31224SOL    HW299509   2.453   2.394  10.145  1.1690 -1.2849  1.6975
31225SOL     OW99510   4.630   5.786   7.630 -0.1280 -0.0614 -0.0113
31225SOL    HW199511   4.723   5.782   7.656 -0.3307 -1.0348  0.6047
31225SOL    HW299512   4.621   5.716   7.565 -0.5437 -0.3148  0.3177
31226SOL     OW99513   4.465   9.469   6.348 -0.5351  0.2119 -0.2425
31226SOL    HW199514   4.403   9.543   6.348  0.6476  1.2749  1.4013
31226SOL    HW299515   4.514   9.479   6.430 -0.8011 -2.8339  0.4043
31227SOL     OW99516   1.671   7.971   4.832  0.0099 -0.1061  0.4712
31227SOL    HW199517   1.664   8.065   4.821 -1.8014 -0.1941  0.6168
31227SOL    HW299518   1.604   7.935   4.773  0.8245 -1.3242  0.2453
31228SOL     OW99519   7.618   8.410   4.352  0.2089 -0.3634  0.1988
31228SOL    HW199520   7.549   8.468   4.384 -0.1219 -1.3078  1.2201
31228SOL    HW299521   7.584   8.322   4.367  1.3204 -0.8319 -0.0003
31229SOL     OW99522   7.383   6.454   7.446  0.2410  0.2438  0.5197
31229SOL    HW199523   7.327   6.432   7.520  1.2038 -0.8177  0.9744
31229SOL    HW299524   7.380   6.377   7.390  0.6049  0.4978  0.1461
31230SOL     OW99525   7.083   4.111   9.807 -0.7770 -0.3627 -0.7445
31230SOL    HW199526   7.040   4.026   9.801 -0.2445 -0.6439 -0.6861
31230SOL    HW299527   7.019   4.174   9.774 -2.3217 -0.3785  1.9627
31231SOL     OW99528   2.245   3.108   3.835 -0.4101 -0.1901  0.2297
31231SOL    HW199529   2.267   3.022   3.802 -1.1754 -0.3219  0.0490
31231SOL    HW299530   2.324   3.161   3.821  0.8737 -1.3975  2.3212
31232SOL     OW99531   7.870   5.240   3.674 -0.0412 -0.1762 -0.5737
31232SOL    HW199532   7.935   5.304   3.702 -1.1823  1.7365 -2.0789
31232SOL    HW299533   7.834   5.205   3.756 -0.4586  2.2488  0.3604
31233SOL     OW99534   7.881   9.106   5.708  0.4102  0.4616 -0.1793
31233SOL    HW199535   7.968   9.143   5.695  0.3938  1.3076  1.8075
31233SOL    HW299536   7.822   9.181   5.714 -0.1426 -0.0052  0.5149
31234SOL     OW99537   9.519   5.148   3.727  0.0106  0.7926  0.1273
31234SOL    HW199538   9.442   5.165   3.781 -0.7301 -1.8749  0.0840
31234SOL    HW299539   9.552   5.063   3.758  1.7619  0.9345 -1.1736
31235SOL     OW99540   9.672   7.555   4.247  0.0530  0.0107  0.7169
31235SOL    HW199541   9.635   7.642   4.262  0.9309  0.1907  1.9671
31235SOL    HW299542   9.740   7.568   4.181 -0.2000  0.1710  0.4890
31236SOL     OW99543   1.426   6.861   0.546  0.2346 -0.1052 -0.1711
31236SOL    HW199544   1.514   6.898   0.554  0.1809  0.5327 -2.0069
31236SOL    HW299545   1.425   6.822   0.458 -0.9001 -1.2816  0.3424
31237SOL     OW99546   1.809   9.258   2.473  0.1782  0.0470 -0.2121
31237SOL    HW199547   1.753   9.254   2.551 -1.1910  1.5719 -1.0579
31237SOL    HW299548   1.806   9.349   2.445 -0.1405 -0.6189 -2.5844
31238SOL     OW99549   9.595   4.586   4.559 -0.3484 -0.2734 -0.3688
31238SOL    HW199550   9.585   4.669   4.605 -0.1941  0.0395 -0.8863
31238SOL    HW299551   9.606   4.611   4.467  0.3848 -0.8363 -0.4402
31239SOL     OW99552   1.106   1.242  10.203  0.3206  0.2756  0.6924
31239SOL    HW199553   1.037   1.309  10.197  0.2245  0.1534  0.3996
31239SOL    HW299554   1.082   1.191  10.281 -0.5405 -0.4424 -0.0212
31240SOL     OW99555   5.306   5.697   2.673 -0.1098  0.8435 -0.2858
31240SOL    HW199556   5.367   5.686   2.746 -2.3787  1.2971  1.8335
31240SOL    HW299557   5.283   5.608   2.646 -0.6704  0.6219  0.8708
31241SOL     OW99558   1.741   8.337   7.886 -0.6507 -0.8457 -0.1632
31241SOL    HW199559   1.734   8.391   7.965 -0.8263  1.4448 -1.6403
31241SOL    HW299560   1.835   8.330   7.870 -0.6427 -0.1976 -0.4379
31242SOL     OW99561   9.040  10.353   7.759  0.1867  0.0583  0.5121
31242SOL    HW199562   9.063  10.260   7.756 -1.7570 -0.6686  3.5307
31242SOL    HW299563   9.024  10.377   7.668 -1.8024 -3.2946 -0.1707
31243SOL     OW99564   3.034   4.564   9.512  0.3761  0.1201 -0.0009
31243SOL    HW199565   2.973   4.522   9.451  0.6944  0.1881 -0.3651
31243SOL    HW299566   3.087   4.492   9.546 -0.6445 -0.1119  1.1844
31244SOL     OW99567   8.374   7.509   7.734 -0.1997 -1.0377  0.4005
31244SOL    HW199568   8.392   7.517   7.827 -1.0752 -2.8808  0.7652
31244SOL    HW299569   8.421   7.431   7.706 -0.1594 -0.6603 -0.6565
31245SOL     OW99570   8.945   9.156   6.390  0.2299 -0.3401  0.0851
31245SOL    HW199571   8.888   9.201   6.452 -1.2629 -0.6383 -1.0111
31245SOL    HW299572   8.944   9.064   6.418 -1.2207 -0.6570 -0.8661
31246SOL     OW99573   2.716   8.310   0.886  0.1028  0.2982  0.0292
31246SOL    HW199574   2.728   8.397   0.924 -0.7029  0.4416 -0.0322
31246SOL    HW299575   2.734   8.250   0.958  0.2248  0.5281  0.1921
31247SOL     OW99576   6.259   3.623   9.140 -0.3263 -0.2717  0.0918
31247SOL    HW199577   6.312   3.672   9.077 -0.1799 -1.4553 -0.7472
31247SOL    HW299578   6.269   3.531   9.113  0.2741 -0.8852  2.2444
31248SOL     OW99579   4.889   4.450   8.073 -1.0694  0.4503  0.0740
31248SOL    HW199580   4.912   4.413   7.988  0.2355  0.4212  0.4201
31248SOL    HW299581   4.926   4.538   8.072 -2.3498  1.0107  0.0570
31249SOL     OW99582   7.667   7.214   6.216  0.4628 -1.0000 -0.1102
31249SOL    HW199583   7.583   7.171   6.230  1.3849 -3.1939 -0.8210
31249SOL    HW299584   7.726   7.171   6.279  1.2321 -0.0796 -0.1800
31250SOL     OW99585   4.263   4.732   6.392 -0.0669  0.9859 -0.0934
31250SOL    HW199586   4.169   4.749   6.384 -0.3969 -0.4512  0.5196
31250SOL    HW299587   4.304   4.798   6.336 -1.5383  0.3043 -2.0624
31251SOL     OW99588   6.988   2.261   6.355  1.0797 -0.1957  0.0388
31251SOL    HW199589   6.929   2.259   6.280  0.0553 -0.5701  0.8239
31251SOL    HW299590   6.989   2.170   6.386  0.9520  0.0847  0.8767
31252SOL     OW99591   6.310   5.872   5.032 -0.0244 -0.5989 -0.1570
31252SOL    HW199592   6.231   5.866   5.085  0.1690 -2.8717 -0.0170
31252SOL    HW299593   6.381   5.853   5.093  0.5115  0.0973 -0.5539
31253SOL     OW99594   6.837   4.987   6.024 -0.8433  0.0546 -0.0407
31253SOL    HW199595   6.854   4.977   6.117 -1.5418 -1.5807 -0.0518
31253SOL    HW299596   6.743   5.004   6.018 -0.3577  3.0671 -0.3183
31254SOL     OW99597   4.365   5.889   2.736 -0.0572  0.1691 -0.1479
31254SOL    HW199598   4.437   5.931   2.689 -0.4354  1.2030  0.1619
31254SOL    HW299599   4.353   5.944   2.814  0.0522 -1.0667  0.7702
31255SOL     OW99600   5.256   6.491   9.881  0.2108 -0.2935 -0.3101
31255SOL    HW199601   5.253   6.563   9.817  2.4818 -0.8848 -1.1866
31255SOL    HW299602   5.224   6.530   9.962 -1.4854  0.8560 -1.4519
31256SOL     OW99603   5.128   1.887  10.091 -0.1650 -0.6865 -0.3820
31256SOL    HW199604   5.077   1.899  10.011  1.3299 -2.9997 -1.7963
31256SOL    HW299605   5.108   1.797  10.118  0.1950 -0.3022  1.2390
31257SOL     OW99606   1.519   1.988   1.132 -0.0913 -0.3690  0.2275
31257SOL    HW199607   1.436   2.028   1.107 -0.2954 -1.7292 -1.5506
31257SOL    HW299608   1.494   1.916   1.190 -0.1106 -0.4696  0.0947
31258SOL     OW99609   0.113   1.100   5.549 -0.1038 -0.2055 -0.0146
31258SOL    HW199610   0.028   1.071   5.583 -0.6389 -0.1486 -1.2550
31258SOL    HW299611   0.101   1.104   5.454  0.9527  0.8833 -0.1297
31259SOL     OW99612   9.578   9.310   0.669  0.4106  0.4387  0.5876
31259SOL    HW199613   9.482   9.308   0.668  0.4029  0.4764  1.1815
31259SOL    HW299614   9.603   9.219   0.688  0.5369 -0.0384 -1.6049
31260SOL     OW99615   6.599   3.909   3.096  0.2223  0.3473 -0.2442
31260SOL    HW199616   6.667   3.929   3.159 -0.8325 -1.1795  1.4629
31260SOL    HW299617   6.627   3.828   3.054 -0.7004 -0.5191  0.7663
31261SOL     OW99618   8.419   9.172   2.591 -0.2263 -0.0419  0.8173
31261SOL    HW199619   8.469   9.092   2.606 -0.8603 -0.7781 -0.7116
31261SOL    HW299620   8.363   9.181   2.668 -0.3940 -1.2792  0.8536
31262SOL     OW99621   5.824   1.380   9.359 -0.2714  0.0249 -0.3557
31262SOL    HW199622   5.782   1.419   9.282  0.7198  1.4436 -0.2012
31262SOL    HW299623   5.797   1.288   9.356  0.1831 -0.1025 -2.7195
31263SOL     OW99624  10.166   2.002   0.252  0.2841 -0.5125 -0.2434
31263SOL    HW199625  10.190   1.930   0.193  0.0227  0.2697 -1.3336
31263SOL    HW299626  10.249   2.037   0.283  0.4235 -0.9492 -0.1179
31264SOL     OW99627   8.969   4.373   2.047 -0.8088  0.1334  0.1207
31264SOL    HW199628   8.909   4.341   1.980  0.9383 -0.7271 -1.0991
31264SOL    HW299629   8.933   4.458   2.073 -2.0166  0.0707 -1.2458
31265SOL     OW99630  10.268   9.349   1.704  0.3019  0.6051 -0.0322
31265SOL    HW199631  10.175   9.340   1.723  0.2593  0.2009 -0.3915
31265SOL    HW299632  10.310   9.282   1.757  0.5391  1.6713  1.1609
31266SOL     OW99633   1.996   9.635   4.077  0.0922 -0.5680  0.1559
31266SOL    HW199634   2.014   9.609   3.987  0.6204  0.2847  0.0010
31266SOL    HW299635   2.009   9.730   4.077 -1.2190 -0.3683  0.8184
31267SOL     OW99636   6.441   8.234   0.536  0.2657 -0.2471  0.2903
31267SOL    HW199637   6.357   8.224   0.582 -0.7415  0.4626 -1.3055
31267SOL    HW299638   6.489   8.299   0.586 -0.5281  0.0175  0.7246
31268SOL     OW99639   2.357   4.471   7.776 -0.2491  0.2917  0.4957
31268SOL    HW199640   2.308   4.449   7.856  1.1411  0.6847  1.4959
31268SOL    HW299641   2.382   4.563   7.788 -1.2382  0.8055 -1.0837
31269SOL     OW99642   5.897  10.066   5.554  0.3312 -0.3717  0.5533
31269SOL    HW199643   5.887   9.996   5.618 -0.3279 -0.8013  0.0009
31269SOL    HW299644   5.953  10.029   5.486  1.1744  0.1422  0.9475
31270SOL     OW99645   9.100   3.529   9.607 -0.5100 -0.6077 -0.3556
31270SOL    HW199646   9.154   3.538   9.528 -0.2166  1.5904  0.0397
31270SOL    HW299647   9.011   3.521   9.574 -0.2985 -0.6124 -0.9340
31271SOL     OW99648   0.690   4.725   4.985 -0.1645  0.1764 -0.0538
31271SOL    HW199649   0.766   4.670   5.002  1.1290  1.6702 -0.7478
31271SOL    HW299650   0.686   4.732   4.889 -0.6064  0.8498  0.0044
31272SOL     OW99651   0.022   8.525   5.796  0.5567  0.0372  0.8024
31272SOL    HW199652   0.047   8.496   5.884 -1.1403 -1.5638  0.8157
31272SOL    HW299653  -0.068   8.556   5.806 -0.6669 -2.6763 -0.7777
31273SOL     OW99654   6.456   5.445   0.792  0.3883 -0.1284  0.0635
31273SOL    HW199655   6.429   5.477   0.877  0.8082  0.0391  0.1376
31273SOL    HW299656   6.428   5.513   0.730  1.1991  0.3493  0.2104
31274SOL     OW99657   9.050   2.847   6.063  0.1357 -0.5292  0.2201
31274SOL    HW199658   9.036   2.857   6.157 -1.0556 -0.6033  0.0735
31274SOL    HW299659   9.097   2.764   6.054 -0.3083 -0.8449  0.7220
31275SOL     OW99660   7.764   3.221   6.424 -0.1054 -0.0818 -0.2874
31275SOL    HW199661   7.681   3.267   6.437 -0.8479 -1.1071 -1.1887
31275SOL    HW299662   7.830   3.279   6.462 -1.3346  0.3115  1.3310
31276SOL     OW99663   8.146  10.068  10.589  0.7702 -0.2679  0.1360
31276SOL    HW199664   8.118  10.060  10.681 -0.1579 -0.2229 -0.1378
31276SOL    HW299665   8.133   9.981  10.553 -0.4217  0.1075 -0.3772
31277SOL     OW99666   2.552   4.104   3.346 -0.2187 -0.3869 -0.1792
31277SOL    HW199667   2.488   4.158   3.299 -2.2559 -1.4020  1.2892
31277SOL    HW299668   2.575   4.035   3.284 -0.3892  0.1020 -0.7931
31278SOL     OW99669   0.859   3.124   8.801  0.0515  0.0559  0.9266
31278SOL    HW199670   0.770   3.156   8.782 -0.0863  0.0558  1.5353
31278SOL    HW299671   0.861   3.036   8.764  1.0075  1.2942 -2.3542
31279SOL     OW99672   0.170   0.483   8.671  0.2867 -0.5200  0.3615
31279SOL    HW199673   0.188   0.537   8.594  1.0642  0.1525  1.0024
31279SOL    HW299674   0.228   0.408   8.662 -1.6008 -1.8979 -1.1203
31280SOL     OW99675   3.275   8.606   5.871  0.2153 -0.0231  0.3404
31280SOL    HW199676   3.208   8.551   5.832  0.9569 -0.6519 -0.0902
31280SOL    HW299677   3.280   8.682   5.814  2.1303 -1.4708 -1.6231
31281SOL     OW99678   2.288   4.546   3.331 -0.0838  0.0091  0.2807
31281SOL    HW199679   2.195   4.547   3.309 -0.0315  0.9751  0.0740
31281SOL    HW299680   2.332   4.525   3.249 -0.1529 -1.3045  0.5604
31282SOL     OW99681   7.328   6.859   5.313  0.0587  0.1208 -0.2557
31282SOL    HW199682   7.294   6.771   5.326  2.1578 -0.6678  0.3158
31282SOL    HW299683   7.260   6.916   5.348 -0.8981 -1.3180  0.3231
31283SOL     OW99684   6.203   7.875   6.948 -0.1010  0.3427  0.2159
31283SOL    HW199685   6.299   7.875   6.950 -0.0645  2.4920  0.7921
31283SOL    HW299686   6.178   7.951   6.999 -2.0784  0.8605 -1.4001
31284SOL     OW99687   3.328   8.018   2.939  0.4652  0.1074  0.0208
31284SOL    HW199688   3.344   7.988   3.029  0.3412 -0.2047 -0.0639
31284SOL    HW299689   3.234   8.029   2.933  0.3859 -0.6795 -0.3271
31285SOL     OW99690   0.961   3.571   9.612 -0.6776  0.1193 -0.1178
31285SOL    HW199691   1.046   3.610   9.594 -0.3736 -0.7489 -0.6334
31285SOL    HW299692   0.898   3.641   9.598 -0.0531  0.7760  0.2937
31286SOL     OW99693   1.961   2.056   4.725 -0.3474 -0.7930 -0.3681
31286SOL    HW199694   2.021   1.991   4.763  0.5521  0.3302  0.1857
31286SOL    HW299695   1.887   2.058   4.786  0.3565 -0.1657  0.5013
31287SOL     OW99696  10.223   4.919   7.809  0.0293  0.3586  0.3127
31287SOL    HW199697  10.304   4.877   7.779  1.1737  1.1545  2.1314
31287SOL    HW299698  10.252   4.998   7.854 -1.7320  0.4840  1.3268
31288SOL     OW99699   6.443   9.706   0.157 -0.3543  0.0276 -0.1695
31288SOL    HW199700   6.399   9.791   0.161  0.0167  0.2292 -0.3394
31288SOL    HW299701   6.432   9.670   0.245  2.4726  1.7635  1.0315
31289SOL     OW99702   7.505   6.387   4.333  1.1842 -0.2156  0.2642
31289SOL    HW199703   7.559   6.354   4.404  0.2916 -0.3272  0.9142
31289SOL    HW299704   7.528   6.480   4.326  1.0004 -0.1149  0.9607
31290SOL     OW99705   1.335   8.894   0.798 -0.8565 -0.1119 -0.3948
31290SOL    HW199706   1.252   8.940   0.809 -1.6712 -1.1817 -1.6823
31290SOL    HW299707   1.393   8.957   0.757 -0.7291  0.9125  1.2667
31291SOL     OW99708   7.255   6.133   2.012  0.3325 -0.4185  0.2251
31291SOL    HW199709   7.233   6.200   2.077  1.0517 -1.3917  1.5176
31291SOL    HW299710   7.176   6.080   2.004  0.0840 -0.0093 -0.0678
31292SOL     OW99711   7.683   3.615   1.910  0.8634 -0.2426 -0.1400
31292SOL    HW199712   7.754   3.586   1.966  0.4332  2.2259  1.9030
31292SOL    HW299713   7.712   3.700   1.877 -0.6754  0.3415 -0.0838
31293SOL     OW99714   4.166   6.721   1.238  0.1914 -0.4032 -0.1683
31293SOL    HW199715   4.101   6.686   1.177 -1.0852  1.4289  0.0671
31293SOL    HW299716   4.250   6.711   1.192 -0.3634 -1.8945 -0.8985
31294SOL     OW99717   6.073   0.357   5.130  0.2192 -0.2463 -0.2085
31294SOL    HW199718   6.150   0.340   5.183  1.3635 -0.6439 -1.9156
31294SOL    HW299719   5.999   0.350   5.191  1.3195 -2.4223  0.9689
31295SOL     OW99720   7.666   4.528   1.292  0.0448 -0.4702 -0.6796
31295SOL    HW199721   7.639   4.436   1.288 -0.5521 -0.3612  0.4003
31295SOL    HW299722   7.694   4.540   1.383  0.5798  0.2911 -0.9428
31296SOL     OW99723   4.346   2.900   5.658  0.1442  0.2215 -0.1702
31296SOL    HW199724   4.350   2.812   5.695  0.7973  0.2477 -0.1727
31296SOL    HW299725   4.330   2.886   5.565  2.5775 -0.0042 -0.6203
31297SOL     OW99726   3.403   3.151   8.943  0.3938  0.2722 -0.1341
31297SOL    HW199727   3.383   3.077   9.001  1.8324 -0.1515 -0.1291
31297SOL    HW299728   3.318   3.177   8.907  0.0580 -3.2833 -2.4402
31298SOL     OW99729   7.124   4.836   4.765  0.7117  0.3427  0.2013
31298SOL    HW199730   7.155   4.767   4.824 -0.4265 -0.0885  0.3151
31298SOL    HW299731   7.199   4.895   4.757  1.5381 -0.6190  0.5174
31299SOL     OW99732   0.910   8.727   9.924  0.4422 -0.2396  0.1864
31299SOL    HW199733   0.970   8.734   9.850  0.1825 -1.0192 -0.1078
31299SOL    HW299734   0.963   8.687   9.993  0.3292 -0.7010  0.0065
31300SOL     OW99735   6.780  10.007   8.821 -0.1125  0.3495 -0.2449
31300SOL    HW199736   6.740  10.037   8.740  0.6444  0.7954 -0.4656
31300SOL    HW299737   6.855  10.065   8.834  0.8635 -0.8657 -0.2162
31301SOL     OW99738   2.769   5.989   0.299 -0.1979 -0.0794 -0.3754
31301SOL    HW199739   2.757   5.907   0.347  0.2476 -0.5192 -0.9904
31301SOL    HW299740   2.863   5.993   0.282  0.2313  1.8980  1.9316
31302SOL     OW99741   9.150   7.708   5.192  0.1629  0.1762  0.1537
31302SOL    HW199742   9.177   7.684   5.104  0.5360  0.4496  0.1939
31302SOL    HW299743   9.184   7.638   5.248 -0.9265 -0.5263 -0.0294
31303SOL     OW99744   1.013   1.310   4.924 -0.4392 -0.3048  0.1066
31303SOL    HW199745   1.029   1.320   4.830  0.6122  0.2334  0.3295
31303SOL    HW299746   0.992   1.218   4.935  0.4088 -0.5885 -0.5294
31304SOL     OW99747   1.477   6.862   1.070  0.6079  0.1472  0.3625
31304SOL    HW199748   1.449   6.786   1.120 -1.3094  0.1252 -0.6349
31304SOL    HW299749   1.493   6.930   1.136 -2.0273  0.1801  1.0933
31305SOL     OW99750   7.743   0.160   2.303 -0.2148 -0.9514 -0.1027
31305SOL    HW199751   7.698   0.076   2.303  0.9699 -1.6423  1.6419
31305SOL    HW299752   7.815   0.149   2.242 -2.0175  0.0306 -2.6004
31306SOL     OW99753   7.985   8.322   4.673 -0.9086  0.4303 -0.5417
31306SOL    HW199754   7.901   8.277   4.685 -1.5455  1.5519 -0.6601
31306SOL    HW299755   7.970   8.380   4.599 -0.5463  1.8208  0.4451
31307SOL     OW99756   2.091   2.609   3.770  0.2479  0.2324  0.0571
31307SOL    HW199757   2.039   2.676   3.814  1.3827  0.9777  0.3098
31307SOL    HW299758   2.111   2.546   3.839 -0.0881  0.0809  0.0189
31308SOL     OW99759   3.412   6.493   6.093 -0.6105 -0.0227  0.4209
31308SOL    HW199760   3.367   6.431   6.150 -1.4934 -0.7485 -1.0003
31308SOL    HW299761   3.414   6.450   6.008  1.0514  0.8503 -0.0117
31309SOL     OW99762   6.409   6.992   0.627 -0.1749  0.3478  0.1373
31309SOL    HW199763   6.451   7.005   0.712  2.9213 -1.7793 -0.9147
31309SOL    HW299764   6.428   7.073   0.579 -1.4338  1.3132  1.1530
31310SOL     OW99765   5.379   6.238   1.451  0.2646  0.3117  0.2150
31310SOL    HW199766   5.456   6.242   1.394  0.3115  1.5695  0.3296
31310SOL    HW299767   5.361   6.330   1.472 -0.8861 -0.0180  0.7062
31311SOL     OW99768   0.714   1.710   5.370 -0.0233  0.2713 -0.0017
31311SOL    HW199769   0.625   1.680   5.359 -0.4718  2.0249 -1.5957
31311SOL    HW299770   0.763   1.670   5.298  0.2032  0.3290  0.1180
31312SOL     OW99771  10.290   2.721   0.094 -0.1748  0.3872  0.3178
31312SOL    HW199772  10.313   2.765   0.176 -1.3468 -1.6301  1.8183
31312SOL    HW299773  10.348   2.645   0.091 -1.5666 -0.7157  0.4003
31313SOL     OW99774   0.076   2.529  10.148  0.0111  0.4328  0.9470
31313SOL    HW199775   0.045   2.466  10.213  0.9697 -2.1932 -1.0253
31313SOL    HW299776  -0.003   2.555  10.100 -0.7373  2.5099  3.0658
31314SOL     OW99777   7.410   4.090   3.029  0.0730 -0.0333  0.9371
31314SOL    HW199778   7.504   4.103   3.045  0.5859 -0.8084 -1.1938
31314SOL    HW299779   7.375   4.179   3.020  0.7362  0.2483  1.0619
31315SOL     OW99780   3.232   0.364   2.600 -0.0086  0.5237 -0.1598
31315SOL    HW199781   3.299   0.430   2.583  0.3828  0.5499  1.2981
31315SOL    HW299782   3.281   0.282   2.613 -0.1418  0.6694  1.5911
31316SOL     OW99783   9.849   9.400   4.053  0.3870 -0.1189 -0.8414
31316SOL    HW199784   9.791   9.415   4.127  0.1159 -0.2414 -1.0269
31316SOL    HW299785   9.908   9.330   4.082 -0.8614 -1.4389 -1.3608
31317SOL     OW99786   0.143   5.398   2.295  0.1254 -0.2369 -0.1988
31317SOL    HW199787   0.204   5.393   2.221  2.0257 -1.2584  1.3313
31317SOL    HW299788   0.127   5.307   2.319 -1.4624  0.0419 -0.0930
31318SOL     OW99789   6.223   5.385   5.688  0.3148  0.6588  0.7844
31318SOL    HW199790   6.254   5.443   5.619 -2.5609 -1.7421 -2.8891
31318SOL    HW299791   6.301   5.337   5.716  1.6153  1.8514 -0.6283
31319SOL     OW99792   3.084   3.078  10.024  0.0945  0.4642 -0.6783
31319SOL    HW199793   3.105   3.006  10.083 -1.7201  0.5190  0.1051
31319SOL    HW299794   3.168   3.119  10.005  0.7210  0.8559  2.3906
31320SOL     OW99795   0.675   2.221   6.193  0.1369 -0.0205  0.0263
31320SOL    HW199796   0.647   2.144   6.144 -0.7218  1.2574 -1.6258
31320SOL    HW299797   0.596   2.253   6.237  0.5461 -0.2175  0.9265
31321SOL     OW99798   0.360   2.073   5.942  0.7395 -0.2198  0.0108
31321SOL    HW199799   0.312   2.153   5.964  2.1203  0.7344 -0.3130
31321SOL    HW299800   0.328   2.008   6.005 -1.3345  0.1958 -0.5240
31322SOL     OW99801   6.656   7.108   7.759 -0.0302  0.4757 -0.2077
31322SOL    HW199802   6.626   7.115   7.669 -0.2865  3.4094  0.0308
31322SOL    HW299803   6.748   7.083   7.752 -0.5274 -1.3058 -1.1427
31323SOL     OW99804   3.955   5.820   7.695 -0.3396  0.2427 -0.0159
31323SOL    HW199805   3.898   5.849   7.767  0.3650  2.2783 -0.2129
31323SOL    HW299806   4.012   5.895   7.679  1.8830 -1.4349 -0.3598
31324SOL     OW99807   9.341   5.949   5.556  0.6496 -0.0166  0.8372
31324SOL    HW199808   9.355   5.893   5.633 -1.4192 -1.6959  0.1080
31324SOL    HW299809   9.331   5.887   5.484  0.0268  1.4061 -0.3336
31325SOL     OW99810   1.816  10.079   1.333 -0.9353 -0.3041  0.7411
31325SOL    HW199811   1.834  10.111   1.422  0.9003  0.2933  0.1986
31325SOL    HW299812   1.839   9.986   1.336 -1.3320 -0.3947  1.0118
31326SOL     OW99813   7.341   8.570   9.477  0.3696 -0.0042  0.1027
31326SOL    HW199814   7.286   8.589   9.401 -0.2763 -0.1752  0.5236
31326SOL    HW299815   7.280   8.543   9.545  0.9263  0.2889  0.7347
31327SOL     OW99816   9.114   5.164  10.035 -0.8144 -0.3583  0.3118
31327SOL    HW199817   9.164   5.090  10.071 -0.0073  0.9886  2.1215
31327SOL    HW299818   9.181   5.228  10.009 -1.5271  0.8420  1.3204
31328SOL     OW99819   6.924   9.735   3.199 -0.4056 -0.3174 -0.0313
31328SOL    HW199820   6.867   9.665   3.232  0.3364 -0.2124  1.5868
31328SOL    HW299821   7.011   9.712   3.232  0.0229  0.8540 -0.3220
31329SOL     OW99822   6.185  10.432   5.013  0.1264  0.0776 -0.0568
31329SOL    HW199823   6.124  10.396   5.078 -1.0125  2.9673  0.6211
31329SOL    HW299824   6.217  10.355   4.966 -2.8041 -1.7364  0.6294
31330SOL     OW99825   8.857   5.251  10.509  0.4586  0.4107  0.3706
31330SOL    HW199826   8.818   5.232  10.423  0.8985 -0.6625  0.3954
31330SOL    HW299827   8.915   5.178  10.526 -0.4352  0.0346  2.0829
31331SOL     OW99828   6.125   7.461   0.888  0.8089  0.1964  0.0377
31331SOL    HW199829   6.109   7.531   0.952  0.7569 -0.9525  1.3367
31331SOL    HW299830   6.148   7.507   0.807 -0.2306  1.7232  0.5612
31332SOL     OW99831   9.120   1.385   3.807 -0.2353  0.2697  0.1984
31332SOL    HW199832   9.182   1.328   3.762 -0.8886 -0.3053  0.0052
31332SOL    HW299833   9.154   1.474   3.794  0.8508 -0.0711  0.5902
31333SOL     OW99834   0.544   4.646   2.111 -0.0081 -0.5805  0.5716
31333SOL    HW199835   0.550   4.741   2.114  0.7269 -0.5220 -1.4428
31333SOL    HW299836   0.470   4.629   2.052  1.6385 -1.1773 -1.4655
31334SOL     OW99837   3.498   3.284   0.355  0.1946  0.6963 -0.0245
31334SOL    HW199838   3.446   3.249   0.427 -1.7404 -0.8808 -2.0733
31334SOL    HW299839   3.550   3.210   0.324 -0.5052  0.8020 -1.5155
31335SOL     OW99840   8.969   9.552   9.544  0.2254  0.1861  0.0465
31335SOL    HW199841   8.914   9.630   9.539  1.7101  1.4220  1.7758
31335SOL    HW299842   9.046   9.573   9.492 -0.1067 -0.8443 -0.9036
31336SOL     OW99843   2.328  10.499   3.690  0.0738 -0.4639  0.1514
31336SOL    HW199844   2.319  10.581   3.642 -2.9797  0.0677  1.4306
31336SOL    HW299845   2.295  10.432   3.630 -0.5160 -0.2913  0.2821
31337SOL     OW99846   5.310   4.792   2.550 -0.1673  0.7950  0.2418
31337SOL    HW199847   5.399   4.821   2.529 -0.4687  2.2776  0.9070
31337SOL    HW299848   5.261   4.873   2.564 -1.3496 -0.0252  0.9900
31338SOL     OW99849   8.984   1.380   3.514 -0.5439 -0.1838  0.8653
31338SOL    HW199850   8.904   1.430   3.531 -0.4115  0.7405 -0.9404
31338SOL    HW299851   9.046   1.411   3.580 -1.2271  0.1823  1.3489
31339SOL     OW99852   5.557   9.874  10.288  0.0997  0.0500  0.3082
31339SOL    HW199853   5.639   9.921  10.303  0.2444  0.0180 -0.3565
31339SOL    HW299854   5.577   9.784  10.312 -0.4680  0.4637  2.5862
31340SOL     OW99855   6.886   7.686   9.564 -0.0060 -0.0907 -0.3027
31340SOL    HW199856   6.932   7.716   9.485 -2.0599  3.4749 -0.3723
31340SOL    HW299857   6.793   7.697   9.542 -0.8075 -2.6019  1.4100
31341SOL     OW99858   3.987   6.264   8.464 -0.5364 -0.3148 -0.2682
31341SOL    HW199859   4.062   6.209   8.444 -1.0641 -0.2769 -2.6957
31341SOL    HW299860   3.950   6.286   8.378 -0.8638  3.1119  0.5903
31342SOL     OW99861   3.536   3.628   5.259  0.1046 -0.4249 -0.2991
31342SOL    HW199862   3.566   3.718   5.250  2.2064 -0.7326  2.4433
31342SOL    HW299863   3.616   3.577   5.270 -1.0880 -2.5343 -0.7860
31343SOL     OW99864  10.459   9.996   5.011 -0.1481  0.2085 -0.0078
31343SOL    HW199865  10.454  10.084   4.974 -1.7037  0.6081  1.0227
31343SOL    HW299866  10.527   9.952   4.961 -0.3248  1.5521 -1.4989
31344SOL     OW99867   0.468   7.255   9.804  1.1266 -0.3687 -0.1820
31344SOL    HW199868   0.561   7.230   9.807  1.5585  1.0448 -0.8747
31344SOL    HW299869   0.469   7.350   9.801 -0.4169 -0.2398  1.5525
31345SOL     OW99870   9.113  10.514   3.885  0.2621  0.2332  0.4369
31345SOL    HW199871   9.108  10.462   3.805  0.7247  0.7843  0.0392
31345SOL    HW299872   9.057  10.590   3.868 -0.5182 -0.1877  1.0668
31346SOL     OW99873   1.530  10.428   4.693 -0.3841  0.3397 -0.3932
31346SOL    HW199874   1.476  10.441   4.770  0.3019  0.7773  0.0270
31346SOL    HW299875   1.508  10.501   4.635  2.6676  3.0687  1.5018
31347SOL     OW99876   0.396  10.411   2.759 -0.0993 -0.1868  0.3133
31347SOL    HW199877   0.301  10.399   2.756 -0.4901  2.3415  0.7109
31347SOL    HW299878   0.414  10.439   2.848  0.7661  1.0072 -0.2160
31348SOL     OW99879   9.049   1.336   8.470 -0.0113 -0.1050 -0.2223
31348SOL    HW199880   9.129   1.378   8.440 -0.2603  1.5770  1.2916
31348SOL    HW299881   9.064   1.243   8.455  2.0391  0.2049 -0.3815
31349SOL     OW99882   6.011   5.065   1.860 -0.3976  0.1083  1.7966
31349SOL    HW199883   6.066   5.139   1.887 -0.3807  0.6605  0.3025
31349SOL    HW299884   5.960   5.044   1.939 -1.2935  2.4981  1.9392
31350SOL     OW99885   7.503   8.942   7.386 -0.4598 -0.0836 -0.8824
31350SOL    HW199886   7.480   9.033   7.405 -0.9978 -0.6108  1.3899
31350SOL    HW299887   7.551   8.945   7.304 -1.6672  2.0770 -1.5855
31351SOL     OW99888   8.979   1.287   9.871  0.1510  0.4684  0.3778
31351SOL    HW199889   8.904   1.260   9.817  1.7266 -1.1311 -1.1230
31351SOL    HW299890   8.959   1.378   9.895 -1.3280  0.7536 -1.6576
31352SOL     OW99891   8.350  10.595   7.278 -0.2773  0.3562 -0.2925
31352SOL    HW199892   8.424  10.655   7.291  0.4515 -0.8542  1.5352
31352SOL    HW299893   8.285  10.622   7.343  0.0779 -0.8222  0.5847
31353SOL     OW99894   3.937   9.952   7.708  0.3311  0.4151 -0.3543
31353SOL    HW199895   4.001   9.887   7.680  0.4686  0.7556 -0.8513
31353SOL    HW299896   3.990  10.024   7.742  0.1789  0.2446  0.2506
31354SOL     OW99897   5.014   0.628   5.786 -0.8308  0.1938  0.0398
31354SOL    HW199898   4.982   0.690   5.721  0.6577  0.8930 -0.0658
31354SOL    HW299899   5.086   0.674   5.829 -0.1015 -1.2260  0.3919
31355SOL     OW99900   1.123   8.559   5.504 -0.2131  0.1291 -0.2425
31355SOL    HW199901   1.065   8.626   5.541 -1.8800 -0.6153 -1.3606
31355SOL    HW299902   1.092   8.549   5.414  2.5353  0.6247 -1.3316
31356SOL     OW99903   1.235  10.056   1.470 -0.2501 -0.1505  0.1558
31356SOL    HW199904   1.157  10.099   1.438 -0.3221 -1.1317 -1.0688
31356SOL    HW299905   1.297  10.059   1.397  0.1506 -1.0777  0.4313
31357SOL     OW99906   7.006   6.889   2.414  0.3447  0.4431  0.0312
31357SOL    HW199907   6.998   6.982   2.436 -0.8896  0.1501  0.9324
31357SOL    HW299908   7.075   6.886   2.347 -0.3470  2.1206 -0.8048
31358SOL     OW99909   3.716   9.826   1.758 -0.4024  0.3625  0.5484
31358SOL    HW199910   3.768   9.771   1.817  0.8586  1.6111  0.6664
31358SOL    HW299911   3.626   9.798   1.772  0.0893 -0.9122  1.3910
31359SOL     OW99912   9.432   9.537   8.572  0.8010 -0.3483  0.0472
31359SOL    HW199913   9.416   9.578   8.657  1.7387  0.7638 -0.2878
31359SOL    HW299914   9.394   9.449   8.580  1.2809 -0.4285  1.7559
31360SOL     OW99915   8.453   4.984   3.394 -0.0174  0.9144 -0.0199
31360SOL    HW199916   8.444   5.058   3.455  3.0069  2.0661 -0.7964
31360SOL    HW299917   8.489   5.023   3.314 -1.3663 -0.9745 -1.6625
31361SOL     OW99918   2.178   4.219   3.795 -0.5530  0.2583 -0.3185
31361SOL    HW199919   2.231   4.141   3.777 -0.6597 -0.3991  1.8870
31361SOL    HW299920   2.234   4.275   3.849 -0.5686  1.6293 -1.6772
31362SOL     OW99921  10.334   1.274   4.248 -0.1230 -0.4806 -0.2822
31362SOL    HW199922  10.275   1.240   4.180 -1.4675 -0.8024  0.9743
31362SOL    HW299923  10.277   1.325   4.305  1.1825  0.6967  0.0133
31363SOL     OW99924   7.516   9.491   2.884 -0.1197  0.0206 -0.6455
31363SOL    HW199925   7.460   9.415   2.898  0.4024 -0.5499 -1.5828
31363SOL    HW299926   7.455   9.565   2.879 -0.6853 -0.4208 -0.4028
31364SOL     OW99927   9.775   4.089   3.035  0.5971 -0.4844  0.1386
31364SOL    HW199928   9.779   4.003   2.992  1.3171  0.0602 -0.9098
31364SOL    HW299929   9.773   4.068   3.129 -0.5162 -1.6734 -0.1167
31365SOL     OW99930   0.617   2.924   3.603  0.1328 -0.0847  0.5188
31365SOL    HW199931   0.567   2.879   3.534  0.8856  0.5745 -0.4777
31365SOL    HW299932   0.606   2.868   3.680 -0.3540 -1.0843 -0.2458
31366SOL     OW99933   8.853   9.942   5.598  0.4345 -0.4391 -0.2063
31366SOL    HW199934   8.844   9.847   5.593 -2.4087 -0.2116 -1.4513
31366SOL    HW299935   8.865   9.970   5.507 -1.3563  0.5219 -0.1880
31367SOL     OW99936   5.474   4.038   1.673 -0.4526  0.3465 -0.2494
31367SOL    HW199937   5.524   4.105   1.718  0.8473 -0.3725 -0.5585
31367SOL    HW299938   5.525   3.957   1.686 -1.4618 -0.3824 -0.6955
31368SOL     OW99939   1.265   4.156   4.324  0.1522 -0.3426  0.2622
31368SOL    HW199940   1.187   4.103   4.306 -0.0670 -0.1009  0.4757
31368SOL    HW299941   1.292   4.129   4.412  0.0564 -0.1221  0.3600
31369SOL     OW99942   5.331   1.770   1.460  0.1083  0.0787  0.5578
31369SOL    HW199943   5.334   1.802   1.550 -0.4359  0.1574  0.5530
31369SOL    HW299944   5.423   1.756   1.436  0.3594  1.4715  0.6108
31370SOL     OW99945   7.325   8.747   6.808 -0.4741  0.0926  0.0345
31370SOL    HW199946   7.335   8.652   6.803 -0.8946  0.0769 -0.7206
31370SOL    HW299947   7.274   8.762   6.887 -0.6585 -0.3337 -0.0037
31371SOL     OW99948   7.278   7.808   9.263  0.1028  0.0612  0.0823
31371SOL    HW199949   7.211   7.748   9.230  0.3508  0.6331 -1.5637
31371SOL    HW299950   7.341   7.751   9.308 -0.1384 -0.8015 -0.6364
31372SOL     OW99951   3.142   9.183   5.822  0.8111 -0.2886  0.1103
31372SOL    HW199952   3.199   9.149   5.753 -2.1624  1.0419 -3.3398
31372SOL    HW299953   3.161   9.277   5.826 -0.3419 -0.0181 -0.3432
31373SOL     OW99954   1.332   7.885   3.232  0.3430 -0.2932  0.2634
31373SOL    HW199955   1.280   7.815   3.269 -0.0872  0.0912  0.3951
31373SOL    HW299956   1.382   7.920   3.305 -1.6049  1.4509  0.8699
31374SOL     OW99957   5.908   1.756   2.454 -0.1972  0.3616  0.2107
31374SOL    HW199958   5.992   1.794   2.429 -0.8997  1.3962 -0.7197
31374SOL    HW299959   5.909   1.668   2.415 -0.0720  0.8718 -1.0064
31375SOL     OW99960   7.043   0.003   1.673 -0.1467  0.2961 -0.2546
31375SOL    HW199961   7.028   0.098   1.669 -1.0472  0.2486  1.0889
31375SOL    HW299962   7.009  -0.022   1.759  0.4799 -1.1851 -0.4144
31376SOL     OW99963   5.410   1.288  10.083 -0.2454  0.0773  0.0238
31376SOL    HW199964   5.375   1.242  10.160 -0.1039  0.6685  0.4556
31376SOL    HW299965   5.463   1.223  10.037  0.6787  0.0466  1.0981
31377SOL     OW99966   7.385   7.498   2.013 -0.0678  0.0479  0.0481
31377SOL    HW199967   7.441   7.456   1.949  1.7034  0.1925  1.4308
31377SOL    HW299968   7.388   7.591   1.991  0.0956  0.0309 -0.0015
31378SOL     OW99969   8.819   9.928   2.148  0.4292  0.1416 -0.4193
31378SOL    HW199970   8.737   9.925   2.197  0.0990  0.9237 -0.9026
31378SOL    HW299971   8.817  10.012   2.103  1.0585 -0.2516 -1.2096
31379SOL     OW99972   0.551   9.815   3.399 -0.3274  0.1177 -0.4168
31379SOL    HW199973   0.490   9.855   3.461  0.5466  1.4108 -0.3603
31379SOL    HW299974   0.540   9.864   3.318  1.4248  1.1636 -0.0792
31380SOL     OW99975   1.859   2.977   7.402  0.3587 -0.5963 -0.2645
31380SOL    HW199976   1.823   2.889   7.397  0.4822 -0.8172  1.7385
31380SOL    HW299977   1.952   2.966   7.386  0.3030 -0.7718 -0.4619
31381SOL     OW99978   1.592   4.858   8.574 -0.1767  0.1094  0.2258
31381SOL    HW199979   1.661   4.925   8.572 -1.5442  1.5600 -0.8056
31381SOL    HW299980   1.612   4.807   8.652  1.5572  1.0264  0.4524
31382SOL     OW99981   7.720   1.066  10.166  0.6070  0.0325 -0.4396
31382SOL    HW199982   7.700   1.154  10.198 -0.8039  0.2143 -1.6971
31382SOL    HW299983   7.764   1.080  10.082  0.1352 -0.4447 -0.7756
31383SOL     OW99984   4.258   3.586   1.693 -0.0786 -0.5072 -0.0568
31383SOL    HW199985   4.203   3.664   1.688 -1.4162 -1.3949  0.2166
31383SOL    HW299986   4.346   3.620   1.713 -0.5400  0.9376 -0.3507
31384SOL     OW99987   8.738   5.088   9.007 -0.1401  0.0787  0.1143
31384SOL    HW199988   8.651   5.091   8.967 -0.4816  1.2070  0.9097
31384SOL    HW299989   8.798   5.108   8.935 -0.7000  1.4374 -0.0072
31385SOL     OW99990   5.132   3.464   2.866  0.4390 -0.1618 -0.3578
31385SOL    HW199991   5.096   3.505   2.787  0.7164  1.1780  0.1920
31385SOL    HW299992   5.202   3.408   2.833  1.1007  1.0104 -1.0121
31386SOL     OW99993   6.756   0.155  10.254  0.0618 -0.2699  0.1830
31386SOL    HW199994   6.848   0.142  10.276 -0.3868 -0.3000  2.3195
31386SOL    HW299995   6.733   0.239  10.294 -1.3808 -1.3523  1.7877
31387SOL     OW99996   9.234   6.110   1.499 -0.0059 -0.1295  0.6666
31387SOL    HW199997   9.253   6.160   1.578  1.2607  0.5928 -0.0625
31387SOL    HW299998   9.317   6.107   1.452 -0.8447 -0.0891 -0.8902
31388SOL     OW99999   7.472   2.759   9.385  0.4337 -0.3197  0.2543
31388SOL    HW1    0   7.446   2.851   9.375  2.5739  0.4566  1.2171
31388SOL    HW2    1   7.487   2.748   9.479 -0.0323 -1.7465  0.1887
31389SOL     OW    2   4.208   1.595   7.574 -0.0265 -0.0996 -0.7138
31389SOL    HW1    3   4.231   1.606   7.667 -1.3532 -0.1088 -0.3674
31389SOL    HW2    4   4.292   1.580   7.531  0.7318  0.9064  0.3309
31390SOL     OW    5   5.123   3.771   7.313  0.1828 -0.3845 -0.3439
31390SOL    HW1    6   5.104   3.849   7.260  1.4074 -1.5673 -2.6706
31390SOL    HW2    7   5.065   3.704   7.279 -1.1559 -0.4844  1.9240
31391SOL     OW    8   6.977   9.245   8.748 -0.1608 -0.6321  0.2801
31391SOL    HW1    9   7.003   9.334   8.725 -0.8928 -0.4664  0.0444
31391SOL    HW2   10   7.057   9.204   8.779  0.1052  0.2302  0.7811
31392SOL     OW   11   9.650   1.272   8.374  0.0252 -0.0025 -0.4765
31392SOL    HW1   12   9.585   1.245   8.309 -0.1577  0.3034 -0.4240
31392SOL    HW2   13   9.634   1.366   8.386  1.0866  0.2790 -1.1453
31393SOL     OW   14   1.507   7.137   3.107  0.0661  0.0013 -0.8529
31393SOL    HW1   15   1.485   7.108   3.196 -1.2730  0.3665 -1.0459
31393SOL    HW2   16   1.525   7.230   3.116  1.3153 -0.2261 -0.7550
31394SOL     OW   17   8.935   4.322   1.622  0.1764 -0.5298 -0.2940
31394SOL    HW1   18   8.925   4.328   1.527  0.1757  0.4465 -0.2471
31394SOL    HW2   19   8.846   4.317   1.655  0.2001 -1.7518 -0.3801
31395SOL     OW   20   2.521   6.361   9.786  0.1219  1.2366 -0.6569
31395SOL    HW1   21   2.603   6.405   9.766  0.3552  2.1621  1.9583
31395SOL    HW2   22   2.546   6.283   9.835 -0.5022  0.6490 -1.2505
31396SOL     OW   23   1.687  10.149   2.552  0.6904  0.3260 -0.0601
31396SOL    HW1   24   1.639  10.073   2.518  1.2429  0.0660 -0.2599
31396SOL    HW2   25   1.670  10.148   2.646  0.4641  0.1233 -0.1010
31397SOL     OW   26  10.067   0.672   9.365 -0.4622  0.0967 -0.1345
31397SOL    HW1   27  10.062   0.765   9.343  1.8243  0.2224 -0.3642
31397SOL    HW2   28  10.117   0.669   9.447 -0.1635 -0.9411 -0.3314
31398SOL     OW   29   5.716   6.672   6.380  0.0740 -0.7747 -0.2296
31398SOL    HW1   30   5.715   6.727   6.301  0.4897 -0.0197  0.2832
31398SOL    HW2   31   5.633   6.691   6.424  0.9545  0.7679  0.8302
31399SOL     OW   32   6.145   8.718   4.910  0.2991 -0.4646  0.0411
31399SOL    HW1   33   6.231   8.739   4.875  0.8200  0.0498  1.5282
31399SOL    HW2   34   6.163   8.668   4.990 -0.7971 -0.9075  0.0285
31400SOL     OW   35   4.761   7.866   6.922 -0.4337 -0.3888  0.0936
31400SOL    HW1   36   4.721   7.802   6.981 -0.0233  0.8873  1.8372
31400SOL    HW2   37   4.688   7.909   6.878 -0.7892 -0.7428  0.3348
31401SOL     OW   38   4.869   9.345   5.380 -0.2923  0.0121  0.0328
31401SOL    HW1   39   4.941   9.394   5.341 -0.8869  0.2798 -0.7605
31401SOL    HW2   40   4.791   9.375   5.333 -0.8018 -0.9484  0.2358
31402SOL     OW   41   3.285   4.254   3.100  0.3423 -0.1649 -0.3631
31402SOL    HW1   42   3.203   4.228   3.058  0.0448 -0.8615  0.5971
31402SOL    HW2   43   3.301   4.185   3.165  1.2821  0.3707 -0.0084
31403SOL     OW   44   7.746   8.514   1.161 -0.0386  0.4330 -0.3421
31403SOL    HW1   45   7.776   8.468   1.083  0.3360 -0.8257  0.5212
31403SOL    HW2   46   7.823   8.519   1.217 -0.3378  1.2262  0.0066
31404SOL     OW   47   7.686   2.285   8.769 -0.0721  0.0361 -0.2774
31404SOL    HW1   48   7.686   2.380   8.760  2.6585  0.0014 -1.6403
31404SOL    HW2   49   7.711   2.252   8.683  0.4353 -1.8370  0.5324
31405SOL     OW   50   7.274   8.821   9.826  0.0204  0.3385  0.1097
31405SOL    HW1   51   7.310   8.842   9.912  0.3919 -2.0281  0.5847
31405SOL    HW2   52   7.189   8.783   9.844 -0.4722  1.0257 -0.6841
31406SOL     OW   53   0.915   1.939   2.551 -0.1226 -0.2481  0.1324
31406SOL    HW1   54   0.999   1.983   2.546 -0.6810  0.8651  0.2250
31406SOL    HW2   55   0.936   1.848   2.574  1.1186 -0.3368 -1.2813
31407SOL     OW   56   5.773   8.885   5.773 -0.0479 -0.7109  0.0550
31407SOL    HW1   57   5.723   8.803   5.780 -1.8797  0.3486 -0.0442
31407SOL    HW2   58   5.738   8.928   5.696  1.9752 -0.4772 -0.8041
31408SOL     OW   59   2.108   9.957   1.387 -0.1042 -0.2524 -0.1154
31408SOL    HW1   60   2.083   9.865   1.376  1.2802 -0.6382 -0.1556
31408SOL    HW2   61   2.169   9.957   1.461 -0.0986  0.6422 -0.1049
31409SOL     OW   62   7.428   5.391   4.365  0.2313 -0.2851  0.0812
31409SOL    HW1   63   7.521   5.378   4.348 -0.1367 -1.6754 -1.0525
31409SOL    HW2   64   7.384   5.356   4.288 -1.1958  2.3460 -0.4316
31410SOL     OW   65   6.624   1.709   3.322 -0.2291 -0.0480  0.0984
31410SOL    HW1   66   6.694   1.757   3.366 -0.5736 -0.7127  1.4476
31410SOL    HW2   67   6.658   1.691   3.235  1.3607 -0.4819  0.7731
31411SOL     OW   68   7.019   1.057   5.311  0.1588  0.1991 -0.3858
31411SOL    HW1   69   6.954   1.088   5.375  1.8065  0.7076  1.1163
31411SOL    HW2   70   6.996   0.966   5.297 -0.9703  0.4023 -0.0011
31412SOL     OW   71   8.027   5.144   0.130 -0.0979 -0.2762 -0.1909
31412SOL    HW1   72   8.064   5.063   0.164  0.6217  0.9803  2.3443
31412SOL    HW2   73   7.932   5.134   0.141  0.0345 -0.5071  0.8838
31413SOL     OW   74  10.176   4.115   2.086  0.2630 -0.0330 -0.2526
31413SOL    HW1   75  10.184   4.075   2.172 -0.9026 -1.2458 -0.6749
31413SOL    HW2   76  10.082   4.125   2.073  0.4799  1.6550 -0.7253
31414SOL     OW   77   7.433   2.950   6.174  0.1406 -0.3188  0.6331
31414SOL    HW1   78   7.431   2.964   6.269 -1.3830 -2.0716  0.9140
31414SOL    HW2   79   7.342   2.933   6.150  0.6977 -1.3552 -0.8992
31415SOL     OW   80   4.096  10.648   4.071 -0.6891  0.5419 -0.0701
31415SOL    HW1   81   4.011  10.642   4.027 -0.3159  0.5716 -0.7964
31415SOL    HW2   82   4.074  10.648   4.165 -1.3785 -2.1015 -0.1395
31416SOL     OW   83   8.576   4.126   2.775  0.6270 -0.4115  0.4690
31416SOL    HW1   84   8.599   4.082   2.693 -0.3567 -0.7073  0.3316
31416SOL    HW2   85   8.548   4.214   2.749 -1.0148 -0.9481  0.3015
31417SOL     OW   86   2.115   8.621   4.042  0.4026 -0.4528  0.5185
31417SOL    HW1   87   2.165   8.590   3.967  0.0614  0.3300 -0.0440
31417SOL    HW2   88   2.026   8.589   4.027  0.4405 -0.7132  0.8399
31418SOL     OW   89   7.468   6.506   3.606 -0.4689  0.1076 -0.0398
31418SOL    HW1   90   7.458   6.458   3.689 -0.3880 -0.8259 -0.5554
31418SOL    HW2   91   7.424   6.451   3.541 -0.1811  0.6308 -0.6898
31419SOL     OW   92   0.528   2.689   8.526 -0.0042 -0.1977 -0.6820
31419SOL    HW1   93   0.508   2.620   8.463 -1.6982 -0.3465 -0.0302
31419SOL    HW2   94   0.502   2.652   8.611  1.9691  0.0916  0.1033
31420SOL     OW   95   0.857   8.564   6.347  0.0708  0.6215  0.0961
31420SOL    HW1   96   0.946   8.552   6.313 -0.5259  0.6027 -1.5525
31420SOL    HW2   97   0.864   8.638   6.407  0.7825  2.2159 -1.8413
31421SOL     OW   98   9.205   0.867   7.615 -0.2274  0.2964 -0.0527
31421SOL    HW1   99   9.114   0.875   7.587 -0.4947  2.1283  1.1429
31421SOL    HW2  100   9.256   0.903   7.543 -0.6673  1.7339  0.3248
31422SOL     OW  101   5.228   0.084   1.142  0.0130 -0.0837  0.4147
31422SOL    HW1  102   5.215   0.101   1.048  0.5486  2.2843  0.6871
31422SOL    HW2  103   5.229  -0.011   1.149  0.5177 -0.3447 -2.0665
31423SOL     OW  104   2.956   0.720  10.056 -0.0904 -0.0348  0.0851
31423SOL    HW1  105   2.963   0.626  10.042 -1.6496 -0.0013 -1.2190
31423SOL    HW2  106   3.046   0.749  10.070  0.5257 -1.5684 -0.5270
31424SOL     OW  107   3.113  10.227   1.810 -0.0025 -0.4877 -0.4457
31424SOL    HW1  108   3.066  10.256   1.889  2.0000 -1.0775  1.0455
31424SOL    HW2  109   3.056  10.252   1.738 -2.1101 -0.2475  1.1945
31425SOL     OW  110   9.289   8.616   3.778 -0.5394  0.2884  0.3405
31425SOL    HW1  111   9.304   8.572   3.861 -0.2476  0.2826  0.2853
31425SOL    HW2  112   9.223   8.562   3.733 -0.1624 -0.1053  0.2602
31426SOL     OW  113   0.299   3.364   1.617 -0.4759  0.3446  0.5731
31426SOL    HW1  114   0.379   3.314   1.604  0.0740  0.5129  2.7672
31426SOL    HW2  115   0.316   3.448   1.575 -0.6022 -0.5484 -1.3389
31427SOL     OW  116  10.495   3.501   8.691 -1.2665  0.2282  0.2443
31427SOL    HW1  117  10.403   3.478   8.676 -1.2929 -0.6645  1.6070
31427SOL    HW2  118  10.538   3.418   8.709 -0.1858  0.6425 -0.3784
31428SOL     OW  119   8.021   6.242  10.058 -0.0376  0.3870 -0.3343
31428SOL    HW1  120   8.043   6.151  10.039 -1.2083  0.0710 -0.2849
31428SOL    HW2  121   8.103   6.282  10.084  0.5712 -0.5561 -0.7534
31429SOL     OW  122   7.251  10.087   3.011 -0.1686 -0.0870 -0.4706
31429SOL    HW1  123   7.313  10.159   3.005  0.1749 -0.3561 -0.2011
31429SOL    HW2  124   7.266  10.050   3.098 -0.9461  0.0618 -0.2638
31430SOL     OW  125   0.905   9.154   6.252  0.2588  0.1699 -0.0755
31430SOL    HW1  126   0.900   9.234   6.303  1.3504  0.6598 -0.7071
31430SOL    HW2  127   0.957   9.094   6.305 -0.7869 -0.2375  0.5192
31431SOL     OW  128  10.534   0.289   2.446 -0.0891  0.1782  0.0333
31431SOL    HW1  129  10.624   0.321   2.457 -0.7613  1.6472  1.9260
31431SOL    HW2  130  10.521   0.287   2.351  1.9391 -0.1079 -0.2848
31432SOL     OW  131   2.512   3.555   6.791  0.5052 -0.2204 -0.1941
31432SOL    HW1  132   2.469   3.518   6.868  2.3496  1.4005  1.7276
31432SOL    HW2  133   2.455   3.628   6.765 -0.7586 -1.5070 -1.1952
31433SOL     OW  134   7.300   1.305   9.415 -0.1323  0.2819 -0.0965
31433SOL    HW1  135   7.266   1.305   9.326 -2.9307  0.5961  0.8872
31433SOL    HW2  136   7.301   1.212   9.440 -0.7780  0.3072  0.0351
31434SOL     OW  137  10.018   3.887   3.413  0.2942 -0.3972  0.5027
31434SOL    HW1  138   9.993   3.831   3.340  0.6536 -0.1687  0.2007
31434SOL    HW2  139  10.108   3.862   3.433  0.3052 -0.2364  0.6582
31435SOL     OW  140   7.926   3.324  10.099 -0.1475  0.4549 -0.5668
31435SOL    HW1  141   7.995   3.358  10.043  1.5481 -0.9552  0.5755
31435SOL    HW2  142   7.882   3.258  10.046  0.7314 -0.0858 -0.6391
31436SOL     OW  143   9.532   0.751   5.005  0.4343 -0.1166  0.4876
31436SOL    HW1  144   9.626   0.765   5.009  0.2845  0.7100  2.6322
31436SOL    HW2  145   9.501   0.813   4.940  1.4389 -1.1245 -1.0216
31437SOL     OW  146   5.322   9.070   1.515 -0.2608  0.3622  0.3107
31437SOL    HW1  147   5.275   9.137   1.466  2.3827  0.9881 -1.5367
31437SOL    HW2  148   5.342   9.002   1.451 -1.2470 -1.3747  1.7357
31438SOL     OW  149   6.021   1.163   5.775  0.0828 -0.4649 -0.0908
31438SOL    HW1  150   5.982   1.099   5.835 -1.0719 -0.2593 -0.5984
31438SOL    HW2  151   6.104   1.185   5.816 -0.3027 -0.9522  1.0177
31439SOL     OW  152   5.497   8.088   0.410 -0.4076  0.1549  0.7858
31439SOL    HW1  153   5.455   8.129   0.335 -0.6213 -0.7124  0.4261
31439SOL    HW2  154   5.425   8.047   0.459 -0.1340 -0.2687  0.8405
31440SOL     OW  155   9.207   4.315  10.141  0.1229  0.5296  0.2682
31440SOL    HW1  156   9.135   4.378  10.141  1.1644  1.7662  1.3551
31440SOL    HW2  157   9.205   4.277  10.053  0.5922  3.4182 -1.1059
31441SOL     OW  158   1.003   9.445   1.149  0.4551 -0.1694 -0.0509
31441SOL    HW1  159   0.946   9.521   1.158  0.6486  0.0579 -0.6767
31441SOL    HW2  160   1.092   9.480   1.158  0.5107 -0.6650  1.9677
31442SOL     OW  161   4.114   6.052   9.824  0.3769  0.2043  0.0719
31442SOL    HW1  162   4.183   6.073   9.761  1.5824 -0.5544  1.1134
31442SOL    HW2  163   4.141   6.095   9.905  1.4362 -2.8018  1.4483
31443SOL     OW  164   5.014   9.301   9.656  0.7656  0.4800  0.4610
31443SOL    HW1  165   5.054   9.355   9.725 -0.9630  1.2291  0.9520
31443SOL    HW2  166   4.972   9.365   9.598  0.3091 -0.2616 -0.0373
31444SOL     OW  167   5.074   2.721  10.174 -0.3682 -0.3146  0.1282
31444SOL    HW1  168   4.993   2.672  10.187  0.3862 -1.5344  0.3204
31444SOL    HW2  169   5.142   2.670  10.219  0.2121  1.6965  1.7376
31445SOL     OW  170  10.313   2.697   4.001  0.0478 -0.5310 -0.2037
31445SOL    HW1  171  10.273   2.610   4.007  2.0898 -1.5582 -0.6610
31445SOL    HW2  172  10.291   2.728   3.913  1.5285 -1.7955 -1.0709
31446SOL     OW  173   3.031   0.483   6.898  0.3009  1.2214  0.7893
31446SOL    HW1  174   2.991   0.453   6.979  0.0130 -1.7971 -0.3402
31446SOL    HW2  175   2.960   0.479   6.833  0.8579  2.2629  0.0791
31447SOL     OW  176   1.223   9.390   2.499 -0.0443  0.7464  0.4247
31447SOL    HW1  177   1.141   9.395   2.549 -0.8496 -0.2999 -0.7078
31447SOL    HW2  178   1.252   9.480   2.490 -0.7231  1.0795  1.3908
31448SOL     OW  179   4.704   3.269   7.057  0.3836 -0.9595 -0.3653
31448SOL    HW1  180   4.763   3.341   7.035 -0.6200 -0.2546 -0.8484
31448SOL    HW2  181   4.713   3.258   7.151 -1.2138  1.4779  0.1740
31449SOL     OW  182   2.954   0.460   9.658 -0.8967  0.0819  0.1902
31449SOL    HW1  183   2.914   0.374   9.666 -2.0795  0.5445 -0.6146
31449SOL    HW2  184   3.035   0.444   9.609 -1.5193 -0.4645 -0.6895
31450SOL     OW  185   9.105   3.141   7.338 -0.2778 -0.3291  0.3062
31450SOL    HW1  186   9.086   3.182   7.254  0.2568 -0.4218  0.1406
31450SOL    HW2  187   9.172   3.197   7.377 -1.8387  0.8172  1.5096
31451SOL     OW  188   5.505   1.127   5.781 -0.2276  0.2614  0.0102
31451SOL    HW1  189   5.565   1.176   5.725 -0.8152  0.9004 -0.0861
31451SOL    HW2  190   5.480   1.190   5.849 -1.3154  0.2382 -0.3494
31452SOL     OW  191   0.715   9.650   9.301 -0.1624 -0.5682 -0.1670
31452SOL    HW1  192   0.759   9.733   9.283 -0.0767 -0.4544  0.5214
31452SOL    HW2  193   0.781   9.583   9.280 -0.1544 -0.4566 -0.5041
31453SOL     OW  194  10.665   0.165   4.099  0.5784  0.7162 -0.4455
31453SOL    HW1  195  10.705   0.241   4.058  0.6567  0.9471  0.0473
31453SOL    HW2  196  10.665   0.186   4.193 -0.1637  0.4768 -0.3845
31454SOL     OW  197   5.647   3.054   7.718 -0.3898 -0.4226 -0.0268
31454SOL    HW1  198   5.610   2.966   7.702 -0.7404 -0.0261 -1.5681
31454SOL    HW2  199   5.610   3.079   7.802 -0.9032 -1.4561  0.0848
31455SOL     OW  200   5.558   0.268   2.206  0.2165  0.3150 -0.1106
31455SOL    HW1  201   5.634   0.325   2.218  1.6319 -1.7116  1.1503
31455SOL    HW2  202   5.585   0.207   2.137 -0.4294 -0.1594  0.0514
31456SOL     OW  203   4.081   2.158   5.505 -0.4006  0.4658 -0.2138
31456SOL    HW1  204   4.092   2.233   5.563 -1.8586 -0.2213  1.0429
31456SOL    HW2  205   3.996   2.173   5.462 -0.4370 -0.1687 -0.3760
31457SOL     OW  206  10.275   6.586   8.904 -0.2669 -0.3324  0.4109
31457SOL    HW1  207  10.189   6.597   8.944 -0.8108  0.7941 -1.0041
31457SOL    HW2  208  10.336   6.624   8.967 -1.3734  4.2886 -0.9544
31458SOL     OW  209   0.769   2.377   4.881  0.1321 -0.1798  0.6247
31458SOL    HW1  210   0.739   2.415   4.963 -1.5195  1.3064 -0.5850
31458SOL    HW2  211   0.695   2.388   4.821  0.6218 -2.8095 -0.6172
31459SOL     OW  212   5.994   5.159   4.160 -0.5912  0.7761 -0.2905
31459SOL    HW1  213   5.940   5.123   4.089 -0.0947  0.0762 -0.3252
31459SOL    HW2  214   5.933   5.168   4.234 -0.2433 -2.7653  0.6164
31460SOL     OW  215   7.061   6.217   1.229  0.1886 -0.4963  0.4613
31460SOL    HW1  216   7.156   6.213   1.242  0.1785 -0.6435  0.4954
31460SOL    HW2  217   7.050   6.209   1.135  0.1318 -2.1926  0.5716
31461SOL     OW  218   8.408   0.443   8.290 -0.2335  0.7171 -0.6525
31461SOL    HW1  219   8.477   0.506   8.313 -0.2303  0.2473  0.7219
31461SOL    HW2  220   8.327   0.494   8.293 -0.1116  0.9176 -0.7177
31462SOL     OW  221  10.481   0.272   3.391 -0.1537 -0.1179  0.3861
31462SOL    HW1  222  10.513   0.362   3.382  0.6834 -0.4821 -0.4510
31462SOL    HW2  223  10.388   0.277   3.370 -0.3694  0.7232  1.4201
31463SOL     OW  224  10.161   5.863   4.192 -0.1359 -0.1387  0.3275
31463SOL    HW1  225  10.227   5.908   4.245  3.0210 -1.5683 -2.0316
31463SOL    HW2  226  10.146   5.781   4.238 -2.4025  1.2188  2.2195
31464SOL     OW  227   5.967   6.908   4.249 -0.7885 -0.1808 -0.3360
31464SOL    HW1  228   5.914   6.909   4.328 -0.4442  0.6375 -0.1084
31464SOL    HW2  229   5.905   6.921   4.177 -1.0813 -0.7881 -0.1982
31465SOL     OW  230   0.423   4.766   1.803 -0.7618 -0.0445 -0.7329
31465SOL    HW1  231   0.336   4.791   1.772 -1.5937 -0.4001  1.1847
31465SOL    HW2  232   0.483   4.816   1.748 -2.2149  1.3539 -1.1138
31466SOL     OW  233   7.062   0.350   1.206  0.3991  0.5171  0.1098
31466SOL    HW1  234   7.131   0.337   1.141  1.0801 -1.1651  1.0951
31466SOL    HW2  235   7.016   0.428   1.177  0.7062 -0.1320 -2.3478
31467SOL     OW  236   6.772   6.103   0.073 -0.0025  0.1298  0.0051
31467SOL    HW1  237   6.739   6.164   0.008  1.1441  0.1887 -0.5443
31467SOL    HW2  238   6.774   6.153   0.155 -1.1555  0.1439  0.0409
31468SOL     OW  239   8.363   9.719   3.630  0.4563  0.2418 -0.0680
31468SOL    HW1  240   8.444   9.732   3.678  0.5620  0.3034 -0.2642
31468SOL    HW2  241   8.390   9.686   3.544  0.2929  0.5911 -0.2560
31469SOL     OW  242   1.681   8.295   1.779  0.6226 -0.2011  0.9416
31469SOL    HW1  243   1.695   8.200   1.781 -1.8888 -0.6758 -0.1498
31469SOL    HW2  244   1.717   8.323   1.695 -0.1836 -0.4894  0.4984
31470SOL     OW  245   8.955   3.254   0.207  0.0796  0.3547 -0.5175
31470SOL    HW1  246   8.862   3.277   0.211  0.0864  0.2189  2.0173
31470SOL    HW2  247   8.996   3.310   0.273  1.4800 -0.8639 -0.2976
31471SOL     OW  248   6.357  10.513   1.915  0.2855 -0.0294  0.1876
31471SOL    HW1  249   6.305  10.482   1.989 -1.0312 -1.2829 -1.1975
31471SOL    HW2  250   6.321  10.468   1.840 -0.3476  3.2994 -1.7122
31472SOL     OW  251   8.150   9.633   6.685 -0.1146  0.2577  0.0673
31472SOL    HW1  252   8.193   9.605   6.766  0.1120 -1.9861 -0.7587
31472SOL    HW2  253   8.221   9.642   6.622 -0.5583 -0.7481 -0.5911
31473SOL     OW  254   7.539   1.122   9.893  0.0377  0.2541  0.0249
31473SOL    HW1  255   7.634   1.118   9.900  0.5291  1.9009 -3.5656
31473SOL    HW2  256   7.514   1.034   9.863  0.7532  0.5179 -1.3941
31474SOL     OW  257   8.033   7.519   4.883  0.0432 -0.3988 -0.1695
31474SOL    HW1  258   8.084   7.439   4.895 -1.2429 -1.2599 -0.2789
31474SOL    HW2  259   8.043   7.568   4.964 -0.2512 -1.3206  0.4320
31475SOL     OW  260   8.706   1.832   0.822  0.0444  0.1169 -0.8038
31475SOL    HW1  261   8.773   1.763   0.820  1.6414  1.5510  0.3533
31475SOL    HW2  262   8.644   1.806   0.753  1.9538 -1.1105 -2.1998
31476SOL     OW  263   2.374   9.571   2.923  0.4143 -0.5556 -0.1198
31476SOL    HW1  264   2.398   9.479   2.913 -1.6556 -1.0084 -1.7118
31476SOL    HW2  265   2.417   9.615   2.849  0.9556 -0.3246  0.3253
31477SOL     OW  266   8.359  10.072   5.894 -0.3604 -0.2018  0.1090
31477SOL    HW1  267   8.436  10.034   5.853  0.4948  0.6842  0.8547
31477SOL    HW2  268   8.364  10.165   5.874 -1.4462 -0.1903 -0.1557
31478SOL     OW  269   9.777   2.831   6.344 -0.4424  0.3700  0.3390
31478SOL    HW1  270   9.852   2.771   6.345 -0.6891  0.0705  0.7456
31478SOL    HW2  271   9.794   2.888   6.269 -1.2891 -1.6035 -1.4695
31479SOL     OW  272  10.485   6.857   8.783 -0.1257 -0.0257  0.0193
31479SOL    HW1  273  10.498   6.823   8.872 -0.8806 -3.1333 -0.9415
31479SOL    HW2  274  10.516   6.786   8.726 -1.7100  0.9659 -2.1955
31480SOL     OW  275   8.799   2.008   3.699  0.2810 -0.0768 -0.3577
31480SOL    HW1  276   8.752   1.967   3.771  2.2167 -2.2723 -0.2012
31480SOL    HW2  277   8.751   2.088   3.681 -0.7470  0.1555  2.8095
31481SOL     OW  278   2.064  10.501  10.703 -0.1674  0.0149 -0.0611
31481SOL    HW1  279   2.081  10.582  10.751 -4.5571  0.3675  1.3186
31481SOL    HW2  280   2.066  10.433  10.770  3.4785 -1.2328 -1.2093
31482SOL     OW  281   2.347   9.508   7.619 -0.4883  0.4720  0.1356
31482SOL    HW1  282   2.323   9.417   7.638 -0.6322  0.3826 -0.4343
31482SOL    HW2  283   2.265   9.549   7.592 -0.3358  0.6421 -0.0717
31483SOL     OW  284   3.755   6.693   5.196 -0.6586  0.1081 -0.1336
31483SOL    HW1  285   3.839   6.675   5.154  0.8101 -0.9972  2.9436
31483SOL    HW2  286   3.777   6.752   5.269 -2.4003 -0.7293  1.1554
31484SOL     OW  287   2.888   0.628   8.339  0.4315 -0.1340 -0.2969
31484SOL    HW1  288   2.922   0.706   8.294 -1.3624  0.7573 -0.1994
31484SOL    HW2  289   2.966   0.579   8.365  1.6501  2.0952  0.4618
31485SOL     OW  290   4.805   9.911   9.415 -0.0340  0.0429 -0.1857
31485SOL    HW1  291   4.849   9.906   9.331  0.1417  0.6534 -0.1321
31485SOL    HW2  292   4.875   9.901   9.480 -0.0509  0.4221 -0.1057
31486SOL     OW  293   6.233   3.170   9.634 -0.1628 -0.4600 -0.3624
31486SOL    HW1  294   6.327   3.185   9.640  0.1635 -2.6141  2.6124
31486SOL    HW2  295   6.225   3.081   9.600 -1.1837  0.0046 -1.3959
31487SOL     OW  296   1.450   1.508   0.016 -0.1253 -0.0666  0.1128
31487SOL    HW1  297   1.450   1.430  -0.040 -1.7525  0.8247 -1.2080
31487SOL    HW2  298   1.417   1.578  -0.040 -2.0767  0.8333  2.2457
31488SOL     OW  299   4.030   5.827   4.063  0.0305 -0.3707 -0.6425
31488SOL    HW1  300   3.997   5.817   3.973  0.5135 -1.9420 -0.6884
31488SOL    HW2  301   4.007   5.745   4.106 -0.2287  0.3819  0.7007
31489SOL     OW  302   6.156   2.668   5.646  0.0692 -0.2372 -0.2115
31489SOL    HW1  303   6.179   2.713   5.564 -2.3887  2.2114  0.2955
31489SOL    HW2  304   6.235   2.674   5.699  0.4519  1.9573 -0.9020
31490SOL     OW  305   2.677  10.663   1.478 -0.0035  0.1512 -0.3556
31490SOL    HW1  306   2.745  10.622   1.531  1.2394 -0.5807 -2.3835
31490SOL    HW2  307   2.596  10.645   1.525  0.9022 -1.4119  0.7147
31491SOL     OW  308   6.502   5.841   5.604  0.6133  0.0612 -0.2502
31491SOL    HW1  309   6.469   5.894   5.531  1.4968  1.3509  0.2304
31491SOL    HW2  310   6.557   5.902   5.653 -0.8827 -0.4090  2.1772
31492SOL     OW  311   6.622  10.647   6.297 -0.0360 -0.0167  0.3323
31492SOL    HW1  312   6.612  10.659   6.392 -1.9958 -1.1606  0.3267
31492SOL    HW2  313   6.716  10.650   6.282  0.2398  2.4822  1.9834
31493SOL     OW  314   9.520   8.994   7.044 -0.4273 -0.2931 -0.3165
31493SOL    HW1  315   9.439   8.951   7.019 -0.2520 -2.7274  2.7364
31493SOL    HW2  316   9.589   8.938   7.009 -0.1732 -1.3770  1.8029
31494SOL     OW  317   4.656   9.357   2.496 -0.1629 -0.3176 -0.0431
31494SOL    HW1  318   4.588   9.327   2.435 -1.5512  0.1769  1.2126
31494SOL    HW2  319   4.704   9.424   2.446 -0.6449 -0.5943 -0.9037
31495SOL     OW  320   5.834   6.405   0.958  0.0452  0.2084  0.2827
31495SOL    HW1  321   5.829   6.405   0.863 -0.5775 -1.1949  0.3041
31495SOL    HW2  322   5.778   6.478   0.985  0.9621  1.2161 -0.4229
31496SOL     OW  323   6.648   2.206   7.078 -0.4350  0.0383 -0.0043
31496SOL    HW1  324   6.686   2.119   7.067  1.2333  0.4447  1.9522
31496SOL    HW2  325   6.557   2.189   7.103 -0.5077 -1.0647 -0.9071
31497SOL     OW  326   4.954   3.077  10.056 -0.0562 -0.2461  0.2239
31497SOL    HW1  327   5.010   3.052  10.129 -0.7176  2.2036  1.6969
31497SOL    HW2  328   4.894   3.142  10.093  0.1287  1.7589 -2.6804
31498SOL     OW  329   4.474   0.371   5.715 -0.4244  0.1059 -0.4023
31498SOL    HW1  330   4.474   0.397   5.807 -2.4474 -0.9299 -0.0671
31498SOL    HW2  331   4.417   0.435   5.672  1.7752  1.6053 -1.3465
31499SOL     OW  332   4.225   7.814   3.953  0.0047  0.6679  0.0251
31499SOL    HW1  333   4.193   7.749   3.892 -0.3132 -1.0522  1.9221
31499SOL    HW2  334   4.313   7.837   3.921  0.3088 -1.0595 -0.4453
31500SOL     OW  335  10.419   7.934   0.963  0.2538  0.4970  0.2977
31500SOL    HW1  336  10.473   7.941   1.042  1.8962  3.5812 -0.8984
31500SOL    HW2  337  10.482   7.922   0.892 -0.9244  0.6738 -0.8202
31501SOL     OW  338   1.147   2.854   2.663  0.0880 -0.5966 -0.1110
31501SOL    HW1  339   1.137   2.926   2.600  0.4700 -1.0135 -0.6641
31501SOL    HW2  340   1.092   2.784   2.628 -0.0046 -0.6977  0.2354
31502SOL     OW  341   6.655   3.155   3.649 -0.4266  0.3943  0.4811
31502SOL    HW1  342   6.635   3.195   3.565  0.7042 -0.9654 -0.4720
31502SOL    HW2  343   6.578   3.101   3.669 -0.8114  0.9301  0.4669
31503SOL     OW  344   0.036   1.328   2.289 -0.0017  0.2641 -0.4093
31503SOL    HW1  345   0.119   1.341   2.334 -0.1782 -2.4037  0.9016
31503SOL    HW2  346  -0.026   1.385   2.335  0.5145  0.0619  0.5497
31504SOL     OW  347   6.253   4.765   8.982  0.1969 -0.5611  0.2997
31504SOL    HW1  348   6.220   4.778   8.894  0.6290 -0.5648  0.1327
31504SOL    HW2  349   6.344   4.794   8.978 -0.0854  0.4707  1.0097
31505SOL     OW  350   7.319   2.234   5.768  0.5021  0.4636  0.6477
31505SOL    HW1  351   7.271   2.167   5.718 -0.5961  1.5860  0.1519
31505SOL    HW2  352   7.411   2.219   5.745  0.2185 -0.4930  0.0730
31506SOL     OW  353   2.122   6.827   9.368 -0.1027 -0.0550  0.6425
31506SOL    HW1  354   2.040   6.810   9.321  1.7669 -0.8867 -2.6132
31506SOL    HW2  355   2.132   6.753   9.427 -0.6898 -1.0330 -0.4586
31507SOL     OW  356   4.313   3.862  10.390  0.8706  0.3882 -0.0022
31507SOL    HW1  357   4.356   3.931  10.340 -1.6156  2.1822  0.1415
31507SOL    HW2  358   4.269   3.808  10.324  2.4276 -0.8721 -0.0775
31508SOL     OW  359   2.198   9.500   5.778 -0.5136 -0.1302 -0.3213
31508SOL    HW1  360   2.159   9.461   5.700  1.4019  0.7100 -1.7521
31508SOL    HW2  361   2.235   9.583   5.748 -0.6641  0.7449  1.7272
31509SOL     OW  362   0.636   3.683   4.826 -0.4169  0.2334 -0.4764
31509SOL    HW1  363   0.715   3.710   4.873 -1.1318  1.5476  0.0141
31509SOL    HW2  364   0.661   3.601   4.783  1.0344  0.3268  0.1237
31510SOL     OW  365  10.004  10.225   2.922 -0.0148 -0.3360  0.8867
31510SOL    HW1  366   9.914  10.235   2.889 -0.5075 -3.3520  0.9812
31510SOL    HW2  367   9.997  10.241   3.016  0.0506  1.6547  0.5893
31511SOL     OW  368   8.102   2.604   3.310  0.0208  0.4243 -0.0490
31511SOL    HW1  369   8.124   2.517   3.344  0.7783  0.7046  0.2011
31511SOL    HW2  370   8.114   2.597   3.215 -3.0860 -0.6576 -0.4825
31512SOL     OW  371   3.893  10.498   8.170 -0.4688 -0.1220 -0.2930
31512SOL    HW1  372   3.885  10.510   8.264 -0.5235  1.4995 -0.4768
31512SOL    HW2  373   3.962  10.433   8.160 -0.7942 -0.6745  0.8644
31513SOL     OW  374   8.159   4.949   8.581 -0.0012  0.0847  0.4750
31513SOL    HW1  375   8.225   4.892   8.620 -0.8175  0.0395  1.8689
31513SOL    HW2  376   8.166   4.933   8.487 -1.1812 -3.5164  0.8256
31514SOL     OW  377   0.293   1.704   3.955 -0.1336 -0.3430  0.6899
31514SOL    HW1  378   0.385   1.730   3.969 -0.6216  0.8260  1.9645
31514SOL    HW2  379   0.282   1.707   3.859  0.9046  0.4488  0.5732
31515SOL     OW  380   7.183   7.941   4.529 -0.3192  0.0379  0.4263
31515SOL    HW1  381   7.199   7.991   4.609 -1.8299  1.0858  0.1152
31515SOL    HW2  382   7.269   7.933   4.488  0.5235 -0.6943  2.2187
31516SOL     OW  383   3.290   7.260   9.375 -0.4883  0.8457 -0.5394
31516SOL    HW1  384   3.279   7.354   9.362  1.3846  1.1783 -0.0913
31516SOL    HW2  385   3.383   7.244   9.354 -0.2216 -0.5144  1.4337
31517SOL     OW  386   7.881   7.364   0.314  0.0906 -0.0868 -0.3881
31517SOL    HW1  387   7.831   7.412   0.379  1.5776 -1.1809  1.6971
31517SOL    HW2  388   7.822   7.295   0.283 -1.0197  1.1521 -1.1432
31518SOL     OW  389   2.351   1.493  10.530  0.3761  0.6120 -0.6162
31518SOL    HW1  390   2.340   1.415  10.475 -1.5239  1.1522 -1.0666
31518SOL    HW2  391   2.274   1.493  10.587  1.3960  1.0582  0.8306
31519SOL     OW  392   3.608  10.518   8.582  0.5437 -0.3263 -0.4380
31519SOL    HW1  393   3.646  10.474   8.658 -0.2598  1.1770  0.9202
31519SOL    HW2  394   3.657  10.600   8.575  0.7402 -0.5367 -1.7018
31520SOL     OW  395   7.567   1.959   9.603  0.0782  0.7813  0.0591
31520SOL    HW1  396   7.521   1.880   9.631 -0.1894  0.9110 -0.0135
31520SOL    HW2  397   7.639   1.927   9.548 -1.5271  0.6671 -2.1490
31521SOL     OW  398   5.040   7.919  10.027  0.1578 -0.0118 -0.4267
31521SOL    HW1  399   5.132   7.935  10.050 -0.2540 -0.1099  1.4594
31521SOL    HW2  400   5.013   7.997   9.978  1.3101 -0.1014 -1.2274
31522SOL     OW  401   8.038   4.180   0.752  0.3150 -0.5071  0.0637
31522SOL    HW1  402   8.001   4.146   0.670 -1.7050 -0.6672  0.9831
31522SOL    HW2  403   8.018   4.273   0.750 -0.8979 -0.7181  0.8989
31523SOL     OW  404   1.383   1.699   3.203 -0.8622 -0.0592  0.2821
31523SOL    HW1  405   1.337   1.754   3.266  0.5251 -1.0821  2.2925
31523SOL    HW2  406   1.332   1.618   3.201 -2.1068  0.6940 -1.6169
31524SOL     OW  407   8.511   3.623   6.811 -0.0248  0.5601 -0.3650
31524SOL    HW1  408   8.596   3.603   6.849  0.2255 -0.2519 -1.3040
31524SOL    HW2  409   8.511   3.577   6.727 -1.9262 -0.6156  0.2155
31525SOL     OW  410   4.344   5.990   0.623  0.5711  0.4545  0.1752
31525SOL    HW1  411   4.291   5.965   0.546 -0.3776 -2.1855  1.5413
31525SOL    HW2  412   4.287   6.050   0.672  0.3635  0.5574 -0.1822
31526SOL     OW  413   9.698   9.067   0.666  0.2731  0.2977  0.0630
31526SOL    HW1  414   9.785   9.030   0.649 -0.4993 -1.2300 -0.7415
31526SOL    HW2  415   9.641   8.991   0.674 -0.9154  1.2632  1.1648
31527SOL     OW  416   0.553   6.656   1.521 -0.0524  0.0423  0.0654
31527SOL    HW1  417   0.633   6.607   1.500 -0.3484 -0.1104 -0.7489
31527SOL    HW2  418   0.484   6.612   1.471 -0.5501  0.5173  0.3232
31528SOL     OW  419  10.109   2.707   6.911 -0.4267 -0.1248 -0.0096
31528SOL    HW1  420  10.168   2.669   6.976 -1.6484 -1.3301  0.4382
31528SOL    HW2  421  10.116   2.647   6.836 -0.2194  0.3796 -0.3985
31529SOL     OW  422   6.234   4.277   2.763  0.6749 -0.3489  0.9152
31529SOL    HW1  423   6.221   4.211   2.696 -0.3201 -0.8046  1.5378
31529SOL    HW2  424   6.156   4.333   2.758  0.4678 -0.5345  1.8427
31530SOL     OW  425   6.214   1.978   4.709 -0.3288 -0.2443 -0.3593
31530SOL    HW1  426   6.173   2.060   4.736  0.9152  0.3267 -0.1638
31530SOL    HW2  427   6.253   1.997   4.624  1.0876 -0.2332  0.2685
31531SOL     OW  428   4.121   3.352   0.685 -0.1091 -0.3022  0.3119
31531SOL    HW1  429   4.120   3.439   0.727  1.4146  0.8142 -1.7814
31531SOL    HW2  430   4.207   3.347   0.644 -0.1535 -2.8708  0.4060
31532SOL     OW  431   4.580   9.010   4.348  0.2791 -0.3438 -0.7374
31532SOL    HW1  432   4.622   8.995   4.263  0.4621  3.4977 -1.4722
31532SOL    HW2  433   4.651   9.041   4.405 -0.0151 -2.0296  0.6379
31533SOL     OW  434   5.996   5.243   3.193 -0.1338  0.2650 -0.1628
31533SOL    HW1  435   5.975   5.158   3.154  0.2810  0.3950 -0.6727
31533SOL    HW2  436   5.967   5.235   3.284  2.0709 -1.2761  0.4896
31534SOL     OW  437   9.416   1.295   3.556 -0.2142  0.1710  0.1492
31534SOL    HW1  438   9.444   1.214   3.513 -2.4650 -0.2093 -0.7260
31534SOL    HW2  439   9.456   1.290   3.643  1.3116 -0.8987 -0.5655
31535SOL     OW  440  10.529   1.768   9.925  0.1919 -0.8952 -0.5652
31535SOL    HW1  441  10.506   1.749  10.016  0.3585 -1.3589 -0.6155
31535SOL    HW2  442  10.625   1.769   9.925  0.2358  2.1408 -0.1277
31536SOL     OW  443   9.521   3.812  10.256  0.0707 -0.4883  0.6465
31536SOL    HW1  444   9.455   3.745  10.273  0.0358 -0.2088  1.6896
31536SOL    HW2  445   9.472   3.884  10.218 -0.1695 -0.4292  1.0607
31537SOL     OW  446   0.591   3.152   0.680  0.4626  0.0262 -0.1300
31537SOL    HW1  447   0.648   3.224   0.650  0.7608 -0.2626 -0.2688
31537SOL    HW2  448   0.549   3.185   0.759  1.4561 -0.0488  0.4509
31538SOL     OW  449   8.768   9.219  10.361 -0.2990  0.3778 -0.1275
31538SOL    HW1  450   8.783   9.291  10.424  0.2931  0.2482 -0.1186
31538SOL    HW2  451   8.855   9.184  10.344 -0.5156  0.0959 -0.6555
31539SOL     OW  452   0.806   9.927   9.761 -0.0890  0.3178  0.2754
31539SOL    HW1  453   0.784   9.966   9.676  1.3087  0.2291 -0.1440
31539SOL    HW2  454   0.853   9.996   9.807 -1.4555  0.6202  1.2972
31540SOL     OW  455   3.882   8.634   9.965 -0.1777 -0.2751  0.0950
31540SOL    HW1  456   3.880   8.645  10.060  0.7302 -1.1565  0.2426
31540SOL    HW2  457   3.911   8.543   9.952 -0.2425 -0.1539 -1.0202
31541SOL     OW  458   7.601   0.094   7.871  0.2476  0.6308 -0.4852
31541SOL    HW1  459   7.555   0.049   7.941 -0.9429 -1.0807 -2.2617
31541SOL    HW2  460   7.690   0.106   7.905  0.5271 -2.7111  0.3137
31542SOL     OW  461   5.172   4.615   1.393  0.3212  0.1642 -0.6039
31542SOL    HW1  462   5.248   4.563   1.366 -0.1500 -0.6516 -0.3892
31542SOL    HW2  463   5.105   4.550   1.415 -0.3444  0.8694 -0.5099
31543SOL     OW  464   7.133   0.226   8.153  0.3122  0.0198  0.4346
31543SOL    HW1  465   7.045   0.262   8.165 -0.2317 -1.8482  2.5311
31543SOL    HW2  466   7.120   0.142   8.109  1.0608 -0.2565  0.7144
31544SOL     OW  467   6.645   0.169   9.774 -0.2219 -0.4777 -0.3301
31544SOL    HW1  468   6.568   0.226   9.778  0.1437 -0.0167  0.5832
31544SOL    HW2  469   6.715   0.222   9.812  0.3192 -1.2430 -0.2436
31545SOL     OW  470   0.212   4.217   4.257 -0.0584 -0.3433 -0.4747
31545SOL    HW1  471   0.252   4.282   4.199  2.3982 -0.9930  0.3882
31545SOL    HW2  472   0.127   4.199   4.216  0.5029  1.0842 -2.4570
31546SOL     OW  473   8.707   7.348   1.312  0.2411  0.6767  0.4158
31546SOL    HW1  474   8.633   7.293   1.336  0.8829  0.0051  0.9213
31546SOL    HW2  475   8.713   7.414   1.381 -0.1580  1.0179  0.1301
31547SOL     OW  476   2.573   2.522  10.155 -0.2959  0.0885 -0.0951
31547SOL    HW1  477   2.519   2.592  10.118  1.0811  1.1900 -0.0973
31547SOL    HW2  478   2.658   2.532  10.112  0.1626 -1.1034  0.4876
31548SOL     OW  479   0.624   3.410   2.715  0.0492  0.1106  0.6035
31548SOL    HW1  480   0.598   3.371   2.631 -1.6996  0.3178  1.0042
31548SOL    HW2  481   0.707   3.368   2.737 -0.0804 -0.8491 -0.6333
31549SOL     OW  482   9.667   6.908   1.421 -0.5253 -0.3053 -0.2003
31549SOL    HW1  483   9.665   6.821   1.460  1.1009 -0.0662  0.5073
31549SOL    HW2  484   9.624   6.897   1.336 -2.0546 -1.3507  0.6533
31550SOL     OW  485   4.307   9.061   9.459  0.2411 -0.2283 -0.3559
31550SOL    HW1  486   4.380   9.121   9.473 -0.5857  1.1996 -1.8238
31550SOL    HW2  487   4.229   9.116   9.466 -0.7902 -1.7767  1.5396
31551SOL     OW  488   3.854   6.909   5.374  0.4746  0.2081  0.4466
31551SOL    HW1  489   3.775   6.933   5.422 -0.1094  0.7074 -0.7261
31551SOL    HW2  490   3.896   6.992   5.352 -0.0702  0.0812 -1.1908
31552SOL     OW  491   9.046   2.883   9.545 -0.3532 -0.7109 -0.0728
31552SOL    HW1  492   9.044   2.908   9.453  0.9476 -1.4365 -0.3250
31552SOL    HW2  493   8.960   2.843   9.561 -0.5266 -0.7386 -1.0210
31553SOL     OW  494   5.835   4.735   2.567 -0.0309  0.4086 -0.0469
31553SOL    HW1  495   5.772   4.770   2.630 -0.0014  1.1046 -0.3863
31553SOL    HW2  496   5.782   4.688   2.503 -0.0478 -0.4287  0.5660
31554SOL     OW  497   4.173   2.882   8.411  0.5514 -0.2353 -0.0223
31554SOL    HW1  498   4.101   2.897   8.473 -0.1643 -2.4379 -0.2217
31554SOL    HW2  499   4.236   2.829   8.461  0.0532 -1.8768 -1.0677
31555SOL     OW  500   2.955   7.268   8.383 -0.1372  0.7542 -0.3933
31555SOL    HW1  501   2.955   7.325   8.306  0.3138  0.1028 -0.8761
31555SOL    HW2  502   2.863   7.244   8.394  0.0660 -0.9948 -2.1145
31556SOL     OW  503  10.258  10.663   2.717  0.1655  0.0532 -0.2206
31556SOL    HW1  504  10.175  10.685   2.760 -0.4572 -2.7612  0.2220
31556SOL    HW2  505  10.304  10.608   2.781  1.3908 -0.2379 -1.3209
31557SOL     OW  506   7.069   9.238   6.763 -0.4845 -0.8918  0.5450
31557SOL    HW1  507   7.075   9.169   6.696 -1.0091 -0.9755  0.5826
31557SOL    HW2  508   7.041   9.315   6.714  1.0510 -0.4289  0.3237
31558SOL     OW  509   1.153   4.001   1.399  0.4731  0.3425 -0.0444
31558SOL    HW1  510   1.151   4.010   1.303 -1.7830  0.1506 -0.0830
31558SOL    HW2  511   1.084   3.938   1.418 -0.7032  2.0618  1.8415
31559SOL     OW  512   6.704   1.420   0.699  0.1717  0.1302  0.1513
31559SOL    HW1  513   6.657   1.338   0.687  2.2491 -1.0397 -0.5366
31559SOL    HW2  514   6.704   1.460   0.612  1.4587 -0.4861 -0.1512
31560SOL     OW  515   5.311   3.840   1.194  0.3243  0.6563  0.3993
31560SOL    HW1  516   5.264   3.764   1.229 -0.2075  0.1337 -1.3584
31560SOL    HW2  517   5.336   3.890   1.272  0.1825 -1.0085  1.5841
31561SOL     OW  518   5.011   4.348   0.949  0.1171  0.4916  0.6754
31561SOL    HW1  519   5.092   4.301   0.933  0.2143  0.7037  0.5327
31561SOL    HW2  520   5.039   4.438   0.968 -0.1859  1.0482 -1.3745
31562SOL     OW  521   2.051   9.591   7.601  0.1371  0.4489 -0.6228
31562SOL    HW1  522   2.100   9.619   7.679 -0.2915  0.6278 -0.4116
31562SOL    HW2  523   1.988   9.528   7.635  0.6037 -0.2264 -0.9846
31563SOL     OW  524   0.458   0.339   8.408  0.2639 -0.1351 -0.7242
31563SOL    HW1  525   0.481   0.409   8.345  1.9280 -1.1141 -1.2860
31563SOL    HW2  526   0.508   0.263   8.377 -0.0642 -1.0607  0.9438
31564SOL     OW  527   0.964   4.906   3.504  0.2740  0.2925  0.4976
31564SOL    HW1  528   1.013   4.852   3.442  0.4977  0.1485  0.8007
31564SOL    HW2  529   0.994   4.878   3.590  1.6198  2.0083  0.6566
31565SOL     OW  530   6.979   1.926   9.230  0.3990  0.2660  0.4670
31565SOL    HW1  531   7.058   1.891   9.271  1.7894  0.3914 -1.9800
31565SOL    HW2  532   6.957   2.003   9.283  1.2950 -0.3276  1.7738
31566SOL     OW  533   8.344   4.245   8.161  0.0904  0.1930 -0.6645
31566SOL    HW1  534   8.305   4.317   8.210  0.2012 -0.4341  0.3592
31566SOL    HW2  535   8.299   4.247   8.076 -1.5288  0.0540  0.1558
31567SOL     OW  536   7.202   8.662   5.344 -0.2431  0.0322 -1.0278
31567SOL    HW1  537   7.264   8.666   5.417 -0.9013 -1.4375 -0.3427
31567SOL    HW2  538   7.225   8.737   5.289 -0.8901  2.3665  1.6143
31568SOL     OW  539   8.353   7.120   1.067 -0.2207  0.4979 -0.6213
31568SOL    HW1  540   8.431   7.153   1.022  0.2910 -1.2080 -1.0886
31568SOL    HW2  541   8.378   7.116   1.159  0.2462  0.0070 -0.7625
31569SOL     OW  542   8.871   0.436   9.846 -0.0776  0.1196 -0.1225
31569SOL    HW1  543   8.925   0.515   9.841  0.3114 -0.2342 -3.0264
31569SOL    HW2  544   8.784   0.468   9.869  0.1846  1.3579 -0.7914
31570SOL     OW  545   4.708   1.625   9.850  0.0346  0.6476  0.2883
31570SOL    HW1  546   4.764   1.562   9.897  1.2684 -0.2157 -2.1982
31570SOL    HW2  547   4.620   1.606   9.882  0.7019 -0.5424  1.5415
31571SOL     OW  548   8.046   2.253   4.654 -0.7399 -0.0542  0.1792
31571SOL    HW1  549   8.061   2.347   4.664 -0.0208 -0.2935  1.8086
31571SOL    HW2  550   8.027   2.223   4.743 -0.9563 -1.4484 -0.3181
31572SOL     OW  551   5.537   0.848   2.845  0.5928  0.2322  0.0647
31572SOL    HW1  552   5.493   0.930   2.866  0.4728  0.1743  0.0466
31572SOL    HW2  553   5.577   0.820   2.927  0.5825  0.2789  0.0858
31573SOL     OW  554   0.803   6.742   1.098 -0.4417 -0.1435 -0.2663
31573SOL    HW1  555   0.778   6.736   1.005 -1.2189  0.5619 -0.1120
31573SOL    HW2  556   0.783   6.833   1.122  0.4099 -0.1301  0.4101
31574SOL     OW  557   8.041   8.947   0.463  0.1354  0.6214  0.5131
31574SOL    HW1  558   8.034   8.877   0.398  0.2447 -0.0931  1.2481
31574SOL    HW2  559   8.020   9.027   0.415  0.2520  0.1148 -0.4048
31575SOL     OW  560   8.203   8.671   1.025 -0.1614 -0.4446  0.4863
31575SOL    HW1  561   8.124   8.724   1.024  0.7936  1.0904  1.9207
31575SOL    HW2  562   8.206   8.631   0.938 -1.7703  0.5551 -0.0744
31576SOL     OW  563   8.639   4.486   3.528 -0.1831 -0.0971 -0.6423
31576SOL    HW1  564   8.560   4.539   3.537 -0.3575 -0.3934 -0.3670
31576SOL    HW2  565   8.707   4.548   3.503 -0.4204  0.2279 -0.4952
31577SOL     OW  566   6.597   9.986   5.571  0.0053  0.4095 -0.0310
31577SOL    HW1  567   6.660  10.044   5.613 -0.0206  1.4928 -1.3938
31577SOL    HW2  568   6.632   9.974   5.482 -2.1261  1.8231 -1.1441
31578SOL     OW  569   9.048   1.958   3.231 -0.3288  0.0046 -0.1885
31578SOL    HW1  570   8.955   1.941   3.241 -0.2630  0.4422  1.3238
31578SOL    HW2  571   9.066   1.940   3.138 -1.7230 -0.9204 -0.3011
31579SOL     OW  572   6.318   2.746   7.504 -0.3449 -0.2487 -0.4532
31579SOL    HW1  573   6.265   2.814   7.547 -0.5742 -0.8180  0.1841
31579SOL    HW2  574   6.384   2.795   7.455 -1.2326  0.4711 -0.9798
31580SOL     OW  575   8.560   4.557   3.876 -0.7667  0.3452 -0.8919
31580SOL    HW1  576   8.546   4.473   3.921 -0.8310  1.4841  1.3320
31580SOL    HW2  577   8.655   4.568   3.874 -0.7191  2.0217  2.6202
31581SOL     OW  578   8.514   1.440   7.735  0.4276 -0.4137  0.2228
31581SOL    HW1  579   8.420   1.452   7.719 -0.1179 -2.2159  1.6391
31581SOL    HW2  580   8.555   1.454   7.650 -1.1175  0.4541 -0.4211
31582SOL     OW  581   4.556   7.290   9.918  0.4584 -0.4627 -0.3338
31582SOL    HW1  582   4.558   7.329   9.830 -0.0529 -0.0012 -0.1466
31582SOL    HW2  583   4.476   7.325   9.958  1.7520  1.0532  1.1032
31583SOL     OW  584   8.403   3.337   5.368  0.7483 -0.7204  0.5303
31583SOL    HW1  585   8.352   3.383   5.435 -1.0539 -0.5851 -0.8284
31583SOL    HW2  586   8.466   3.285   5.416  0.1687  0.1232  2.2787
31584SOL     OW  587   2.895   0.951   6.401 -0.1799 -0.6872  0.0884
31584SOL    HW1  588   2.813   0.916   6.366  0.8188 -2.4272 -0.6382
31584SOL    HW2  589   2.919   1.021   6.341 -1.0899 -0.2018  0.2768
31585SOL     OW  590   6.278   8.171   0.314 -0.1545 -0.0841 -0.3808
31585SOL    HW1  591   6.207   8.166   0.378  0.0650  2.6332  0.1965
31585SOL    HW2  592   6.358   8.164   0.366  0.1604 -3.5659 -1.0699
31586SOL     OW  593   3.026   5.727   6.542 -0.2042  0.1997 -0.4379
31586SOL    HW1  594   2.967   5.660   6.576 -0.1054 -0.2425 -1.1218
31586SOL    HW2  595   2.981   5.809   6.560 -1.1670 -0.1456 -1.2001
31587SOL     OW  596   5.983   4.207   1.795  0.4115  0.3892  0.4333
31587SOL    HW1  597   6.024   4.258   1.865  0.9499  0.8714 -0.2287
31587SOL    HW2  598   5.920   4.267   1.755  1.8956  0.9606 -1.1327
31588SOL     OW  599   5.114   0.667   0.362  0.1170 -0.3158  0.7001
31588SOL    HW1  600   5.158   0.738   0.317  2.4270 -1.4373  1.0518
31588SOL    HW2  601   5.069   0.618   0.293 -1.2486  1.2321  0.4241
31589SOL     OW  602   0.707   5.723  10.376  0.0252  0.1039 -0.1382
31589SOL    HW1  603   0.796   5.758  10.372  0.1145  0.0319  0.9630
31589SOL    HW2  604   0.716   5.630  10.356  0.0797  0.2490 -0.8261
31590SOL     OW  605   2.158   3.478   7.212  0.4828  0.1876  0.2762
31590SOL    HW1  606   2.242   3.523   7.212  0.5556  0.1181  1.7831
31590SOL    HW2  607   2.171   3.404   7.272 -0.1804 -0.7748 -0.7370
31591SOL     OW  608   4.619   2.430   3.997 -0.4726 -0.2781 -0.4535
31591SOL    HW1  609   4.572   2.355   3.959 -1.4503 -1.1122  2.1312
31591SOL    HW2  610   4.561   2.505   3.982 -0.5718 -0.4752 -1.0750
31592SOL     OW  611   4.512   1.887  10.127  0.4316 -0.3759 -0.6345
31592SOL    HW1  612   4.448   1.951  10.097  0.6673 -0.3207 -1.0164
31592SOL    HW2  613   4.481   1.803  10.093  1.7262 -0.0729 -2.7347
31593SOL     OW  614   6.413   7.936   1.748  0.5820 -0.4495 -0.1906
31593SOL    HW1  615   6.449   7.876   1.813 -0.1886 -0.2218  0.4534
31593SOL    HW2  616   6.482   7.942   1.681  1.6512 -0.1970  0.8980
31594SOL     OW  617   2.862   6.830   9.236  0.0585  0.2925  0.7752
31594SOL    HW1  618   2.775   6.795   9.252 -1.0752  1.8984 -1.3026
31594SOL    HW2  619   2.863   6.851   9.142  2.5035  0.8035  0.8273
31595SOL     OW  620   3.255   8.672   2.743  0.2974  0.4373  0.5833
31595SOL    HW1  621   3.188   8.623   2.789  0.9110  0.7370  1.8390
31595SOL    HW2  622   3.318   8.698   2.811  2.0598 -0.4339 -0.6315
31596SOL     OW  623   3.035   0.707   6.406 -0.2780  0.5716 -0.6619
31596SOL    HW1  624   2.988   0.790   6.400 -1.0751  0.3235  1.3208
31596SOL    HW2  625   2.969   0.641   6.386 -0.2924  0.3191  0.1825
31597SOL     OW  626  10.222  10.420   6.783 -0.1208  0.1413  0.5214
31597SOL    HW1  627  10.291  10.367   6.744  0.4927  0.5030  1.0880
31597SOL    HW2  628  10.198  10.482   6.713 -1.1434 -1.1292 -0.2852
31598SOL     OW  629  10.350   5.845   1.601  0.0904 -0.2163 -0.3517
31598SOL    HW1  630  10.316   5.770   1.650  1.4521 -1.6568 -1.5126
31598SOL    HW2  631  10.294   5.852   1.524 -1.0440  1.0416  0.5261
31599SOL     OW  632   7.473  10.110   3.704  0.1088 -0.7153 -0.3245
31599SOL    HW1  633   7.378  10.123   3.700  0.3927  2.5682  0.7496
31599SOL    HW2  634   7.489  10.084   3.795  0.3809  1.0660  0.1726
31600SOL     OW  635   6.874   6.577   5.588 -0.7143  0.0901  0.1772
31600SOL    HW1  636   6.801   6.616   5.636 -0.6863 -0.4368  0.6452
31600SOL    HW2  637   6.871   6.619   5.502  0.8885  3.1300  1.4345
31601SOL     OW  638   4.493   5.009   0.911 -0.5442  0.5492  0.5211
31601SOL    HW1  639   4.450   5.094   0.908  0.3270  0.9947  0.3062
31601SOL    HW2  640   4.438   4.952   0.857 -0.6959  1.1799  0.0052
31602SOL     OW  641   3.203   4.524   1.964 -0.0716 -0.3768 -0.6475
31602SOL    HW1  642   3.118   4.567   1.957 -0.1071 -0.3302 -0.0542
31602SOL    HW2  643   3.183   4.432   1.982  0.0062 -0.6284 -1.7868
31603SOL     OW  644   7.189   7.825  10.569  0.2690 -0.1529  0.1139
31603SOL    HW1  645   7.163   7.774  10.646  1.0931  0.8679  1.1144
31603SOL    HW2  646   7.132   7.794  10.499 -3.0780  1.2730  1.9548
31604SOL     OW  647   3.757   7.735  10.554 -0.0986  0.0276  0.0043
31604SOL    HW1  648   3.832   7.791  10.574  1.3456 -1.6933 -0.3932
31604SOL    HW2  649   3.777   7.652  10.597 -1.3726 -0.7500 -0.8504
31605SOL     OW  650   9.428   7.616   8.091 -0.0666 -0.1590  0.0400
31605SOL    HW1  651   9.349   7.653   8.129  1.2636  1.8255  1.0161
31605SOL    HW2  652   9.412   7.617   7.996 -0.1730  2.9832 -0.0151
31606SOL     OW  653   5.831   0.258   9.843  0.2148 -0.7615  0.4365
31606SOL    HW1  654   5.754   0.313   9.828 -0.8166 -1.6254  2.1925
31606SOL    HW2  655   5.897   0.291   9.782 -1.1955  0.7097 -0.3597
31607SOL     OW  656   4.446   9.680  10.374 -0.0324 -0.0670 -0.0253
31607SOL    HW1  657   4.484   9.687  10.462 -0.6355  1.0332  0.1638
31607SOL    HW2  658   4.372   9.620  10.385  0.7965 -1.1429 -0.1178
31608SOL     OW  659   3.622   1.800   6.921 -0.3325  0.2690 -0.3090
31608SOL    HW1  660   3.583   1.722   6.881 -2.8072  1.3680 -0.2337
31608SOL    HW2  661   3.625   1.781   7.014 -2.2092  0.7003 -0.1194
31609SOL     OW  662   0.933   3.155   7.688 -0.6703  0.5811  0.1932
31609SOL    HW1  663   0.928   3.125   7.779  0.5848 -0.7184 -0.1261
31609SOL    HW2  664   0.853   3.206   7.676 -2.3141 -1.5476  1.2181
31610SOL     OW  665   2.364   8.620   2.500  0.2146  0.1726  0.7977
31610SOL    HW1  666   2.296   8.645   2.438  0.7454  0.8904  0.4894
31610SOL    HW2  667   2.318   8.609   2.583 -0.5523 -1.0875  0.2383
31611SOL     OW  668   6.685   8.605  10.444 -0.3857 -0.4911 -0.2574
31611SOL    HW1  669   6.637   8.679  10.482  1.7371  1.3591 -0.9769
31611SOL    HW2  670   6.770   8.607  10.487  0.2543 -1.5827 -1.4105
31612SOL     OW  671   3.056   7.282   3.885 -0.2156 -0.2796 -1.1990
31612SOL    HW1  672   3.068   7.189   3.866 -0.5340 -0.3057 -1.2786
31612SOL    HW2  673   3.144   7.313   3.909 -0.6679 -1.3803  2.4089
31613SOL     OW  674   2.482   9.775   0.794 -0.3218 -0.4317  0.4218
31613SOL    HW1  675   2.421   9.710   0.758 -1.2869 -0.2077  1.5976
31613SOL    HW2  676   2.451   9.858   0.759  0.3047 -0.4819 -0.2739
31614SOL     OW  677   0.631   9.066   7.281 -0.4385  0.0691  0.3859
31614SOL    HW1  678   0.557   9.026   7.328  0.2190 -1.1296  0.4576
31614SOL    HW2  679   0.704   9.007   7.300 -0.0480 -0.2053 -1.7927
31615SOL     OW  680   7.600   7.973   5.765  0.5312  0.2059  0.0674
31615SOL    HW1  681   7.669   7.942   5.824  0.1691 -1.3940 -0.3134
31615SOL    HW2  682   7.521   7.971   5.818  0.4699  0.2914 -0.0205
31616SOL     OW  683   8.005   3.323   8.911 -0.9297  0.0323  0.2107
31616SOL    HW1  684   7.919   3.282   8.917 -0.5876 -0.9112 -0.7631
31616SOL    HW2  685   8.033   3.304   8.821  0.4463 -0.0219  0.6295
31617SOL     OW  686   8.067   8.668  10.205 -0.5572  0.3020  0.5838
31617SOL    HW1  687   8.091   8.663  10.298  0.1722  1.3234  0.4584
31617SOL    HW2  688   8.141   8.710  10.163  0.6719 -3.1770 -1.0845
31618SOL     OW  689   8.561   2.498   4.579 -0.1029 -0.5869 -0.1934
31618SOL    HW1  690   8.505   2.423   4.558  0.8978 -1.4255  0.0850
31618SOL    HW2  691   8.623   2.466   4.644 -0.7356  0.9544  1.2564
31619SOL     OW  692   2.137   6.124   1.562  0.1766  0.7314 -0.1130
31619SOL    HW1  693   2.139   6.170   1.478  0.4488  1.5061  0.3055
31619SOL    HW2  694   2.137   6.194   1.627 -3.2425  0.2696  0.5563
31620SOL     OW  695   7.930   6.114   2.175  0.0781  0.3821 -0.1994
31620SOL    HW1  696   7.976   6.065   2.243 -0.6889  1.7981  1.4195
31620SOL    HW2  697   7.840   6.081   2.178  0.0522  0.4081 -0.5900
31621SOL     OW  698   2.340   9.825   7.986 -0.1199  0.0614 -0.9396
31621SOL    HW1  699   2.435   9.833   7.996 -0.0715  0.6853 -1.7504
31621SOL    HW2  700   2.311   9.780   8.065  0.5858  1.8106  0.3845
31622SOL     OW  701   8.065   8.652  10.483  0.4061 -0.0792 -0.8270
31622SOL    HW1  702   8.005   8.717  10.520  0.1697  0.0440 -1.4100
31622SOL    HW2  703   8.112   8.618  10.558  0.9492  1.1901 -0.5638
31623SOL     OW  704   7.760   5.382   9.669 -0.0397 -0.1220  0.2462
31623SOL    HW1  705   7.750   5.353   9.579  1.1943  0.3350 -0.0634
31623SOL    HW2  706   7.855   5.385   9.683 -0.1986  0.4550  1.3388
31624SOL     OW  707   6.131   3.338   4.376 -0.1886 -0.0220 -0.8249
31624SOL    HW1  708   6.144   3.246   4.398 -0.2707 -0.4571 -2.4768
31624SOL    HW2  709   6.217   3.378   4.389  1.0251 -1.2347 -4.0142
31625SOL     OW  710   1.824   9.221   1.482 -0.7401  0.2979  0.0174
31625SOL    HW1  711   1.815   9.160   1.555  1.7975 -1.4751 -0.9775
31625SOL    HW2  712   1.825   9.307   1.523 -2.0839 -0.4317  1.7402
31626SOL     OW  713   1.422  10.592   2.963  0.3345 -0.0767 -0.2743
31626SOL    HW1  714   1.475  10.521   2.998 -1.2651 -1.7407 -1.0262
31626SOL    HW2  715   1.408  10.569   2.871 -2.9100 -0.5865  0.2265
31627SOL     OW  716   9.213   9.348   9.163  0.9057 -0.2645 -0.4181
31627SOL    HW1  717   9.182   9.416   9.222  1.8536 -1.3733  1.4625
31627SOL    HW2  718   9.150   9.277   9.172  1.7902 -0.9695  0.3335
31628SOL     OW  719   0.285   0.164   7.589  0.4779  0.0433 -0.6629
31628SOL    HW1  720   0.369   0.180   7.633  0.6238 -3.4753  0.6732
31628SOL    HW2  721   0.231   0.122   7.657 -1.7306  0.5684 -2.0181
31629SOL     OW  722  10.517   2.258   5.374 -0.0340  0.2169  0.0410
31629SOL    HW1  723  10.560   2.245   5.458  0.9810  0.2933 -0.4412
31629SOL    HW2  724  10.577   2.219   5.310  0.0098  1.5779 -0.7937
31630SOL     OW  725   8.419   0.037   4.247  0.1343  0.0743 -0.4445
31630SOL    HW1  726   8.478   0.104   4.211 -0.1770  0.0872 -0.9419
31630SOL    HW2  727   8.365   0.010   4.172 -0.6251  0.2077  0.0503
31631SOL     OW  728  10.657   5.924   5.184  0.5340 -0.3150 -0.3261
31631SOL    HW1  729  10.588   5.858   5.174 -0.1050  0.2710  0.0641
31631SOL    HW2  730  10.625   5.982   5.254 -0.5250  2.2893 -2.7402
31632SOL     OW  731   0.032   7.958  10.130 -0.0201  0.4050 -0.2643
31632SOL    HW1  732   0.012   8.027  10.067  1.3452 -0.8470 -2.1966
31632SOL    HW2  733  -0.047   7.904  10.133 -0.3788  0.9312 -0.3113
31633SOL     OW  734  10.378   5.475   6.564  0.0017  0.1653 -0.3677
31633SOL    HW1  735  10.377   5.390   6.609 -1.7359 -0.3507 -1.2698
31633SOL    HW2  736  10.404   5.538   6.631 -0.7498 -0.8153  0.8911
31634SOL     OW  737   1.151   3.453   8.879 -0.1911  0.5152 -0.4086
31634SOL    HW1  738   1.189   3.528   8.925  0.5842  0.2672 -0.6351
31634SOL    HW2  739   1.226   3.405   8.844 -0.7521  1.3109 -2.9255
31635SOL     OW  740   5.273   8.320   4.769  0.0956  0.4868 -0.5468
31635SOL    HW1  741   5.321   8.295   4.848 -0.7630  0.7717  0.0812
31635SOL    HW2  742   5.216   8.246   4.750  1.6894 -0.4239 -2.0721
31636SOL     OW  743   5.809   3.887   5.932  0.2407  0.7496 -0.2015
31636SOL    HW1  744   5.885   3.880   5.990  0.3213  1.0070 -0.2751
31636SOL    HW2  745   5.780   3.977   5.942 -0.3862  0.5116  0.2379
31637SOL     OW  746   0.547   5.539   5.805  0.7102  0.5868  0.6365
31637SOL    HW1  747   0.509   5.451   5.804  0.7524  0.5703  0.4614
31637SOL    HW2  748   0.574   5.555   5.714  2.1716  0.1351  0.9680
31638SOL     OW  749   5.689   9.747  10.672 -0.2226 -0.5188  0.0151
31638SOL    HW1  750   5.683   9.661  10.630  0.8049  0.3805 -2.1544
31638SOL    HW2  751   5.775   9.781  10.645 -0.6511  1.2308  0.7046
31639SOL     OW  752   3.980   3.586   7.814  0.3011 -0.3790  0.0470
31639SOL    HW1  753   3.996   3.570   7.907  0.8674  2.8276  0.6254
31639SOL    HW2  754   3.885   3.589   7.807  0.2121  1.6244  1.1119
31640SOL     OW  755   2.636  10.696   8.299 -0.3006  0.1089  0.0546
31640SOL    HW1  756   2.667  10.615   8.339 -0.8675  0.3523  1.0331
31640SOL    HW2  757   2.704  10.760   8.318 -0.6275  0.2547  0.7670
31641SOL     OW  758   6.562   4.920   4.515 -0.0979 -0.3231  0.9937
31641SOL    HW1  759   6.549   4.878   4.600 -1.8317  0.7940  1.3255
31641SOL    HW2  760   6.526   4.857   4.452  1.8379 -1.4759  0.9503
31642SOL     OW  761   0.305   3.730   1.985 -0.0658 -0.2093 -0.1680
31642SOL    HW1  762   0.367   3.709   1.915  0.0410 -0.8065  0.0935
31642SOL    HW2  763   0.281   3.645   2.021 -1.5384 -0.0229 -0.6735
31643SOL     OW  764   3.324   8.744   3.703  0.5479 -0.1590 -0.0919
31643SOL    HW1  765   3.242   8.725   3.749  0.8214 -0.5837  0.2145
31643SOL    HW2  766   3.385   8.771   3.771  0.9841 -0.8859 -0.1826
31644SOL     OW  767   9.770   1.530   3.934  0.4680  0.1182  0.1884
31644SOL    HW1  768   9.863   1.547   3.922  0.3179  0.3797 -0.6564
31644SOL    HW2  769   9.729   1.556   3.851 -0.3085 -0.3475  0.4070
31645SOL     OW  770   8.078   1.173   8.008 -0.1953 -0.1249  0.1524
31645SOL    HW1  771   8.171   1.168   7.988 -0.0887  0.2036  0.5598
31645SOL    HW2  772   8.038   1.106   7.952  0.5435 -1.8565  1.6247
31646SOL     OW  773   4.736   0.606   5.873  0.3276 -1.0717  0.1744
31646SOL    HW1  774   4.827   0.585   5.853  0.2342 -2.1745  0.8511
31646SOL    HW2  775   4.741   0.689   5.921  1.1959 -2.0821  1.9720
31647SOL     OW  776  10.047  10.713   1.192  0.1556 -0.0669  0.7438
31647SOL    HW1  777  10.084  10.743   1.109 -0.4545  0.3425  0.6203
31647SOL    HW2  778  10.008  10.628   1.172 -1.4243  0.7395  0.2106
31648SOL     OW  779   8.012   9.133   3.671 -0.3488 -0.4945  0.1079
31648SOL    HW1  780   8.076   9.097   3.609  0.3735  0.4803  0.2692
31648SOL    HW2  781   7.928   9.123   3.627  0.2707  1.5130 -1.7341
31649SOL     OW  782   9.880  10.695   2.078  0.1519  0.3618 -0.2342
31649SOL    HW1  783   9.969  10.668   2.056  0.2047  0.0787  0.3113
31649SOL    HW2  784   9.882  10.791   2.073  0.7532  0.4169  0.7111
31650SOL     OW  785  10.028   9.304   4.607 -0.1630  0.3607  0.1266
31650SOL    HW1  786  10.047   9.224   4.656  1.6561  1.1715  0.8681
31650SOL    HW2  787  10.002   9.274   4.520  1.8697 -1.0379 -0.0595
31651SOL     OW  788   7.426   7.961   3.438  0.1260 -0.2738 -0.1274
31651SOL    HW1  789   7.428   7.885   3.379 -1.6571 -1.6277  1.4328
31651SOL    HW2  790   7.364   7.937   3.507  1.1831  1.7303  1.6640
31652SOL     OW  791  10.255   2.921   7.854  0.1018  0.0058  0.3405
31652SOL    HW1  792  10.220   2.876   7.777  1.6563  1.0224 -0.9969
31652SOL    HW2  793  10.350   2.922   7.841  0.5267 -0.7131  2.7918
31653SOL     OW  794   8.711   0.432   3.850 -0.5516 -0.2446  0.3269
31653SOL    HW1  795   8.774   0.406   3.917 -0.9024 -2.8101 -0.2381
31653SOL    HW2  796   8.751   0.405   3.767 -2.1887 -1.6253 -0.0671
31654SOL     OW  797   8.593   6.203   1.005 -0.3887  0.3143 -0.3762
31654SOL    HW1  798   8.646   6.176   1.080 -1.5644 -3.4887 -0.7430
31654SOL    HW2  799   8.655   6.206   0.933  0.0248 -0.2420 -0.0553
31655SOL     OW  800   5.616   1.781   1.147 -0.3588 -0.4976 -0.4863
31655SOL    HW1  801   5.605   1.698   1.193  0.4502 -1.7040 -2.3326
31655SOL    HW2  802   5.530   1.823   1.152 -0.5834 -1.0788  1.1096
31656SOL     OW  803   1.094   9.443   4.341  0.3152  0.8909  0.4527
31656SOL    HW1  804   1.000   9.430   4.329  0.5537 -0.0116 -0.6576
31656SOL    HW2  805   1.128   9.452   4.252  1.6824 -1.8518  0.6025
31657SOL     OW  806  10.276   3.097   8.782 -0.0309  0.2533  0.6718
31657SOL    HW1  807  10.343   3.157   8.813  0.1094 -0.0392  0.9378
31657SOL    HW2  808  10.294   3.086   8.689 -0.0599  0.6233  0.6200
31658SOL     OW  809   9.785  10.537   8.557 -0.0125 -0.1220 -0.5967
31658SOL    HW1  810   9.777  10.490   8.474 -0.5607 -1.8752  0.4025
31658SOL    HW2  811   9.868  10.583   8.550 -0.8561  1.2351 -2.8023
31659SOL     OW  812   9.167   7.227   8.288 -0.3268  0.8584  0.2214
31659SOL    HW1  813   9.243   7.279   8.260  0.1044  0.3752  0.4635
31659SOL    HW2  814   9.186   7.139   8.255 -0.1930  0.4600  1.3187
31660SOL     OW  815   6.902   3.229   9.783 -0.0684  0.1075 -0.2515
31660SOL    HW1  816   6.861   3.142   9.781 -0.8490  0.4696 -0.3290
31660SOL    HW2  817   6.870   3.272   9.703 -0.5121  0.8328  0.3048
31661SOL     OW  818   7.220   5.814  10.376  0.6732 -0.0242 -0.2882
31661SOL    HW1  819   7.244   5.836  10.286  0.4291 -2.1672 -0.9536
31661SOL    HW2  820   7.167   5.888  10.406  1.0765  0.9093 -1.7652
31662SOL     OW  821   6.451   3.762   8.972  0.6311  0.3250 -0.1512
31662SOL    HW1  822   6.479   3.712   8.895  0.9943  0.9900 -0.4674
31662SOL    HW2  823   6.472   3.853   8.949  1.7737  0.4243  1.1851
31663SOL     OW  824   9.840   9.418   2.645  0.1397  0.1217 -0.4254
31663SOL    HW1  825   9.904   9.434   2.714  0.8769  0.6473 -1.2132
31663SOL    HW2  826   9.783   9.495   2.646  1.5931  1.3033 -1.9294
31664SOL     OW  827  10.584   4.282   2.360 -0.3284 -0.0138 -0.1133
31664SOL    HW1  828  10.511   4.251   2.306 -0.8246 -2.1221  1.6016
31664SOL    HW2  829  10.651   4.308   2.298 -2.0189  0.6819 -1.7335
31665SOL     OW  830   2.832   7.150  10.099 -0.1415 -0.8756 -0.1583
31665SOL    HW1  831   2.908   7.113  10.144  0.3495 -0.9129 -0.9931
31665SOL    HW2  832   2.772   7.174  10.169  0.6278 -0.8704  0.5169
31666SOL     OW  833  10.078   7.274   9.872  0.0876 -0.6511 -0.8768
31666SOL    HW1  834  10.152   7.304   9.925  0.0134 -1.0801 -0.5196
31666SOL    HW2  835  10.104   7.292   9.782 -1.1530  3.2342 -0.6436
31667SOL     OW  836   1.815   8.527   0.331  0.4715 -0.1518 -0.0060
31667SOL    HW1  837   1.815   8.572   0.415  1.8014 -0.4687  0.1812
31667SOL    HW2  838   1.907   8.520   0.306  0.1665 -0.9160 -1.0299
31668SOL     OW  839   7.445   8.491   2.122  0.3124  0.0509 -0.2095
31668SOL    HW1  840   7.375   8.550   2.147 -0.4163  0.2412 -2.4465
31668SOL    HW2  841   7.425   8.409   2.167  0.1289  0.8355  1.1972
31669SOL     OW  842   8.825   7.067   8.330 -0.3075  0.2227  0.9005
31669SOL    HW1  843   8.859   6.978   8.342 -1.8656 -0.7579 -1.3187
31669SOL    HW2  844   8.730   7.057   8.332 -0.5250  1.6483 -0.3381
31670SOL     OW  845   5.230   3.926  10.451  0.1895 -0.4906 -0.2976
31670SOL    HW1  846   5.159   3.866  10.426  0.0921 -1.2871  1.6707
31670SOL    HW2  847   5.299   3.868  10.483  1.1470  0.3601 -0.7771
31671SOL     OW  848   1.257   8.545   9.837 -0.4540  0.2186  0.5019
31671SOL    HW1  849   1.214   8.585   9.762 -1.4881 -2.4855 -0.4821
31671SOL    HW2  850   1.228   8.598   9.912 -0.4438  2.1996 -0.8108
31672SOL     OW  851   9.848   4.371   1.698  0.3634 -0.3335 -0.0016
31672SOL    HW1  852   9.821   4.462   1.694 -0.1157 -0.5191 -1.4466
31672SOL    HW2  853   9.920   4.364   1.635 -0.2089 -1.1244 -0.5979
31673SOL     OW  854   3.442   8.145   3.988  0.4548 -0.0512 -0.0173
31673SOL    HW1  855   3.359   8.177   3.954  1.0793  0.8934 -0.7028
31673SOL    HW2  856   3.430   8.050   3.995  0.1188 -0.2565 -2.4799
31674SOL     OW  857   0.907   9.301  10.325  0.0093  0.1541  0.6784
31674SOL    HW1  858   0.933   9.210  10.339 -0.3688 -0.2644 -1.1098
31674SOL    HW2  859   0.825   9.310  10.375 -0.6003 -0.8548 -0.1061
31675SOL     OW  860   9.885  10.641  10.562  0.1369 -0.1411 -0.5236
31675SOL    HW1  861   9.860  10.728  10.530 -1.0425 -0.1568  0.3142
31675SOL    HW2  862   9.864  10.582  10.489 -0.8675  0.0437 -0.3976
31676SOL     OW  863   4.862   4.014   5.148  0.5093 -0.2848  0.1948
31676SOL    HW1  864   4.829   4.101   5.128  0.1374 -0.5080 -0.1665
31676SOL    HW2  865   4.947   4.030   5.189  1.7908  0.1804 -2.4197
31677SOL     OW  866   0.013   2.803   6.408 -0.2956 -0.3315 -0.0034
31677SOL    HW1  867   0.017   2.781   6.315 -0.0537  0.9278 -0.3089
31677SOL    HW2  868   0.099   2.777   6.442 -0.3842 -0.7943 -0.1317
31678SOL     OW  869   7.091   3.920   5.148 -0.2636 -0.4895  0.2381
31678SOL    HW1  870   7.005   3.881   5.129 -0.6073  0.1859  0.3769
31678SOL    HW2  871   7.120   3.955   5.064  0.2083 -1.3332  0.0346
31679SOL     OW  872   8.426   7.135   1.356  0.8224  0.2565  0.6756
31679SOL    HW1  873   8.408   7.050   1.395 -2.5527 -0.4460 -1.9742
31679SOL    HW2  874   8.359   7.193   1.391  1.5930  1.2340  0.5983
31680SOL     OW  875  10.445   5.907   1.096  0.0414  0.1547  0.4240
31680SOL    HW1  876  10.358   5.905   1.056  0.8495  0.5105 -1.4593
31680SOL    HW2  877  10.445   5.987   1.149 -0.3279  0.8887 -0.6644
31681SOL     OW  878   1.485  10.486   8.553 -0.3779  0.5076 -0.3170
31681SOL    HW1  879   1.524  10.564   8.593 -0.2303  0.8570 -1.1156
31681SOL    HW2  880   1.429  10.449   8.622  1.2332  0.0714  0.8239
31682SOL     OW  881   8.395   3.589   8.198 -0.3813  0.8943  0.2573
31682SOL    HW1  882   8.395   3.627   8.110 -0.2311  0.7478  0.1939
31682SOL    HW2  883   8.475   3.622   8.238  0.2519 -0.1402 -0.1386
31683SOL     OW  884   6.453   9.557   1.456 -0.8812 -0.1862  0.3666
31683SOL    HW1  885   6.547   9.566   1.471 -1.1158  2.0532  0.7685
31683SOL    HW2  886   6.416   9.642   1.480 -2.7197 -0.1617 -2.1903
31684SOL     OW  887   4.209   7.967   1.600  0.0354 -0.0832 -0.4100
31684SOL    HW1  888   4.166   8.052   1.611 -0.8943 -0.3198 -1.9718
31684SOL    HW2  889   4.241   7.968   1.510 -0.5248 -1.6244 -0.6401
31685SOL     OW  890   5.151   0.771   6.795 -0.5838 -0.1523  0.1646
31685SOL    HW1  891   5.209   0.716   6.742  0.2128 -0.6314  1.4851
31685SOL    HW2  892   5.203   0.848   6.815 -0.6664 -0.2316  0.7092
31686SOL     OW  893   3.950   2.437   6.145 -0.5230  0.2313  0.2294
31686SOL    HW1  894   3.925   2.530   6.139  0.9856  0.6806  0.5805
31686SOL    HW2  895   3.951   2.408   6.054 -1.1407  0.5079  0.1231
31687SOL     OW  896  10.263   5.650   1.771  0.0336 -0.7741  0.3118
31687SOL    HW1  897  10.331   5.588   1.798 -0.3678 -0.7187  1.5278
31687SOL    HW2  898  10.215   5.669   1.851 -3.0200 -2.7112 -0.8752
31688SOL     OW  899   8.752   9.235   9.881 -0.2761 -0.0286 -0.4708
31688SOL    HW1  900   8.720   9.245   9.971  0.4466 -0.4414 -0.1617
31688SOL    HW2  901   8.803   9.313   9.864 -1.6765  0.7913 -1.0818
31689SOL     OW  902  10.275   3.618   2.402 -0.6030  0.1230  0.5331
31689SOL    HW1  903  10.289   3.562   2.326  0.2240  0.6906  0.2483
31689SOL    HW2  904  10.311   3.568   2.476 -1.4423 -0.4440  0.5698
31690SOL     OW  905   8.854   9.069   4.226 -0.3056 -0.2080 -0.0306
31690SOL    HW1  906   8.818   9.146   4.270 -0.2957  0.0927 -0.5332
31690SOL    HW2  907   8.945   9.065   4.255 -0.5465 -0.5531  0.6866
31691SOL     OW  908   6.517   1.395   5.311  0.3234  0.6308  0.4587
31691SOL    HW1  909   6.421   1.388   5.320  0.2241 -1.8624 -1.3211
31691SOL    HW2  910   6.530   1.443   5.230  0.5172 -0.0102  0.1001
31692SOL     OW  911   1.185   5.892   0.967 -0.3787 -0.2494  0.3492
31692SOL    HW1  912   1.150   5.870   0.880  1.3841 -0.1817 -0.4187
31692SOL    HW2  913   1.172   5.812   1.018  1.1458 -1.3246 -0.8513
31693SOL     OW  914   3.624   3.166   4.827 -0.6827  0.1477 -0.6460
31693SOL    HW1  915   3.648   3.075   4.811 -0.5432  0.2049 -0.7598
31693SOL    HW2  916   3.642   3.211   4.744  0.0137  0.4405 -0.3457
31694SOL     OW  917   0.543   5.748   8.775 -0.0036  0.6871  0.0741
31694SOL    HW1  918   0.567   5.831   8.734  2.4609 -0.1749 -0.3916
31694SOL    HW2  919   0.591   5.682   8.725 -1.6301 -1.0126  0.6441
31695SOL     OW  920   3.060   0.374   8.303  0.0916 -0.1842 -0.2103
31695SOL    HW1  921   3.128   0.416   8.251  1.8953  1.5790  3.2126
31695SOL    HW2  922   3.101   0.294   8.336 -1.1765 -1.5135 -1.7090
31696SOL     OW  923   0.994   9.465   3.743  0.0194  0.2888  0.1290
31696SOL    HW1  924   1.009   9.549   3.701 -1.7423  1.7103  2.1413
31696SOL    HW2  925   0.913   9.432   3.705  0.4445 -0.2904 -0.2975
31697SOL     OW  926   1.108  10.409   5.972 -0.0432  0.1217 -0.5043
31697SOL    HW1  927   1.190  10.453   5.994 -0.4707  0.5729  0.2492
31697SOL    HW2  928   1.134  10.326   5.933  0.7730  0.6892 -1.1780
31698SOL     OW  929   2.137   8.735   4.289 -0.2371 -0.6043  0.0989
31698SOL    HW1  930   2.129   8.685   4.208  0.9666 -1.2473  0.3604
31698SOL    HW2  931   2.155   8.670   4.356 -0.5176 -0.0016  0.7826
31699SOL     OW  932   9.693   1.714   6.972  0.0741  0.0335  0.1872
31699SOL    HW1  933   9.657   1.631   6.941 -0.8526  1.1410 -1.9045
31699SOL    HW2  934   9.650   1.780   6.919  1.1722  1.8440  1.4356
31700SOL     OW  935   0.196   1.321   6.697  0.2458 -0.1000 -0.1914
31700SOL    HW1  936   0.115   1.372   6.705 -0.3553 -0.8657 -1.1104
31700SOL    HW2  937   0.257   1.363   6.757 -0.9749  0.2263  0.8861
31701SOL     OW  938   2.169   8.935   4.908  0.0071  0.2339 -0.0272
31701SOL    HW1  939   2.166   9.015   4.959  0.8437 -0.1407  0.6237
31701SOL    HW2  940   2.141   8.866   4.968 -1.3394  0.0888 -0.7543
31702SOL     OW  941   3.020  10.503   7.153  0.4290  0.2740  0.5101
31702SOL    HW1  942   3.073  10.425   7.137 -1.2566 -0.5392 -1.6012
31702SOL    HW2  943   2.930  10.471   7.154 -0.2983  2.1595 -0.1243
31703SOL     OW  944   4.264   5.004   7.533 -0.5291  0.2566 -0.0219
31703SOL    HW1  945   4.250   4.910   7.541 -0.1466  0.1591 -0.4432
31703SOL    HW2  946   4.176   5.041   7.530 -0.6897 -0.1606 -0.6243
31704SOL     OW  947   9.063   0.930   2.015  0.3599 -1.1080 -0.1582
31704SOL    HW1  948   9.009   0.917   1.937  1.0130 -1.8431 -0.5030
31704SOL    HW2  949   9.110   1.012   1.998 -1.5813  0.2653  0.7240
31705SOL     OW  950   9.749  10.710   6.286 -0.1908 -0.1229  0.3864
31705SOL    HW1  951   9.760  10.805   6.287 -0.4203 -0.0862 -0.1705
31705SOL    HW2  952   9.788  10.680   6.368 -0.4281  0.4860  0.7255
31706SOL     OW  953   9.980  10.067   8.002 -0.2789 -0.3776 -0.4263
31706SOL    HW1  954  10.016  10.151   8.030  1.8224 -0.3209 -2.9016
31706SOL    HW2  955   9.901  10.089   7.953 -0.0820  0.0961 -0.5329
31707SOL     OW  956   7.299   3.691   7.714 -0.2564 -0.0716  0.3269
31707SOL    HW1  957   7.338   3.713   7.799  1.2784 -1.2696 -0.0202
31707SOL    HW2  958   7.211   3.730   7.717  0.1830  0.8942  1.9939
31708SOL     OW  959   8.589   4.483   1.665 -0.4997 -0.6742  0.4205
31708SOL    HW1  960   8.538   4.562   1.644  0.0450 -0.2847  0.5528
31708SOL    HW2  961   8.610   4.492   1.758 -1.1079 -1.3709  0.6354
31709SOL     OW  962   9.762   5.638   5.265  0.2463 -0.2319 -0.0695
31709SOL    HW1  963   9.833   5.579   5.291  1.2605  1.1061  0.3239
31709SOL    HW2  964   9.695   5.626   5.332  0.7607 -0.3807  0.4265
31710SOL     OW  965   9.468   2.515   5.889  0.3245 -0.6149  0.7608
31710SOL    HW1  966   9.506   2.487   5.805 -0.4964  1.7418 -0.4971
31710SOL    HW2  967   9.378   2.482   5.886  0.4535 -0.9895  0.9674
31711SOL     OW  968   9.483   5.863   7.651 -0.7321 -0.3101  0.1835
31711SOL    HW1  969   9.419   5.852   7.581 -0.9955 -0.8550  0.5102
31711SOL    HW2  970   9.557   5.907   7.608 -0.0650 -2.3961 -0.9205
31712SOL     OW  971   8.800   5.645  10.433 -0.0286  0.0743  0.0600
31712SOL    HW1  972   8.791   5.629  10.527 -1.9348 -3.0680 -0.5063
31712SOL    HW2  973   8.872   5.587  10.405  0.8500  1.3330 -0.4198
31713SOL     OW  974   3.510   6.822   4.076 -0.5483  0.0904  0.5516
31713SOL    HW1  975   3.451   6.863   4.012 -0.3725  2.7939  1.9583
31713SOL    HW2  976   3.597   6.856   4.054 -0.1902 -0.4723  1.0739
31714SOL     OW  977   2.933   9.481   5.600  0.5340 -0.3087 -0.2330
31714SOL    HW1  978   2.909   9.532   5.678  1.3793  1.1353 -0.8689
31714SOL    HW2  979   3.027   9.468   5.609  0.6664  0.0318 -1.0933
31715SOL     OW  980   5.189   3.029   4.847 -0.3740 -0.0592 -0.4579
31715SOL    HW1  981   5.240   3.109   4.864  1.0003 -0.7051 -1.3167
31715SOL    HW2  982   5.201   2.976   4.926  2.6960 -1.3765 -1.6512
31716SOL     OW  983   6.659   6.657   2.042  0.3514 -0.9142  0.0509
31716SOL    HW1  984   6.584   6.640   2.100  1.5647 -0.6793  1.7591
31716SOL    HW2  985   6.657   6.752   2.030 -0.0706 -0.9927 -0.5775
31717SOL     OW  986   3.418   8.004   5.831 -0.1686 -0.0506  0.0568
31717SOL    HW1  987   3.463   8.065   5.889 -1.5493 -0.3992  1.5559
31717SOL    HW2  988   3.471   7.924   5.834  0.6956  0.4926 -0.5362
31718SOL     OW  989  10.474   9.726  10.141  0.4660 -0.2308  0.4036
31718SOL    HW1  990  10.537   9.781  10.095  1.6642 -2.1002 -0.3513
31718SOL    HW2  991  10.500   9.636  10.118 -1.7438 -1.1160  1.0681
31719SOL     OW  992   0.421   7.993  10.369 -0.0755  0.0504 -0.0723
31719SOL    HW1  993   0.486   7.922  10.375 -1.9011 -1.6916  0.0846
31719SOL    HW2  994   0.366   7.981  10.446 -0.3789  1.7455  0.0058
31720SOL     OW  995   6.651   5.520   4.260 -0.1860  0.2941  0.0067
31720SOL    HW1  996   6.581   5.458   4.241 -0.1734  0.0675  0.6817
31720SOL    HW2  997   6.700   5.527   4.178  0.6030 -1.6046  0.2803
31721SOL     OW  998   2.520   6.497   0.246 -0.1504 -0.2704  0.1773
31721SOL    HW1  999   2.572   6.420   0.223 -0.5475 -0.0882 -1.4601
31721SOL    HW2 1000   2.584   6.564   0.267  0.2013 -0.9647  1.4086
31722SOL     OW 1001   6.277   5.872  10.003  0.0155  0.0028  0.6785
31722SOL    HW1 1002   6.310   5.799  10.056 -1.5440 -1.0897  0.2150
31722SOL    HW2 1003   6.182   5.871  10.017 -0.1449  1.3008 -0.1610
31723SOL     OW 1004   7.208   1.013   7.619 -0.2041  0.4549  0.2034
31723SOL    HW1 1005   7.226   1.047   7.532 -0.3706 -0.5210 -0.2319
31723SOL    HW2 1006   7.292   0.977   7.648 -0.7590 -1.8313 -0.7869
31724SOL     OW 1007   7.678   8.776   1.854  0.1932 -0.3515 -0.9459
31724SOL    HW1 1008   7.648   8.706   1.796 -1.0937 -0.2744 -0.4162
31724SOL    HW2 1009   7.613   8.846   1.842  1.1995  0.5955 -1.1299
31725SOL     OW 1010   7.263   1.568   4.235 -0.5215 -0.2965 -0.3075
31725SOL    HW1 1011   7.185   1.622   4.244 -0.0452  0.6021 -1.3726
31725SOL    HW2 1012   7.269   1.550   4.141  0.2781 -0.7656 -0.1745
31726SOL     OW 1013   7.526   0.565   0.743 -0.6783  0.0262 -0.1666
31726SOL    HW1 1014   7.590   0.579   0.813 -1.2707  0.0371  0.3814
31726SOL    HW2 1015   7.443   0.595   0.780 -0.9817  0.1192 -0.9116
31727SOL     OW 1016   3.491   5.541   2.895  0.1941  0.5299 -0.4400
31727SOL    HW1 1017   3.411   5.579   2.931 -0.2669 -0.4170 -0.4401
31727SOL    HW2 1018   3.483   5.447   2.911  1.5409  0.4583  0.0201
31728SOL     OW 1019   3.648   2.797   6.616 -0.3171 -0.0223  0.3276
31728SOL    HW1 1020   3.626   2.724   6.674  0.1598  0.1208  0.6975
31728SOL    HW2 1021   3.626   2.875   6.667 -2.2163  0.1019 -0.6167
31729SOL     OW 1022   3.958   5.384   7.063  0.4372  0.3390  0.1529
31729SOL    HW1 1023   3.972   5.473   7.097 -2.3201  0.5272  1.0920
31729SOL    HW2 1024   3.997   5.327   7.129 -0.2395  0.8240  0.9995
31730SOL     OW 1025  10.047   3.672  10.373  0.1461  0.3726  0.4035
31730SOL    HW1 1026  10.025   3.643  10.462 -1.2083 -1.0480 -0.3430
31730SOL    HW2 1027  10.126   3.622  10.351 -1.3439 -1.8290 -0.3276
31731SOL     OW 1028   9.086   6.690   3.688 -0.0110  0.7790 -0.0504
31731SOL    HW1 1029   9.060   6.656   3.773  0.5352  0.2048 -0.1080
31731SOL    HW2 1030   9.031   6.642   3.625  0.1270  0.6460 -0.0703
31732SOL     OW 1031  10.266   7.384  10.043  0.3061 -0.0995  0.0554
31732SOL    HW1 1032  10.201   7.453  10.051  0.2237 -0.0706 -0.7306
31732SOL    HW2 1033  10.335   7.422   9.989  0.9540 -0.1495  0.8246
31733SOL     OW 1034   3.323   4.998   1.920  0.2598 -0.2850 -0.0716
31733SOL    HW1 1035   3.395   5.023   1.862  1.3022 -2.2369  0.3071
31733SOL    HW2 1036   3.244   5.030   1.876  1.2501  1.0126 -0.9840
31734SOL     OW 1037   6.279  10.112   6.430  0.2973  0.0632  0.0200
31734SOL    HW1 1038   6.272  10.146   6.519  0.6600  0.6731 -0.1727
31734SOL    HW2 1039   6.353  10.159   6.392  0.4964 -0.5977 -0.4284
31735SOL     OW 1040   9.617   3.389  10.480 -0.1194  0.0379 -0.4283
31735SOL    HW1 1041   9.535   3.431  10.457 -1.4946 -1.6978  0.9941
31735SOL    HW2 1042   9.685   3.443  10.439 -1.9508  1.4586 -1.7219
31736SOL     OW 1043   0.161   1.261   5.037 -0.4780  0.0214 -0.0260
31736SOL    HW1 1044   0.217   1.192   5.000 -0.0609  0.0878  0.4592
31736SOL    HW2 1045   0.222   1.315   5.088 -1.2151 -0.8445  1.8898
31737SOL     OW 1046   9.812   6.166   0.351  0.1161 -0.0572 -0.6409
31737SOL    HW1 1047   9.891   6.181   0.403 -0.1253  1.1387 -0.5975
31737SOL    HW2 1048   9.843   6.115   0.276  0.8868  0.1471 -0.4746
31738SOL     OW 1049   9.363   8.031   8.171 -0.0312 -0.0555 -0.3912
31738SOL    HW1 1050   9.272   8.032   8.139 -0.6709  1.8806  1.2792
31738SOL    HW2 1051   9.411   7.981   8.105 -2.3236 -1.2778 -1.2460
31739SOL     OW 1052   9.436   9.628   3.132 -0.4076  0.4014  0.2479
31739SOL    HW1 1053   9.448   9.533   3.131 -1.0279  0.3134  0.7299
31739SOL    HW2 1054   9.429   9.653   3.040 -0.9630 -0.1118  0.1479
31740SOL     OW 1055   9.432   0.403  10.017  0.7124 -0.0216  0.1043
31740SOL    HW1 1056   9.348   0.367   9.987  0.4813 -0.0058  0.7166
31740SOL    HW2 1057   9.417   0.498  10.018 -0.0253 -0.0963  2.3339
31741SOL     OW 1058   2.821   0.374   1.972 -0.5785 -0.0232 -0.7570
31741SOL    HW1 1059   2.762   0.431   1.922 -0.8979  1.0825  0.8096
31741SOL    HW2 1060   2.801   0.393   2.063  1.2523 -0.6437 -0.1853
31742SOL     OW 1061   4.251   2.088   2.770 -0.3462  0.1018 -0.1132
31742SOL    HW1 1062   4.336   2.044   2.768 -0.4597 -0.1450  0.3994
31742SOL    HW2 1063   4.198   2.042   2.706 -0.2670 -0.0975 -0.0349
31743SOL     OW 1064   2.427  10.623   0.467 -0.5398 -0.6784 -0.4089
31743SOL    HW1 1065   2.350  10.599   0.518  0.0872 -0.8636  0.4675
31743SOL    HW2 1066   2.467  10.539   0.443  0.1598 -0.5644  0.3411
31744SOL     OW 1067   9.294   0.945   7.868 -0.1899 -0.1665 -0.2454
31744SOL    HW1 1068   9.252   0.886   7.930 -0.1646  0.4850  0.3997
31744SOL    HW2 1069   9.272   0.909   7.782  2.3657 -2.9250  0.0921
31745SOL     OW 1070  10.255   0.730   5.383 -0.1378 -0.5727 -0.0754
31745SOL    HW1 1071  10.348   0.713   5.399 -0.2413  0.4514  1.7773
31745SOL    HW2 1072  10.231   0.664   5.317  1.4367 -2.1035  0.7751
31746SOL     OW 1073  10.362   7.550   2.686  0.4061 -0.2316  0.5181
31746SOL    HW1 1074  10.403   7.544   2.600 -0.7279  2.1974 -0.2782
31746SOL    HW2 1075  10.413   7.490   2.741  2.2616 -0.5364 -1.4009
31747SOL     OW 1076   2.002   7.719   1.836 -0.5853  0.5984 -0.3048
31747SOL    HW1 1077   2.064   7.650   1.813 -0.7458 -0.3457  1.8747
31747SOL    HW2 1078   2.057   7.793   1.861 -0.2434 -0.3283  1.9023
31748SOL     OW 1079   0.272   4.036   4.039  0.2952  0.1002  0.1147
31748SOL    HW1 1080   0.358   4.051   3.999  0.5371 -2.2019 -0.3652
31748SOL    HW2 1081   0.214   4.099   3.995  1.3767  0.4713 -0.8395
31749SOL     OW 1082   4.839  10.444   7.867 -0.6596 -0.1788 -0.0910
31749SOL    HW1 1083   4.781  10.369   7.881  0.0244 -0.6339  0.3196
31749SOL    HW2 1084   4.926  10.406   7.858 -0.6166  0.3245 -2.5043
31750SOL     OW 1085   1.187   7.747   0.438 -0.1896  0.2321 -0.3570
31750SOL    HW1 1086   1.106   7.798   0.449 -0.0147  0.5480 -0.5362
31750SOL    HW2 1087   1.253   7.811   0.413  0.5916  0.3162  1.6753
31751SOL     OW 1088   5.185   8.461   5.857 -0.2403  0.0420  0.1358
31751SOL    HW1 1089   5.124   8.390   5.877 -0.5831 -0.1239 -1.3921
31751SOL    HW2 1090   5.132   8.540   5.859 -0.6599 -0.1550 -1.6891
31752SOL     OW 1091   0.277   3.970   9.474 -0.4207 -0.4539  0.2057
31752SOL    HW1 1092   0.213   4.039   9.488  0.1658  0.3723 -0.9654
31752SOL    HW2 1093   0.278   3.957   9.379 -1.2128 -2.7673  0.4405
31753SOL     OW 1094   6.695   7.123   9.353 -0.3906 -0.1354 -0.5244
31753SOL    HW1 1095   6.739   7.086   9.430 -0.1158 -1.2278 -1.1938
31753SOL    HW2 1096   6.752   7.195   9.325 -0.7654  0.6391  0.5947
31754SOL     OW 1097  10.700   0.873   5.145  0.3893 -0.1616 -0.2011
31754SOL    HW1 1098  10.748   0.826   5.077 -0.4076 -0.1029 -0.8233
31754SOL    HW2 1099  10.612   0.834   5.145  0.5970 -0.6926  1.3497
31755SOL     OW 1100   3.169   9.487   0.204  0.1023 -0.2780 -0.0646
31755SOL    HW1 1101   3.218   9.405   0.219  0.3841 -0.0644  0.1967
31755SOL    HW2 1102   3.229   9.541   0.152  0.7384  0.5569  1.4879
31756SOL     OW 1103   0.985   8.561   1.531  0.1233  0.1785 -0.0051
31756SOL    HW1 1104   0.936   8.600   1.459  1.1337 -0.4354 -1.0557
31756SOL    HW2 1105   1.072   8.602   1.526  0.1292  0.3299  1.0477
31757SOL     OW 1106   4.313   2.660   9.121  0.2864  0.1290 -0.1181
31757SOL    HW1 1107   4.290   2.589   9.180 -1.3633  1.3142  0.7546
31757SOL    HW2 1108   4.245   2.726   9.134  0.9453  1.2751 -1.9399
31758SOL     OW 1109   6.003   6.102   1.557  0.4602  0.1356  0.1110
31758SOL    HW1 1110   5.970   6.105   1.467  0.3300  2.2389  0.1922
31758SOL    HW2 1111   5.926   6.083   1.610  0.4643 -0.7081 -0.1679
31759SOL     OW 1112   0.024   9.260   2.559  0.4259  0.1225  0.4949
31759SOL    HW1 1113   0.051   9.198   2.491 -0.0235  1.5543 -1.0532
31759SOL    HW2 1114  -0.063   9.229   2.585  0.6234 -0.4738  0.4751
31760SOL     OW 1115   6.252   3.361   2.671 -0.2379 -0.4283  0.0417
31760SOL    HW1 1116   6.293   3.291   2.620 -1.6961 -2.0670  1.0373
31760SOL    HW2 1117   6.165   3.328   2.693 -0.9870  1.7066  0.5659
31761SOL     OW 1118   1.214   9.865  10.719  0.2924 -0.4074  0.1728
31761SOL    HW1 1119   1.177   9.936  10.667 -0.9824 -0.4844  0.9303
31761SOL    HW2 1120   1.138   9.817  10.751  1.1327 -2.8123 -1.2172
31762SOL     OW 1121   8.960  10.500   4.871 -0.3828  0.4962  0.0512
31762SOL    HW1 1122   9.004  10.425   4.830  0.5297  0.7126  0.5935
31762SOL    HW2 1123   8.870  10.472   4.882 -0.4684  0.1309 -1.3616
31763SOL     OW 1124   7.942   7.585   3.125  0.3670  0.6600 -0.1754
31763SOL    HW1 1125   7.942   7.491   3.142 -1.4005  0.7005  0.2399
31763SOL    HW2 1126   8.033   7.612   3.139  0.5152 -0.6397  1.6955
31764SOL     OW 1127   8.035   8.871   7.706  0.2455  0.5657  0.0201
31764SOL    HW1 1128   8.072   8.934   7.645  0.5606  0.5493  0.1919
31764SOL    HW2 1129   8.105   8.808   7.721  0.4829  1.0635  1.0908
31765SOL     OW 1130   0.120   2.943   7.815 -0.2369  0.2077  0.3847
31765SOL    HW1 1131   0.083   2.992   7.741 -0.5654  1.2534  1.2135
31765SOL    HW2 1132   0.053   2.879   7.838 -0.7937  0.8929  0.7240
31766SOL     OW 1133   2.207   4.355   8.546 -0.2249  0.1031 -0.1509
31766SOL    HW1 1134   2.278   4.291   8.550 -1.5438 -1.6177 -2.2519
31766SOL    HW2 1135   2.185   4.371   8.638  0.3570 -2.2617  0.4802
31767SOL     OW 1136   8.049   0.350   6.337 -0.3843  0.3915  0.1618
31767SOL    HW1 1137   7.969   0.384   6.299 -0.0920  3.0449  1.6593
31767SOL    HW2 1138   8.026   0.331   6.428  0.5890  1.0415  0.5663
31768SOL     OW 1139   6.956   1.863   8.065 -0.2593  0.1920  0.3899
31768SOL    HW1 1140   6.995   1.776   8.071 -1.2958 -0.2863  0.3173
31768SOL    HW2 1141   7.027   1.919   8.033  0.3662 -0.6523  0.2732
31769SOL     OW 1142   8.514   8.243   0.006 -0.1375 -0.1145 -0.1671
31769SOL    HW1 1143   8.508   8.181  -0.067  1.6453 -0.3121 -0.1886
31769SOL    HW2 1144   8.567   8.315  -0.028 -0.9925  0.7593  0.3136
31770SOL     OW 1145   9.588   8.964   7.999  0.3845 -0.0885 -0.4578
31770SOL    HW1 1146   9.651   8.892   7.994  1.3383  0.5908  0.9310
31770SOL    HW2 1147   9.518   8.932   8.056  1.1564  0.2909  0.7396
31771SOL     OW 1148   0.407   8.148   1.671  0.7936 -0.0943 -0.0999
31771SOL    HW1 1149   0.387   8.081   1.606  2.0166  1.1040 -1.7835
31771SOL    HW2 1150   0.455   8.215   1.623 -0.8458  2.2886  1.3593
31772SOL     OW 1151  10.161   4.447   9.613 -0.0585 -0.5383 -0.2568
31772SOL    HW1 1152  10.204   4.533   9.619  0.4135 -0.8350  0.8622
31772SOL    HW2 1153  10.154   4.431   9.519 -0.6291  0.9457 -0.5021
31773SOL     OW 1154   7.820   1.270   8.040  0.0820 -0.0918  0.2249
31773SOL    HW1 1155   7.839   1.332   7.970  0.5214 -1.9265 -1.3765
31773SOL    HW2 1156   7.906   1.245   8.075 -0.0016 -0.7637 -0.0356
31774SOL     OW 1157   3.584   6.227   1.544 -0.3223  0.4105  0.4820
31774SOL    HW1 1158   3.499   6.218   1.587 -0.2263 -0.2756  0.5258
31774SOL    HW2 1159   3.584   6.159   1.477 -0.4398  1.4065 -0.5721
31775SOL     OW 1160  10.198   2.435   1.435 -0.4358 -0.1476  0.3454
31775SOL    HW1 1161  10.188   2.483   1.353  1.5454  0.4680  0.4094
31775SOL    HW2 1162  10.198   2.503   1.502 -0.7941 -0.5346  0.7428
31776SOL     OW 1163   9.831   6.635   9.626 -0.2698  0.2866  0.0083
31776SOL    HW1 1164   9.918   6.596   9.617 -0.3466 -0.0949  0.8506
31776SOL    HW2 1165   9.834   6.682   9.709 -1.6409 -1.8725  1.4008
31777SOL     OW 1166   5.935   6.173   8.258 -0.3734 -0.3524  0.5102
31777SOL    HW1 1167   5.998   6.137   8.195 -0.3413  0.4076  0.0934
31777SOL    HW2 1168   5.918   6.262   8.226 -1.9611 -0.6755  0.3910
31778SOL     OW 1169   1.962   8.421   2.208 -0.2368 -0.1279 -0.6855
31778SOL    HW1 1170   1.949   8.513   2.233 -1.5748 -0.0867 -1.4218
31778SOL    HW2 1171   1.877   8.380   2.225  0.4701 -1.3291  0.0208
31779SOL     OW 1172   7.569   7.504   4.957 -0.2258  0.0360 -0.8312
31779SOL    HW1 1173   7.620   7.573   5.001 -0.0650 -0.0018 -0.9583
31779SOL    HW2 1174   7.620   7.424   4.970  0.6135  0.2747 -2.3901
31780SOL     OW 1175   6.011   6.312   2.221  0.3977 -0.1502  0.4035
31780SOL    HW1 1176   6.072   6.332   2.150  0.0510  0.4762  0.2754
31780SOL    HW2 1177   6.062   6.327   2.301  0.4032  0.4345  0.2971
31781SOL     OW 1178   9.407   7.763   4.210  0.7230  0.1090  0.1627
31781SOL    HW1 1179   9.381   7.673   4.192  0.7369 -0.0447  0.8651
31781SOL    HW2 1180   9.346   7.816   4.159 -0.7866 -0.2621  1.4729
31782SOL     OW 1181   8.946  10.020   0.887  0.1027  0.0279  0.0233
31782SOL    HW1 1182   8.881  10.053   0.948  0.7550  0.7677  0.3346
31782SOL    HW2 1183   8.945  10.082   0.814  0.4936  0.0839  0.0600
31783SOL     OW 1184   7.051   3.389   2.941 -0.2696 -0.0084 -0.7050
31783SOL    HW1 1185   7.050   3.466   2.884 -1.1944  0.7752  0.3154
31783SOL    HW2 1186   6.959   3.369   2.955 -0.0657 -2.2493 -2.1356
31784SOL     OW 1187   2.386   9.196   9.884 -0.2368  0.2304  0.0778
31784SOL    HW1 1188   2.336   9.139   9.826 -1.2296  0.3995  0.7296
31784SOL    HW2 1189   2.433   9.136   9.943 -1.1182  0.0656  0.6313
31785SOL     OW 1190   9.810   7.380   2.140 -0.2725  0.1791 -0.6733
31785SOL    HW1 1191   9.776   7.291   2.147  0.0299  0.1816  1.3337
31785SOL    HW2 1192   9.852   7.382   2.054 -0.3360 -1.6007 -0.7957
31786SOL     OW 1193   2.595   0.593   4.692 -0.1184  0.0006  0.2108
31786SOL    HW1 1194   2.576   0.663   4.630 -2.2482 -0.2017  0.5610
31786SOL    HW2 1195   2.529   0.527   4.675  2.2888 -2.3673 -0.6298
31787SOL     OW 1196   0.432   9.420   7.782  0.8011  0.0761  0.6353
31787SOL    HW1 1197   0.404   9.400   7.692  0.9862 -3.5073  1.2131
31787SOL    HW2 1198   0.351   9.440   7.828  0.4656  0.0818  0.0614
31788SOL     OW 1199   9.850   8.331   4.234 -0.1649  0.2969  0.1461
31788SOL    HW1 1200   9.818   8.328   4.144 -1.7157  0.2518  0.6696
31788SOL    HW2 1201   9.879   8.242   4.252  0.6142  0.4205 -0.4548
31789SOL     OW 1202   5.655   2.600   1.816 -0.2379 -0.0121 -0.0862
31789SOL    HW1 1203   5.661   2.600   1.720 -0.1895 -0.8166 -0.0874
31789SOL    HW2 1204   5.577   2.652   1.834  0.1234  0.7075 -0.5321
31790SOL     OW 1205   0.251   9.373   6.885  0.4845  0.1944 -0.6241
31790SOL    HW1 1206   0.167   9.400   6.849 -1.1833 -1.4393  1.7608
31790SOL    HW2 1207   0.268   9.436   6.955  1.6247  0.9193 -1.5283
31791SOL     OW 1208   2.720   4.885   7.858  0.0536 -0.3427  0.3046
31791SOL    HW1 1209   2.807   4.849   7.876  1.0633  1.9635  0.4105
31791SOL    HW2 1210   2.729   4.927   7.772  0.0890  2.6735  1.6424
31792SOL     OW 1211   9.549   3.999   0.112 -0.1410 -0.9665 -0.0212
31792SOL    HW1 1212   9.559   4.030   0.022 -0.6483 -0.7522 -0.0070
31792SOL    HW2 1213   9.519   3.909   0.102  0.6134 -1.2222 -0.0614
31793SOL     OW 1214   1.120   9.162   1.354 -0.5231  0.1960 -0.8556
31793SOL    HW1 1215   1.111   9.067   1.343 -0.5558 -0.0159  0.7068
31793SOL    HW2 1216   1.165   9.192   1.276 -1.3092 -0.9803 -1.7914
31794SOL     OW 1217  10.227   1.444   9.189 -0.1827  0.1957  0.6154
31794SOL    HW1 1218  10.279   1.420   9.112  0.0725  0.2561  0.7675
31794SOL    HW2 1219  10.213   1.538   9.181  0.3748  0.3115  0.9614
31795SOL     OW 1220   4.888   8.567   7.087  0.3120 -0.5073 -0.2341
31795SOL    HW1 1221   4.812   8.510   7.079 -0.4460  0.4619 -0.2048
31795SOL    HW2 1222   4.960   8.509   7.110 -1.0040 -1.1146  2.8463
31796SOL     OW 1223   9.818   5.468   1.260 -0.2638  0.0585 -0.2069
31796SOL    HW1 1224   9.786   5.548   1.301  0.5378 -0.2657  1.1178
31796SOL    HW2 1225   9.740   5.415   1.245 -0.5069 -0.3202  2.0750
31797SOL     OW 1226   3.184   1.775   7.845  0.1606 -0.3530 -0.3444
31797SOL    HW1 1227   3.250   1.841   7.824 -0.7052  1.0868  1.1777
31797SOL    HW2 1228   3.160   1.736   7.761  0.2371  1.7384 -1.3875
31798SOL     OW 1229   3.681   5.479   1.628  0.1789  0.1101 -0.0386
31798SOL    HW1 1230   3.720   5.485   1.716 -1.7209  1.1464  0.8107
31798SOL    HW2 1231   3.642   5.565   1.614  0.6002  0.0152 -2.0242
31799SOL     OW 1232   3.001   3.746   5.558 -0.0166 -0.2822  0.0246
31799SOL    HW1 1233   2.943   3.741   5.634  1.0810  1.6893  1.0861
31799SOL    HW2 1234   3.066   3.679   5.573  0.0249 -0.0976  0.6972
31800SOL     OW 1235   5.179   0.900   0.179  0.3112  0.3449  0.0547
31800SOL    HW1 1236   5.113   0.899   0.109  1.0164  0.0437 -0.6175
31800SOL    HW2 1237   5.185   0.992   0.204 -1.2547  0.2266  0.9980
31801SOL     OW 1238   4.616  10.155   4.144 -0.3922  0.2078  0.1516
31801SOL    HW1 1239   4.607  10.088   4.212  0.8587  0.1953  0.3176
31801SOL    HW2 1240   4.655  10.230   4.188 -1.0696  0.7873 -0.2117
31802SOL     OW 1241   5.800   4.672   3.950  0.5792 -0.0446  0.0498
31802SOL    HW1 1242   5.830   4.756   3.985  0.2519 -1.0240  2.9815
31802SOL    HW2 1243   5.705   4.675   3.959  0.4322 -0.2015 -1.2353
31803SOL     OW 1244   0.358   3.870   7.588 -0.1300  0.5807 -0.0420
31803SOL    HW1 1245   0.310   3.896   7.510 -0.9049  1.6471  0.7463
31803SOL    HW2 1246   0.384   3.953   7.629 -0.5273  0.0853  1.2881
31804SOL     OW 1247   0.907   6.210   4.077 -0.3182  0.0540 -0.7621
31804SOL    HW1 1248   0.972   6.273   4.109  0.7318 -0.0390 -2.5902
31804SOL    HW2 1249   0.956   6.130   4.061 -1.0717 -0.3239 -1.2572
31805SOL     OW 1250   1.622   4.476   5.767  0.5273  0.1778 -0.1162
31805SOL    HW1 1251   1.675   4.453   5.690 -0.5420  0.6062 -1.0143
31805SOL    HW2 1252   1.678   4.535   5.817  2.2106 -1.9910  0.7586
31806SOL     OW 1253   7.857   6.421   4.186 -1.1083 -0.0435  0.1046
31806SOL    HW1 1254   7.829   6.337   4.222 -2.9294  0.4849  0.0133
31806SOL    HW2 1255   7.876   6.401   4.094  0.6343 -0.7758  0.5854
31807SOL     OW 1256   3.122   5.481   1.166 -0.3311 -0.3096 -0.3027
31807SOL    HW1 1257   3.107   5.388   1.146 -1.8053  0.1349 -1.4135
31807SOL    HW2 1258   3.184   5.510   1.099 -0.6621 -0.2570 -0.5899
31808SOL     OW 1259   3.169   9.269   8.204 -0.3104 -0.2779 -0.2056
31808SOL    HW1 1260   3.139   9.357   8.229  0.5014 -0.7570  2.7786
31808SOL    HW2 1261   3.090   9.216   8.200 -0.4948 -0.2208  1.8106
31809SOL     OW 1262   6.318   8.071   4.268  0.1568  0.0522 -0.3091
31809SOL    HW1 1263   6.253   8.063   4.198  0.8261  0.9114 -1.0552
31809SOL    HW2 1264   6.376   7.996   4.256  1.3513  1.1431 -1.8762
31810SOL     OW 1265   8.500   3.063   4.701 -0.8747  0.4619  0.1920
31810SOL    HW1 1266   8.524   3.017   4.621 -1.6368 -0.9640  0.7368
31810SOL    HW2 1267   8.465   3.147   4.671 -1.8358 -0.3379 -1.0428
31811SOL     OW 1268   5.014   2.168   4.871  0.0147  0.0791 -0.3113
31811SOL    HW1 1269   5.054   2.255   4.865  1.1385 -0.5114 -2.3805
31811SOL    HW2 1270   4.920   2.184   4.872  0.2148  1.3250 -0.2214
31812SOL     OW 1271   2.240   9.618   0.726  0.4031 -0.2520  0.0071
31812SOL    HW1 1272   2.199   9.549   0.673  0.8063 -1.4490  1.1922
31812SOL    HW2 1273   2.182   9.694   0.715  0.1170 -0.6708 -1.5784
31813SOL     OW 1274   5.580   2.765   7.603  0.0015 -0.2422 -0.4153
31813SOL    HW1 1275   5.602   2.802   7.518  1.8908 -0.6613 -0.1640
31813SOL    HW2 1276   5.494   2.726   7.592 -0.8823  1.8737 -1.4170
31814SOL     OW 1277   8.694   2.339   3.362  0.4505 -0.2425  0.3317
31814SOL    HW1 1278   8.787   2.322   3.348  0.5920  0.8585 -0.1895
31814SOL    HW2 1279   8.662   2.374   3.279 -0.5851 -1.1685  0.3138
31815SOL     OW 1280   1.619   0.784   9.389 -0.2103  0.3640  0.2731
31815SOL    HW1 1281   1.607   0.689   9.398 -1.3365  0.5393  0.7758
31815SOL    HW2 1282   1.617   0.799   9.295  0.2841 -0.1434  0.1751
31816SOL     OW 1283   2.711   1.273   3.863 -0.3534 -0.7814  0.5311
31816SOL    HW1 1284   2.616   1.268   3.871 -0.4703 -2.5724 -1.3649
31816SOL    HW2 1285   2.739   1.318   3.943 -2.8565  1.0117  0.5173
31817SOL     OW 1286   7.568   1.443   4.261 -0.0922 -0.1895  0.3068
31817SOL    HW1 1287   7.659   1.457   4.232  0.6571 -0.3296  2.4145
31817SOL    HW2 1288   7.521   1.423   4.180  1.5636  0.7362 -0.9763
31818SOL     OW 1289   6.795   6.892   6.367  0.1471  0.2164 -0.1273
31818SOL    HW1 1290   6.818   6.980   6.339  0.6623 -0.5610 -2.4236
31818SOL    HW2 1291   6.713   6.873   6.322 -0.6960 -0.0154  1.4399
31819SOL     OW 1292   2.763   5.317   1.409  0.2918 -0.3559 -0.4993
31819SOL    HW1 1293   2.723   5.381   1.468  0.9554  0.1991 -0.6437
31819SOL    HW2 1294   2.750   5.354   1.321  0.8296 -0.3400 -0.5710
31820SOL     OW 1295  10.136   6.122   1.346  0.2965 -0.1768 -0.4306
31820SOL    HW1 1296  10.076   6.121   1.271  0.0360  0.6997 -0.2374
31820SOL    HW2 1297  10.121   6.206   1.388  0.9193 -0.3881  0.2306
31821SOL     OW 1298   5.347   8.555   2.763  0.7650  0.7599  0.7355
31821SOL    HW1 1299   5.389   8.609   2.695  1.9612 -2.1136 -0.9891
31821SOL    HW2 1300   5.403   8.478   2.771 -0.6665 -0.1429  3.3150
31822SOL     OW 1301   3.923   1.513   7.026  1.0008 -0.1685  0.3498
31822SOL    HW1 1302   3.929   1.602   6.990 -0.1098 -0.8049 -1.5244
31822SOL    HW2 1303   3.875   1.524   7.108 -2.1645  0.6472 -1.4460
31823SOL     OW 1304   1.583   2.503   4.029 -0.3461  0.1717  0.3651
31823SOL    HW1 1305   1.555   2.413   4.047  0.1123 -0.2234 -0.8057
31823SOL    HW2 1306   1.677   2.496   4.013 -0.4620  0.7221 -0.6117
31824SOL     OW 1307   6.473   4.733   0.143  0.2539 -0.6234  0.1064
31824SOL    HW1 1308   6.456   4.786   0.221  2.1596  1.8434 -1.0248
31824SOL    HW2 1309   6.549   4.774   0.102 -1.0435 -1.4197 -3.4038
31825SOL     OW 1310  10.716   2.778   1.675 -0.5846 -0.0931  0.1037
31825SOL    HW1 1311  10.760   2.751   1.595 -1.2148  0.7068 -0.5367
31825SOL    HW2 1312  10.650   2.841   1.646  0.6460  1.9574  1.4679
31826SOL     OW 1313   2.590   7.310   1.772 -0.1973  0.4045  0.0892
31826SOL    HW1 1314   2.531   7.303   1.697 -0.7851  0.1417  0.5652
31826SOL    HW2 1315   2.555   7.384   1.822 -0.9712 -0.6146  1.0976
31827SOL     OW 1316   8.803   5.246   9.780  0.0317 -0.0226 -0.3775
31827SOL    HW1 1317   8.733   5.300   9.744 -0.1147 -0.5322 -0.8833
31827SOL    HW2 1318   8.841   5.202   9.703  0.3903 -0.3447 -0.0216
31828SOL     OW 1319   5.741   0.631   2.949 -0.4757 -0.0213  0.2556
31828SOL    HW1 1320   5.809   0.627   3.016 -1.3988 -1.6511  1.1477
31828SOL    HW2 1321   5.659   0.625   2.998 -1.2462  0.8614 -0.8821
31829SOL     OW 1322   7.046   2.809  10.661 -0.3935  0.5846 -0.2124
31829SOL    HW1 1323   6.960   2.849  10.645  0.1910  1.3966 -1.5173
31829SOL    HW2 1324   7.026   2.730  10.712 -1.8218  1.2078  0.2575
31830SOL     OW 1325   0.466   4.397   1.552  0.2924  0.0298  0.8278
31830SOL    HW1 1326   0.551   4.431   1.580 -0.0648  1.8654 -0.1992
31830SOL    HW2 1327   0.464   4.412   1.458 -0.4356 -1.7424  0.5188
31831SOL     OW 1328   7.177   8.205   3.900 -0.4701  0.4410 -0.1346
31831SOL    HW1 1329   7.156   8.279   3.842 -1.1101 -0.3176 -0.9045
31831SOL    HW2 1330   7.094   8.185   3.943  0.0664  1.1872  1.3117
31832SOL     OW 1331   6.478   0.816   5.874 -0.2055  0.3032 -0.1514
31832SOL    HW1 1332   6.438   0.742   5.828 -0.5120 -0.7866  1.7907
31832SOL    HW2 1333   6.456   0.892   5.820  0.5259 -1.0173 -2.4589
31833SOL     OW 1334   3.615   2.644   2.030  0.1477  0.2501 -0.1224
31833SOL    HW1 1335   3.552   2.715   2.042  0.1425  0.1341  0.5234
31833SOL    HW2 1336   3.563   2.571   1.995 -0.4188 -0.3985  1.9528
31834SOL     OW 1337   6.293   6.703   0.220 -0.2013  0.2125 -0.2087
31834SOL    HW1 1338   6.258   6.752   0.294  1.4492  0.2620  0.5836
31834SOL    HW2 1339   6.357   6.762   0.180 -1.7309  0.5635 -2.3068
31835SOL     OW 1340   1.927   9.886   7.952  0.0993  0.2310 -0.3167
31835SOL    HW1 1341   1.957   9.951   7.888  0.8934  0.2303  0.0498
31835SOL    HW2 1342   1.873   9.826   7.901 -0.1020  0.8012 -0.7891
31836SOL     OW 1343   2.963   5.436   6.705  0.7199 -0.1856  0.2695
31836SOL    HW1 1344   2.885   5.457   6.757  1.8299  1.2482  1.4384
31836SOL    HW2 1345   2.953   5.343   6.684 -2.2346  0.3660 -1.3212
31837SOL     OW 1346   5.344   3.346  10.715 -0.0476  0.0846  0.3265
31837SOL    HW1 1347   5.433   3.361  10.685 -0.5364 -0.7554 -1.6987
31837SOL    HW2 1348   5.347   3.261  10.758 -0.1073 -0.6079 -0.9847
31838SOL     OW 1349   7.262   9.340   3.443  0.2334 -0.5422 -0.3579
31838SOL    HW1 1350   7.319   9.386   3.506 -0.8501 -1.0305  1.0491
31838SOL    HW2 1351   7.290   9.372   3.358 -0.1059  2.3927  0.4944
31839SOL     OW 1352  10.430   3.671   7.179  0.1185 -0.6971  0.1426
31839SOL    HW1 1353  10.470   3.708   7.101 -0.7479  0.1180  0.0495
31839SOL    HW2 1354  10.494   3.609   7.213  1.3131  0.3245 -0.1577
31840SOL     OW 1355   4.194   2.049   3.967  0.1160  0.1513 -0.2530
31840SOL    HW1 1356   4.219   1.966   4.007  0.8146  1.1074  1.4240
31840SOL    HW2 1357   4.274   2.079   3.923 -0.3555 -0.4053 -1.5197
31841SOL     OW 1358   1.447  10.515   0.960  0.0672  0.0387 -0.1063
31841SOL    HW1 1359   1.457  10.422   0.940 -1.1188 -0.0971 -0.1362
31841SOL    HW2 1360   1.399  10.551   0.885  0.8955  0.7781 -0.3056
31842SOL     OW 1361   1.414   9.266   3.313  0.2755 -0.1975 -0.5504
31842SOL    HW1 1362   1.344   9.222   3.361 -0.9531 -0.2552 -2.2997
31842SOL    HW2 1363   1.378   9.352   3.292 -0.0335 -0.8359 -2.9620
31843SOL     OW 1364   3.149   4.243   0.875  0.6246  0.2180  0.0365
31843SOL    HW1 1365   3.108   4.328   0.891 -2.3891 -0.4829 -2.8437
31843SOL    HW2 1366   3.242   4.263   0.867  0.0812  3.2058 -0.2209
31844SOL     OW 1367   3.086   2.188   9.262 -0.5347 -0.2111  0.2562
31844SOL    HW1 1368   3.006   2.167   9.214  0.7038  1.0166 -2.5978
31844SOL    HW2 1369   3.091   2.284   9.258 -0.2461 -0.0489  2.8049
31845SOL     OW 1370   9.043   1.634   1.697 -0.0888 -0.0062  0.4854
31845SOL    HW1 1371   9.045   1.728   1.680  1.6235 -0.0063  0.5526
31845SOL    HW2 1372   9.102   1.621   1.772 -1.5205 -0.9604  1.5081
31846SOL     OW 1373  10.300   4.511   9.139 -0.2580  0.2473  0.0853
31846SOL    HW1 1374  10.234   4.547   9.080  0.6007 -0.3297 -1.2854
31846SOL    HW2 1375  10.374   4.571   9.129 -0.2855  0.4336  0.9877
31847SOL     OW 1376   2.694   0.692  10.540 -0.4059  0.5595  0.4136
31847SOL    HW1 1377   2.621   0.693  10.602  0.4592 -1.1393  1.5247
31847SOL    HW2 1378   2.673   0.621  10.480 -1.8373  2.9162 -2.1520
31848SOL     OW 1379   8.727   5.564   0.943  0.1893 -0.0698 -0.3709
31848SOL    HW1 1380   8.680   5.483   0.923 -0.5567  0.4125 -0.6111
31848SOL    HW2 1381   8.758   5.596   0.857  0.5804 -0.1592 -0.2644
31849SOL     OW 1382   3.484  10.711   1.612  0.1504  0.1123 -0.2420
31849SOL    HW1 1383   3.536  10.700   1.532  0.8371 -3.0769  0.5032
31849SOL    HW2 1384   3.548  10.712   1.683 -0.5977  0.2198  0.4428
31850SOL     OW 1385   0.587   7.792   9.094  0.1849  0.0398  0.6488
31850SOL    HW1 1386   0.664   7.829   9.051 -0.1705 -0.0455 -0.0880
31850SOL    HW2 1387   0.617   7.708   9.130  0.3992 -0.0688  0.2234
31851SOL     OW 1388   9.870   3.803   4.839  0.4049  0.0789  0.0961
31851SOL    HW1 1389   9.831   3.755   4.766  2.3653 -2.8468  0.7847
31851SOL    HW2 1390   9.950   3.841   4.803  0.0211  0.9047  0.1054
31852SOL     OW 1391   7.149  10.545   8.376 -0.0731  0.2393 -0.1936
31852SOL    HW1 1392   7.171  10.623   8.326  0.5068  0.6793  0.7320
31852SOL    HW2 1393   7.170  10.567   8.466 -1.3878 -0.4276  0.3107
31853SOL     OW 1394   2.538   8.469   6.527  0.4207 -0.4875  0.4253
31853SOL    HW1 1395   2.606   8.531   6.553 -0.0306 -0.0774  0.6237
31853SOL    HW2 1396   2.494   8.510   6.453  1.0919 -1.2385 -0.4197
31854SOL     OW 1397   1.789   6.030   8.913 -0.4539 -0.6699 -0.3590
31854SOL    HW1 1398   1.742   5.949   8.931  1.1696 -1.4301  0.6506
31854SOL    HW2 1399   1.872   6.021   8.960  0.2704  1.0651 -1.2144
31855SOL     OW 1400   1.485   9.993   6.601  0.8358 -0.0557  0.8105
31855SOL    HW1 1401   1.581   9.997   6.603  0.8293  0.4810  0.5131
31855SOL    HW2 1402   1.457  10.058   6.666  0.6581 -1.5582  2.3022
31856SOL     OW 1403   9.040   4.398  10.479  0.3188 -0.1531 -0.2719
31856SOL    HW1 1404   8.974   4.346  10.435 -1.4296 -0.6216  2.6401
31856SOL    HW2 1405   9.073   4.342  10.549 -0.0344  1.7814  1.5822
31857SOL     OW 1406   0.828   3.369   9.178 -0.6864 -0.1657  0.7191
31857SOL    HW1 1407   0.835   3.399   9.088  0.6010 -1.3191  0.3866
31857SOL    HW2 1408   0.791   3.443   9.226  0.5211  1.2039 -0.3773
31858SOL     OW 1409   6.251   7.104   6.598 -0.1224  0.0044 -0.0610
31858SOL    HW1 1410   6.312   7.177   6.587  0.3089  0.0267  2.0362
31858SOL    HW2 1411   6.199   7.127   6.675  1.1156 -2.5644  1.6750
31859SOL     OW 1412   7.268   0.258   8.880 -0.4940 -0.5581  0.6885
31859SOL    HW1 1413   7.298   0.215   8.800  0.6054  1.8868 -0.3169
31859SOL    HW2 1414   7.327   0.227   8.948  0.3017 -0.6004 -0.0087
31860SOL     OW 1415   1.977   2.115   8.592  0.2659 -0.4512 -0.7599
31860SOL    HW1 1416   2.031   2.188   8.563 -0.9449  0.8413  0.0868
31860SOL    HW2 1417   2.033   2.038   8.582  1.3956  0.4993 -2.2114
31861SOL     OW 1418   4.560   0.885   3.717 -0.3571 -0.2959  0.0912
31861SOL    HW1 1419   4.617   0.960   3.702 -0.1924 -0.0376  1.8025
31861SOL    HW2 1420   4.612   0.826   3.772 -1.4956 -0.3651  1.1204
31862SOL     OW 1421   2.621   7.712   7.051 -0.0734 -0.3414 -0.5471
31862SOL    HW1 1422   2.687   7.767   7.093  0.6220 -1.3030 -0.3453
31862SOL    HW2 1423   2.571   7.772   6.996  0.6268  0.4972 -0.2870
31863SOL     OW 1424   3.665  10.575   5.370 -0.0964  0.5075 -0.5818
31863SOL    HW1 1425   3.672  10.670   5.360 -0.7731  0.6816  0.4685
31863SOL    HW2 1426   3.572  10.560   5.386  0.3971 -0.0338  2.1935
31864SOL     OW 1427   4.115   1.953  10.601  0.6307  0.1461  0.3262
31864SOL    HW1 1428   4.053   1.888  10.634  0.3688 -0.2925 -0.9729
31864SOL    HW2 1429   4.060   2.027  10.575  0.9508  1.0551  2.0722
31865SOL     OW 1430   4.317   1.330   9.023  0.3021 -0.3746 -0.6695
31865SOL    HW1 1431   4.401   1.287   9.007  1.6075  2.1226 -0.9306
31865SOL    HW2 1432   4.270   1.323   8.940  1.0396 -0.1657 -1.1139
31866SOL     OW 1433   1.692   2.466   5.868 -0.1380 -0.0386  0.4165
31866SOL    HW1 1434   1.617   2.526   5.874 -0.9040 -0.8455 -0.8021
31866SOL    HW2 1435   1.656   2.386   5.831  1.1889 -0.7296  0.5628
31867SOL     OW 1436  10.108   3.153   7.857  0.3408  0.1526  0.0343
31867SOL    HW1 1437  10.083   3.140   7.766  0.2098 -0.3368  0.1381
31867SOL    HW2 1438  10.174   3.085   7.874 -0.7417 -0.7617  0.7399
31868SOL     OW 1439   4.439   3.807   2.476 -0.3997  0.2170 -0.1410
31868SOL    HW1 1440   4.487   3.765   2.405  0.8411 -1.2273  1.4595
31868SOL    HW2 1441   4.348   3.782   2.461  0.0490 -1.4097 -0.3825
31869SOL     OW 1442   7.447   7.775   5.194  0.2131 -0.5201 -0.2891
31869SOL    HW1 1443   7.530   7.729   5.202  0.5908  0.1058 -0.5013
31869SOL    HW2 1444   7.467   7.865   5.219 -0.9031 -0.8041  1.8888
31870SOL     OW 1445   2.687   2.781   5.507 -0.0948  0.5516 -0.4854
31870SOL    HW1 1446   2.634   2.718   5.554  1.4484  0.0273  0.6434
31870SOL    HW2 1447   2.709   2.849   5.571  0.5746  0.7636 -0.9176
31871SOL     OW 1448   8.259   1.781   5.435  0.2696 -0.4478 -0.1650
31871SOL    HW1 1449   8.243   1.696   5.476 -1.1923  1.2612  3.2357
31871SOL    HW2 1450   8.199   1.782   5.360 -1.4444 -1.5734  1.0945
31872SOL     OW 1451   1.494   2.395   1.628 -0.2758  0.1341  0.1525
31872SOL    HW1 1452   1.447   2.474   1.604  0.6722  0.5930 -0.2371
31872SOL    HW2 1453   1.447   2.362   1.705 -2.8140 -0.8450 -1.6546
31873SOL     OW 1454   9.765   2.993   3.480  0.0371 -0.1431  0.5669
31873SOL    HW1 1455   9.699   2.953   3.423 -1.6634  0.5134  1.9794
31873SOL    HW2 1456   9.795   2.922   3.537 -2.0752  0.2000  2.2425
31874SOL     OW 1457   8.027   0.295   6.042  0.1121  0.7025 -0.1830
31874SOL    HW1 1458   8.064   0.382   6.025  2.4880 -0.0580  0.6732
31874SOL    HW2 1459   8.002   0.297   6.134  0.8552  0.2796  0.0382
31875SOL     OW 1460   1.766   3.040   5.036  0.4553 -0.2966 -0.1940
31875SOL    HW1 1461   1.745   3.031   4.943 -1.9747 -1.5402  0.4006
31875SOL    HW2 1462   1.747   3.131   5.056  0.5315 -0.1401 -0.8159
31876SOL     OW 1463   1.798   8.777   9.878 -0.4334 -0.4627  0.0035
31876SOL    HW1 1464   1.789   8.726   9.958  0.6850  0.4221  0.7162
31876SOL    HW2 1465   1.723   8.750   9.824 -0.7718 -1.6342  1.0088
31877SOL     OW 1466   9.409   1.827   8.534 -0.1040 -1.0272  0.1024
31877SOL    HW1 1467   9.368   1.908   8.564 -0.3648 -1.5803  1.3330
31877SOL    HW2 1468   9.423   1.840   8.441 -1.4842 -0.1258 -0.0111
31878SOL     OW 1469   1.041   5.675   0.298  0.3021 -0.3764 -0.6117
31878SOL    HW1 1470   0.971   5.679   0.233 -0.8787 -2.7724  0.3932
31878SOL    HW2 1471   0.996   5.658   0.381  2.0000 -0.9958  0.2361
31879SOL     OW 1472   2.182  10.424  10.350  0.5311 -0.0204 -0.5003
31879SOL    HW1 1473   2.242  10.367  10.302 -0.4756 -1.0936 -0.5274
31879SOL    HW2 1474   2.156  10.372  10.426  0.7516  0.9964  0.2963
31880SOL     OW 1475  10.515   3.280   0.388  0.8759  0.1267  0.0124
31880SOL    HW1 1476  10.587   3.313   0.335  1.5864  0.6229  1.2502
31880SOL    HW2 1477  10.487   3.356   0.440 -0.9698  0.1106 -0.8999
31881SOL     OW 1478   2.679  10.279   8.637 -0.1019  0.3615  0.1597
31881SOL    HW1 1479   2.588  10.259   8.661  0.5497 -2.1399  0.8689
31881SOL    HW2 1480   2.731  10.244   8.709  1.4973  1.0850 -0.5840
31882SOL     OW 1481   3.001   2.839   9.415 -1.1268  0.4300  0.4656
31882SOL    HW1 1482   2.981   2.769   9.353  0.2237  1.5242 -1.3112
31882SOL    HW2 1483   3.088   2.869   9.389  0.4985 -0.4079  4.2231
31883SOL     OW 1484   8.295   2.100  10.711  0.8576 -0.4293 -0.5014
31883SOL    HW1 1485   8.333   2.104  10.799  2.8176 -1.0721 -1.2747
31883SOL    HW2 1486   8.344   2.031  10.667  1.2083  1.1408 -2.6969
31884SOL     OW 1487   9.834   0.511   1.558 -0.0461 -0.1630 -0.1476
31884SOL    HW1 1488   9.885   0.582   1.598 -1.8009  0.3691  1.2800
31884SOL    HW2 1489   9.868   0.504   1.469  2.4194  0.2124  0.6867
31885SOL     OW 1490  10.368   5.958   4.360 -0.4742  0.5853  0.2298
31885SOL    HW1 1491  10.404   5.925   4.443  0.6496 -0.9827 -0.8353
31885SOL    HW2 1492  10.444   5.982   4.308 -1.0408 -0.2395 -1.0414
31886SOL     OW 1493   5.985   2.499   1.459 -0.0264 -0.5926 -0.0213
31886SOL    HW1 1494   5.923   2.448   1.409 -0.3785  0.2064 -0.4162
31886SOL    HW2 1495   5.931   2.552   1.518  0.3016 -0.2370 -0.0373
31887SOL     OW 1496   3.280   5.548   0.950 -0.3037  0.8606 -0.0011
31887SOL    HW1 1497   3.335   5.623   0.974  0.1050  0.4541  0.3639
31887SOL    HW2 1498   3.312   5.522   0.863  0.7269  0.0615  0.5881
31888SOL     OW 1499   8.593   1.572   2.649  0.2535  0.4581 -0.8484
31888SOL    HW1 1500   8.623   1.481   2.655  1.0422  0.7990  1.9794
31888SOL    HW2 1501   8.657   1.622   2.700  0.0397  2.7113 -2.5891
31889SOL     OW 1502   9.474   4.011   0.549  0.0604 -0.2308  0.3819
31889SOL    HW1 1503   9.450   4.010   0.457  1.3488 -0.5133  0.0219
31889SOL    HW2 1504   9.395   4.038   0.595 -0.4125  0.5849 -0.8641
31890SOL     OW 1505   3.003   3.023   6.261 -0.2604 -0.4689  0.2865
31890SOL    HW1 1506   2.955   3.106   6.258 -0.1027 -0.4119 -1.0708
31890SOL    HW2 1507   3.066   3.034   6.333 -1.7586 -0.2780  1.6186
31891SOL     OW 1508   1.474   2.860   3.487  0.6568  0.6468 -0.4536
31891SOL    HW1 1509   1.514   2.778   3.459  1.1712  0.2752  1.2412
31891SOL    HW2 1510   1.524   2.928   3.441  0.0557  0.0410 -2.0644
31892SOL     OW 1511   5.760   8.874   4.382  0.2342 -0.6139 -0.0489
31892SOL    HW1 1512   5.783   8.899   4.471  1.2902 -2.4657  0.2443
31892SOL    HW2 1513   5.822   8.921   4.327  1.1973 -1.3610  0.3776
31893SOL     OW 1514   6.517   4.083  10.464  0.5764  0.2833  0.1469
31893SOL    HW1 1515   6.593   4.128  10.502  2.8515 -1.7793 -1.7000
31893SOL    HW2 1516   6.496   4.134  10.385 -1.0617  1.7290  1.4142
31894SOL     OW 1517   1.986   3.269   9.429 -0.1931 -0.4765 -0.2311
31894SOL    HW1 1518   1.910   3.302   9.382  1.3590  0.3972 -2.2544
31894SOL    HW2 1519   2.048   3.342   9.429  0.2211 -0.7087  2.5300
31895SOL     OW 1520   4.849   0.609   8.974 -0.2255  0.4908 -0.2331
31895SOL    HW1 1521   4.892   0.661   8.906 -0.7554  1.1034 -0.1102
31895SOL    HW2 1522   4.921   0.577   9.029  0.4487 -1.8110 -2.2576
31896SOL     OW 1523   0.045   4.869   8.964 -0.4141 -0.0028 -0.5575
31896SOL    HW1 1524   0.128   4.827   8.940 -0.1740  0.1766 -0.0780
31896SOL    HW2 1525   0.065   4.914   9.047 -0.7973  0.6320 -0.8022
31897SOL     OW 1526   3.060   1.461   7.886 -0.0487 -0.0805 -0.0931
31897SOL    HW1 1527   3.030   1.398   7.951 -1.6299 -1.7690 -2.3060
31897SOL    HW2 1528   3.154   1.444   7.876 -0.0038 -0.4840  0.9646
31898SOL     OW 1529   4.641   9.042   2.178 -0.6817  1.0316 -0.3255
31898SOL    HW1 1530   4.708   8.979   2.202 -0.5258  1.2738 -0.1189
31898SOL    HW2 1531   4.686   9.105   2.121 -1.2394  0.0059 -1.9503
31899SOL     OW 1532   9.961   2.917   3.940  0.7522  0.1770  0.8793
31899SOL    HW1 1533   9.897   2.891   4.006 -0.4658 -0.2606 -0.4135
31899SOL    HW2 1534  10.027   2.966   3.988 -1.6926  2.6139  2.0233
31900SOL     OW 1535   7.961   1.086   9.009  0.0465  0.5242  0.0746
31900SOL    HW1 1536   8.009   1.064   9.089 -1.4728  1.7496  1.4001
31900SOL    HW2 1537   8.019   1.145   8.962  1.6349 -1.4485 -0.5816
31901SOL     OW 1538   3.064   0.896   1.927  0.1411  0.0871 -0.2211
31901SOL    HW1 1539   2.975   0.874   1.957 -0.0909 -0.4785 -1.2767
31901SOL    HW2 1540   3.051   0.962   1.859  0.5600  0.2972 -0.1008
31902SOL     OW 1541   5.488   2.990   9.300 -0.1965 -0.3036 -0.2485
31902SOL    HW1 1542   5.547   2.952   9.236 -1.1634 -1.7833 -0.3066
31902SOL    HW2 1543   5.469   2.919   9.361 -0.2319  0.7410  1.0123
31903SOL     OW 1544  10.718  10.076   3.573  0.0781  1.1381 -0.4510
31903SOL    HW1 1545  10.644  10.028   3.607 -0.0895  1.6378 -0.0980
31903SOL    HW2 1546  10.740  10.032   3.491  0.3737  0.0428  0.2026
31904SOL     OW 1547   2.700   4.269   4.415 -0.0275  0.4434 -0.1529
31904SOL    HW1 1548   2.654   4.186   4.407 -0.2981  0.6801 -1.3290
31904SOL    HW2 1549   2.643   4.324   4.469  0.8492 -0.5808  1.9096
31905SOL     OW 1550   0.603   0.630   6.684  0.5734  0.3715  0.3411
31905SOL    HW1 1551   0.547   0.591   6.751 -0.6481  0.6830 -0.4604
31905SOL    HW2 1552   0.687   0.646   6.728  0.0528 -0.1617  1.5565
31906SOL     OW 1553  10.488   3.690   7.966  0.6967 -0.0763  0.3213
31906SOL    HW1 1554  10.446   3.621   7.914  0.1407 -0.4729  1.2703
31906SOL    HW2 1555  10.522   3.752   7.901  1.0312 -1.1345 -0.5522
31907SOL     OW 1556   2.963   3.575   0.616 -0.5392  0.0339 -0.4232
31907SOL    HW1 1557   2.903   3.502   0.634 -0.1356 -0.1014  0.4632
31907SOL    HW2 1558   2.944   3.638   0.686  0.0708  0.1646 -0.3720
31908SOL     OW 1559   9.090  10.721  10.668 -0.3350 -0.0536 -0.0158
31908SOL    HW1 1560   9.134  10.689  10.746 -0.0695 -1.4550 -0.7096
31908SOL    HW2 1561   9.020  10.658  10.652  0.1721 -0.3082 -1.3927
31909SOL     OW 1562   1.639   0.142   6.401  0.0882  0.1449  0.0836
31909SOL    HW1 1563   1.637   0.085   6.325  0.1493 -1.4606  1.2298
31909SOL    HW2 1564   1.728   0.179   6.401  0.0448  0.2665 -0.6685
31910SOL     OW 1565   2.290   4.114   2.611  0.3166  0.0469 -0.2695
31910SOL    HW1 1566   2.331   4.078   2.533 -0.0998 -1.9324  0.3728
31910SOL    HW2 1567   2.236   4.187   2.580 -0.2346 -1.0189 -1.8882
31911SOL     OW 1568   4.234   0.186  10.329 -0.2614  0.1685  0.3683
31911SOL    HW1 1569   4.286   0.247  10.278  0.5682 -0.0870  0.8925
31911SOL    HW2 1570   4.198   0.238  10.401 -1.3673  0.5109 -0.4036
31912SOL     OW 1571   3.195   7.237   0.644  0.0932  0.8065  0.3209
31912SOL    HW1 1572   3.238   7.270   0.565  1.5169 -0.1831  0.6404
31912SOL    HW2 1573   3.242   7.156   0.665 -3.4800 -1.7928 -0.6912
31913SOL     OW 1574   2.315   5.131   2.912 -0.4109  0.0788  0.0781
31913SOL    HW1 1575   2.388   5.099   2.859  0.6113  0.7961  1.0298
31913SOL    HW2 1576   2.316   5.226   2.901 -0.0452  0.2603  1.5410
31914SOL     OW 1577   2.064  10.438   3.092 -0.3797  0.1565  0.0424
31914SOL    HW1 1578   2.138  10.499   3.088  0.1245 -0.4765 -0.2980
31914SOL    HW2 1579   2.084  10.370   3.029 -0.0155 -1.3994  1.7485
31915SOL     OW 1580   9.313   2.373   2.092  0.1761  0.0568 -0.1837
31915SOL    HW1 1581   9.335   2.452   2.042  1.8342 -0.9450 -1.1432
31915SOL    HW2 1582   9.351   2.302   2.042  0.0027 -1.2234  1.4147
31916SOL     OW 1583  10.214   6.746   9.749 -0.2262  0.8334  0.1997
31916SOL    HW1 1584  10.195   6.833   9.716 -1.0265  1.0366  1.1530
31916SOL    HW2 1585  10.129   6.709   9.772  0.0993 -0.2043 -0.1794
31917SOL     OW 1586   6.467   2.946   2.963  0.2373 -0.2918  0.2819
31917SOL    HW1 1587   6.534   2.925   3.028 -0.5179 -1.0412  0.8525
31917SOL    HW2 1588   6.426   3.026   2.996 -1.6760 -1.8786  2.0438
31918SOL     OW 1589   1.204   5.626   8.879  0.2812 -0.2453 -0.0424
31918SOL    HW1 1590   1.116   5.627   8.917  0.1572 -0.5056 -0.3234
31918SOL    HW2 1591   1.254   5.568   8.936  0.5548  0.7069  0.7327
31919SOL     OW 1592   2.624   6.203   9.524 -0.1359 -0.5689  0.0410
31919SOL    HW1 1593   2.675   6.275   9.486 -0.4585 -0.7711 -0.8021
31919SOL    HW2 1594   2.647   6.204   9.616  0.8581 -0.2074 -0.1952
31920SOL     OW 1595   6.281  10.161   2.120 -0.4133 -0.8087  0.1447
31920SOL    HW1 1596   6.237  10.246   2.126 -1.8804 -1.4973 -0.2155
31920SOL    HW2 1597   6.358  10.177   2.067  0.4047  0.6729  1.6732
31921SOL     OW 1598   2.570   6.658   4.405 -0.3227 -0.0355  0.1574
31921SOL    HW1 1599   2.584   6.640   4.312  0.9821  1.1214  0.0914
31921SOL    HW2 1600   2.655   6.689   4.436 -1.0314  0.6648  1.4812
31922SOL     OW 1601   3.577   2.742   0.280 -0.0124  0.0338  0.3605
31922SOL    HW1 1602   3.649   2.695   0.239 -0.4139 -0.2355 -0.0540
31922SOL    HW2 1603   3.501   2.684   0.269 -0.8070  1.2646 -1.2641
31923SOL     OW 1604   6.299  10.047   4.977  0.4816 -0.3003  0.6066
31923SOL    HW1 1605   6.311  10.086   5.064 -1.3758  1.0488  0.3139
31923SOL    HW2 1606   6.319  10.119   4.916  0.1099 -0.7310 -0.0312
31924SOL     OW 1607   7.087   7.991   3.242 -1.0895 -0.3096 -0.5147
31924SOL    HW1 1608   7.125   7.904   3.230  1.8747  0.6839  0.5667
31924SOL    HW2 1609   7.084   8.028   3.154  0.5580 -0.4471 -0.6580
31925SOL     OW 1610   0.490   7.993   3.715  0.9977 -0.9958  0.2977
31925SOL    HW1 1611   0.429   8.032   3.777  0.8388 -0.7916  0.0151
31925SOL    HW2 1612   0.556   8.060   3.701  0.3348 -0.5337 -0.7433
31926SOL     OW 1613   9.908   0.850   3.896  1.0762 -0.2381 -0.1794
31926SOL    HW1 1614   9.818   0.880   3.913  1.0279  0.0953 -0.9594
31926SOL    HW2 1615   9.913   0.764   3.938 -0.1244 -0.9668 -1.4501
31927SOL     OW 1616  10.610   5.264   8.333 -0.2006 -0.4682  0.0344
31927SOL    HW1 1617  10.656   5.328   8.387 -0.1742  0.7790 -1.3994
31927SOL    HW2 1618  10.594   5.309   8.250  0.7654 -2.6565 -1.4355
31928SOL     OW 1619   5.485   3.147   0.363  0.1507  0.1841 -0.1952
31928SOL    HW1 1620   5.506   3.234   0.328 -0.4704  1.5179  2.4795
31928SOL    HW2 1621   5.562   3.122   0.414 -0.4906  0.2036  0.8271
31929SOL     OW 1622   5.278   1.638  10.535  0.4257 -0.3715 -0.0828
31929SOL    HW1 1623   5.263   1.648  10.629 -2.0096 -0.0877 -0.4459
31929SOL    HW2 1624   5.271   1.726  10.499  0.7976 -0.5501 -0.6140
31930SOL     OW 1625   9.526   2.888   7.375 -0.2303 -0.7307 -0.6768
31930SOL    HW1 1626   9.597   2.824   7.367  1.1503  0.6341  0.1237
31930SOL    HW2 1627   9.570   2.972   7.384 -1.9318  0.0844  0.7891
31931SOL     OW 1628   2.858   9.066   4.841  0.3974  0.8415  0.1258
31931SOL    HW1 1629   2.772   9.025   4.855 -0.5101  3.0235  1.3905
31931SOL    HW2 1630   2.844   9.127   4.768  0.8800  1.2406  0.3659
31932SOL     OW 1631   1.813   3.460   4.633 -0.4037  0.3294  0.2210
31932SOL    HW1 1632   1.808   3.513   4.554 -0.9537 -1.5714 -1.0705
31932SOL    HW2 1633   1.741   3.492   4.688 -1.7638 -0.1486 -1.2359
31933SOL     OW 1634  10.681   6.110   3.742 -0.3017 -0.0454 -0.1333
31933SOL    HW1 1635  10.742   6.179   3.717  1.7084 -1.5803  0.3508
31933SOL    HW2 1636  10.722   6.029   3.712 -0.6710 -1.4157  2.7399
31934SOL     OW 1637   1.137   1.858  10.473  0.4564 -0.2370  0.0710
31934SOL    HW1 1638   1.079   1.933  10.456  0.8461 -0.3250 -1.8938
31934SOL    HW2 1639   1.078   1.783  10.481  0.2346 -0.2520 -1.4485
31935SOL     OW 1640   8.032   9.283   3.901 -0.4972  0.2788  1.0294
31935SOL    HW1 1641   7.987   9.362   3.873  0.9219  0.5913 -0.5131
31935SOL    HW2 1642   8.034   9.228   3.823  1.6912  0.2571  1.0578
31936SOL     OW 1643   2.520   3.866   9.216 -0.3986  0.2235 -0.3821
31936SOL    HW1 1644   2.431   3.848   9.247  0.7130 -0.0081  3.1130
31936SOL    HW2 1645   2.549   3.784   9.177 -1.3639 -0.0311 -0.5966
31937SOL     OW 1646   3.363   7.073   2.628 -0.6741  0.3167  0.3031
31937SOL    HW1 1647   3.270   7.077   2.606 -0.8469  0.2962  1.0245
31937SOL    HW2 1648   3.369   7.115   2.713 -0.1139 -0.2531  0.5485
31938SOL     OW 1649   5.357   4.865   6.372 -0.3467 -1.0096 -0.4322
31938SOL    HW1 1650   5.266   4.837   6.371 -0.1020 -1.8396 -0.2603
31938SOL    HW2 1651   5.389   4.848   6.283 -0.0054 -1.9522 -0.1385
31939SOL     OW 1652   4.687   7.384   6.590  0.1653  0.2040  0.0658
31939SOL    HW1 1653   4.729   7.381   6.504 -2.3638  0.3028 -1.2613
31939SOL    HW2 1654   4.734   7.452   6.637  1.0466  0.7756 -1.5599
31940SOL     OW 1655   6.247   0.921   6.955 -0.6271  0.3646 -0.0102
31940SOL    HW1 1656   6.247   0.885   6.866 -0.8088 -0.3255  0.2652
31940SOL    HW2 1657   6.339   0.925   6.979 -0.5331 -4.9974  1.9347
31941SOL     OW 1658   4.827   4.325   2.244 -0.0023 -0.2218  0.4330
31941SOL    HW1 1659   4.756   4.327   2.309  0.2456 -0.2464  0.7034
31941SOL    HW2 1660   4.903   4.360   2.290 -0.0207  0.5180 -0.0793
31942SOL     OW 1661   1.577   0.697   3.403  0.0710  0.0960 -0.0697
31942SOL    HW1 1662   1.498   0.645   3.416  0.2362  0.0711  0.8979
31942SOL    HW2 1663   1.546   0.776   3.359 -0.1225 -0.9627 -1.9315
31943SOL     OW 1664   3.062   4.618   8.367  0.0302 -0.0992  0.0268
31943SOL    HW1 1665   3.121   4.605   8.442 -1.2463 -1.0034  0.9156
31943SOL    HW2 1666   3.105   4.571   8.296 -0.0266 -1.5758  0.9076
31944SOL     OW 1667   4.895   3.265   9.734 -0.5083 -0.1393  0.5670
31944SOL    HW1 1668   4.952   3.342   9.744 -2.4690  1.5513 -0.3337
31944SOL    HW2 1669   4.929   3.201   9.796  1.4730  1.3011  1.0616
31945SOL     OW 1670   7.819  10.159   7.066 -0.1792 -0.3073 -0.0725
31945SOL    HW1 1671   7.872  10.162   6.986 -0.5532  0.5837 -0.2970
31945SOL    HW2 1672   7.864  10.095   7.122  0.1267 -0.8845 -0.9575
31946SOL     OW 1673   5.929   3.455   0.785 -0.2194  0.0070 -0.5729
31946SOL    HW1 1674   6.000   3.501   0.740 -0.2212  0.6241  0.0345
31946SOL    HW2 1675   5.965   3.434   0.871 -1.0455  1.0919  0.0549
31947SOL     OW 1676   6.558  10.576   2.088  0.1074 -0.3852 -0.1215
31947SOL    HW1 1677   6.617  10.637   2.045 -1.0378 -0.6992 -2.2731
31947SOL    HW2 1678   6.486  10.565   2.027 -1.0637 -1.7867  1.4149
31948SOL     OW 1679   4.101   2.030   7.070 -0.2710 -0.3038  0.2638
31948SOL    HW1 1680   4.189   1.993   7.077 -0.8506 -1.7014  0.3980
31948SOL    HW2 1681   4.080   2.056   7.160 -0.2108 -0.4937  0.3354
31949SOL     OW 1682   7.621   8.164  10.118 -0.2784 -0.3195 -0.1147
31949SOL    HW1 1683   7.598   8.086  10.068  0.1620 -1.0090  0.7389
31949SOL    HW2 1684   7.647   8.131  10.204  0.0531  0.7547  0.2121
31950SOL     OW 1685   8.641   6.663   6.836 -0.3019 -0.1681  0.1797
31950SOL    HW1 1686   8.684   6.738   6.794 -1.3028  0.2652 -0.0858
31950SOL    HW2 1687   8.574   6.702   6.891 -0.1789 -0.8313  0.8131
31951SOL     OW 1688   0.986   1.403   8.325 -0.3583  0.4110  0.1276
31951SOL    HW1 1689   1.013   1.495   8.328 -0.2699  0.3770  0.4845
31951SOL    HW2 1690   0.953   1.385   8.413  0.3890 -0.1234  0.3128
31952SOL     OW 1691   8.699   1.711   7.568  0.0872  0.1420  0.1133
31952SOL    HW1 1692   8.775   1.656   7.590  0.7163  0.6851 -0.6398
31952SOL    HW2 1693   8.636   1.650   7.530 -1.1288 -0.8802  3.4518
31953SOL     OW 1694   4.373  10.277   2.716  0.0625  0.2143  0.1953
31953SOL    HW1 1695   4.356  10.298   2.624 -0.7410  1.5041  0.6120
31953SOL    HW2 1696   4.300  10.317   2.764  0.5505 -0.2988  1.4088
31954SOL     OW 1697  10.079   9.700   3.205 -0.0478  0.7846 -0.0553
31954SOL    HW1 1698  10.028   9.671   3.281 -0.1660  0.6465 -0.1878
31954SOL    HW2 1699  10.051   9.790   3.190 -0.9387  0.4200 -0.6917
31955SOL     OW 1700   3.346   0.114   4.796 -0.0999 -0.2577  0.1678
31955SOL    HW1 1701   3.402   0.076   4.729 -0.7930  0.3280 -0.7600
31955SOL    HW2 1702   3.399   0.183   4.836  0.7963 -1.4783  1.1621
31956SOL     OW 1703   9.253   3.519   9.844  0.6371  0.0545  0.3019
31956SOL    HW1 1704   9.183   3.530   9.779 -0.1404  0.4160  1.1761
31956SOL    HW2 1705   9.318   3.465   9.800 -1.0160 -1.8742  0.0600
31957SOL     OW 1706   7.425   6.907   6.649  0.1111 -0.0203 -0.3347
31957SOL    HW1 1707   7.375   6.878   6.573 -1.0074 -0.1310  0.4368
31957SOL    HW2 1708   7.370   6.887   6.724  1.2839 -0.0780  0.5328
31958SOL     OW 1709   9.481   9.852   8.967 -0.4821 -0.3574  0.2965
31958SOL    HW1 1710   9.480   9.810   9.053 -0.3062  0.8861  0.9248
31958SOL    HW2 1711   9.572   9.848   8.939 -0.4357 -0.2461  0.4316
31959SOL     OW 1712   7.670   2.635   7.853  0.1851 -0.1440  0.1607
31959SOL    HW1 1713   7.689   2.622   7.946 -1.0707  0.7812  0.5740
31959SOL    HW2 1714   7.663   2.730   7.844  0.3823 -0.2265 -0.9110
31960SOL     OW 1715   3.390   6.994   1.976  0.1048  0.5406 -0.9316
31960SOL    HW1 1716   3.443   7.032   1.906  1.3698  0.7136  0.0801
31960SOL    HW2 1717   3.345   6.921   1.935 -0.1929  1.4183 -2.2304
31961SOL     OW 1718   9.342   0.815   5.582  0.0817 -0.0504 -0.6207
31961SOL    HW1 1719   9.275   0.783   5.521 -0.2102  0.4997 -0.5983
31961SOL    HW2 1720   9.408   0.747   5.583 -0.6237 -0.7427 -0.4210
31962SOL     OW 1721   7.078  10.652   8.994  0.1008  0.0636  0.4744
31962SOL    HW1 1722   7.155  10.684   8.946 -1.0079  1.0120 -0.7269
31962SOL    HW2 1723   7.074  10.708   9.072 -1.0929  2.1595 -0.9845
31963SOL     OW 1724   4.562   3.106   8.276 -0.0304  0.3236 -0.0850
31963SOL    HW1 1725   4.602   3.032   8.321  0.6218  0.5248 -0.3163
31963SOL    HW2 1726   4.567   3.178   8.340  0.2311  0.4169 -0.2056
31964SOL     OW 1727   9.717   0.399   8.041 -0.0845 -0.4366 -0.5628
31964SOL    HW1 1728   9.656   0.357   8.103 -0.3493 -0.9708 -1.1707
31964SOL    HW2 1729   9.794   0.420   8.094 -0.3598 -0.7645 -0.0193
31965SOL     OW 1730   5.554   1.025   7.219 -0.3874  0.0059 -0.4871
31965SOL    HW1 1731   5.576   1.118   7.226  1.0444 -0.2913 -0.7569
31965SOL    HW2 1732   5.636   0.982   7.193 -1.0557 -1.3175 -0.5221
31966SOL     OW 1733   6.117   5.889   5.970  0.3908  0.3062 -0.2960
31966SOL    HW1 1734   6.128   5.811   5.915  0.2177 -0.6685  1.0065
31966SOL    HW2 1735   6.041   5.934   5.934 -1.3178 -1.6724  0.6355
31967SOL     OW 1736   7.811   0.999  10.430  0.1400  0.9785 -0.1275
31967SOL    HW1 1737   7.800   0.995  10.335 -0.7761 -1.1196 -0.0037
31967SOL    HW2 1738   7.890   0.947  10.446  0.6833  1.8910  0.2387
31968SOL     OW 1739   9.847   6.882   4.111  0.2024  0.0720 -0.0194
31968SOL    HW1 1740   9.766   6.860   4.064  0.2075 -0.8152  0.3810
31968SOL    HW2 1741   9.873   6.966   4.073 -1.1984  0.6516  0.2210
31969SOL     OW 1742   6.075   5.162   5.657  0.0354 -0.1642  0.4941
31969SOL    HW1 1743   6.116   5.245   5.682  1.0159 -0.3530 -0.4512
31969SOL    HW2 1744   6.004   5.187   5.598 -0.6281  0.0875  1.3660
31970SOL     OW 1745   2.355   4.730   4.032 -0.1863  0.0090 -0.3379
31970SOL    HW1 1746   2.438   4.684   4.044 -0.6854 -0.3203  2.3451
31970SOL    HW2 1747   2.333   4.714   3.940  1.5691 -1.8427 -0.5184
31971SOL     OW 1748   1.508   1.437   3.957  0.1798 -0.1567 -0.0124
31971SOL    HW1 1749   1.536   1.433   4.048 -0.5446 -0.6000  0.1980
31971SOL    HW2 1750   1.434   1.498   3.957  1.1852  1.1167 -0.5851
31972SOL     OW 1751   9.464   3.858   7.204 -0.3087  0.1334  0.3797
31972SOL    HW1 1752   9.394   3.922   7.219 -0.6244  0.2825 -1.5116
31972SOL    HW2 1753   9.419   3.774   7.200 -0.3841  0.2102 -0.6632
31973SOL     OW 1754   1.414   7.532   1.114  0.2930 -0.2429  0.3386
31973SOL    HW1 1755   1.488   7.588   1.135  0.3769 -0.8258  1.6633
31973SOL    HW2 1756   1.417   7.524   1.018  1.0845  0.8737  0.2418
31974SOL     OW 1757   1.222   5.504   0.196 -0.0215  0.0077 -0.3518
31974SOL    HW1 1758   1.159   5.556   0.245  1.1675  0.5588  0.6432
31974SOL    HW2 1759   1.196   5.515   0.105 -0.7392  1.0791 -0.0399
31975SOL     OW 1760  10.463   4.480   5.863  0.4067 -0.3099 -0.1499
31975SOL    HW1 1761  10.449   4.541   5.936  1.6409  0.2117 -0.3363
31975SOL    HW2 1762  10.548   4.504   5.827 -0.8295  0.4445 -2.7548
31976SOL     OW 1763   1.771   1.239   2.351  0.2398 -0.6631  0.0733
31976SOL    HW1 1764   1.731   1.204   2.271  1.8398  0.1380 -1.1313
31976SOL    HW2 1765   1.759   1.334   2.345 -1.3552 -0.6973  1.8030
31977SOL     OW 1766   0.546   6.086   0.740 -0.1176 -0.0660  0.5522
31977SOL    HW1 1767   0.526   6.097   0.833 -1.9667  1.7211  0.0254
31977SOL    HW2 1768   0.589   6.167   0.714 -0.0550 -0.3442 -0.2541
31978SOL     OW 1769  10.425   0.817   5.024  0.3114 -0.4342  0.3642
31978SOL    HW1 1770  10.399   0.850   4.937 -0.0466 -0.0686  0.6047
31978SOL    HW2 1771  10.369   0.865   5.085  1.4081  0.2046  0.8936
31979SOL     OW 1772   8.157   0.513   8.316  0.0598  0.7573 -0.4654
31979SOL    HW1 1773   8.075   0.519   8.267  0.1212 -0.4942 -0.7635
31979SOL    HW2 1774   8.148   0.432   8.366 -0.2322  2.2641  2.0847
31980SOL     OW 1775   7.119   7.484   9.611 -0.5843  0.6468 -0.3562
31980SOL    HW1 1776   7.032   7.512   9.585  0.0580  1.2019 -2.0669
31980SOL    HW2 1777   7.160   7.563   9.647  0.2050  1.2148 -2.3834
31981SOL     OW 1778   1.130   3.879   7.296 -0.0768  0.1472  0.2907
31981SOL    HW1 1779   1.123   3.882   7.392  1.0821  2.1258  0.3628
31981SOL    HW2 1780   1.219   3.847   7.279 -0.3172 -0.3065 -0.1411
31982SOL     OW 1781   7.309   2.163   0.752  0.1065  0.4327 -0.5488
31982SOL    HW1 1782   7.345   2.125   0.831  0.2754  2.0217  0.1815
31982SOL    HW2 1783   7.364   2.128   0.681  0.8028  0.0477  0.1700
31983SOL     OW 1784   1.688   4.738   8.880  0.5144  0.4831  0.5461
31983SOL    HW1 1785   1.599   4.748   8.913  0.6587  2.6834  0.4240
31983SOL    HW2 1786   1.735   4.695   8.951 -0.3454  0.4866  1.1381
31984SOL     OW 1787   8.503  10.173   3.900 -0.3310 -0.0772  0.2603
31984SOL    HW1 1788   8.417  10.191   3.860 -0.4970  0.7355  0.9662
31984SOL    HW2 1789   8.484  10.108   3.967 -0.4620  0.3423  0.6381
31985SOL     OW 1790   0.246   9.236   3.132  0.0214 -0.8041  0.0677
31985SOL    HW1 1791   0.291   9.206   3.211  0.2092  1.1116  0.7219
31985SOL    HW2 1792   0.178   9.295   3.163 -0.6763 -0.9242 -1.1542
31986SOL     OW 1793   9.467   9.982   2.172 -0.2063  0.5123  0.0117
31986SOL    HW1 1794   9.539  10.021   2.221 -1.6029  0.4829  2.2458
31986SOL    HW2 1795   9.470   9.889   2.195 -0.7958  0.4694 -0.0577
31987SOL     OW 1796   3.424   1.498   4.956  0.5466 -0.0088 -1.0111
31987SOL    HW1 1797   3.464   1.540   5.032  0.2967 -0.1472 -0.8043
31987SOL    HW2 1798   3.395   1.570   4.901 -0.5480  0.0958 -0.3083
31988SOL     OW 1799   0.737   3.731   9.516  0.2525  0.3011 -0.3777
31988SOL    HW1 1800   0.811   3.781   9.484  1.4678 -0.3479  1.3069
31988SOL    HW2 1801   0.670   3.796   9.536  0.7402  0.9852 -0.9390
31989SOL     OW 1802   1.228   0.748   7.102  0.3143  0.2181  0.6122
31989SOL    HW1 1803   1.209   0.840   7.082  2.1553  0.1445 -1.9375
31989SOL    HW2 1804   1.265   0.750   7.191  0.9419  2.0452  0.3564
31990SOL     OW 1805   1.341   1.409   6.122  0.0414 -0.1454  0.3026
31990SOL    HW1 1806   1.349   1.363   6.039 -2.5703  0.6007 -0.4677
31990SOL    HW2 1807   1.274   1.360   6.171 -0.0642  0.6888  1.0242
31991SOL     OW 1808  10.563   1.291   8.666  0.4034  0.5493  0.0203
31991SOL    HW1 1809  10.582   1.385   8.671 -0.9883  0.8268  0.8172
31991SOL    HW2 1810  10.637   1.250   8.709 -0.0926  1.4822  1.8919
31992SOL     OW 1811   0.817   6.550  10.148  0.2616  0.2661  0.1222
31992SOL    HW1 1812   0.897   6.535  10.197  0.6115 -1.8378 -0.9522
31992SOL    HW2 1813   0.763   6.604  10.205  1.8727  0.5247  1.4647
31993SOL     OW 1814   7.712   7.785  10.008 -0.5704 -0.2041 -0.7614
31993SOL    HW1 1815   7.651   7.851   9.975 -0.4070  0.2064 -0.2352
31993SOL    HW2 1816   7.719   7.722   9.936 -0.8374  0.2698 -1.2096
31994SOL     OW 1817   0.272   1.215   3.431  0.2667  0.5567 -0.0490
31994SOL    HW1 1818   0.251   1.178   3.345  0.5756 -0.3503  0.2536
31994SOL    HW2 1819   0.193   1.264   3.455 -0.7907 -1.1795  0.2030
31995SOL     OW 1820   4.377   8.493   3.912  0.5402 -0.5398 -0.2437
31995SOL    HW1 1821   4.466   8.466   3.934  0.2584 -1.3034  0.0032
31995SOL    HW2 1822   4.387   8.552   3.837  1.2423 -0.6481 -0.2436
31996SOL     OW 1823   5.238   9.226   4.981  0.2650 -0.3216  0.2440
31996SOL    HW1 1824   5.191   9.260   5.057  1.4714  2.0579  0.0251
31996SOL    HW2 1825   5.330   9.244   5.001  0.7450 -1.2967 -1.0122
31997SOL     OW 1826   0.936  10.330   7.858 -0.1111  0.0660 -0.0442
31997SOL    HW1 1827   0.911  10.421   7.846 -1.9570 -0.2443  0.9823
31997SOL    HW2 1828   1.032  10.330   7.855 -0.1022  1.8132 -1.3349
31998SOL     OW 1829   4.065   4.708   8.409  0.2945  0.2566 -0.0737
31998SOL    HW1 1830   4.132   4.681   8.473  0.5582  0.9734 -0.0383
31998SOL    HW2 1831   4.106   4.694   8.324 -0.2662 -1.2597 -0.1341
31999SOL     OW 1832  10.414   7.780   3.554  0.4773 -0.3587  0.1478
31999SOL    HW1 1833  10.432   7.694   3.517  0.7370 -0.5577  0.7157
31999SOL    HW2 1834  10.458   7.842   3.496 -1.3578 -0.4226 -1.4179
32000SOL     OW 1835   9.058   6.217   2.316  0.4353  0.2291 -0.0409
32000SOL    HW1 1836   9.127   6.241   2.377 -1.9165  3.9004  1.4986
32000SOL    HW2 1837   9.015   6.142   2.358  0.5764  0.9251  1.4144
32001SOL     OW 1838   1.702  10.000   0.899 -0.5468 -0.4485  0.2199
32001SOL    HW1 1839   1.750  10.070   0.855 -2.9581  0.6336 -0.8779
32001SOL    HW2 1840   1.754   9.921   0.884  1.3575  0.7896  0.0014
32002SOL     OW 1841   7.141  10.498   1.566 -0.7638 -0.5477  0.0781
32002SOL    HW1 1842   7.074  10.561   1.593  1.1258  1.6943 -0.2552
32002SOL    HW2 1843   7.157  10.445   1.644 -2.8638 -1.1638  0.1655
32003SOL     OW 1844   5.891   6.434   3.081  0.4213 -0.0726  0.1238
32003SOL    HW1 1845   5.810   6.406   3.038  0.2522  1.6271 -0.7315
32003SOL    HW2 1846   5.955   6.440   3.011  0.5231  1.3608  0.3201
32004SOL     OW 1847   8.062   5.594   0.506 -0.0121 -0.1366 -0.6454
32004SOL    HW1 1848   8.118   5.518   0.523 -0.9140 -0.7063 -0.1747
32004SOL    HW2 1849   8.059   5.601   0.410  0.0431 -0.7181 -0.6903
32005SOL     OW 1850   1.479   3.576   6.773 -0.2064 -0.1912  0.3378
32005SOL    HW1 1851   1.558   3.524   6.786 -1.1049 -1.8057 -0.2755
32005SOL    HW2 1852   1.498   3.631   6.697 -0.0540 -1.4768 -0.6018
32006SOL     OW 1853   5.979   6.149   2.806 -0.0205 -0.8274  0.3900
32006SOL    HW1 1854   6.052   6.106   2.762  0.0556 -0.7183  0.4089
32006SOL    HW2 1855   5.972   6.105   2.890 -1.3955 -2.3573 -0.4726
32007SOL     OW 1856   3.953   3.058   0.829 -0.2720  0.3902 -0.0950
32007SOL    HW1 1857   3.962   3.088   0.738  0.1734  0.6753  0.0386
32007SOL    HW2 1858   3.959   3.138   0.881 -0.8881  0.2690  0.1710
32008SOL     OW 1859   2.481   1.906   9.365 -0.1316 -0.0847 -0.2647
32008SOL    HW1 1860   2.428   1.929   9.288 -0.8647  1.2675  0.5912
32008SOL    HW2 1861   2.536   1.983   9.379  1.2415 -1.0120 -0.4406
32009SOL     OW 1862   0.410   4.995   2.942 -0.2900 -0.0766 -0.3791
32009SOL    HW1 1863   0.428   5.017   2.850  2.3344 -0.3404 -0.0091
32009SOL    HW2 1864   0.479   4.932   2.965  0.2348  1.3111  2.2555
32010SOL     OW 1865   5.592   1.644   4.240  0.5237  0.2087 -0.0115
32010SOL    HW1 1866   5.507   1.603   4.257  0.7488 -0.3472 -0.2203
32010SOL    HW2 1867   5.572   1.737   4.226  0.1115  0.3502  1.3723
32011SOL     OW 1868   8.031   5.533   3.043 -0.1041 -0.0272 -0.2474
32011SOL    HW1 1869   7.979   5.614   3.038  0.6463  0.3867 -2.6643
32011SOL    HW2 1870   7.970   5.464   3.017 -0.2115  0.0468 -0.1936
32012SOL     OW 1871   2.228   7.127   2.583  0.1364  0.2832  0.0907
32012SOL    HW1 1872   2.240   7.033   2.569  0.6253 -0.0780  2.5242
32012SOL    HW2 1873   2.153   7.132   2.643 -0.4429  1.5254 -0.7035
32013SOL     OW 1874   0.733   0.158   1.578  0.4590 -0.3999  0.3369
32013SOL    HW1 1875   0.762   0.196   1.495  1.8683  1.4519  1.5804
32013SOL    HW2 1876   0.640   0.182   1.583 -0.1086 -2.0093 -1.4162
32014SOL     OW 1877   8.736   2.486   8.297 -0.4390  0.5136 -0.2630
32014SOL    HW1 1878   8.681   2.544   8.244 -1.3256 -1.1952 -1.2943
32014SOL    HW2 1879   8.675   2.437   8.352  0.1228 -0.5729 -0.5722
32015SOL     OW 1880   3.544   8.645   3.197 -0.2545  0.1300 -0.1335
32015SOL    HW1 1881   3.526   8.551   3.192  1.5771 -0.3780  1.6716
32015SOL    HW2 1882   3.511   8.672   3.283  0.5782  0.8229 -0.0182
32016SOL     OW 1883   4.338   4.143   3.177  0.2631 -0.0732 -0.2980
32016SOL    HW1 1884   4.415   4.086   3.185 -0.3025 -0.8799 -0.3819
32016SOL    HW2 1885   4.269   4.085   3.143 -0.4710  0.5510  0.0929
32017SOL     OW 1886   2.181  10.384   3.903  0.3442 -0.0744 -0.4450
32017SOL    HW1 1887   2.122  10.414   3.834  0.6368 -1.2166 -1.2124
32017SOL    HW2 1888   2.269  10.399   3.868  0.4989 -0.1565 -0.0976
32018SOL     OW 1889   7.206   1.819  10.251 -0.7563  0.0132  0.0703
32018SOL    HW1 1890   7.140   1.880  10.220 -0.3456  1.2072  1.4341
32018SOL    HW2 1891   7.156   1.744  10.285 -1.2895 -0.0845 -0.8916
32019SOL     OW 1892   5.411   4.523   3.767  0.7334  0.0387  0.6865
32019SOL    HW1 1893   5.407   4.492   3.857 -0.1520 -1.8451  0.0467
32019SOL    HW2 1894   5.328   4.495   3.728  0.8445  1.3312 -0.5645
32020SOL     OW 1895   0.847   8.708   8.407  0.0813 -0.0559  0.3662
32020SOL    HW1 1896   0.929   8.756   8.419 -0.4605  0.6550  1.4908
32020SOL    HW2 1897   0.780   8.777   8.405 -0.4517 -0.5791 -1.1956
32021SOL     OW 1898   2.191   5.390   7.657  0.1997  0.2477  0.0504
32021SOL    HW1 1899   2.132   5.372   7.730  1.4275 -0.0282  1.0179
32021SOL    HW2 1900   2.197   5.486   7.654  1.9947  0.2618  1.9247
32022SOL     OW 1901   4.621   6.105   8.083 -0.0025  0.5757  0.3096
32022SOL    HW1 1902   4.656   6.151   8.159 -0.6755  0.8242  0.4812
32022SOL    HW2 1903   4.639   6.163   8.009  1.5625 -0.1300  0.1159
32023SOL     OW 1904   5.195   1.762   4.843  0.2547  0.0902 -0.4309
32023SOL    HW1 1905   5.202   1.787   4.750 -0.8241 -2.5182 -1.2975
32023SOL    HW2 1906   5.219   1.670   4.845  1.3108  0.3352  2.1187
32024SOL     OW 1907   2.837   8.978   3.826  0.7977  0.0600  0.3146
32024SOL    HW1 1908   2.821   8.885   3.813  2.3625  0.0129 -1.6284
32024SOL    HW2 1909   2.785   9.001   3.904  0.8731 -2.5351  1.2040
32025SOL     OW 1910   8.249  10.006   1.584 -0.1276  0.2327  0.7002
32025SOL    HW1 1911   8.299   9.935   1.544  1.0848  1.0282  0.7715
32025SOL    HW2 1912   8.206  10.049   1.510 -0.2994 -0.1245  0.5877
32026SOL     OW 1913   6.395   7.061   1.715 -0.1116  0.1812 -0.0138
32026SOL    HW1 1914   6.312   7.062   1.762 -1.1534 -0.0366 -1.7374
32026SOL    HW2 1915   6.374   7.099   1.629  1.6710  0.5053 -0.3406
32027SOL     OW 1916   9.555   6.421   8.637 -0.0502 -0.1361 -0.3118
32027SOL    HW1 1917   9.639   6.450   8.671  0.1666  0.1122 -1.0491
32027SOL    HW2 1918   9.562   6.326   8.632 -0.0831 -0.1766  0.3200
32028SOL     OW 1919   7.837   3.251   7.778  0.5426 -0.0558 -0.9684
32028SOL    HW1 1920   7.860   3.178   7.720 -0.7463 -0.1593 -1.3731
32028SOL    HW2 1921   7.745   3.269   7.759  1.0959  2.4240 -1.6991
32029SOL     OW 1922   2.054   9.315   5.437 -0.1145 -0.2957 -0.1344
32029SOL    HW1 1923   2.132   9.306   5.492  0.4726  1.8898 -0.5098
32029SOL    HW2 1924   2.073   9.262   5.359  2.4324  2.5333 -1.6296
32030SOL     OW 1925   5.045   4.622   0.097  0.4963 -0.6826  0.0559
32030SOL    HW1 1926   5.015   4.535   0.123 -0.6436  0.4682  3.1156
32030SOL    HW2 1927   5.114   4.643   0.160 -0.7756  1.4317  0.8523
32031SOL     OW 1928   6.981   5.959   8.456 -0.4902  0.7035  0.2800
32031SOL    HW1 1929   6.965   5.964   8.550 -2.1103 -0.0496  0.0743
32031SOL    HW2 1930   6.990   6.051   8.428  0.4310  0.9112  1.2184
32032SOL     OW 1931   1.732   8.200   6.041 -0.2409  0.1775  0.5773
32032SOL    HW1 1932   1.700   8.251   6.116  1.0408  0.9038  0.6631
32032SOL    HW2 1933   1.653   8.158   6.005 -1.4141  2.3759  0.3929
32033SOL     OW 1934   9.773   4.467   3.059 -0.0011 -0.0705 -0.5965
32033SOL    HW1 1935   9.823   4.538   3.098 -1.1291 -0.9239  2.7057
32033SOL    HW2 1936   9.690   4.508   3.033 -0.4330 -0.0104  0.7892
32034SOL     OW 1937   8.436   0.264  10.294 -0.1883 -0.4877 -1.0805
32034SOL    HW1 1938   8.408   0.308  10.375  1.0107 -1.0478 -0.3172
32034SOL    HW2 1939   8.459   0.175  10.323 -0.5109 -0.9420 -2.1975
32035SOL     OW 1940  10.389   2.390   6.962  0.4750 -0.4890  0.6708
32035SOL    HW1 1941  10.484   2.381   6.964  0.5646  0.2309  0.2036
32035SOL    HW2 1942  10.356   2.301   6.969  1.2352 -1.1012 -2.2309
32036SOL     OW 1943   4.789   1.005   9.398  0.6951  0.2109  0.0567
32036SOL    HW1 1944   4.710   1.005   9.452  0.8859 -1.0074  0.3509
32036SOL    HW2 1945   4.856   0.964   9.452  0.9672 -0.7777 -0.9894
32037SOL     OW 1946   4.669   6.653   2.872 -0.1278 -0.3803 -0.1949
32037SOL    HW1 1947   4.591   6.690   2.832 -0.8191 -1.6710 -0.0835
32037SOL    HW2 1948   4.725   6.627   2.799 -0.8037 -1.5130 -0.3257
32038SOL     OW 1949   4.478   6.364   1.973  0.3895  0.2371 -0.7964
32038SOL    HW1 1950   4.454   6.375   2.065 -0.6218  0.9464 -1.1292
32038SOL    HW2 1951   4.442   6.278   1.949  0.1573  0.3006 -0.6781
32039SOL     OW 1952   1.923   8.740   4.442  0.5917 -0.1490 -0.7408
32039SOL    HW1 1953   1.966   8.769   4.361 -0.0848  1.6406 -0.5114
32039SOL    HW2 1954   1.985   8.760   4.511  0.4939 -0.0993 -0.6670
32040SOL     OW 1955   8.926  10.710   0.396 -0.1029  0.6339  0.1121
32040SOL    HW1 1956   8.898  10.777   0.458 -0.1462 -0.1857  1.0061
32040SOL    HW2 1957   8.896  10.741   0.311  0.7443  2.2337  0.3601
32041SOL     OW 1958   4.607   0.158   4.473 -0.1130  0.7775  0.0349
32041SOL    HW1 1959   4.535   0.175   4.533 -0.1737 -1.1529  0.5908
32041SOL    HW2 1960   4.570   0.101   4.406  0.4463  1.3058 -0.7490
32042SOL     OW 1961   0.997   0.534   8.446  0.1778 -0.3612 -0.1886
32042SOL    HW1 1962   1.066   0.468   8.446  0.7255  0.1989  0.2788
32042SOL    HW2 1963   0.983   0.555   8.538  0.4089  0.5789 -0.3626
32043SOL     OW 1964   5.428   6.077   6.841  0.1020  0.6948  0.1215
32043SOL    HW1 1965   5.334   6.068   6.825 -0.0017 -0.2591  1.1394
32043SOL    HW2 1966   5.434   6.108   6.931  0.7625  1.0416 -0.0314
32044SOL     OW 1967   3.575  10.090   2.893 -0.1960  0.4108 -0.1573
32044SOL    HW1 1968   3.661  10.120   2.864  0.1181 -1.4144 -1.2986
32044SOL    HW2 1969   3.579  10.093   2.989  1.0516  0.5744 -0.2002
32045SOL     OW 1970   4.469   2.917   0.829 -0.0918  0.2461  0.3670
32045SOL    HW1 1971   4.393   2.902   0.773 -0.2131  0.7346  0.3936
32045SOL    HW2 1972   4.483   3.012   0.826 -0.6758  0.4124  1.9000
32046SOL     OW 1973   5.607   7.018   4.135 -0.1717 -0.1780  0.3501
32046SOL    HW1 1974   5.601   6.923   4.134 -1.5554 -0.1346  1.2010
32046SOL    HW2 1975   5.521   7.047   4.167  0.5791  1.3198  1.1275
32047SOL     OW 1976   5.132   4.689   4.109 -0.1078  0.0570  0.6255
32047SOL    HW1 1977   5.065   4.667   4.044 -0.4530 -1.4826  1.4620
32047SOL    HW2 1978   5.178   4.763   4.071 -1.3213  0.2017 -0.6547
32048SOL     OW 1979   9.756   8.455   4.641 -0.4009 -0.0808  0.3752
32048SOL    HW1 1980   9.814   8.452   4.565 -2.5520 -2.2936 -1.3662
32048SOL    HW2 1981   9.712   8.540   4.636  0.0884  0.1320 -0.3804
32049SOL     OW 1982   2.082   3.479   8.231  0.1945  0.4513 -0.1224
32049SOL    HW1 1983   1.989   3.480   8.209  0.1662  0.0538 -0.0226
32049SOL    HW2 1984   2.109   3.571   8.221 -0.1265  0.5118 -0.4817
32050SOL     OW 1985   4.925   1.714  10.625  0.3548 -0.2607  0.3257
32050SOL    HW1 1986   4.949   1.649  10.558  0.9528 -0.0031  0.2889
32050SOL    HW2 1987   5.008   1.740  10.664  0.0039 -0.4160  1.1850
32051SOL     OW 1988   4.028   8.949   5.836  0.4077  0.1060 -0.6153
32051SOL    HW1 1989   4.051   9.036   5.870  2.1441 -0.6080  0.1738
32051SOL    HW2 1990   4.003   8.964   5.745  0.4577  1.4596 -0.4197
32052SOL     OW 1991   8.414   0.714   2.488 -0.6915 -0.0513 -0.0803
32052SOL    HW1 1992   8.402   0.681   2.399 -2.0495  0.4215 -0.0898
32052SOL    HW2 1993   8.460   0.644   2.534  2.6551  0.7764 -1.8608
32053SOL     OW 1994   9.062   4.481   5.396 -0.0370  0.0168  0.0750
32053SOL    HW1 1995   9.039   4.574   5.394  1.2430  0.3481 -1.4417
32053SOL    HW2 1996   8.985   4.436   5.362  0.3192  0.8206 -1.9650
32054SOL     OW 1997   9.383   7.238   2.427  0.3642 -0.5671  0.0665
32054SOL    HW1 1998   9.368   7.331   2.445 -0.1082 -1.1303  3.1790
32054SOL    HW2 1999   9.478   7.227   2.436  0.4670 -0.3411 -0.6833
32055SOL     OW 2000   4.634   9.492   1.387  0.2694 -0.0386  0.0560
32055SOL    HW1 2001   4.665   9.476   1.476  0.6580  2.4034  0.4135
32055SOL    HW2 2002   4.713   9.511   1.336  0.0483 -1.3692 -0.8571
32056SOL     OW 2003   7.432   9.797   0.849  0.3082 -0.0437 -0.1796
32056SOL    HW1 2004   7.390   9.738   0.912  0.8844  0.0113  0.2671
32056SOL    HW2 2005   7.388   9.881   0.861  1.0051  0.1986  0.7849
32057SOL     OW 2006   2.487   4.629   0.098 -0.1828  0.3566  0.1334
32057SOL    HW1 2007   2.481   4.571   0.022 -1.2865  1.7432 -0.8675
32057SOL    HW2 2008   2.414   4.689   0.089  0.7919  1.7935  1.2644
32058SOL     OW 2009   1.453   2.063   9.643  0.4822 -0.0341  0.3218
32058SOL    HW1 2010   1.438   2.147   9.687 -1.3932  0.0582 -0.4095
32058SOL    HW2 2011   1.441   2.082   9.550 -2.1073 -1.4700  0.2761
32059SOL     OW 2012   0.870   7.578   2.264  0.0557  0.5138  0.3591
32059SOL    HW1 2013   0.877   7.568   2.169 -2.2290 -1.8063  0.3062
32059SOL    HW2 2014   0.894   7.668   2.281 -1.0878  1.5146 -2.6763
32060SOL     OW 2015   4.399   0.671   1.386  0.7548  0.4666 -0.0736
32060SOL    HW1 2016   4.414   0.676   1.480  3.7110 -0.8566 -0.3582
32060SOL    HW2 2017   4.305   0.660   1.377  0.6156 -1.9894  2.8761
32061SOL     OW 2018   4.065   5.042   1.521  0.5955 -0.0186 -0.5349
32061SOL    HW1 2019   3.987   5.034   1.466 -1.6196 -0.6155  2.4170
32061SOL    HW2 2020   4.084   4.952   1.548  1.4573  0.2816 -0.1051
32062SOL     OW 2021   9.959   1.628   2.340 -0.3829 -1.0827  0.3387
32062SOL    HW1 2022   9.929   1.709   2.297  0.3355 -0.7148  0.5204
32062SOL    HW2 2023  10.033   1.599   2.287 -0.1479 -1.1994  0.7349
32063SOL     OW 2024   0.827   9.920   8.580 -0.2031  0.7054  0.1693
32063SOL    HW1 2025   0.866   9.875   8.506  0.0633  2.6418 -0.9326
32063SOL    HW2 2026   0.780   9.994   8.542 -1.9669  0.4963  1.7627
32064SOL     OW 2027   8.633   2.732   3.236  0.5500 -1.1258 -0.2234
32064SOL    HW1 2028   8.686   2.809   3.255  0.9573 -1.3498 -0.4289
32064SOL    HW2 2029   8.546   2.766   3.215  0.6319 -0.7506  0.0503
32065SOL     OW 2030   9.506   7.260   9.234 -0.2064  0.2860  0.5540
32065SOL    HW1 2031   9.425   7.309   9.221  0.3116  1.2901  1.0064
32065SOL    HW2 2032   9.480   7.168   9.229 -0.9794  0.5578 -1.8323
32066SOL     OW 2033   0.474   3.515   0.032 -0.2649 -0.3553  0.1580
32066SOL    HW1 2034   0.471   3.481  -0.058 -0.0006 -0.1058  0.0530
32066SOL    HW2 2035   0.426   3.451   0.084  0.9121 -1.3115  0.0980
32067SOL     OW 2036   9.704   0.575   3.290  0.2609 -0.4311  0.0930
32067SOL    HW1 2037   9.672   0.613   3.208 -1.3398 -0.0660  0.8537
32067SOL    HW2 2038   9.771   0.637   3.320 -0.3138  0.3093 -0.1126
32068SOL     OW 2039   0.911   0.635  10.433 -0.7139  0.0323 -0.4677
32068SOL    HW1 2040   1.006   0.632  10.420 -0.1138 -0.8912  3.0957
32068SOL    HW2 2041   0.875   0.650  10.345  2.5528 -2.2682 -2.4161
32069SOL     OW 2042   2.811   9.627   6.564  0.0139 -0.3001  0.1240
32069SOL    HW1 2043   2.844   9.579   6.641 -1.3557 -0.9601  0.3358
32069SOL    HW2 2044   2.872   9.605   6.494  1.9027  1.1280  1.2132
32070SOL     OW 2045   5.721   7.416   6.796 -0.6855 -0.5488 -0.2637
32070SOL    HW1 2046   5.814   7.428   6.819 -0.1574 -0.2298 -2.3957
32070SOL    HW2 2047   5.722   7.398   6.702 -2.7380 -1.4361 -0.1566
32071SOL     OW 2048   8.678   9.706   7.411  0.2365  0.2831 -0.1376
32071SOL    HW1 2049   8.614   9.720   7.341 -0.6638 -1.2845  0.3262
32071SOL    HW2 2050   8.742   9.646   7.374  0.0130 -0.1822  0.2239
32072SOL     OW 2051   7.724   3.854   7.612  0.3657  0.0551 -0.2436
32072SOL    HW1 2052   7.753   3.868   7.522 -3.3284 -1.6215 -1.9244
32072SOL    HW2 2053   7.734   3.760   7.627  2.2296  0.4771  1.7386
32073SOL     OW 2054   7.602   3.107   1.635 -0.5095  0.5638  0.0605
32073SOL    HW1 2055   7.626   3.199   1.625  2.4047 -0.0923  0.2826
32073SOL    HW2 2056   7.543   3.105   1.710 -1.7682  2.3598 -0.7921
32074SOL     OW 2057   8.634   5.058  10.544 -0.6742  0.0305  0.2148
32074SOL    HW1 2058   8.561   5.116  10.524 -1.5404 -0.4013  1.9413
32074SOL    HW2 2059   8.701   5.116  10.580  0.4184  0.6233 -2.5232
32075SOL     OW 2060   9.591   5.710   9.506 -0.1664  0.3352 -0.5238
32075SOL    HW1 2061   9.635   5.720   9.590 -0.2550 -0.9969 -0.2955
32075SOL    HW2 2062   9.659   5.676   9.448 -0.5665 -0.5527 -0.4887
32076SOL     OW 2063   2.199   2.748   3.380  0.4391 -0.2065 -0.1472
32076SOL    HW1 2064   2.124   2.790   3.423  1.3535 -0.3371  1.7122
32076SOL    HW2 2065   2.243   2.818   3.333  0.4843  0.3888  0.7580
32077SOL     OW 2066   8.110   7.469   8.366 -0.0047 -0.6020  0.0551
32077SOL    HW1 2067   8.075   7.409   8.299 -0.5762 -2.2590  1.7458
32077SOL    HW2 2068   8.199   7.489   8.337 -0.9145  0.4399 -2.2555
32078SOL     OW 2069  10.067   2.528   3.852 -0.0772  0.1984 -0.0911
32078SOL    HW1 2070  10.093   2.485   3.933  1.5128  0.2905 -0.5162
32078SOL    HW2 2071   9.975   2.504   3.840 -0.7441  1.2259  2.3768
32079SOL     OW 2072   4.229   5.886   3.752 -0.2425 -0.6078 -0.8813
32079SOL    HW1 2073   4.215   5.974   3.718  1.9263  0.5765  1.0607
32079SOL    HW2 2074   4.143   5.856   3.779 -1.0413  0.8021 -1.7740
32080SOL     OW 2075   3.570   5.636   0.416  0.2043  0.2815 -0.0711
32080SOL    HW1 2076   3.618   5.569   0.466  0.2483  0.5646  0.2752
32080SOL    HW2 2077   3.626   5.653   0.340  0.5557  0.4594  0.2239
32081SOL     OW 2078   5.106  10.394   8.989  0.1833  0.1036  0.3914
32081SOL    HW1 2079   5.028  10.428   9.034  0.7454  2.6845 -0.3895
32081SOL    HW2 2080   5.132  10.465   8.930  1.8056 -1.5887 -1.0589
32082SOL     OW 2081   9.922   4.398   6.122 -0.0372 -0.1550  0.4451
32082SOL    HW1 2082   9.906   4.484   6.084  1.2924 -0.0649  0.0287
32082SOL    HW2 2083   9.853   4.386   6.186 -1.9464  0.0161 -1.4644
32083SOL     OW 2084   9.710   8.340   2.890  0.6493  0.1510 -0.2661
32083SOL    HW1 2085   9.705   8.303   2.978  2.9338 -1.8006 -0.8417
32083SOL    HW2 2086   9.798   8.378   2.886 -0.3438  2.5497 -0.9180
32084SOL     OW 2087   7.078   3.415   7.822 -0.3049  0.6414  0.2728
32084SOL    HW1 2088   7.029   3.495   7.844 -1.1644  0.3590 -0.5377
32084SOL    HW2 2089   7.010   3.351   7.800  0.4228  0.1728 -0.6587
32085SOL     OW 2090   0.250   9.210   5.375 -0.4175  0.2680  0.3550
32085SOL    HW1 2091   0.337   9.191   5.412 -0.0519  2.0624  0.5120
32085SOL    HW2 2092   0.190   9.154   5.424  0.7879 -2.4240 -1.0034
32086SOL     OW 2093   8.077   3.238   5.646 -0.0356  0.1406 -0.0657
32086SOL    HW1 2094   8.042   3.172   5.707 -0.3954 -0.4544 -0.9002
32086SOL    HW2 2095   8.110   3.307   5.703 -2.0773  0.4834  0.7932
32087SOL     OW 2096   7.791   0.656   7.336  0.6277  0.2585  0.3480
32087SOL    HW1 2097   7.796   0.686   7.245 -1.2111  0.9321  0.4294
32087SOL    HW2 2098   7.725   0.712   7.376 -0.7100 -1.9048  1.3319
32088SOL     OW 2099   7.224   9.659   9.704 -0.1289 -0.1369 -0.3069
32088SOL    HW1 2100   7.151   9.666   9.765  0.1966  0.8861 -0.0205
32088SOL    HW2 2101   7.289   9.604   9.749 -0.6650 -0.9724 -0.5278
32089SOL     OW 2102   3.544   3.675   8.048  0.2376  0.1971 -0.1979
32089SOL    HW1 2103   3.497   3.606   8.095  0.3074  0.0694 -0.3120
32089SOL    HW2 2104   3.479   3.711   7.988 -0.2053  1.2125  0.8573
32090SOL     OW 2105   0.239   2.495   6.702  0.1892  0.3485 -0.0160
32090SOL    HW1 2106   0.175   2.429   6.675  0.4455 -0.6237  1.6122
32090SOL    HW2 2107   0.316   2.444   6.728  0.6149  1.3293  0.7049
32091SOL     OW 2108   1.398   6.050   3.034  0.1113 -0.3305  0.1842
32091SOL    HW1 2109   1.429   5.964   3.005 -1.2251 -0.8506  0.1994
32091SOL    HW2 2110   1.424   6.110   2.964  2.6260 -0.3784  0.9789
32092SOL     OW 2111   3.963   4.355   0.113 -0.0273  0.3129  0.4153
32092SOL    HW1 2112   3.985   4.263   0.097  0.5859  0.0405  2.5774
32092SOL    HW2 2113   3.969   4.365   0.208  0.7753  2.8017  0.1660
32093SOL     OW 2114   3.658   0.432   5.269 -0.1109  0.5163  0.6227
32093SOL    HW1 2115   3.608   0.418   5.188  0.4960 -0.6977  0.4374
32093SOL    HW2 2116   3.707   0.512   5.254  2.6702 -1.3980 -1.6587
32094SOL     OW 2117   7.977   2.275   0.478 -0.1446  0.0207  0.0495
32094SOL    HW1 2118   7.981   2.202   0.539  1.0879 -0.3293 -0.4232
32094SOL    HW2 2119   8.034   2.249   0.406  1.4287  1.9928  0.4864
32095SOL     OW 2120   8.440   7.319   9.519 -0.5624 -0.0936  0.1725
32095SOL    HW1 2121   8.505   7.378   9.557  0.6738 -2.4707  2.0769
32095SOL    HW2 2122   8.380   7.300   9.591 -2.9090  1.2699 -1.2916
32096SOL     OW 2123   8.007  10.453   9.075 -0.1810  0.2410  0.0255
32096SOL    HW1 2124   7.991  10.411   9.159  0.4190 -2.7104 -1.2214
32096SOL    HW2 2125   8.075  10.517   9.092  2.5647 -2.7466  1.2433
32097SOL     OW 2126   1.474   3.599   3.597  0.1852 -0.0174  0.3508
32097SOL    HW1 2127   1.477   3.530   3.664 -0.1979 -0.7397 -0.3586
32097SOL    HW2 2128   1.385   3.594   3.562  0.8565 -0.7749 -1.3511
32098SOL     OW 2129   2.454   2.157   6.055  0.9654 -0.3024 -0.3716
32098SOL    HW1 2130   2.523   2.176   5.991  2.2907 -2.3955  0.3395
32098SOL    HW2 2131   2.498   2.107   6.124 -0.1790  2.6262  2.7496
32099SOL     OW 2132   4.602   6.746   8.852  0.4311 -0.4058 -0.4217
32099SOL    HW1 2133   4.683   6.694   8.858  0.8489 -0.0642 -2.5534
32099SOL    HW2 2134   4.626   6.821   8.798 -1.8599 -1.5457 -3.2667
32100SOL     OW 2135   3.696   8.806   5.835 -0.4268 -0.2596 -0.5814
32100SOL    HW1 2136   3.748   8.876   5.873 -0.2934 -0.3924 -0.5201
32100SOL    HW2 2137   3.605   8.838   5.841 -0.5798 -0.9704  1.3540
32101SOL     OW 2138   7.058   0.868   1.105  0.1537 -0.2178  0.1206
32101SOL    HW1 2139   7.143   0.873   1.149  0.6168 -0.9814 -0.6429
32101SOL    HW2 2140   7.000   0.923   1.157  1.2833  0.8688  0.2651
32102SOL     OW 2141   7.354  10.344   6.938 -0.1375 -0.2787 -0.8389
32102SOL    HW1 2142   7.449  10.357   6.934 -0.2539  0.9164 -0.1255
32102SOL    HW2 2143   7.325  10.357   6.847  0.2984  0.0857 -0.9329
32103SOL     OW 2144   3.101   7.921   1.166 -0.3426 -0.6396 -0.2037
32103SOL    HW1 2145   3.039   7.933   1.093  0.3063 -1.6889 -0.9635
32103SOL    HW2 2146   3.076   7.837   1.205  1.8093 -2.1361 -1.8233
32104SOL     OW 2147   8.137   9.148   5.163  0.1674  0.6331  0.2189
32104SOL    HW1 2148   8.199   9.093   5.115  0.1355  0.3539  0.4949
32104SOL    HW2 2149   8.120   9.100   5.244 -0.6394  0.5507  0.0153
32105SOL     OW 2150   9.404   2.349   3.421 -0.0289  0.1058 -0.0798
32105SOL    HW1 2151   9.481   2.292   3.430  1.4032  1.6839 -1.5824
32105SOL    HW2 2152   9.370   2.329   3.334  0.9353  1.9580 -0.9361
32106SOL     OW 2153   7.665   4.249   9.026 -0.7271  0.0096  0.4207
32106SOL    HW1 2154   7.626   4.176   9.074 -1.6079  1.0803  1.3754
32106SOL    HW2 2155   7.593   4.282   8.972 -0.3580  0.2529  0.0772
32107SOL     OW 2156   3.973   0.099   2.066 -0.2757  0.0016  0.0378
32107SOL    HW1 2157   3.891   0.049   2.057 -1.3253  1.5350  0.7216
32107SOL    HW2 2158   3.988   0.103   2.160  0.1106  0.4759 -0.0430
32108SOL     OW 2159   0.673   2.565   7.802  0.2519 -0.6594 -0.1013
32108SOL    HW1 2160   0.725   2.622   7.746  0.0161 -0.4386 -0.0965
32108SOL    HW2 2161   0.591   2.612   7.815 -0.0728 -1.1379 -0.3602
32109SOL     OW 2162   1.968   3.838   9.766  0.3172 -0.1715 -0.2288
32109SOL    HW1 2163   1.884   3.878   9.744  0.0771 -0.2661  0.4931
32109SOL    HW2 2164   2.030   3.911   9.768 -0.1042  0.1716  1.0209
32110SOL     OW 2165   6.216   8.212   0.734  0.0359  0.4584  0.1104
32110SOL    HW1 2166   6.122   8.199   0.731 -0.2405  2.4162 -0.5451
32110SOL    HW2 2167   6.228   8.296   0.778  1.4162  0.7296 -0.7143
32111SOL     OW 2168   4.579   7.865   8.988 -0.5213  0.7146  0.9330
32111SOL    HW1 2169   4.512   7.932   9.000  0.7174  2.1315  0.3188
32111SOL    HW2 2170   4.531   7.785   8.968 -2.0080  1.8181 -0.1122
32112SOL     OW 2171   4.378   8.744   5.800  0.4594 -0.4227  0.5544
32112SOL    HW1 2172   4.306   8.751   5.863 -0.8779 -0.3942 -0.9274
32112SOL    HW2 2173   4.437   8.816   5.822 -1.6006  1.5846 -0.1893
32113SOL     OW 2174   2.781   0.218   8.226  0.3713  0.1268 -0.0200
32113SOL    HW1 2175   2.872   0.219   8.254  0.2227  0.6954  0.4722
32113SOL    HW2 2176   2.772   0.294   8.169  1.3025 -2.3703 -3.8582
32114SOL     OW 2177   5.497   6.394   0.707 -0.0290 -0.1647  0.4083
32114SOL    HW1 2178   5.589   6.422   0.705  0.0488 -0.0904  2.5767
32114SOL    HW2 2179   5.490   6.330   0.636  2.0945 -1.2746  1.1050
32115SOL     OW 2180   4.861   2.904   4.859 -0.4535  0.0795 -0.4814
32115SOL    HW1 2181   4.906   2.954   4.927  0.7568 -1.0876 -0.3836
32115SOL    HW2 2182   4.774   2.944   4.853 -0.6224  0.1549  1.7983
32116SOL     OW 2183   5.990   1.825   6.902 -0.0457 -0.2794 -0.5670
32116SOL    HW1 2184   6.064   1.851   6.956 -1.1996 -0.6865  1.2978
32116SOL    HW2 2185   6.029   1.797   6.820  1.8730 -0.6059  0.3986
32117SOL     OW 2186   5.618   8.814  10.288 -0.4355 -0.2804  0.0817
32117SOL    HW1 2187   5.570   8.751  10.234  0.0388 -0.8620  0.3133
32117SOL    HW2 2188   5.710   8.787  10.280 -0.0245  1.3760 -1.0880
32118SOL     OW 2189   3.744   4.600   1.292 -0.2770 -0.0693  0.0151
32118SOL    HW1 2190   3.795   4.642   1.362 -0.5489  1.5655 -0.7203
32118SOL    HW2 2191   3.810   4.551   1.242  0.2225  0.2469  0.3458
32119SOL     OW 2192   3.427   0.772   3.745 -0.3542 -0.1180  0.1655
32119SOL    HW1 2193   3.462   0.850   3.788 -0.7744  0.2457 -0.1572
32119SOL    HW2 2194   3.403   0.800   3.657  1.5116 -1.1063 -0.7149
32120SOL     OW 2195   3.494   8.636   8.825  0.3903  0.1593  0.4571
32120SOL    HW1 2196   3.576   8.685   8.829  1.3514 -1.3700  0.2532
32120SOL    HW2 2197   3.516   8.550   8.861 -1.4814  0.1455  1.7472
32121SOL     OW 2198   2.734   7.766   4.398 -0.0067  0.6733 -0.0682
32121SOL    HW1 2199   2.785   7.832   4.352 -2.0158  2.9018  0.6669
32121SOL    HW2 2200   2.684   7.721   4.329  0.9529  0.2765 -0.5200
32122SOL     OW 2201   5.736   6.673   2.488  0.0551 -0.7657  0.2794
32122SOL    HW1 2202   5.723   6.762   2.522 -0.0617 -0.0354 -1.5304
32122SOL    HW2 2203   5.719   6.681   2.394  0.1120 -2.7064  0.0614
32123SOL     OW 2204   0.658   9.228   5.403 -0.4822 -0.2013  0.3250
32123SOL    HW1 2205   0.588   9.186   5.454  0.5603 -0.7346  1.3569
32123SOL    HW2 2206   0.735   9.225   5.460  0.2314  0.9908 -0.5186
32124SOL     OW 2207   1.489   6.946   1.914  0.1276 -0.4254  0.3915
32124SOL    HW1 2208   1.485   7.042   1.917 -0.7148 -0.2920 -2.1942
32124SOL    HW2 2209   1.513   6.920   2.003 -1.6461  2.0525  1.7053
32125SOL     OW 2210   2.199   0.451   7.006  0.0777 -0.3679  0.6342
32125SOL    HW1 2211   2.143   0.521   6.973  1.2517  0.1085 -0.4367
32125SOL    HW2 2212   2.151   0.370   6.986  0.7802 -0.1381 -2.5499
32126SOL     OW 2213   3.691   9.720   2.413  0.3290  0.1623  0.7103
32126SOL    HW1 2214   3.633   9.748   2.484  1.7937  0.7641  1.7462
32126SOL    HW2 2215   3.763   9.784   2.415 -0.1827  0.9626 -2.1805
32127SOL     OW 2216   2.392   1.438   6.902  0.4748  0.0456 -0.3731
32127SOL    HW1 2217   2.335   1.367   6.930  1.4331 -1.4078 -1.9314
32127SOL    HW2 2218   2.477   1.418   6.942  1.1290 -0.5338 -1.9614
32128SOL     OW 2219   4.591   5.419   6.918  0.1116 -0.0119 -0.2857
32128SOL    HW1 2220   4.668   5.363   6.926 -0.1033 -0.1806  0.7004
32128SOL    HW2 2221   4.530   5.369   6.864 -0.3834 -1.1074  1.2054
32129SOL     OW 2222   8.465   2.134   4.296 -0.4999  0.5505  0.0675
32129SOL    HW1 2223   8.527   2.075   4.254  0.5685  0.1592  2.0514
32129SOL    HW2 2224   8.416   2.079   4.357  0.7603  1.6781  2.2124
32130SOL     OW 2225   2.100   2.206   3.331 -0.1293 -0.1945 -0.5127
32130SOL    HW1 2226   2.056   2.290   3.347  2.2174  0.6304  2.2897
32130SOL    HW2 2227   2.032   2.140   3.348 -0.8801  1.0603  1.7472
32131SOL     OW 2228   4.350   1.623   8.839  0.3139  0.0159  0.3304
32131SOL    HW1 2229   4.425   1.591   8.789  0.1269 -1.8120  1.1150
32131SOL    HW2 2230   4.295   1.666   8.774  0.2859 -1.8931 -1.0001
32132SOL     OW 2231   0.278   6.055   0.372 -0.1848 -0.3771  0.1422
32132SOL    HW1 2232   0.252   6.130   0.426  0.5927  0.1408 -0.1928
32132SOL    HW2 2233   0.198   6.028   0.328 -0.5087  0.1453  0.4071
32133SOL     OW 2234   3.660   9.672   4.350  0.4881 -0.0474  1.0139
32133SOL    HW1 2235   3.619   9.621   4.420 -1.2786  1.2687  1.0183
32133SOL    HW2 2236   3.623   9.760   4.360  0.9709  0.4238 -0.9368
32134SOL     OW 2237   7.328   6.065   3.275 -0.1074  0.0201  0.3190
32134SOL    HW1 2238   7.237   6.096   3.264  0.4435  1.4906 -0.4045
32134SOL    HW2 2239   7.346   6.017   3.194 -0.0186  0.3289  0.1540
32135SOL     OW 2240   2.669   5.400   0.634  1.0024  0.3608  0.1532
32135SOL    HW1 2241   2.733   5.472   0.633  0.8789  0.4662 -0.1711
32135SOL    HW2 2242   2.584   5.444   0.636  0.9239  0.2427  2.2318
32136SOL     OW 2243   6.721   1.470   3.143  0.1594 -0.1734  0.1520
32136SOL    HW1 2244   6.669   1.444   3.218 -0.7230  0.0770 -0.3659
32136SOL    HW2 2245   6.809   1.435   3.161 -0.3624 -1.2367  0.6760
32137SOL     OW 2246   5.402   5.753   1.734  0.9062 -0.6351 -0.4843
32137SOL    HW1 2247   5.366   5.769   1.821  2.0481  1.1047 -0.2927
32137SOL    HW2 2248   5.350   5.679   1.700 -2.4676  1.3135 -0.0173
32138SOL     OW 2249   2.063  10.353   1.982  0.1611  0.1474 -0.1386
32138SOL    HW1 2250   2.054  10.277   1.925 -0.5570  0.5078 -0.5316
32138SOL    HW2 2251   2.157  10.363   1.996  0.2175 -1.6388  1.0644
32139SOL     OW 2252   3.639   8.645   7.884  0.3268 -0.6532 -0.1589
32139SOL    HW1 2253   3.598   8.571   7.839  0.5422 -1.9778  1.7368
32139SOL    HW2 2254   3.572   8.713   7.886 -0.5214 -1.4745 -0.2730
32140SOL     OW 2255   7.363   7.658   8.022 -0.0079  0.0643  0.3222
32140SOL    HW1 2256   7.409   7.582   8.058  2.2834  1.2349  0.0635
32140SOL    HW2 2257   7.281   7.663   8.071 -0.0195 -2.2797  0.6469
32141SOL     OW 2258   7.432   1.588   9.099  0.6952 -0.3432  0.0717
32141SOL    HW1 2259   7.355   1.639   9.074  0.9731  1.2398  2.1750
32141SOL    HW2 2260   7.450   1.533   9.023  0.1498  2.4667 -2.2741
32142SOL     OW 2261   8.679   6.428   2.141  0.0972 -0.1963 -0.2040
32142SOL    HW1 2262   8.714   6.493   2.203 -1.3985  0.1107  0.3643
32142SOL    HW2 2263   8.688   6.470   2.056  2.9401 -0.9458 -0.3870
32143SOL     OW 2264   4.108   0.677   0.692  0.7316 -0.2340  0.0616
32143SOL    HW1 2265   4.194   0.660   0.653 -0.0484 -2.3268 -0.9140
32143SOL    HW2 2266   4.047   0.669   0.619 -0.3797  0.4000  0.8941
32144SOL     OW 2267   4.499   4.276   2.978 -0.3492 -0.1165 -0.0221
32144SOL    HW1 2268   4.571   4.235   3.025  0.2365 -0.8221 -1.4612
32144SOL    HW2 2269   4.420   4.247   3.024  0.2056 -0.6499  0.6020
32145SOL     OW 2270   3.450   4.691   8.829  0.4057  0.4330 -0.3545
32145SOL    HW1 2271   3.516   4.634   8.869  1.6557  1.3749 -1.0171
32145SOL    HW2 2272   3.368   4.668   8.874 -0.0387 -4.4813 -2.9605
32146SOL     OW 2273   7.334   0.027   9.921 -0.2079 -0.1407  0.3646
32146SOL    HW1 2274   7.347   0.077  10.002 -0.9642 -0.7644  0.8959
32146SOL    HW2 2275   7.406  -0.036   9.920  2.1573  2.3443 -1.4954
32147SOL     OW 2276   9.410   0.613   7.564 -0.1532  0.0259 -0.0253
32147SOL    HW1 2277   9.330   0.665   7.556 -1.1153 -1.3578  0.1279
32147SOL    HW2 2278   9.451   0.643   7.645 -1.5735 -0.5943  0.9658
32148SOL     OW 2279   4.163   9.589   1.528 -0.4734 -0.0935 -0.5397
32148SOL    HW1 2280   4.128   9.517   1.581  1.8321 -0.2316  0.9082
32148SOL    HW2 2281   4.255   9.594   1.551  0.2067  1.1618 -3.1449
32149SOL     OW 2282   9.387   0.447   4.166  0.0102  0.1023  0.1965
32149SOL    HW1 2283   9.446   0.431   4.092 -1.5041 -0.1414 -1.0259
32149SOL    HW2 2284   9.300   0.455   4.125 -1.2040 -2.1407  2.1200
32150SOL     OW 2285   4.897   6.372   1.265  0.1675  0.3435  0.2220
32150SOL    HW1 2286   4.876   6.460   1.232 -0.8001 -0.5616 -1.6955
32150SOL    HW2 2287   4.987   6.357   1.235  0.1586  0.4749  0.1265
32151SOL     OW 2288   9.514  10.094   5.010 -0.5686 -0.1386 -0.0234
32151SOL    HW1 2289   9.580  10.063   4.948 -0.6206  0.0642 -0.1810
32151SOL    HW2 2290   9.518  10.032   5.083  0.2357  0.2422  0.2606
32152SOL     OW 2291   1.520   5.231   0.606  0.2164  0.8147  0.0353
32152SOL    HW1 2292   1.589   5.241   0.540  0.6362 -1.6357 -0.0158
32152SOL    HW2 2293   1.457   5.170   0.565 -0.4247  0.6578  1.2128
32153SOL     OW 2294   3.612   6.408  10.120  0.0651 -0.1093  0.3596
32153SOL    HW1 2295   3.702   6.375  10.117 -0.2019 -0.8575  0.4274
32153SOL    HW2 2296   3.621   6.499  10.147  0.7561 -0.4068  1.1942
32154SOL     OW 2297   6.970   5.546   2.722 -0.0082 -0.0821  0.4199
32154SOL    HW1 2298   7.028   5.574   2.650  0.0876  0.4538  0.7017
32154SOL    HW2 2299   6.891   5.600   2.711 -1.1315 -1.8922 -0.9024
32155SOL     OW 2300   2.957   1.722   6.728  0.0325 -0.1855 -0.5135
32155SOL    HW1 2301   2.863   1.711   6.747  0.2924 -0.4518  0.7262
32155SOL    HW2 2302   2.959   1.758   6.640 -1.3553  2.3141  0.3688
32156SOL     OW 2303  10.151   9.144   8.234  0.2322  0.6931 -0.2459
32156SOL    HW1 2304  10.091   9.198   8.285  0.8232  0.5170  0.6536
32156SOL    HW2 2305  10.171   9.198   8.157 -2.5943 -0.0361 -1.6144
32157SOL     OW 2306   7.921   4.917   8.652 -0.1967  0.8554  0.1815
32157SOL    HW1 2307   7.912   4.827   8.683 -0.6046  0.5808 -0.6959
32157SOL    HW2 2308   8.015   4.932   8.647 -0.1060  1.0997  2.0450
32158SOL     OW 2309   9.538   2.440   0.619 -0.6882  0.1965 -0.3990
32158SOL    HW1 2310   9.591   2.376   0.668  0.7992 -0.3636 -2.5918
32158SOL    HW2 2311   9.561   2.524   0.658  2.2337  0.0245 -1.4668
32159SOL     OW 2312   1.297   7.363   1.287 -0.4321 -0.0721  0.1539
32159SOL    HW1 2313   1.331   7.406   1.366 -0.7115 -0.3560  0.4337
32159SOL    HW2 2314   1.327   7.419   1.215 -0.9425  0.7015  0.5222
32160SOL     OW 2315   0.722   8.160   3.688 -0.4423  0.0250 -0.0516
32160SOL    HW1 2316   0.732   8.214   3.766 -0.4414 -0.9501  0.6523
32160SOL    HW2 2317   0.703   8.221   3.618  0.8157  1.0424  0.4621
32161SOL     OW 2318   7.249   4.583   1.031  0.1231  0.0306 -0.3819
32161SOL    HW1 2319   7.246   4.501   0.981  1.3719 -0.5692  0.4716
32161SOL    HW2 2320   7.326   4.574   1.087 -1.0310  0.8098  1.4192
32162SOL     OW 2321   5.460   4.747   9.637  0.2036 -0.3619 -0.5091
32162SOL    HW1 2322   5.418   4.833   9.636 -3.0879 -1.8176 -0.5153
32162SOL    HW2 2323   5.470   4.724   9.544 -2.4638 -1.4199 -0.6366
32163SOL     OW 2324   0.817   0.132   2.932  0.1013 -0.0087  0.2017
32163SOL    HW1 2325   0.770   0.066   2.881  1.0535 -1.7736  1.4681
32163SOL    HW2 2326   0.772   0.133   3.016  0.1230  0.9676  0.2096
32164SOL     OW 2327  10.719   5.245   5.165 -0.1221  0.0091  0.1882
32164SOL    HW1 2328  10.796   5.253   5.108  0.7862  0.4763  1.4400
32164SOL    HW2 2329  10.693   5.335   5.183 -0.0233 -0.1240  0.9993
32165SOL     OW 2330   4.592   2.568   4.905 -0.1415  0.3380 -0.3222
32165SOL    HW1 2331   4.541   2.520   4.970 -0.2706  1.1497  0.1894
32165SOL    HW2 2332   4.557   2.538   4.821 -1.2526  0.6458  0.0133
32166SOL     OW 2333   0.809   2.281   6.829 -0.4388  0.3577  0.2232
32166SOL    HW1 2334   0.819   2.205   6.771  0.8900 -0.3324  1.2802
32166SOL    HW2 2335   0.887   2.278   6.885 -1.0848  1.6793  1.2446
32167SOL     OW 2336   8.209   1.399   6.976 -0.1207  0.6938 -0.2118
32167SOL    HW1 2337   8.212   1.378   6.882  1.3475  1.4459 -0.3565
32167SOL    HW2 2338   8.227   1.493   6.980 -1.2469  0.8872  0.7698
32168SOL     OW 2339   4.434   6.405   4.487  0.2159 -0.1822  0.6129
32168SOL    HW1 2340   4.455   6.420   4.395 -0.2473 -2.4027  0.0923
32168SOL    HW2 2341   4.348   6.444   4.499 -0.4664 -1.2964 -0.3778
32169SOL     OW 2342   4.877   2.118   2.826 -0.1613  0.2798 -0.1295
32169SOL    HW1 2343   4.867   2.046   2.763 -1.4712 -0.0800  0.4706
32169SOL    HW2 2344   4.817   2.186   2.795  1.3392  1.3249 -0.9103
32170SOL     OW 2345   8.063   7.742   8.029 -0.0303  0.1115 -0.0395
32170SOL    HW1 2346   8.130   7.800   7.992 -0.8749  0.7288 -0.6273
32170SOL    HW2 2347   8.055   7.770   8.120  1.3578 -0.7716  0.3989
32171SOL     OW 2348   8.154   3.755   5.626  0.4127 -0.0262 -0.2114
32171SOL    HW1 2349   8.156   3.757   5.722 -0.7535 -0.9246 -0.1512
32171SOL    HW2 2350   8.133   3.845   5.602  1.3075  0.3461  0.3457
32172SOL     OW 2351   0.513   8.421   0.635  0.1918  0.6632  0.5307
32172SOL    HW1 2352   0.482   8.350   0.579  0.9051 -0.5677  1.6492
32172SOL    HW2 2353   0.437   8.442   0.690  1.0195 -2.0257  2.9441
32173SOL     OW 2354   9.031   1.122   0.054  0.8349  1.0791 -0.3532
32173SOL    HW1 2355   9.099   1.139  -0.011  0.6532  1.5653 -0.4164
32173SOL    HW2 2356   9.080   1.105   0.135  1.0416  1.0249 -0.4897
32174SOL     OW 2357   1.311   6.655   8.603  0.3475 -0.2663  0.2591
32174SOL    HW1 2358   1.342   6.613   8.683  2.6621  1.0516  0.1283
32174SOL    HW2 2359   1.311   6.748   8.623 -1.5266 -0.0624 -0.5021
32175SOL     OW 2360   0.417   5.736   2.161  0.0356  0.2344  0.1947
32175SOL    HW1 2361   0.472   5.805   2.199  0.5669  0.3376 -0.7353
32175SOL    HW2 2362   0.466   5.656   2.176  0.1878  0.2604 -0.1710
32176SOL     OW 2363   2.349   7.209   3.728 -0.0657 -0.1816  0.4701
32176SOL    HW1 2364   2.288   7.245   3.792 -0.6570  0.1452 -0.2573
32176SOL    HW2 2365   2.293   7.168   3.661  0.4858  0.4513 -0.4035
32177SOL     OW 2366   7.450   5.728   1.125 -0.2240  0.0124 -0.7322
32177SOL    HW1 2367   7.438   5.633   1.113  2.0152 -0.4572  0.1142
32177SOL    HW2 2368   7.430   5.743   1.218  0.7917  0.0721 -0.5088
32178SOL     OW 2369   3.303   2.474   4.365  0.0111  0.3575  0.1245
32178SOL    HW1 2370   3.344   2.417   4.300  0.6179  1.8695 -0.8565
32178SOL    HW2 2371   3.376   2.516   4.411 -0.3703  2.0769 -0.7532
32179SOL     OW 2372   3.884   2.445   5.295 -0.0303  0.4452 -0.5986
32179SOL    HW1 2373   3.875   2.352   5.314 -0.2882  0.8263  1.3687
32179SOL    HW2 2374   3.978   2.463   5.302 -0.1081  0.5528  0.2572
32180SOL     OW 2375   4.860   0.386   6.575 -0.2676  0.2012  0.0158
32180SOL    HW1 2376   4.823   0.472   6.592 -0.0667  0.0621  1.2297
32180SOL    HW2 2377   4.853   0.375   6.480  1.8364  2.5522 -0.5330
32181SOL     OW 2378   1.835   5.741   8.861  0.5016  0.0135 -0.5670
32181SOL    HW1 2379   1.757   5.762   8.912  1.2330 -0.1302  0.6327
32181SOL    HW2 2380   1.809   5.666   8.807 -0.0506 -0.3359  0.1712
32182SOL     OW 2381   9.421   9.425  10.163  0.4994 -0.0024 -0.2064
32182SOL    HW1 2382   9.503   9.377  10.161  2.5112  3.0944  1.0502
32182SOL    HW2 2383   9.402   9.443  10.071  0.1898 -2.2169 -0.6343
32183SOL     OW 2384   3.102   5.318   4.105  0.1544 -0.2617  0.1621
32183SOL    HW1 2385   3.051   5.376   4.048  1.5548 -0.2698 -1.1631
32183SOL    HW2 2386   3.117   5.369   4.184 -0.8079  0.2129  0.0490
32184SOL     OW 2387   6.428   6.541   7.819  0.0865  0.6987 -0.0280
32184SOL    HW1 2388   6.501   6.479   7.812  1.4986  2.2060  0.7429
32184SOL    HW2 2389   6.400   6.555   7.728 -0.9352 -1.7453 -0.1817
32185SOL     OW 2390   0.015   2.099   8.703  0.0833 -0.2552  0.2927
32185SOL    HW1 2391  -0.060   2.091   8.644 -1.4720 -1.2690  2.2475
32185SOL    HW2 2392   0.090   2.114   8.646 -1.6169  0.9356 -1.7471
32186SOL     OW 2393   8.666   3.113   3.712 -0.4848 -0.2640 -0.9216
32186SOL    HW1 2394   8.703   3.192   3.752 -1.3602  0.6302 -1.8460
32186SOL    HW2 2395   8.620   3.069   3.784 -1.0708  0.7270 -0.6714
32187SOL     OW 2396   5.375   6.379   6.658  0.5774 -0.1227  0.1481
32187SOL    HW1 2397   5.362   6.387   6.752  1.0410  0.1531  0.1941
32187SOL    HW2 2398   5.467   6.403   6.644 -0.0402  2.0216 -0.6277
32188SOL     OW 2399   8.536   3.648   8.517  0.3363 -0.2035 -0.1773
32188SOL    HW1 2400   8.509   3.583   8.581  0.8851 -0.2862 -0.0301
32188SOL    HW2 2401   8.483   3.725   8.538  1.6251  0.3045  1.4005
32189SOL     OW 2402   5.604   7.397   4.066 -0.0956  0.0197 -0.4928
32189SOL    HW1 2403   5.684   7.349   4.088  1.3026  2.0977 -0.6980
32189SOL    HW2 2404   5.628   7.489   4.079 -2.4748  0.7127 -0.5924
32190SOL     OW 2405   5.183   0.325   0.726  0.1263  0.0461  0.1146
32190SOL    HW1 2406   5.163   0.312   0.633  1.0715 -2.4165  0.1780
32190SOL    HW2 2407   5.244   0.398   0.728  0.7085 -0.3758 -1.2983
32191SOL     OW 2408   7.098   6.856   1.819  0.7643 -0.0829 -0.5480
32191SOL    HW1 2409   7.171   6.818   1.867 -0.7898 -2.1770  0.3314
32191SOL    HW2 2410   7.020   6.830   1.868 -0.5826  2.9626 -0.8415
32192SOL     OW 2411  10.633   5.781   7.221 -0.1440 -0.1815 -0.1037
32192SOL    HW1 2412  10.649   5.723   7.294 -1.7439  0.1524  0.5660
32192SOL    HW2 2413  10.719   5.817   7.199  0.5301 -1.1353  0.8641
32193SOL     OW 2414   0.883   6.812   0.410 -0.6859 -0.0470 -0.3440
32193SOL    HW1 2415   0.817   6.879   0.423  0.5991  1.0757  0.6029
32193SOL    HW2 2416   0.868   6.780   0.321 -2.9772 -0.4108  0.1191
32194SOL     OW 2417   9.966   3.297   7.060 -0.4708 -0.0628 -0.6052
32194SOL    HW1 2418   9.906   3.372   7.061  0.1679  0.4533  0.5328
32194SOL    HW2 2419  10.030   3.319   6.992 -0.6701  0.1057 -0.7397
32195SOL     OW 2420   6.326   8.077   4.545 -0.4891 -0.3552  0.1411
32195SOL    HW1 2421   6.265   8.058   4.473 -2.0614 -3.9187  2.1758
32195SOL    HW2 2422   6.409   8.040   4.516 -0.5069  0.1976 -0.6727
32196SOL     OW 2423   0.822   2.097   2.835 -0.1379  0.1284 -0.5915
32196SOL    HW1 2424   0.859   2.170   2.885 -1.6490  1.3614 -1.1984
32196SOL    HW2 2425   0.850   2.113   2.745 -2.0020  1.0819 -1.0649
32197SOL     OW 2426   5.621   1.163   4.330 -0.1000 -0.6111  0.3549
32197SOL    HW1 2427   5.570   1.236   4.294 -1.6334 -2.1517 -0.7464
32197SOL    HW2 2428   5.556   1.104   4.369  1.0871 -1.4374  1.1627
32198SOL     OW 2429   6.532   6.774   6.262  0.1581 -0.2254 -0.1670
32198SOL    HW1 2430   6.585   6.697   6.241 -0.1860 -0.7354  0.7584
32198SOL    HW2 2431   6.464   6.775   6.196  1.8218  0.9862 -1.9595
32199SOL     OW 2432   6.248   7.312   8.009  0.1185  0.5776 -0.3565
32199SOL    HW1 2433   6.157   7.306   8.036  0.2444  1.2271  0.2671
32199SOL    HW2 2434   6.298   7.276   8.082  0.3546 -0.0130 -0.8010
32200SOL     OW 2435   1.456   2.605   1.877  0.1677 -0.0672 -0.2056
32200SOL    HW1 2436   1.455   2.683   1.933  0.4531 -2.9093  4.3505
32200SOL    HW2 2437   1.549   2.584   1.867  0.0868 -0.0048 -1.1158
32201SOL     OW 2438   8.083   8.320   1.070 -0.2216  0.2121 -0.5505
32201SOL    HW1 2439   8.064   8.404   1.113 -1.4718 -0.7251  0.8231
32201SOL    HW2 2440   8.073   8.255   1.139  1.8882 -1.0012 -1.2992
32202SOL     OW 2441  10.092   9.012   1.332  0.1360 -0.0242 -0.3689
32202SOL    HW1 2442  10.075   8.971   1.247  0.2850  1.4235 -1.1180
32202SOL    HW2 2443  10.051   9.098   1.325  3.9401  1.9690 -0.6697
32203SOL     OW 2444   3.843   7.577   7.773 -0.1277  0.1835 -0.0194
32203SOL    HW1 2445   3.768   7.591   7.831 -0.6463 -0.4065 -0.5438
32203SOL    HW2 2446   3.805   7.558   7.688  0.6352  1.2847 -0.6309
32204SOL     OW 2447   8.130   8.872   8.806  0.2724  0.4982 -0.0972
32204SOL    HW1 2448   8.171   8.819   8.875 -0.9684  0.5716  0.7497
32204SOL    HW2 2449   8.128   8.815   8.730  1.9913  0.5365 -0.1931
32205SOL     OW 2450   2.286   0.526   4.173 -0.0262 -0.3600 -0.1710
32205SOL    HW1 2451   2.254   0.610   4.142 -0.3497  0.1522  1.4777
32205SOL    HW2 2452   2.218   0.495   4.233  1.5636 -0.2103  1.8239
32206SOL     OW 2453   9.872   3.489   0.747  0.0230  0.1012  0.2260
32206SOL    HW1 2454   9.928   3.435   0.692 -2.4909 -0.7717 -1.6494
32206SOL    HW2 2455   9.810   3.530   0.687 -1.1104  1.3594  2.1215
32207SOL     OW 2456   3.392   0.636   4.775  0.3973 -0.2534  0.4157
32207SOL    HW1 2457   3.398   0.603   4.686 -0.0804 -3.4913  1.4386
32207SOL    HW2 2458   3.300   0.621   4.799  0.3893  1.0663  1.3024
32208SOL     OW 2459   2.802   4.851   5.235  0.4400  0.3885  0.3735
32208SOL    HW1 2460   2.819   4.924   5.175 -0.4083  0.0526 -0.3093
32208SOL    HW2 2461   2.707   4.855   5.251  0.2376 -1.0002 -0.2908
32209SOL     OW 2462   6.418   2.996  10.579 -0.2755 -0.2633 -0.3948
32209SOL    HW1 2463   6.360   3.070  10.557  0.7777  0.8379  0.4215
32209SOL    HW2 2464   6.445   3.013  10.669 -0.5829 -2.0573  0.0691
32210SOL     OW 2465   1.569   7.894   2.577 -0.0642  0.1988 -0.1454
32210SOL    HW1 2466   1.607   7.887   2.490  0.5767  1.6599 -0.0061
32210SOL    HW2 2467   1.572   7.805   2.612  1.7702 -0.0041 -0.7449
32211SOL     OW 2468   5.377   8.238   5.482  0.4301 -0.5475  0.2723
32211SOL    HW1 2469   5.317   8.168   5.508  1.2682 -1.0738  0.8740
32211SOL    HW2 2470   5.375   8.299   5.556 -1.2100  0.7131 -0.7628
32212SOL     OW 2471   7.598   9.830   9.159  0.3550  0.6923 -0.0998
32212SOL    HW1 2472   7.611   9.830   9.254  1.1680  2.6573 -0.1681
32212SOL    HW2 2473   7.606   9.738   9.134  1.6107  0.3007  1.5532
32213SOL     OW 2474   1.275   8.802   0.300 -0.4446  0.4168  0.3258
32213SOL    HW1 2475   1.342   8.797   0.368  1.2003  0.1257 -1.2323
32213SOL    HW2 2476   1.212   8.866   0.332  0.3397  0.3887  2.0333
32214SOL     OW 2477   9.022   3.822   2.502 -0.0251  0.0793  0.1758
32214SOL    HW1 2478   9.026   3.897   2.442 -1.0661  0.0673  0.0710
32214SOL    HW2 2479   9.096   3.767   2.477  1.2726  1.4749  0.8105
32215SOL     OW 2480  10.135   4.469   9.348  0.0317  0.2233  0.4729
32215SOL    HW1 2481  10.057   4.453   9.296  1.6763 -0.0428 -2.0429
32215SOL    HW2 2482  10.201   4.498   9.285  2.4153 -0.9879  2.2525
32216SOL     OW 2483  10.050   0.719  10.168  0.2803  0.1412  0.2051
32216SOL    HW1 2484  10.113   0.659  10.128  1.7552  0.5842  1.7251
32216SOL    HW2 2485  10.066   0.802  10.124  2.2054  0.7383  1.8552
32217SOL     OW 2486  10.359   7.733   4.044  0.3627 -0.1311  0.1270
32217SOL    HW1 2487  10.283   7.770   4.088 -0.9040 -1.5031 -0.8339
32217SOL    HW2 2488  10.416   7.704   4.115  0.2063  1.2712  0.8612
32218SOL     OW 2489   5.897   5.841   3.479  0.4449  0.0951 -0.0211
32218SOL    HW1 2490   5.820   5.824   3.534 -0.2115 -1.6445 -1.3682
32218SOL    HW2 2491   5.956   5.769   3.497  1.5234  1.0949  0.5360
32219SOL     OW 2492   4.712   1.933   7.723  0.1396  0.4955 -0.2855
32219SOL    HW1 2493   4.802   1.956   7.746  0.9859  0.1737 -2.8370
32219SOL    HW2 2494   4.703   1.963   7.632 -2.0367 -0.2661 -0.3693
32220SOL     OW 2495  10.551   3.918   0.344  0.2238  0.4615 -0.0095
32220SOL    HW1 2496  10.526   3.928   0.252  2.8151  3.6104 -0.5602
32220SOL    HW2 2497  10.475   3.951   0.392 -0.9968 -0.8085 -0.9787
32221SOL     OW 2498   6.131   5.890   0.651 -0.4074  0.0210 -0.6726
32221SOL    HW1 2499   6.041   5.918   0.669 -0.7304 -0.3254 -1.6582
32221SOL    HW2 2500   6.127   5.794   0.654  0.1702  0.0202  0.3430
32222SOL     OW 2501   7.398   2.924   5.443  0.4212 -0.0867  0.5069
32222SOL    HW1 2502   7.358   2.843   5.411 -0.5664 -0.0297  1.5315
32222SOL    HW2 2503   7.349   2.946   5.522  2.4627  0.0171  1.8421
32223SOL     OW 2504   5.724   5.883   7.351  0.1487  1.2113 -0.4746
32223SOL    HW1 2505   5.779   5.862   7.275 -0.1885 -0.0465 -0.3902
32223SOL    HW2 2506   5.785   5.918   7.416  0.4561  2.2227 -1.2756
32224SOL     OW 2507   7.820   8.604   8.129  0.2515  0.8748  0.1434
32224SOL    HW1 2508   7.764   8.665   8.177 -0.1537 -0.2408  1.1657
32224SOL    HW2 2509   7.760   8.534   8.102  0.6904  0.9419 -1.0532
32225SOL     OW 2510   8.010   9.467   1.217  0.4019 -0.0965 -0.1537
32225SOL    HW1 2511   7.971   9.409   1.151 -0.7113  1.3967 -0.8795
32225SOL    HW2 2512   7.960   9.450   1.297  0.3783 -0.4474 -0.2421
32226SOL     OW 2513   2.475   5.176   7.453  0.4615  0.4013  0.2318
32226SOL    HW1 2514   2.402   5.158   7.513 -0.8162  0.6981 -1.1541
32226SOL    HW2 2515   2.463   5.112   7.382  2.3600 -0.4255  0.6043
32227SOL     OW 2516   7.577   1.223   8.166 -0.0704 -0.2326  0.3476
32227SOL    HW1 2517   7.662   1.238   8.124  0.3712 -0.8973  0.9784
32227SOL    HW2 2518   7.521   1.292   8.131  1.1983  1.3378  1.2612
32228SOL     OW 2519   2.993   6.957   8.861 -0.3353  0.1616  0.0196
32228SOL    HW1 2520   3.084   6.986   8.859 -0.1034 -0.4311  1.2179
32228SOL    HW2 2521   2.998   6.862   8.854 -0.9816  0.2249 -1.7879
32229SOL     OW 2522   4.596   9.319   7.361  0.3876 -0.3987  0.0849
32229SOL    HW1 2523   4.630   9.386   7.420  0.5350 -0.3797 -0.0216
32229SOL    HW2 2524   4.633   9.237   7.393 -1.8980 -0.8205  1.8703
32230SOL     OW 2525   3.141   2.266   5.434  0.3788 -0.4433 -0.2293
32230SOL    HW1 2526   3.174   2.278   5.523  0.0855 -0.4681 -0.1156
32230SOL    HW2 2527   3.102   2.178   5.435 -2.0562  0.5747  0.3883
32231SOL     OW 2528   4.115   2.361   1.818 -0.1381  0.3336  0.3930
32231SOL    HW1 2529   4.054   2.338   1.888 -0.2523  0.2349  0.2641
32231SOL    HW2 2530   4.064   2.348   1.738 -0.4177  1.6708  0.3321
32232SOL     OW 2531   1.325   1.615   9.914  0.4201 -0.3211 -0.2863
32232SOL    HW1 2532   1.252   1.562   9.880  1.9000 -2.8831  0.2448
32232SOL    HW2 2533   1.384   1.626   9.839 -0.0170  0.9176 -0.4721
32233SOL     OW 2534   0.953   7.444   7.853 -0.3901  0.3873 -0.5615
32233SOL    HW1 2535   0.932   7.505   7.782  1.9253  2.0877  0.1132
32233SOL    HW2 2536   0.907   7.479   7.929  0.0457  0.6837 -0.4282
32234SOL     OW 2537   4.820   9.449   0.503 -0.1715 -0.0454  0.0232
32234SOL    HW1 2538   4.777   9.532   0.481 -1.0870 -0.4825  0.1144
32234SOL    HW2 2539   4.753   9.382   0.488  0.1539 -0.6526  1.1409
32235SOL     OW 2540   3.968  10.180   8.428  0.0456  0.0003  0.3357
32235SOL    HW1 2541   3.982  10.198   8.334  1.9797  0.1837  0.6049
32235SOL    HW2 2542   3.946  10.087   8.432  1.0997 -0.2989 -0.2447
32236SOL     OW 2543   1.882   0.701   6.638 -0.1178 -0.2350 -0.4279
32236SOL    HW1 2544   1.974   0.679   6.624  0.2479 -0.0523  1.4204
32236SOL    HW2 2545   1.852   0.736   6.554  1.8148  0.8028 -0.7368
32237SOL     OW 2546   6.906   3.376   0.870  0.3534 -0.1406 -0.2664
32237SOL    HW1 2547   6.941   3.450   0.821  0.5979  1.4551  2.1595
32237SOL    HW2 2548   6.811   3.387   0.866  0.1213 -2.0384 -3.2024
32238SOL     OW 2549   4.153   6.352  10.674  0.3437 -0.1079  0.9920
32238SOL    HW1 2550   4.172   6.275  10.620 -1.3688  0.0102  0.1262
32238SOL    HW2 2551   4.228   6.360  10.733  0.2693 -2.8208  1.5682
32239SOL     OW 2552   3.485   0.152   8.861  0.2288 -0.3352 -0.3086
32239SOL    HW1 2553   3.558   0.204   8.827 -0.8405  0.4832 -1.4629
32239SOL    HW2 2554   3.456   0.100   8.785 -1.7101  0.9367 -0.5325
32240SOL     OW 2555   5.628   9.108   8.316 -0.1368  0.5492 -0.2206
32240SOL    HW1 2556   5.582   9.098   8.400 -0.6179  0.5192 -0.4817
32240SOL    HW2 2557   5.717   9.132   8.340 -0.6983  2.3430  0.2856
32241SOL     OW 2558   6.677  10.422  10.646 -0.6858 -0.2338  0.5188
32241SOL    HW1 2559   6.672  10.491  10.712 -0.3225  0.5663 -0.2740
32241SOL    HW2 2560   6.694  10.468  10.564 -1.2261 -1.2014 -0.1595
32242SOL     OW 2561   4.195   9.213   3.646 -0.0104  0.5923 -0.1875
32242SOL    HW1 2562   4.272   9.157   3.658 -0.2638  0.7957  3.7177
32242SOL    HW2 2563   4.122   9.151   3.635  0.1415  0.2022  0.8622
32243SOL     OW 2564   3.497   6.333   7.428 -0.1069 -0.3039  0.2429
32243SOL    HW1 2565   3.403   6.327   7.447  0.0133  1.6586  1.6784
32243SOL    HW2 2566   3.534   6.254   7.468 -0.9620 -0.3686  0.9491
32244SOL     OW 2567   8.125   2.593   6.511 -0.0044 -0.0996 -0.2055
32244SOL    HW1 2568   8.116   2.499   6.499  0.4145 -0.2743  0.8096
32244SOL    HW2 2569   8.204   2.616   6.462 -1.6259  0.2285 -2.8670
32245SOL     OW 2570   5.284   3.351   8.371  0.0215 -0.0355 -0.1585
32245SOL    HW1 2571   5.259   3.272   8.419  0.5693 -0.3597 -0.4014
32245SOL    HW2 2572   5.360   3.385   8.418  1.0488 -0.7841 -1.2137
32246SOL     OW 2573   0.218   2.851   6.786 -0.4053  0.1409 -0.0957
32246SOL    HW1 2574   0.192   2.866   6.877  2.2634  1.7755  0.5110
32246SOL    HW2 2575   0.140   2.874   6.735 -2.2299 -1.5439  1.7126
32247SOL     OW 2576  10.093   1.078   7.784 -0.1509 -0.2670  0.0036
32247SOL    HW1 2577  10.172   1.062   7.836  0.3044  0.4966 -0.4243
32247SOL    HW2 2578  10.126   1.112   7.701 -0.9467  0.6231  0.0372
32248SOL     OW 2579   6.786   4.255   2.595 -0.0875 -0.2134 -0.3285
32248SOL    HW1 2580   6.817   4.336   2.634 -1.2878 -0.5318  1.3727
32248SOL    HW2 2581   6.697   4.243   2.628 -0.3499 -1.6753 -1.4051
32249SOL     OW 2582   5.515   7.937   8.232 -0.3847 -0.2304 -0.3856
32249SOL    HW1 2583   5.490   7.953   8.141 -1.6417  2.9337  0.3717
32249SOL    HW2 2584   5.431   7.926   8.278  0.1622 -0.4230  0.5807
32250SOL     OW 2585   2.300   7.729  10.452 -0.0642 -0.5949  0.5782
32250SOL    HW1 2586   2.384   7.706  10.492 -0.2174  2.8749  3.3267
32250SOL    HW2 2587   2.324   7.788  10.380 -0.1091 -0.5460  0.6037
32251SOL     OW 2588   6.135  10.702   5.038 -0.4517 -0.8445  0.1221
32251SOL    HW1 2589   6.203  10.739   4.983  0.2720 -1.9512  0.2273
32251SOL    HW2 2590   6.152  10.607   5.037 -2.1886 -1.1892 -0.1130
32252SOL     OW 2591   4.047   5.912   7.237 -0.4355  0.0354  0.5394
32252SOL    HW1 2592   4.084   5.870   7.314 -1.8395 -2.1014  0.1325
32252SOL    HW2 2593   4.097   5.876   7.164 -2.6191 -2.2522  0.0557
32253SOL     OW 2594   7.626   9.424   4.294 -0.3007 -0.0222 -0.1020
32253SOL    HW1 2595   7.581   9.359   4.240 -1.0175  1.3903 -1.2712
32253SOL    HW2 2596   7.606   9.399   4.384 -0.1770 -1.6622 -0.5003
32254SOL     OW 2597   0.640   2.229   1.947  1.2699 -0.2678 -0.4586
32254SOL    HW1 2598   0.710   2.167   1.928  0.4984 -2.3108  2.5212
32254SOL    HW2 2599   0.561   2.175   1.951 -0.1263  1.5833 -1.3687
32255SOL     OW 2600   4.378   6.948   9.766  0.8722  0.1857  0.4828
32255SOL    HW1 2601   4.336   6.980   9.686 -2.9938 -1.9195  1.4202
32255SOL    HW2 2602   4.398   7.027   9.816 -0.8749  1.4233 -0.6538
32256SOL     OW 2603   6.086   7.966   5.721 -0.4263 -0.1918 -0.0820
32256SOL    HW1 2604   6.003   7.991   5.680 -0.1746 -1.3049 -1.3330
32256SOL    HW2 2605   6.144   8.040   5.703 -0.3789 -0.5722 -1.6136
32257SOL     OW 2606   5.611   2.103   5.169  0.2361  1.2130  0.1756
32257SOL    HW1 2607   5.690   2.123   5.220 -0.6035  0.8860  1.6513
32257SOL    HW2 2608   5.570   2.031   5.216  0.0761  0.0221 -1.6920
32258SOL     OW 2609   3.713   0.683   6.477  0.6448  0.2837  0.2321
32258SOL    HW1 2610   3.653   0.610   6.463 -0.7702  1.2808  0.9161
32258SOL    HW2 2611   3.677   0.754   6.424  2.3024  0.3803 -0.8540
32259SOL     OW 2612   8.020   8.542   9.428  0.8098 -0.0018 -0.0173
32259SOL    HW1 2613   8.055   8.629   9.449  2.1363 -1.0757  2.8600
32259SOL    HW2 2614   8.088   8.501   9.374  0.9154  0.2248 -0.0570
32260SOL     OW 2615   6.686   5.658   5.708  0.0890  0.6503 -0.8599
32260SOL    HW1 2616   6.635   5.689   5.782  2.0520  1.9321  0.0603
32260SOL    HW2 2617   6.643   5.696   5.631 -1.3904  0.1413 -0.3021
32261SOL     OW 2618   0.950   0.783   2.531 -0.2005  0.0198  0.3458
32261SOL    HW1 2619   1.013   0.835   2.481 -0.2801 -1.5673 -1.5254
32261SOL    HW2 2620   0.885   0.755   2.466  0.4013 -3.2240  0.9651
32262SOL     OW 2621   8.134   9.495   1.904  0.0228 -0.5140 -0.0831
32262SOL    HW1 2622   8.052   9.534   1.872  0.6590  0.9312 -0.0463
32262SOL    HW2 2623   8.193   9.570   1.913  1.7321 -1.6733 -1.2063
32263SOL     OW 2624   4.491   1.707   4.631  0.4778  0.3753  0.1707
32263SOL    HW1 2625   4.554   1.711   4.559  1.8016 -3.5217  0.9020
32263SOL    HW2 2626   4.534   1.755   4.702  1.6869 -0.3732 -0.0180
32264SOL     OW 2627   0.741   4.844   4.128 -0.1674 -0.5800 -0.2865
32264SOL    HW1 2628   0.802   4.791   4.077  2.1791  1.8803 -0.2646
32264SOL    HW2 2629   0.760   4.820   4.219 -1.4849 -2.0262 -0.3548
32265SOL     OW 2630   9.199   4.580   0.996 -0.7136  0.3954 -0.5129
32265SOL    HW1 2631   9.250   4.564   0.917 -1.4126  1.9930 -1.3296
32265SOL    HW2 2632   9.212   4.673   1.015 -0.1571 -0.0446  1.5782
32266SOL     OW 2633   8.499   3.482   1.232 -0.1639 -0.3064  0.5338
32266SOL    HW1 2634   8.587   3.519   1.227 -0.5913  0.6167 -0.7432
32266SOL    HW2 2635   8.463   3.518   1.313  0.8885 -1.3556  1.5095
32267SOL     OW 2636   0.047   7.460   0.105 -0.3200 -0.3469 -0.1417
32267SOL    HW1 2637   0.061   7.369   0.080  1.4615  0.7772 -4.0581
32267SOL    HW2 2638   0.127   7.485   0.150 -0.4064 -0.4814  0.0858
32268SOL     OW 2639   9.966   8.292   7.531 -0.3883  0.2697 -0.3173
32268SOL    HW1 2640   9.986   8.384   7.547 -2.3312  0.7174 -0.2501
32268SOL    HW2 2641   9.947   8.287   7.437 -5.2064  1.0693  0.3898
32269SOL     OW 2642   3.423   9.379   9.768 -0.4767  0.0906  0.0889
32269SOL    HW1 2643   3.436   9.336   9.853  0.6363 -0.5126 -0.3659
32269SOL    HW2 2644   3.365   9.319   9.720 -0.2219 -0.1109  0.0311
32270SOL     OW 2645   1.230   0.135   7.801  0.0218  0.6405 -0.4953
32270SOL    HW1 2646   1.289   0.187   7.856 -0.2740  1.1040 -0.6041
32270SOL    HW2 2647   1.278   0.055   7.782 -0.7087 -0.6417  2.3909
32271SOL     OW 2648   7.828   8.831   1.515 -0.1553  0.4385  0.4692
32271SOL    HW1 2649   7.878   8.808   1.436 -1.7267 -2.0150  0.0903
32271SOL    HW2 2650   7.877   8.792   1.587 -0.6073 -0.5199  0.2744
32272SOL     OW 2651   8.857   2.054   6.719  0.6014 -0.0407  0.6625
32272SOL    HW1 2652   8.792   2.125   6.722 -0.5782 -1.0869  3.8410
32272SOL    HW2 2653   8.805   1.974   6.718  1.8527 -0.9043  1.6048
32273SOL     OW 2654   4.987   4.184  10.098  0.4858 -0.4076  0.2410
32273SOL    HW1 2655   4.997   4.265  10.149  1.3207 -1.9983  2.7972
32273SOL    HW2 2656   5.073   4.170  10.060 -0.1013  0.7056 -1.6305
32274SOL     OW 2657   8.393   3.405   5.746 -0.1035 -0.7004 -0.6646
32274SOL    HW1 2658   8.459   3.352   5.701 -0.7327 -2.2767  0.1631
32274SOL    HW2 2659   8.380   3.360   5.830 -2.2743 -0.5158 -0.8431
32275SOL     OW 2660   5.433   6.607   8.365 -0.1250 -0.6903  0.2665
32275SOL    HW1 2661   5.510   6.601   8.422  0.6844  1.2844 -0.5299
32275SOL    HW2 2662   5.468   6.600   8.277 -0.9801 -0.5038 -0.0940
32276SOL     OW 2663   2.673   0.364   5.171  0.0269  1.0588 -0.1723
32276SOL    HW1 2664   2.667   0.288   5.229  2.0344  0.9447 -0.0456
32276SOL    HW2 2665   2.689   0.438   5.229  2.2662  0.9132 -0.4957
32277SOL     OW 2666   7.642   4.842   3.107  0.2706 -0.3223  0.4481
32277SOL    HW1 2667   7.724   4.815   3.147 -0.0047 -0.5968  0.8272
32277SOL    HW2 2668   7.636   4.789   3.027 -0.5079 -1.7723  1.4288
32278SOL     OW 2669   9.410   8.999   4.520 -0.0148  0.0920  0.1788
32278SOL    HW1 2670   9.418   9.086   4.482  0.6555  1.4493  3.1464
32278SOL    HW2 2671   9.361   9.012   4.601  1.5822 -1.9716  1.5937
32279SOL     OW 2672  10.712   4.734   2.755  0.3907  0.5029 -0.1098
32279SOL    HW1 2673  10.643   4.708   2.816  0.9355  2.0988  1.2693
32279SOL    HW2 2674  10.711   4.666   2.687 -0.0890 -1.5040  1.7759
32280SOL     OW 2675   6.685   9.584   5.530  0.0709  0.1980 -0.8505
32280SOL    HW1 2676   6.745   9.658   5.523 -0.9781  1.1210 -0.3454
32280SOL    HW2 2677   6.643   9.579   5.444  0.0545  0.2558 -0.8460
32281SOL     OW 2678   7.056   0.308   7.185  0.2372  0.5869  0.2989
32281SOL    HW1 2679   7.010   0.226   7.203 -0.1393  1.1120  1.9043
32281SOL    HW2 2680   7.139   0.280   7.145  0.2805 -0.6118  1.1666
32282SOL     OW 2681   0.158   0.220   2.492  0.5415 -0.4089 -0.0372
32282SOL    HW1 2682   0.239   0.271   2.502  0.3125 -0.1489  0.5692
32282SOL    HW2 2683   0.089   0.286   2.487  0.0653 -0.6213  2.3216
32283SOL     OW 2684   5.898   1.107   8.971 -0.0179  0.3260  0.1173
32283SOL    HW1 2685   5.903   1.109   9.067 -2.0001 -0.8041  0.2881
32283SOL    HW2 2686   5.859   1.191   8.947  0.1206  0.4497  0.3176
32284SOL     OW 2687   9.550   3.002   0.870 -0.4080 -0.5422 -0.1186
32284SOL    HW1 2688   9.534   3.003   0.776  3.4514 -2.0380 -0.9936
32284SOL    HW2 2689   9.591   3.087   0.888 -2.2242  0.2408  0.5421
32285SOL     OW 2690   3.214   7.749   1.907 -0.1010  0.2909 -0.7753
32285SOL    HW1 2691   3.287   7.720   1.962 -1.1973 -1.7326 -0.2913
32285SOL    HW2 2692   3.235   7.717   1.819  0.0210  0.5347 -0.8373
32286SOL     OW 2693   0.203  10.001   5.812 -0.2174  0.1721 -0.0978
32286SOL    HW1 2694   0.172   9.946   5.884  0.4441 -0.5083 -0.3083
32286SOL    HW2 2695   0.172   9.956   5.733  0.5603 -0.0679 -0.2809
32287SOL     OW 2696   7.775   2.915   4.126 -0.6042 -0.2529  0.2292
32287SOL    HW1 2697   7.730   2.961   4.196  0.7129  0.2112  0.8055
32287SOL    HW2 2698   7.868   2.920   4.150  0.1262  1.7219 -2.5680
32288SOL     OW 2699   2.539   2.467   5.672  0.6272  0.4652  0.5191
32288SOL    HW1 2700   2.485   2.528   5.724  0.9917 -0.8994  2.6407
32288SOL    HW2 2701   2.596   2.426   5.737  0.7839 -1.7022 -0.9130
32289SOL     OW 2702   7.050   1.577   6.602 -0.2924  0.1848 -0.2414
32289SOL    HW1 2703   7.022   1.550   6.690  0.5640  1.0939  0.3237
32289SOL    HW2 2704   7.126   1.633   6.616 -1.3258  1.9923 -1.4351
32290SOL     OW 2705   3.429   5.034   5.989  0.2125  0.2302 -0.4989
32290SOL    HW1 2706   3.404   5.059   6.078 -1.4590  0.3513 -0.9729
32290SOL    HW2 2707   3.408   5.110   5.935 -0.1256 -0.3494 -1.2048
32291SOL     OW 2708   5.738   2.936   8.051  0.6195 -0.1753  0.0671
32291SOL    HW1 2709   5.688   3.014   8.029 -0.2148 -0.7299 -0.0524
32291SOL    HW2 2710   5.685   2.891   8.116  0.6260 -1.1125 -0.5515
32292SOL     OW 2711   6.698   6.745   3.368  0.4335  0.0142 -0.3863
32292SOL    HW1 2712   6.684   6.734   3.462  0.7405  2.2570 -0.0028
32292SOL    HW2 2713   6.654   6.671   3.327 -1.2306 -0.0703  1.4415
32293SOL     OW 2714  10.718   9.561   0.410 -0.3530 -0.6658 -0.1325
32293SOL    HW1 2715  10.673   9.481   0.438  0.2767 -1.3592 -1.0503
32293SOL    HW2 2716  10.805   9.555   0.451 -0.7202  0.1702  0.8063
32294SOL     OW 2717   5.780   0.165  10.098 -0.0955  0.2938  0.1526
32294SOL    HW1 2718   5.710   0.105  10.070  0.9954 -1.5547  1.1526
32294SOL    HW2 2719   5.835   0.175  10.020  0.2952 -0.9509  0.2302
32295SOL     OW 2720   4.321   4.885   3.870  0.0982  0.0943  0.1935
32295SOL    HW1 2721   4.353   4.960   3.818  0.8029 -0.7493 -0.6243
32295SOL    HW2 2722   4.236   4.864   3.831  0.7740 -0.7474 -0.8860
32296SOL     OW 2723   6.743   9.115   8.705  0.1019  0.1802  0.1539
32296SOL    HW1 2724   6.813   9.176   8.731  0.1234 -0.2390  1.1304
32296SOL    HW2 2725   6.703   9.156   8.629  1.5497  0.3194 -0.5654
32297SOL     OW 2726   0.670   5.178   8.779  0.0809 -0.3041 -0.1509
32297SOL    HW1 2727   0.601   5.241   8.800 -0.5554 -0.6849 -1.0386
32297SOL    HW2 2728   0.623   5.101   8.747  0.9065 -0.7413 -0.3346
32298SOL     OW 2729   3.051  10.087   3.428 -0.5079 -0.2513 -0.3810
32298SOL    HW1 2730   2.986  10.081   3.358 -2.0848  1.5126  0.8306
32298SOL    HW2 2731   3.004  10.058   3.506  0.1720  0.9447  0.5101
32299SOL     OW 2732   7.903   9.035   5.073  0.1902  0.3631 -0.1182
32299SOL    HW1 2733   7.895   8.991   5.158  2.4871 -0.3789 -0.2048
32299SOL    HW2 2734   7.972   9.100   5.086 -0.4614  1.2753 -1.0484
32300SOL     OW 2735   5.948   5.091   9.248  0.0047  0.1107 -0.0038
32300SOL    HW1 2736   6.017   5.061   9.307  2.1340  0.6800 -2.0481
32300SOL    HW2 2737   5.880   5.023   9.253  1.1725 -1.0105  1.2935
32301SOL     OW 2738   4.528   0.762   0.491  0.1722 -0.1298  0.8230
32301SOL    HW1 2739   4.578   0.844   0.500 -0.7737  0.4814  0.6939
32301SOL    HW2 2740   4.582   0.708   0.433 -0.6347  1.6752 -1.8471
32302SOL     OW 2741   4.697   3.397   5.279 -0.2877  0.4427  0.5066
32302SOL    HW1 2742   4.686   3.419   5.186 -0.4482  0.9730  0.6463
32302SOL    HW2 2743   4.646   3.464   5.325 -1.9723 -1.0377  0.8931
32303SOL     OW 2744   0.053   8.802   9.989  0.1719  0.7740 -0.1008
32303SOL    HW1 2745   0.049   8.716   9.947 -0.6502  0.2493  0.9927
32303SOL    HW2 2746   0.078   8.784  10.079  0.9038  1.7820 -0.0856
32304SOL     OW 2747   5.327   3.632   3.623  0.7575  0.0891  0.1845
32304SOL    HW1 2748   5.261   3.701   3.614  0.2881 -0.1819  1.3962
32304SOL    HW2 2749   5.393   3.669   3.682  0.9668 -0.1784  0.1203
32305SOL     OW 2750   7.419   1.327   1.053 -0.4089 -0.0819 -0.4566
32305SOL    HW1 2751   7.339   1.276   1.067 -1.1343  1.2447  0.5211
32305SOL    HW2 2752   7.469   1.315   1.133 -1.0984  1.5481  0.2732
32306SOL     OW 2753   3.248   5.607   3.221 -0.2183 -0.0390  0.1707
32306SOL    HW1 2754   3.338   5.623   3.249 -0.4946  0.6830  0.6709
32306SOL    HW2 2755   3.241   5.651   3.136  0.3006 -1.3064 -0.5583
32307SOL     OW 2756   9.299   8.227   0.686  0.0038  0.1608  0.3073
32307SOL    HW1 2757   9.215   8.215   0.642  0.8087 -2.0112 -0.8374
32307SOL    HW2 2758   9.286   8.188   0.773  0.2610 -1.8681 -0.5042
32308SOL     OW 2759   4.304   5.708   0.266  0.0678 -0.6799  0.0898
32308SOL    HW1 2760   4.248   5.646   0.313 -0.9862  1.0229  1.1988
32308SOL    HW2 2761   4.282   5.794   0.304  0.3733  0.5821 -2.3881
32309SOL     OW 2762   3.394   1.185   9.835  0.3420 -0.2685 -0.6431
32309SOL    HW1 2763   3.459   1.119   9.811 -0.1492 -0.5934 -1.1018
32309SOL    HW2 2764   3.311   1.148   9.807 -0.4219 -1.0652  2.2958
32310SOL     OW 2765   9.540   0.141   5.028 -0.2212 -0.3255  0.0011
32310SOL    HW1 2766   9.565   0.052   5.054 -2.9107 -1.4095 -0.7606
32310SOL    HW2 2767   9.547   0.142   4.933  0.9066  0.6801  0.0790
32311SOL     OW 2768   0.759   6.672   9.148 -0.1052  0.4327  0.1148
32311SOL    HW1 2769   0.705   6.725   9.205 -0.4175  0.3190 -0.0754
32311SOL    HW2 2770   0.829   6.639   9.205  1.2842  2.6648 -0.1481
32312SOL     OW 2771   9.232   6.891   2.941 -0.6469 -0.4286  0.2024
32312SOL    HW1 2772   9.190   6.976   2.958 -0.5412 -0.1059 -1.0622
32312SOL    HW2 2773   9.313   6.913   2.896  0.2300 -1.1314  1.3938
32313SOL     OW 2774   2.730   5.243   5.917 -0.1967  0.0376 -0.0070
32313SOL    HW1 2775   2.683   5.170   5.875 -0.7407  1.1449 -1.4058
32313SOL    HW2 2776   2.703   5.239   6.008 -0.8437 -1.0353 -0.2209
32314SOL     OW 2777   9.134   7.751   6.683  0.2607 -0.3024 -0.0469
32314SOL    HW1 2778   9.071   7.799   6.736  2.1516  0.4855  1.5984
32314SOL    HW2 2779   9.184   7.818   6.638  0.6100 -0.8780 -0.5388
32315SOL     OW 2780   1.290   8.838  10.465 -0.1081 -0.1049 -0.6978
32315SOL    HW1 2781   1.234   8.893  10.519  1.6243  1.7390 -0.6357
32315SOL    HW2 2782   1.244   8.754  10.458 -3.0765  1.4453 -1.1198
32316SOL     OW 2783   5.938   4.884   0.494  0.1356  0.0424 -0.0943
32316SOL    HW1 2784   5.851   4.877   0.533 -0.1249 -3.0997 -0.9653
32316SOL    HW2 2785   5.925   4.860   0.402  1.5056  2.5408 -1.0540
32317SOL     OW 2786   5.970   0.706   4.927  0.1619  0.1122  0.0495
32317SOL    HW1 2787   5.916   0.645   4.978  0.9728  0.8172  1.8387
32317SOL    HW2 2788   5.972   0.786   4.980  2.1654  0.4311 -0.4283
32318SOL     OW 2789   4.836   5.973   6.103  0.3092 -0.3527  0.3655
32318SOL    HW1 2790   4.789   6.038   6.155 -0.3675 -0.7701  0.2802
32318SOL    HW2 2791   4.802   5.984   6.014  1.4792  0.3763 -0.0169
32319SOL     OW 2792   9.670  10.684   4.703 -0.1182  0.0152 -0.4218
32319SOL    HW1 2793   9.755  10.724   4.723 -0.8407  1.1987  0.4236
32319SOL    HW2 2794   9.659  10.616   4.770  1.0998 -1.6671 -1.8423
32320SOL     OW 2795   9.663   0.706   6.167  0.1538  0.1790  0.1923
32320SOL    HW1 2796   9.745   0.672   6.204  0.4325 -0.3732 -0.8725
32320SOL    HW2 2797   9.645   0.648   6.093  0.3361  1.9871 -1.3490
32321SOL     OW 2798   1.883   6.843   1.542  0.3075 -0.2330 -0.1227
32321SOL    HW1 2799   1.915   6.753   1.531  0.2607 -0.2974  0.2360
32321SOL    HW2 2800   1.792   6.839   1.515 -0.0265 -0.5631  0.9798
32322SOL     OW 2801   0.186   8.261   2.599 -0.1390  0.0124 -0.7190
32322SOL    HW1 2802   0.120   8.254   2.531  0.7392  1.5266 -1.7922
32322SOL    HW2 2803   0.141   8.305   2.671 -1.3903 -2.5817  0.2226
32323SOL     OW 2804   0.073   0.546  10.267  0.2649  0.4373 -0.0680
32323SOL    HW1 2805   0.005   0.577  10.207 -0.7321 -0.4409  0.5638
32323SOL    HW2 2806   0.033   0.470  10.310  1.2304  0.5955  1.1468
32324SOL     OW 2807   5.951   4.714   7.561 -0.4062  0.1207 -0.0831
32324SOL    HW1 2808   5.902   4.712   7.479 -1.1439 -0.2724  0.3567
32324SOL    HW2 2809   5.889   4.748   7.626 -0.3920 -1.1636  0.6535
32325SOL     OW 2810   1.280   1.681   6.388 -0.1088 -0.2792 -0.4176
32325SOL    HW1 2811   1.310   1.673   6.297  2.7761 -0.5534  0.4807
32325SOL    HW2 2812   1.264   1.774   6.400  0.6965 -0.0751 -0.8701
32326SOL     OW 2813   2.234   3.273   4.482  0.0656  0.0273  0.3229
32326SOL    HW1 2814   2.261   3.285   4.391 -1.1347 -2.5142 -0.4650
32326SOL    HW2 2815   2.150   3.227   4.476  0.4943 -1.1968  2.7306
32327SOL     OW 2816   7.719   8.967   7.201 -0.6931 -0.0432 -0.3907
32327SOL    HW1 2817   7.661   8.935   7.133 -1.4964 -1.2524  0.8301
32327SOL    HW2 2818   7.696   9.060   7.211 -3.3947 -0.7576  0.9526
32328SOL     OW 2819   4.308   9.005  10.445 -0.3861  0.5884 -0.1026
32328SOL    HW1 2820   4.219   9.025  10.417 -0.2378  0.7650 -0.4528
32328SOL    HW2 2821   4.360   9.079  10.414 -0.2604  0.9380  0.8851
32329SOL     OW 2822   2.647   8.378   8.117  0.2446 -0.7381 -0.6371
32329SOL    HW1 2823   2.552   8.373   8.126 -0.1587  1.5901 -2.6461
32329SOL    HW2 2824   2.675   8.432   8.191 -0.0197 -1.2395 -0.1689
32330SOL     OW 2825   3.972   9.837   3.938  0.5248 -0.4755 -0.1208
32330SOL    HW1 2826   3.952   9.745   3.954  0.2780 -0.5255 -0.6796
32330SOL    HW2 2827   4.025   9.837   3.858 -0.7683 -0.0466 -1.0333
32331SOL     OW 2828   6.730   0.820   9.926  0.0897  0.4355  0.4497
32331SOL    HW1 2829   6.803   0.834   9.987  1.9535  1.9791 -1.9591
32331SOL    HW2 2830   6.732   0.896   9.868 -1.9108 -0.7045 -1.2382
32332SOL     OW 2831   7.752   3.331   8.720 -0.5884  0.1401  0.9221
32332SOL    HW1 2832   7.843   3.344   8.694 -0.0990 -1.4530  1.7028
32332SOL    HW2 2833   7.720   3.419   8.739  0.9682  0.6807  1.2247
32333SOL     OW 2834   6.825   1.387   8.415  0.2942 -0.5768 -0.0704
32333SOL    HW1 2835   6.783   1.345   8.340 -0.3635 -0.1871  0.0683
32333SOL    HW2 2836   6.756   1.442   8.453  0.8104 -0.2646  0.4268
32334SOL     OW 2837   7.426   7.042   2.129  0.5519  0.1833 -0.0565
32334SOL    HW1 2838   7.519   7.023   2.138  0.1768 -1.6585  0.4080
32334SOL    HW2 2839   7.419   7.091   2.047  1.9161  0.3079 -0.1196
32335SOL     OW 2840   9.652   5.687   1.283  0.1174 -0.1014 -0.3686
32335SOL    HW1 2841   9.671   5.692   1.190 -0.2118  0.0534 -0.4282
32335SOL    HW2 2842   9.593   5.760   1.300  2.2461  1.5254  0.4720
32336SOL     OW 2843   4.122   7.705   6.786  0.1625 -0.7123  0.4913
32336SOL    HW1 2844   4.148   7.781   6.838 -2.2160 -0.0633  0.8793
32336SOL    HW2 2845   4.140   7.730   6.695  2.1338 -0.9024  0.7988
32337SOL     OW 2846   7.667   5.391  10.597  0.3322  0.1007 -0.4107
32337SOL    HW1 2847   7.677   5.389  10.502  0.4134  0.3608 -0.4087
32337SOL    HW2 2848   7.613   5.468  10.614 -1.2933 -1.0026 -0.3824
32338SOL     OW 2849   5.756   3.357   9.688 -0.1592  0.3322 -0.4975
32338SOL    HW1 2850   5.758   3.319   9.601 -0.5966  1.7231 -1.1414
32338SOL    HW2 2851   5.846   3.384   9.705  0.5046 -2.2116  0.5899
32339SOL     OW 2852   2.284   2.822   3.811 -0.2166 -0.5000 -0.1921
32339SOL    HW1 2853   2.267   2.761   3.739 -0.4989 -2.3262  1.3307
32339SOL    HW2 2854   2.280   2.767   3.890  1.1915  1.1951  1.1443
32340SOL     OW 2855   7.393   9.979   2.806  0.0535 -0.7762 -0.6485
32340SOL    HW1 2856   7.348  10.018   2.881  0.6578  0.3159 -0.8168
32340SOL    HW2 2857   7.323   9.954   2.745 -0.4660  3.8786 -2.4113
32341SOL     OW 2858   0.857   7.950   4.858 -0.0950 -0.2241 -0.4719
32341SOL    HW1 2859   0.812   8.033   4.847  3.0261  1.7704  0.5222
32341SOL    HW2 2860   0.921   7.947   4.787 -0.7252 -2.2836 -1.0341
32342SOL     OW 2861   1.969   3.437   1.994  0.1443 -0.5996 -0.1176
32342SOL    HW1 2862   1.883   3.402   2.016 -0.4928  1.5088  0.9681
32342SOL    HW2 2863   2.015   3.444   2.077  1.5958 -2.1542 -0.7349
32343SOL     OW 2864   8.934  10.121   6.787  0.1155  0.9358  0.2521
32343SOL    HW1 2865   9.027  10.103   6.770  0.2892 -1.8668  3.1425
32343SOL    HW2 2866   8.888  10.077   6.716  0.9774  1.0074 -0.3703
32344SOL     OW 2867   8.312   5.926   3.423  0.9320 -0.1455  0.2796
32344SOL    HW1 2868   8.343   5.836   3.416 -0.4804 -0.6142 -0.3220
32344SOL    HW2 2869   8.324   5.948   3.516  3.2263 -0.1838  0.0505
32345SOL     OW 2870   6.861   1.471   8.056  0.7296 -0.3390 -0.4594
32345SOL    HW1 2871   6.838   1.417   7.980  0.8539 -0.5955 -0.3203
32345SOL    HW2 2872   6.788   1.531   8.067  0.8408 -0.1160 -0.9510
32346SOL     OW 2873   2.790   4.164   7.785  0.4401 -0.0351  0.1917
32346SOL    HW1 2874   2.773   4.212   7.704 -1.4388 -1.3569 -0.2574
32346SOL    HW2 2875   2.776   4.072   7.761  1.5216 -0.6022  1.6241
32347SOL     OW 2876   9.536   6.563  10.670 -0.4503 -0.0988 -0.1894
32347SOL    HW1 2877   9.590   6.489  10.699  1.5424  1.2026 -0.4008
32347SOL    HW2 2878   9.485   6.586  10.748 -2.5341 -2.7660 -0.6015
32348SOL     OW 2879   5.885   5.941   4.851  0.4305  0.0904  0.0015
32348SOL    HW1 2880   5.803   5.929   4.804  1.4418 -0.3755 -1.7341
32348SOL    HW2 2881   5.953   5.918   4.787  1.9172  0.5373  1.3565
32349SOL     OW 2882   4.503   6.251   1.136 -0.0389  0.1197 -0.3807
32349SOL    HW1 2883   4.575   6.213   1.085  0.6375 -0.9279  1.2924
32349SOL    HW2 2884   4.546   6.311   1.197 -0.5804 -0.4177  0.5423
32350SOL     OW 2885   6.640   0.803   3.147  0.0382 -0.1378  0.0614
32350SOL    HW1 2886   6.723   0.795   3.100 -1.0921 -1.2636 -1.8786
32350SOL    HW2 2887   6.574   0.802   3.078 -1.7669 -2.4972  1.6795
32351SOL     OW 2888   8.168   1.217   4.532 -0.5829  0.1421 -0.6688
32351SOL    HW1 2889   8.239   1.279   4.549 -0.9585  0.7231 -1.1832
32351SOL    HW2 2890   8.175   1.153   4.603 -0.0948  0.6871 -0.2137
32352SOL     OW 2891   5.111   8.452   6.892 -0.3839  1.0063 -0.0222
32352SOL    HW1 2892   5.068   8.480   6.811 -2.7925 -0.1541  0.7541
32352SOL    HW2 2893   5.076   8.365   6.909  0.2594  1.1070  2.1360
32353SOL     OW 2894   1.745  10.370   8.844  0.0450  0.0890  0.9865
32353SOL    HW1 2895   1.708  10.457   8.858  1.7028  1.0538 -0.2552
32353SOL    HW2 2896   1.670  10.311   8.848 -1.1757  1.6045  1.4850
32354SOL     OW 2897   5.876   3.039   6.464 -0.1002 -0.0165 -0.7950
32354SOL    HW1 2898   5.810   3.096   6.503  0.6067  0.6502 -0.5483
32354SOL    HW2 2899   5.846   2.950   6.483  0.1769  0.2846  1.1846
32355SOL     OW 2900   3.656   5.288   5.832 -0.2228 -0.1065 -0.1020
32355SOL    HW1 2901   3.638   5.234   5.909 -0.7466  0.3702  0.1258
32355SOL    HW2 2902   3.695   5.368   5.867  0.6051 -0.3548 -0.4394
32356SOL     OW 2903   6.779   6.282   3.788 -0.6030  0.0278 -0.3108
32356SOL    HW1 2904   6.780   6.372   3.756 -0.3030 -0.7441 -2.6763
32356SOL    HW2 2905   6.857   6.275   3.843  0.9065  0.5480 -2.2820
32357SOL     OW 2906   1.360   6.303   2.429 -0.2531  0.9658  0.1566
32357SOL    HW1 2907   1.270   6.313   2.399  0.0365  0.7821 -0.8130
32357SOL    HW2 2908   1.365   6.213   2.461 -0.9138  1.5557  2.0518
32358SOL     OW 2909   2.073   4.527  10.090  0.0579  0.0936 -0.8545
32358SOL    HW1 2910   2.032   4.531  10.176 -1.2739 -0.7950 -1.4046
32358SOL    HW2 2911   2.154   4.578  10.099  0.4913 -0.8553  1.1920
32359SOL     OW 2912   2.783   0.904   2.658  0.3391 -0.1017 -0.0825
32359SOL    HW1 2913   2.778   0.988   2.611 -1.1584 -0.9202 -1.4943
32359SOL    HW2 2914   2.714   0.909   2.724  1.6523  0.5696  1.2981
32360SOL     OW 2915   7.557   8.925   6.620  0.3799  0.1349 -0.1704
32360SOL    HW1 2916   7.641   8.886   6.644 -0.0451  0.3505  1.8480
32360SOL    HW2 2917   7.552   9.004   6.673 -1.4371 -0.2800  0.3311
32361SOL     OW 2918   0.357   8.324   0.025 -0.2652  0.5727  0.2022
32361SOL    HW1 2919   0.343   8.304  -0.067 -1.7480  0.7301  0.3698
32361SOL    HW2 2920   0.331   8.415   0.035  0.0519  0.6122  0.7561
32362SOL     OW 2921   0.439   9.767   3.758 -0.1401  0.3801  0.0605
32362SOL    HW1 2922   0.404   9.697   3.813 -2.1216  1.1457 -0.1712
32362SOL    HW2 2923   0.493   9.721   3.694 -0.5604 -0.8451  0.5564
32363SOL     OW 2924   1.382   9.175   4.408 -0.0980 -0.2343 -0.0259
32363SOL    HW1 2925   1.427   9.252   4.373  0.2248 -0.1875  0.4891
32363SOL    HW2 2926   1.362   9.198   4.498 -2.2026  0.2009 -0.5552
32364SOL     OW 2927   6.580  10.151   2.902 -0.0101  0.2610  0.0733
32364SOL    HW1 2928   6.675  10.147   2.907 -0.0632 -1.7249  0.0829
32364SOL    HW2 2929   6.552  10.177   2.990  0.4275 -2.7080  1.2002
32365SOL     OW 2930   7.067   1.201   9.941  0.4511  0.1985 -0.2185
32365SOL    HW1 2931   7.119   1.281   9.932  0.3740  0.3389  0.4684
32365SOL    HW2 2932   7.037   1.181   9.853 -0.1766  1.3774 -0.2949
32366SOL     OW 2933   7.286   2.605   2.802  0.2329 -0.3901  0.3170
32366SOL    HW1 2934   7.247   2.688   2.827  0.7130 -0.0006 -0.1905
32366SOL    HW2 2935   7.358   2.593   2.864 -0.2683 -0.7795  0.8321
32367SOL     OW 2936   9.989   2.562   8.500 -0.5763  0.1585  0.1240
32367SOL    HW1 2937   9.960   2.650   8.480 -0.8560 -0.0666 -0.4901
32367SOL    HW2 2938  10.085   2.568   8.500 -0.5503  0.1171 -1.6092
32368SOL     OW 2939   1.662   9.531   1.429  0.2609 -0.1381  0.1436
32368SOL    HW1 2940   1.741   9.490   1.393  1.4312  2.1644 -0.0922
32368SOL    HW2 2941   1.683   9.549   1.520 -0.3715 -0.3620  0.3422
32369SOL     OW 2942   9.111   5.421   9.530  0.2737  0.3137 -0.1554
32369SOL    HW1 2943   9.019   5.443   9.543 -0.1834 -1.6530  0.2544
32369SOL    HW2 2944   9.137   5.473   9.453 -1.1746  0.8598 -0.3188
32370SOL     OW 2945   0.158   8.291   4.139  0.7877  0.6656 -0.3521
32370SOL    HW1 2946   0.174   8.317   4.230 -2.6337  1.4581  0.1395
32370SOL    HW2 2947   0.245   8.294   4.098  2.3826  0.7014  2.7374
32371SOL     OW 2948  10.462   2.385   7.824 -0.4323 -0.1032 -0.1306
32371SOL    HW1 2949  10.412   2.303   7.822  0.8862 -1.0009  1.2613
32371SOL    HW2 2950  10.397   2.452   7.845 -1.5968 -0.7125 -1.6199
32372SOL     OW 2951   4.014   3.647   6.861  0.6904 -0.3632 -0.4374
32372SOL    HW1 2952   3.973   3.611   6.781 -1.6874  0.4415  0.3373
32372SOL    HW2 2953   3.987   3.587   6.930 -1.0383  1.2947  0.4253
32373SOL     OW 2954   1.553   8.913   3.755 -0.4968 -0.0557  0.1470
32373SOL    HW1 2955   1.459   8.933   3.756 -0.0820  2.1284 -0.6094
32373SOL    HW2 2956   1.561   8.835   3.811 -2.5803  0.4970  1.3252
32374SOL     OW 2957   7.605   8.562   7.295 -0.4930 -0.7107  0.0540
32374SOL    HW1 2958   7.512   8.584   7.292 -0.8596 -2.0970  0.3653
32374SOL    HW2 2959   7.642   8.621   7.361 -0.9240  0.5748 -0.8191
32375SOL     OW 2960   2.478   6.051   3.771 -0.1759 -0.4637 -0.0916
32375SOL    HW1 2961   2.526   6.101   3.836 -0.8946 -0.4656  0.4560
32375SOL    HW2 2962   2.521   5.966   3.769  0.5932 -0.0686 -0.4922
32376SOL     OW 2963  10.393   0.388   1.874 -0.6291 -0.4780 -0.8548
32376SOL    HW1 2964  10.488   0.398   1.878 -0.4316 -0.8078 -3.3580
32376SOL    HW2 2965  10.360   0.442   1.946  1.3993  0.6118 -0.6824
32377SOL     OW 2966   6.056   5.544   5.825 -0.1175 -0.0074 -0.6617
32377SOL    HW1 2967   6.107   5.476   5.782  1.8321  0.1201  1.2508
32377SOL    HW2 2968   6.072   5.623   5.774  0.5899 -0.2483 -0.8187
32378SOL     OW 2969   1.886   1.952   7.333 -0.1276  0.4820  1.1658
32378SOL    HW1 2970   1.865   2.011   7.260 -2.8929 -0.9361  0.6846
32378SOL    HW2 2971   1.834   1.985   7.406 -2.0582 -1.4498  0.7755
32379SOL     OW 2972   1.160   3.967   8.058 -0.5190 -0.3922 -0.2209
32379SOL    HW1 2973   1.171   3.885   8.011 -1.1844 -0.2122 -0.7106
32379SOL    HW2 2974   1.072   3.962   8.095  0.4099 -1.0501  2.0614
32380SOL     OW 2975   9.980   0.263   6.086  0.3801 -0.9382  0.1682
32380SOL    HW1 2976   9.913   0.266   6.154  0.7372 -3.1477  0.6731
32380SOL    HW2 2977  10.059   0.294   6.130 -0.2418  1.8531 -0.4775
32381SOL     OW 2978   5.475   9.239  10.298 -0.0312 -0.4452 -0.1939
32381SOL    HW1 2979   5.563   9.258  10.332  0.5904 -2.5373 -0.4577
32381SOL    HW2 2980   5.452   9.315  10.245  1.5893  0.1714 -0.0612
32382SOL     OW 2981   6.223   4.876   4.870  0.2352  0.0404  0.2399
32382SOL    HW1 2982   6.215   4.780   4.868 -1.2041  0.1116  1.4499
32382SOL    HW2 2983   6.195   4.900   4.958  2.6539  1.4235  0.7131
32383SOL     OW 2984  10.638   0.082   0.234  0.2183  0.2320 -0.1732
32383SOL    HW1 2985  10.690   0.162   0.221 -0.3313  0.7429  0.6818
32383SOL    HW2 2986  10.549   0.114   0.245  0.1802 -0.3868  1.5134
32384SOL     OW 2987   8.026   3.042   8.807 -0.2112  0.1251 -0.2529
32384SOL    HW1 2988   8.042   3.122   8.757 -0.2415  1.5004  1.8044
32384SOL    HW2 2989   8.074   3.055   8.888 -2.4795 -0.6947  1.3176
32385SOL     OW 2990   5.715   9.350   0.085 -0.0598  0.1691 -0.1316
32385SOL    HW1 2991   5.795   9.302   0.105  0.7887  1.3943 -0.4475
32385SOL    HW2 2992   5.667   9.354   0.168  0.0271 -0.8729 -0.0241
32386SOL     OW 2993   5.004   1.689   7.880 -0.9293 -0.1564  0.4835
32386SOL    HW1 2994   4.927   1.636   7.899 -0.3948 -1.4355 -0.7154
32386SOL    HW2 2995   5.068   1.664   7.947 -0.6379 -1.1639 -0.1464
32387SOL     OW 2996   6.633   3.409   5.091 -0.0258  0.2517 -0.0735
32387SOL    HW1 2997   6.712   3.441   5.047 -0.5285  1.3261 -0.2177
32387SOL    HW2 2998   6.585   3.488   5.115  0.1594 -0.2689  2.3120
32388SOL     OW 2999   4.097   5.032   2.347 -0.2224  0.8086  0.6748
32388SOL    HW1 3000   4.128   5.010   2.259 -0.4444  0.4675  0.6788
32388SOL    HW2 3001   4.140   4.968   2.404 -0.8021  0.4358  0.6986
32389SOL     OW 3002   9.889   0.014   0.685  0.5895 -0.3786  0.3958
32389SOL    HW1 3003   9.806   0.054   0.659  2.1249  2.1630 -0.9985
32389SOL    HW2 3004   9.925  -0.023   0.605  1.6901  0.3268  0.5402
32390SOL     OW 3005   7.628   0.251   6.921 -0.3828  0.4803 -0.4197
32390SOL    HW1 3006   7.626   0.163   6.960 -0.0776  0.7208  0.1561
32390SOL    HW2 3007   7.600   0.238   6.831 -0.4042 -0.2032 -0.3213
32391SOL     OW 3008   2.910   9.585   6.288 -0.8202 -0.1143 -0.6945
32391SOL    HW1 3009   2.959   9.643   6.230 -1.7168  0.0663 -1.2902
32391SOL    HW2 3010   2.954   9.501   6.279 -0.9034 -0.0768 -1.6045
32392SOL     OW 3011   9.142   0.486   0.266 -0.2468 -0.3348  0.5601
32392SOL    HW1 3012   9.046   0.483   0.265 -0.2293 -1.0507 -0.4939
32392SOL    HW2 3013   9.168   0.395   0.280  0.2797 -0.2679  0.0219
32393SOL     OW 3014   4.188   4.384   1.012 -0.7129 -0.6016 -0.5820
32393SOL    HW1 3015   4.229   4.470   1.018 -1.5483 -0.2001 -0.4550
32393SOL    HW2 3016   4.246   4.333   0.955  0.6698 -0.4979  0.6707
32394SOL     OW 3017   0.898   6.658  10.522  0.2341 -0.4492 -0.5199
32394SOL    HW1 3018   0.819   6.612  10.492 -0.6138  1.3066 -1.0721
32394SOL    HW2 3019   0.924   6.611  10.601 -1.9998 -0.3929  0.3012
32395SOL     OW 3020   8.018   3.630   4.559  0.0028 -0.3661  1.1353
32395SOL    HW1 3021   8.031   3.536   4.543  0.3203 -0.1882  0.3234
32395SOL    HW2 3022   7.952   3.657   4.495  1.0202  0.2764  0.3293
32396SOL     OW 3023   5.212   1.416   0.725 -0.1285  0.2471  1.0043
32396SOL    HW1 3024   5.282   1.418   0.790  1.7356 -0.5973 -0.8419
32396SOL    HW2 3025   5.212   1.326   0.693 -0.3674  0.8253 -0.7336
32397SOL     OW 3026   3.805   8.380   2.949  0.1006  0.5230 -0.4914
32397SOL    HW1 3027   3.851   8.464   2.943 -0.6938  1.2213  1.9542
32397SOL    HW2 3028   3.736   8.386   2.883  0.0096  1.8338 -0.3122
32398SOL     OW 3029   2.333   2.733   5.345 -0.5106  0.2097 -0.0699
32398SOL    HW1 3030   2.387   2.723   5.267 -0.2458 -1.3007  0.2606
32398SOL    HW2 3031   2.395   2.729   5.418 -0.2924  4.9336  0.2885
32399SOL     OW 3032   3.043   4.173   2.946  0.0189  0.6370 -0.2376
32399SOL    HW1 3033   2.987   4.110   2.991 -2.7036  3.6262  0.9654
32399SOL    HW2 3034   3.007   4.177   2.857  0.6871 -0.0000 -0.5470
32400SOL     OW 3035   8.257   4.538   1.552 -0.2655  0.2603 -0.3582
32400SOL    HW1 3036   8.323   4.607   1.551  1.0485 -0.9644 -0.1063
32400SOL    HW2 3037   8.234   4.526   1.460  1.2405 -0.5703 -0.6535
32401SOL     OW 3038   3.837   9.026  10.560  0.5503  0.4917 -0.8517
32401SOL    HW1 3039   3.920   9.013  10.606  1.6462 -0.1315 -2.8902
32401SOL    HW2 3040   3.850   9.106  10.508 -0.8831  1.5366  0.2710
32402SOL     OW 3041   6.408   1.370   9.440  0.3907 -0.1420 -0.0669
32402SOL    HW1 3042   6.460   1.419   9.377 -0.4133  2.3772  1.1271
32402SOL    HW2 3043   6.319   1.405   9.431  0.1865  0.0988  2.2280
32403SOL     OW 3044   6.016   4.573   3.322 -0.1200 -0.4446  0.3618
32403SOL    HW1 3045   5.968   4.564   3.405 -0.0486  0.7438  0.5571
32403SOL    HW2 3046   6.039   4.666   3.318  1.3313 -0.7910 -0.1896
32404SOL     OW 3047   6.573   2.034   9.140 -0.4309 -0.0353 -0.0523
32404SOL    HW1 3048   6.582   2.108   9.080 -1.8477  0.3953  0.2132
32404SOL    HW2 3049   6.479   2.016   9.140 -0.3045 -0.7677  1.1687
32405SOL     OW 3050   1.692   3.678   0.560  0.4154 -0.3186 -0.0238
32405SOL    HW1 3051   1.730   3.612   0.501 -1.7538 -2.8901  1.2457
32405SOL    HW2 3052   1.765   3.736   0.580  2.2497 -1.7845 -1.9574
32406SOL     OW 3053   8.741   6.552   8.032  0.2030  0.5054  0.0188
32406SOL    HW1 3054   8.660   6.520   8.073  2.1357  0.8751  4.7537
32406SOL    HW2 3055   8.729   6.647   8.028  0.3368  0.5658  0.7641
32407SOL     OW 3056   0.189   3.938   5.224  0.2552  0.3336 -0.4121
32407SOL    HW1 3057   0.171   4.032   5.231  0.0395  0.3085 -0.6316
32407SOL    HW2 3058   0.270   3.926   5.274  0.0434  0.5618 -0.0075
32408SOL     OW 3059   8.889   3.789   9.038 -0.6220  0.1355 -0.4927
32408SOL    HW1 3060   8.942   3.738   9.099  0.1542  0.0369 -1.2269
32408SOL    HW2 3061   8.858   3.863   9.090  0.6399  0.4536 -0.1514
32409SOL     OW 3062   7.042   6.645   7.615 -0.1927 -0.1697  0.3721
32409SOL    HW1 3063   6.979   6.684   7.555  0.1095 -1.7240 -1.0026
32409SOL    HW2 3064   7.102   6.717   7.637 -0.1153  0.3673 -1.4610
32410SOL     OW 3065   8.383  10.330   7.402 -0.0468 -0.0025 -0.1787
32410SOL    HW1 3066   8.371  10.413   7.356 -1.8011 -1.0914 -1.8118
32410SOL    HW2 3067   8.477  10.328   7.423  0.1963  1.9894 -0.8002
32411SOL     OW 3068   7.973   2.811   7.039 -0.3358 -0.5418  0.2730
32411SOL    HW1 3069   7.937   2.818   6.951  0.9068  0.7804 -0.1716
32411SOL    HW2 3070   7.901   2.778   7.092 -0.5448 -3.4705 -1.5857
32412SOL     OW 3071   4.740   9.629   4.176  0.6614  0.0888 -0.0831
32412SOL    HW1 3072   4.780   9.695   4.119 -1.0778  0.8117 -0.5287
32412SOL    HW2 3073   4.789   9.634   4.258  1.1988  1.2396 -0.4659
32413SOL     OW 3074   4.774   2.692   3.791 -0.0602  0.4699  0.0641
32413SOL    HW1 3075   4.680   2.676   3.803  0.4363 -1.0553  2.5621
32413SOL    HW2 3076   4.790   2.775   3.835 -0.0418  0.1623  0.6375
32414SOL     OW 3077   9.170   1.874   6.442 -0.0504 -0.6082  0.6706
32414SOL    HW1 3078   9.178   1.881   6.346 -4.2043 -0.4626  0.1443
32414SOL    HW2 3079   9.134   1.787   6.456  0.0431 -0.4376  2.0449
32415SOL     OW 3080   2.817   8.883   7.714 -0.4775 -0.6285 -0.2196
32415SOL    HW1 3081   2.784   8.949   7.776 -1.1252  1.2039 -2.3827
32415SOL    HW2 3082   2.875   8.828   7.766 -1.4684  0.4145  2.1396
32416SOL     OW 3083   6.139   1.977   2.601 -0.0565  0.5284 -0.3394
32416SOL    HW1 3084   6.127   1.935   2.516  1.9412  1.5144 -1.1969
32416SOL    HW2 3085   6.211   2.038   2.587  1.0438  0.0057  2.3113
32417SOL     OW 3086   3.367   5.503   5.156  0.5735 -0.2951 -0.3164
32417SOL    HW1 3087   3.422   5.511   5.234 -0.5220 -0.6885  0.5384
32417SOL    HW2 3088   3.427   5.478   5.086  1.5126 -0.4286  0.5139
32418SOL     OW 3089   7.153   4.008   9.475 -0.0498 -0.3072  0.6053
32418SOL    HW1 3090   7.229   4.052   9.513  0.7952 -0.1465 -1.1550
32418SOL    HW2 3091   7.144   3.928   9.526  1.5039 -0.4785  0.6652
32419SOL     OW 3092   7.653   0.671  10.683 -0.7248 -0.2413 -0.8005
32419SOL    HW1 3093   7.631   0.642  10.772  1.1561 -0.3817 -0.3387
32419SOL    HW2 3094   7.570   0.665  10.635 -1.7740 -0.2117  0.9114
32420SOL     OW 3095   0.369   2.395   0.970 -0.5111 -0.2968  0.0145
32420SOL    HW1 3096   0.375   2.332   1.042 -1.7337 -0.2513  0.1685
32420SOL    HW2 3097   0.371   2.481   1.013 -0.5539 -0.2606 -0.0565
32421SOL     OW 3098  10.582  10.630   5.978 -0.9600 -0.0350  0.0833
32421SOL    HW1 3099  10.613  10.556   5.927  2.8755  1.3722 -0.0008
32421SOL    HW2 3100  10.544  10.690   5.914  1.4473  0.5815 -0.8839
32422SOL     OW 3101   0.010   8.242   2.372 -0.4151  0.1616 -0.2056
32422SOL    HW1 3102  -0.079   8.221   2.401 -1.1175  1.2953 -1.4213
32422SOL    HW2 3103   0.023   8.189   2.294  1.0211 -1.9771  1.3595
32423SOL     OW 3104   7.687   5.005   6.991  0.1231  0.0187 -0.5637
32423SOL    HW1 3105   7.737   5.079   7.024 -2.2484  1.6321 -0.3161
32423SOL    HW2 3106   7.706   4.934   7.052  0.3956  1.2108  0.8065
32424SOL     OW 3107   8.102   3.717   0.265  0.8606 -0.3801  0.1687
32424SOL    HW1 3108   8.168   3.739   0.330  0.5142  0.6403  0.1907
32424SOL    HW2 3109   8.026   3.689   0.317  1.3769 -1.9758  0.1392
32425SOL     OW 3110   5.920   7.707   6.286  0.1773 -0.0642  0.1135
32425SOL    HW1 3111   5.991   7.654   6.252  0.2447  2.2004 -3.7892
32425SOL    HW2 3112   5.960   7.761   6.354  1.3090 -1.1110  0.3146
32426SOL     OW 3113   0.197   7.246   8.106  0.0332  0.0693  0.1823
32426SOL    HW1 3114   0.180   7.156   8.132 -0.4575  0.2511  0.5296
32426SOL    HW2 3115   0.112   7.278   8.073  0.5676 -0.0761 -1.4463
32427SOL     OW 3116   5.517   2.673   2.968  0.3439 -0.3609  0.4414
32427SOL    HW1 3117   5.504   2.659   2.875  0.8214  2.5898 -0.1442
32427SOL    HW2 3118   5.612   2.677   2.979  0.3715 -2.3247  1.3996
32428SOL     OW 3119   0.105   6.932   1.161  0.7558  0.0267  0.1710
32428SOL    HW1 3120   0.195   6.919   1.190  1.1676  0.1090 -1.0223
32428SOL    HW2 3121   0.107   7.015   1.113 -0.2248  0.6579  1.1849
32429SOL     OW 3122   9.739   3.768  10.092 -0.1480 -0.1251 -0.0575
32429SOL    HW1 3123   9.794   3.712  10.147 -0.4149  0.9904  1.4129
32429SOL    HW2 3124   9.650   3.740  10.112 -0.2252 -0.2391 -0.5419
32430SOL     OW 3125   3.304   4.656   9.301  0.0002  0.2068  0.1648
32430SOL    HW1 3126   3.337   4.742   9.273  0.0288 -0.2043 -1.1320
32430SOL    HW2 3127   3.359   4.632   9.375 -0.5973  1.7023  1.1247
32431SOL     OW 3128   5.093   1.055   3.571  0.0219  0.4320  0.0848
32431SOL    HW1 3129   5.124   1.141   3.597 -0.5529  0.6866 -0.0631
32431SOL    HW2 3130   5.138   0.994   3.630 -0.1642  0.8896  0.7117
32432SOL     OW 3131   5.084   5.531   3.358 -0.2486  0.2376 -0.5281
32432SOL    HW1 3132   5.140   5.455   3.343  0.1322  0.0290  1.6488
32432SOL    HW2 3133   4.997   5.495   3.372  0.1945 -0.0393  2.0635
32433SOL     OW 3134   6.190   6.437   0.248  0.4777  0.1712 -0.1997
32433SOL    HW1 3135   6.206   6.426   0.341 -0.7644  0.2708  0.0405
32433SOL    HW2 3136   6.242   6.514   0.223 -0.6120  1.2528  0.8088
32434SOL     OW 3137   8.025   8.771   3.129  0.2002  0.2809 -0.0309
32434SOL    HW1 3138   8.031   8.676   3.139  1.5910  0.4065  0.5787
32434SOL    HW2 3139   7.939   8.794   3.163 -0.0157 -0.7250  0.1229
32435SOL     OW 3140   0.211   4.266   0.686  0.7666  0.3080  0.3290
32435SOL    HW1 3141   0.116   4.263   0.698  0.5149 -1.2993 -1.6416
32435SOL    HW2 3142   0.247   4.232   0.768 -0.4335 -0.6776  0.4717
32436SOL     OW 3143   5.550   4.852   7.132  0.6774  0.2655 -0.3512
32436SOL    HW1 3144   5.639   4.872   7.161  0.4894 -0.8512  1.0715
32436SOL    HW2 3145   5.559   4.838   7.037  2.3968 -1.6674  0.0257
32437SOL     OW 3146   5.357   5.802   0.983 -0.5456 -0.2751  0.4276
32437SOL    HW1 3147   5.395   5.882   0.948 -0.4749 -0.3635  0.2999
32437SOL    HW2 3148   5.361   5.812   1.078  0.6495 -0.6742  0.4352
32438SOL     OW 3149   5.964   3.546   5.164 -0.2780  0.0509 -0.7983
32438SOL    HW1 3150   5.889   3.486   5.160  0.1683 -0.5384 -0.4151
32438SOL    HW2 3151   6.027   3.509   5.102  0.0206  0.0930 -0.5204
32439SOL     OW 3152   8.949   8.973   0.701 -0.1046  0.4174 -0.3561
32439SOL    HW1 3153   8.977   8.894   0.747 -0.9086  0.9333  1.0593
32439SOL    HW2 3154   9.017   8.986   0.634  0.1075 -1.3866 -0.5607
32440SOL     OW 3155   4.825  10.123   1.262  0.3770  0.2118 -0.5127
32440SOL    HW1 3156   4.907  10.157   1.297 -0.1988  0.5241  0.5777
32440SOL    HW2 3157   4.796  10.189   1.199  0.6110  0.4265 -0.3963
32441SOL     OW 3158   6.899   8.439   4.133  0.6642 -1.0182 -0.5731
32441SOL    HW1 3159   6.946   8.508   4.085  1.1120 -1.8502 -1.3584
32441SOL    HW2 3160   6.807   8.450   4.106  0.6306 -0.3458 -0.2091
32442SOL     OW 3161   3.319   1.751   9.245  0.0280 -0.0011  0.4487
32442SOL    HW1 3162   3.396   1.721   9.197 -1.0867  0.1417 -1.5516
32442SOL    HW2 3163   3.294   1.676   9.300 -0.5160 -1.4493 -1.6516
32443SOL     OW 3164   6.419   6.875   6.542 -0.2004  0.5018  0.0009
32443SOL    HW1 3165   6.460   6.946   6.591  0.9287 -1.0381  1.3942
32443SOL    HW2 3166   6.473   6.863   6.464  0.7021 -0.0117  0.6898
32444SOL     OW 3167   8.381   2.382   2.067  0.1874 -0.0990 -0.2954
32444SOL    HW1 3168   8.474   2.366   2.083  0.1964 -0.4854 -0.7159
32444SOL    HW2 3169   8.346   2.298   2.039 -0.0557  0.2818 -1.1848
32445SOL     OW 3170   6.669   0.082   6.640  0.8573 -0.4142  0.0826
32445SOL    HW1 3171   6.742   0.028   6.670  0.4816 -1.2464 -0.4623
32445SOL    HW2 3172   6.703   0.171   6.641  1.4969 -0.6518  0.9900
32446SOL     OW 3173  10.038   7.238   5.471  0.5882 -0.3313 -0.3265
32446SOL    HW1 3174   9.988   7.251   5.390  0.9992 -3.0516 -1.1408
32446SOL    HW2 3175  10.071   7.148   5.464 -0.1212 -1.0412  3.2935
32447SOL     OW 3176   7.128   3.026   5.123 -0.3889  0.1605  0.1496
32447SOL    HW1 3177   7.148   3.048   5.214 -1.1227  2.1425 -0.1069
32447SOL    HW2 3178   7.051   3.080   5.102  0.1608  0.2461 -1.8330
32448SOL     OW 3179   9.310   3.196   6.475 -0.1308 -0.0169  0.7084
32448SOL    HW1 3180   9.296   3.276   6.425  1.1681  1.3302  2.3776
32448SOL    HW2 3181   9.405   3.187   6.479 -0.2342 -0.9136  1.6380
32449SOL     OW 3182   2.105   9.990   6.018 -0.0838 -0.6545 -0.0145
32449SOL    HW1 3183   2.018  10.027   6.027  1.1416  2.4388  0.3575
32449SOL    HW2 3184   2.095   9.920   5.954 -2.7067  0.0002 -0.4413
32450SOL     OW 3185   8.152   6.219   3.554  0.0837 -0.7122 -0.7748
32450SOL    HW1 3186   8.133   6.287   3.490  2.6570  0.8172 -0.0416
32450SOL    HW2 3187   8.245   6.201   3.544  1.1462  0.9063  3.5788
32451SOL     OW 3188   7.978   8.473   8.612 -0.1531 -0.1487 -0.0541
32451SOL    HW1 3189   8.027   8.419   8.550 -0.4870  1.4912 -1.8398
32451SOL    HW2 3190   8.020   8.559   8.608 -1.9016  0.7560 -0.1229
32452SOL     OW 3191  10.441  10.099  10.024  0.8635 -0.7868  0.4121
32452SOL    HW1 3192  10.463  10.166  10.088 -0.6167 -0.8595  1.0464
32452SOL    HW2 3193  10.494  10.120   9.947 -0.2287  1.6683  0.2400
32453SOL     OW 3194   5.304   5.385   0.090  0.4413  0.4626  0.1739
32453SOL    HW1 3195   5.399   5.388   0.105  0.2351  0.0036  1.7604
32453SOL    HW2 3196   5.294   5.399  -0.004  2.0901  0.4040 -0.0385
32454SOL     OW 3197   9.262   2.840   2.802  1.2518 -0.3217 -0.0972
32454SOL    HW1 3198   9.273   2.885   2.718  2.9998  1.3906  0.9585
32454SOL    HW2 3199   9.304   2.756   2.790 -0.5931 -1.0963 -1.6103
32455SOL     OW 3200   4.253   8.462  10.323  0.2182 -0.4459  0.5251
32455SOL    HW1 3201   4.344   8.491  10.332 -0.0393  1.3044 -1.7228
32455SOL    HW2 3202   4.211   8.487  10.405  1.0932  1.5391  0.4162
32456SOL     OW 3203   5.240   3.265   4.383  0.2074  0.7456  0.1750
32456SOL    HW1 3204   5.215   3.348   4.340 -0.4359  0.5928  0.2414
32456SOL    HW2 3205   5.179   3.201   4.347  0.6143  0.3285  0.2323
32457SOL     OW 3206   2.250   1.130  10.013  0.4626  0.5696  0.2318
32457SOL    HW1 3207   2.274   1.092  10.098  0.5771  0.4917  0.1636
32457SOL    HW2 3208   2.333   1.150   9.971  0.4092  0.2601 -0.0214
32458SOL     OW 3209   0.746   1.954   6.452  0.0450  0.2350  0.3605
32458SOL    HW1 3210   0.769   2.040   6.485  0.1872  0.6734 -0.8270
32458SOL    HW2 3211   0.784   1.951   6.364  0.1184 -1.0676  0.4136
32459SOL     OW 3212   5.700   3.181   0.512  0.0542  0.0977  0.6976
32459SOL    HW1 3213   5.710   3.192   0.606 -3.6872  0.7232  1.1432
32459SOL    HW2 3214   5.706   3.270   0.477  1.2225 -0.1109  0.3081
32460SOL     OW 3215   9.882   1.897  10.623  0.3288 -1.3216  0.2475
32460SOL    HW1 3216   9.878   1.803  10.642  0.2609 -1.1434  1.1640
32460SOL    HW2 3217   9.833   1.937  10.694  1.1254 -0.5243  0.3498
32461SOL     OW 3218   0.796   4.081   1.885 -0.2542 -0.5622 -0.4637
32461SOL    HW1 3219   0.768   4.090   1.976  0.2141  1.9624 -0.5134
32461SOL    HW2 3220   0.890   4.060   1.891 -0.2026 -0.3024 -0.3742
32462SOL     OW 3221   3.743   3.336   3.657  0.0766 -0.9993  0.1641
32462SOL    HW1 3222   3.689   3.340   3.736  1.2189 -0.0340  0.9365
32462SOL    HW2 3223   3.755   3.242   3.640 -0.3460 -1.2126  1.0239
32463SOL     OW 3224   1.312   3.468   9.480  0.0370  0.3583  0.0201
32463SOL    HW1 3225   1.227   3.425   9.465 -0.2016  0.6402  0.5389
32463SOL    HW2 3226   1.291   3.561   9.483  0.1557  0.3535  1.5028
32464SOL     OW 3227   0.458   3.796  10.133 -0.1425 -0.3454 -0.3083
32464SOL    HW1 3228   0.378   3.797  10.186  0.6237  1.1082  0.8812
32464SOL    HW2 3229   0.484   3.704  10.131  0.1147 -0.4055  2.3712
32465SOL     OW 3230   5.377   1.729   3.568 -0.9988 -0.1839 -0.7923
32465SOL    HW1 3231   5.413   1.797   3.510 -1.7111  0.1547 -0.8436
32465SOL    HW2 3232   5.324   1.674   3.510 -1.0430 -0.3370 -0.6078
32466SOL     OW 3233   1.540   0.756   6.981  0.1494  0.1231 -0.2426
32466SOL    HW1 3234   1.552   0.838   6.932  1.9817  0.0158 -0.0513
32466SOL    HW2 3235   1.535   0.783   7.072 -1.1180  0.1458 -0.3010
32467SOL     OW 3236   4.825   4.476   4.150  0.3710 -0.9026 -0.0755
32467SOL    HW1 3237   4.753   4.430   4.192  0.2692  0.3709  1.2158
32467SOL    HW2 3238   4.860   4.413   4.087 -1.7394 -1.6029 -0.6297
32468SOL     OW 3239   1.245   9.695   6.914  0.3882 -0.0723  0.6258
32468SOL    HW1 3240   1.162   9.653   6.933  0.8792 -1.4330 -0.0851
32468SOL    HW2 3241   1.271   9.736   6.997 -1.0580  0.5488  0.7961
32469SOL     OW 3242   9.756   8.649   0.303  0.1530  0.1909  0.0144
32469SOL    HW1 3243   9.717   8.736   0.309 -0.4171 -0.0041 -0.6953
32469SOL    HW2 3244   9.793   8.633   0.390  0.5130  1.2488  0.0649
32470SOL     OW 3245   8.012   4.276   1.135 -0.1735  0.2377  0.1001
32470SOL    HW1 3246   8.094   4.235   1.162 -0.2533 -0.0837 -0.1284
32470SOL    HW2 3247   7.958   4.203   1.106  0.0677  0.5995 -1.3442
32471SOL     OW 3248   1.403  10.265   3.868  0.3622 -0.0376 -0.3469
32471SOL    HW1 3249   1.311  10.289   3.876  0.3651  0.1496 -0.8598
32471SOL    HW2 3250   1.438  10.273   3.957 -0.3026 -0.8986  0.0031
32472SOL     OW 3251  10.480   8.838   5.375 -0.3379 -0.0630 -0.5944
32472SOL    HW1 3252  10.520   8.892   5.443  1.5098  1.3885 -2.6579
32472SOL    HW2 3253  10.485   8.749   5.408  2.6453  0.3128  0.2833
32473SOL     OW 3254   3.051   9.312   4.165  0.0121 -0.2694 -0.0301
32473SOL    HW1 3255   3.110   9.240   4.144  0.7987  0.5470 -0.6670
32473SOL    HW2 3256   2.995   9.320   4.087  0.2199  0.1036 -0.1389
32474SOL     OW 3257   8.115   7.345   2.392 -0.9081 -0.3650  0.4633
32474SOL    HW1 3258   8.035   7.326   2.343 -0.4136  2.2375 -1.5915
32474SOL    HW2 3259   8.099   7.431   2.432 -0.1450 -1.0800  2.4643
32475SOL     OW 3260   6.093   9.876   4.924  0.0909  0.6320  0.1004
32475SOL    HW1 3261   6.019   9.922   4.964  0.2122  2.8787 -2.0456
32475SOL    HW2 3262   6.170   9.926   4.950  0.7211 -0.7123  0.9319
32476SOL     OW 3263   1.621   7.622  10.560 -0.0295  0.4388 -0.5521
32476SOL    HW1 3264   1.696   7.603  10.502  0.0723  0.3330 -0.3873
32476SOL    HW2 3265   1.638   7.710  10.592  0.3801  0.1535  0.0249
32477SOL     OW 3266   5.006   2.086  10.608 -0.3338  0.3115 -0.4957
32477SOL    HW1 3267   4.923   2.039  10.593 -0.3856  0.1207  0.3381
32477SOL    HW2 3268   5.011   2.148  10.535 -0.3855 -0.8095 -1.4844
32478SOL     OW 3269   3.199   7.963   3.757 -0.4890 -0.2886  0.2747
32478SOL    HW1 3270   3.262   7.981   3.688 -1.4429 -1.3659 -0.9103
32478SOL    HW2 3271   3.179   8.049   3.794  1.0450  0.1534  0.1496
32479SOL     OW 3272   2.260   9.312   3.182 -0.4765 -0.0031 -0.4410
32479SOL    HW1 3273   2.329   9.319   3.116  1.8580  0.6665  1.8882
32479SOL    HW2 3274   2.269   9.392   3.234 -2.0400 -0.6203  0.8408
32480SOL     OW 3275   5.739   6.450   1.487  0.5156  0.4341 -0.0988
32480SOL    HW1 3276   5.644   6.446   1.481  0.5940 -2.5000 -0.9603
32480SOL    HW2 3277   5.760   6.416   1.574  0.8053 -0.3195 -0.4552
32481SOL     OW 3278   5.560   9.070   5.769 -0.1336 -0.0750  0.4697
32481SOL    HW1 3279   5.641   9.069   5.820 -0.6494 -1.4776  1.3456
32481SOL    HW2 3280   5.519   9.154   5.790  1.5767  1.1427 -0.8501
32482SOL     OW 3281   0.862   9.950   4.405 -0.1113  0.0095 -0.3748
32482SOL    HW1 3282   0.848  10.024   4.465 -3.3284  0.2805 -1.2643
32482SOL    HW2 3283   0.825   9.875   4.451 -0.8500 -0.1518 -1.2012
32483SOL     OW 3284  10.238   3.329   9.569 -0.3956 -0.1441  0.2368
32483SOL    HW1 3285  10.285   3.410   9.549  0.2589 -0.2879  1.1054
32483SOL    HW2 3286  10.302   3.277   9.619 -1.6069 -0.1841  1.8008
32484SOL     OW 3287   5.201   1.442   9.985  0.1828 -0.5287  0.4107
32484SOL    HW1 3288   5.257   1.404  10.052  0.8973 -2.4019 -1.1319
32484SOL    HW2 3289   5.254   1.512   9.945 -0.7721  1.5990  2.6129
32485SOL     OW 3290   7.361   6.301   7.204 -0.0195 -0.4348 -0.1199
32485SOL    HW1 3291   7.275   6.268   7.176 -0.1104  1.0362 -1.7311
32485SOL    HW2 3292   7.363   6.392   7.175  1.0162  0.4389  2.3786
32486SOL     OW 3293   9.286   5.332   9.896  0.2984 -0.3086  0.2445
32486SOL    HW1 3294   9.200   5.374   9.889 -0.0214 -0.9565  0.2003
32486SOL    HW2 3295   9.329   5.351   9.813 -0.3874 -1.2361 -0.3441
32487SOL     OW 3296   5.231   4.915   3.964  0.3626 -0.0786 -0.0910
32487SOL    HW1 3297   5.177   4.990   3.941  1.1443  0.6138  0.2890
32487SOL    HW2 3298   5.244   4.868   3.881  3.1047  2.3492 -1.1920
32488SOL     OW 3299   4.559   0.799   6.000 -0.3257  0.1624  0.2094
32488SOL    HW1 3300   4.492   0.812   5.932 -0.6265  0.6676  0.5972
32488SOL    HW2 3301   4.613   0.877   5.995  1.1762 -0.9023 -1.1151
32489SOL     OW 3302   1.887   2.798   5.579  0.3186  0.1245 -0.1705
32489SOL    HW1 3303   1.894   2.737   5.651  0.4104  0.7937  0.3978
32489SOL    HW2 3304   1.946   2.763   5.512  0.0046 -0.6567 -0.0481
32490SOL     OW 3305   2.756   4.587   6.818  0.0421  0.1370 -0.2267
32490SOL    HW1 3306   2.741   4.500   6.855  0.8149  0.8936  2.0607
32490SOL    HW2 3307   2.673   4.611   6.778 -0.2893 -1.4837 -0.5918
32491SOL     OW 3308   9.430   3.697   4.857  0.1477  0.2497  0.3318
32491SOL    HW1 3309   9.372   3.622   4.865  0.4658  0.0022  0.3315
32491SOL    HW2 3310   9.486   3.677   4.782  0.7947  0.0992  0.8505
32492SOL     OW 3311   6.933   5.806   0.346  0.1370 -0.5181  0.1536
32492SOL    HW1 3312   6.986   5.877   0.383  0.9453 -0.5942 -0.8113
32492SOL    HW2 3313   6.982   5.727   0.367  0.0809 -0.6441 -0.1896
32493SOL     OW 3314   8.580   0.931   2.948 -0.4842 -0.5724  0.3771
32493SOL    HW1 3315   8.489   0.951   2.928  0.4202  2.0609 -1.7260
32493SOL    HW2 3316   8.585   0.932   3.043 -2.4323  0.3417  0.5162
32494SOL     OW 3317   8.391   9.638   9.278  0.1304 -0.0431  0.0105
32494SOL    HW1 3318   8.432   9.621   9.193 -1.2305 -0.0694 -0.6719
32494SOL    HW2 3319   8.370   9.551   9.313 -1.0524 -0.0100 -0.5449
32495SOL     OW 3320   8.563   8.982   8.047 -0.0992  0.3118 -0.5335
32495SOL    HW1 3321   8.645   8.986   8.096 -1.5630  1.7666  2.0245
32495SOL    HW2 3322   8.551   8.889   8.026  0.3373 -0.5021  2.4800
32496SOL     OW 3323   4.660   2.658   1.909 -0.0619  0.1795  0.4236
32496SOL    HW1 3324   4.737   2.714   1.915 -1.3476  2.4974 -2.3014
32496SOL    HW2 3325   4.595   2.700   1.966 -0.1115 -0.2955  0.7245
32497SOL     OW 3326   3.499   4.264   5.760  0.1706 -0.4028  0.3180
32497SOL    HW1 3327   3.445   4.304   5.691  0.5285  0.9867  0.7973
32497SOL    HW2 3328   3.589   4.280   5.732  0.3654  1.6721  1.8268
32498SOL     OW 3329   7.709   1.869   6.563 -0.2327 -0.6681  0.0152
32498SOL    HW1 3330   7.794   1.870   6.608  0.0311 -2.0165 -0.3860
32498SOL    HW2 3331   7.645   1.876   6.633  0.1983  0.3353  0.3277
32499SOL     OW 3332   8.870   0.202   3.388  0.5163 -0.1388 -0.8630
32499SOL    HW1 3333   8.898   0.157   3.468 -0.7217  2.3398  1.1177
32499SOL    HW2 3334   8.833   0.132   3.333  1.6071 -1.9771  0.6084
32500SOL     OW 3335   0.502   2.377   1.731  0.2546  0.1274  0.0396
32500SOL    HW1 3336   0.587   2.368   1.773  0.7688 -0.5368 -1.1075
32500SOL    HW2 3337   0.451   2.302   1.762  0.6178 -0.3391 -0.4891
32501SOL     OW 3338   3.918   4.467  10.082 -0.2522  0.1179 -0.1155
32501SOL    HW1 3339   4.004   4.509  10.075  0.3751 -0.8417  1.3677
32501SOL    HW2 3340   3.899   4.468  10.175 -0.8798 -1.5858 -0.1986
32502SOL     OW 3341   8.553   0.630   4.469 -0.3707 -0.2098  0.3404
32502SOL    HW1 3342   8.482   0.591   4.418 -1.2436  0.3954  1.0696
32502SOL    HW2 3343   8.515   0.646   4.555  0.4400  0.7758  0.5375
32503SOL     OW 3344   5.834   5.830   2.605 -0.3865 -0.9310 -0.5007
32503SOL    HW1 3345   5.755   5.795   2.563 -1.0579 -1.5937  1.1961
32503SOL    HW2 3346   5.800   5.892   2.670  0.5137 -0.9476 -0.0050
32504SOL     OW 3347   5.962   3.902   5.683  0.0639 -0.4986  0.5033
32504SOL    HW1 3348   5.996   3.826   5.729  0.1097 -0.3579  0.6998
32504SOL    HW2 3349   5.890   3.933   5.737  0.6048  0.1251  0.8816
32505SOL     OW 3350   7.385   6.573   2.731  0.4858 -0.1640  0.1406
32505SOL    HW1 3351   7.450   6.536   2.672 -0.9738  0.4225 -1.9551
32505SOL    HW2 3352   7.436   6.620   2.797  2.2122  0.6953 -1.6974
32506SOL     OW 3353   5.868   0.645   7.090 -0.2459  0.8559 -0.3837
32506SOL    HW1 3354   5.900   0.584   7.024 -0.5861  0.3892 -0.1270
32506SOL    HW2 3355   5.841   0.589   7.163 -1.2681  1.2595 -0.4387
32507SOL     OW 3356   5.045   2.914   1.287  0.0691  0.0333 -0.2607
32507SOL    HW1 3357   5.126   2.865   1.297  0.1990  0.0552 -1.0760
32507SOL    HW2 3358   4.976   2.855   1.316  0.2030 -0.7242 -1.4332
32508SOL     OW 3359   3.289   2.819   7.766  1.0538  0.2058 -0.3249
32508SOL    HW1 3360   3.259   2.880   7.699  0.6619 -0.4498 -0.7657
32508SOL    HW2 3361   3.212   2.765   7.785  0.8571  1.0452  1.4133
32509SOL     OW 3362   8.833   4.312   8.405 -0.0649 -0.0902 -0.2463
32509SOL    HW1 3363   8.827   4.250   8.333 -2.2514  1.9126 -1.9563
32509SOL    HW2 3364   8.874   4.263   8.476  1.9862 -2.2574 -2.6996
32510SOL     OW 3365   0.443   1.596   4.985 -0.2063 -0.4409 -0.0725
32510SOL    HW1 3366   0.374   1.588   4.920 -1.0970  0.7788  0.6828
32510SOL    HW2 3367   0.524   1.586   4.935 -0.8839 -0.1682 -1.2566
32511SOL     OW 3368  10.453   3.819   1.725 -0.0105  0.1841  0.5529
32511SOL    HW1 3369  10.513   3.814   1.799  0.7876 -0.8985 -0.1291
32511SOL    HW2 3370  10.502   3.781   1.651 -1.3148 -0.1961 -0.1606
32512SOL     OW 3371   0.127   8.418   7.914  0.3903 -0.6072  0.1402
32512SOL    HW1 3372   0.129   8.323   7.908 -0.3361 -0.6858  1.0387
32512SOL    HW2 3373   0.040   8.439   7.949  0.8237  0.3362  0.6999
32513SOL     OW 3374  10.106   4.025   4.862 -0.3422  0.6365  0.2454
32513SOL    HW1 3375  10.121   3.957   4.795 -0.6761  1.4817 -0.7185
32513SOL    HW2 3376  10.090   4.104   4.811 -0.6396  1.2946  1.3508
32514SOL     OW 3377  10.526   4.515   6.941 -0.0767 -0.5984 -0.0283
32514SOL    HW1 3378  10.597   4.512   6.877  0.9468 -0.6568  1.0807
32514SOL    HW2 3379  10.466   4.445   6.914  0.9447 -1.4066 -0.2435
32515SOL     OW 3380   6.558   8.066   5.592 -0.4432 -0.1114 -0.2524
32515SOL    HW1 3381   6.535   8.155   5.565 -1.8704 -0.5701 -0.6429
32515SOL    HW2 3382   6.637   8.046   5.544  0.2761  1.1733  0.3318
32516SOL     OW 3383   3.139   3.140   8.426  0.1410  0.3222 -0.1688
32516SOL    HW1 3384   3.215   3.093   8.459  0.3044  1.3332  0.9358
32516SOL    HW2 3385   3.141   3.125   8.331  3.4663  2.7502 -0.6457
32517SOL     OW 3386   2.465   4.696  10.245  0.0968 -0.1442 -0.4951
32517SOL    HW1 3387   2.483   4.603  10.233  1.0193  0.1854 -1.8735
32517SOL    HW2 3388   2.538   4.741  10.201 -0.3002  1.2292  0.1872
32518SOL     OW 3389   0.706  10.094   6.821 -0.7339 -0.1986  0.3159
32518SOL    HW1 3390   0.719  10.018   6.765  0.2970  0.5856 -0.5577
32518SOL    HW2 3391   0.714  10.060   6.910 -0.8690 -1.2041 -0.0478
32519SOL     OW 3392   2.820  10.044   7.005  0.5526  0.0594 -0.2883
32519SOL    HW1 3393   2.758  10.027   6.935  0.0594  0.4230  0.0521
32519SOL    HW2 3394   2.819   9.964   7.058 -0.9430  0.6707  0.6914
32520SOL     OW 3395   0.388   0.990   8.424  0.7733  0.1331  0.1051
32520SOL    HW1 3396   0.378   1.047   8.347  1.8880 -0.0810 -0.2148
32520SOL    HW2 3397   0.451   0.924   8.397 -2.4957 -3.0728 -0.5381
32521SOL     OW 3398   6.315   1.909  10.101 -0.7330 -0.6171 -1.0020
32521SOL    HW1 3399   6.307   2.000  10.131  0.4823 -0.8256  0.0119
32521SOL    HW2 3400   6.225   1.879  10.095 -1.1218  0.3189 -0.2619
32522SOL     OW 3401   2.394   8.383   7.204  0.2373  0.0258  0.1375
32522SOL    HW1 3402   2.365   8.393   7.295 -0.7320 -0.0202 -0.1449
32522SOL    HW2 3403   2.384   8.470   7.166 -0.3202 -0.1691 -0.1778
32523SOL     OW 3404   7.634   4.971   0.755  0.2182  0.1247  0.2363
32523SOL    HW1 3405   7.595   5.047   0.798 -1.3056  0.4524 -1.5668
32523SOL    HW2 3406   7.591   4.896   0.795  0.4138  0.2997  0.7808
32524SOL     OW 3407   0.569   2.979  10.061  0.3148 -0.3306 -0.0445
32524SOL    HW1 3408   0.571   2.884  10.050 -1.9820 -0.6935  2.0109
32524SOL    HW2 3409   0.660   3.003  10.081  0.8341 -2.1367 -0.0894
32525SOL     OW 3410   2.353   2.127   8.915 -0.2891 -0.3148 -0.6621
32525SOL    HW1 3411   2.320   2.069   8.847 -0.8050  1.0223 -1.5898
32525SOL    HW2 3412   2.347   2.215   8.878 -0.5498  0.4677  1.0961
32526SOL     OW 3413   3.188   2.081   1.782 -0.6530 -0.6236 -0.0761
32526SOL    HW1 3414   3.103   2.122   1.796 -0.4794 -0.0206 -0.7829
32526SOL    HW2 3415   3.172   2.015   1.714 -0.5501 -0.5167 -0.2021
32527SOL     OW 3416   4.175   9.061   2.957  0.5456  0.0931 -0.0778
32527SOL    HW1 3417   4.179   8.991   2.893 -0.5161  1.1438 -1.3510
32527SOL    HW2 3418   4.082   9.082   2.964  0.9182  2.4108 -0.9552
32528SOL     OW 3419  10.610   9.910   9.138  0.1289  0.3409  0.2905
32528SOL    HW1 3420  10.554   9.883   9.211  2.6810  1.4988  2.8859
32528SOL    HW2 3421  10.567   9.988   9.103 -2.1222 -1.2731 -0.8252
32529SOL     OW 3422   9.820  10.465   5.305  0.4045 -0.0593 -0.1120
32529SOL    HW1 3423   9.770  10.384   5.312 -1.2791  0.6094 -3.0168
32529SOL    HW2 3424   9.902  10.439   5.263 -0.4863 -0.2018 -1.8363
32530SOL     OW 3425   9.772   7.942   1.165 -0.0426  0.2979  0.0617
32530SOL    HW1 3426   9.702   7.916   1.225 -1.6598  4.0279  0.0723
32530SOL    HW2 3427   9.832   7.993   1.219  2.2639 -1.9549 -0.1916
32531SOL     OW 3428   8.717   3.821   9.467 -0.2301  0.0419  0.0314
32531SOL    HW1 3429   8.631   3.846   9.432  0.6189  1.4811 -1.0994
32531SOL    HW2 3430   8.731   3.882   9.540 -0.4222 -0.6152  0.6333
32532SOL     OW 3431   6.860   1.487   9.956 -0.3320 -0.4969 -0.4287
32532SOL    HW1 3432   6.955   1.475   9.955 -0.0865  1.2128 -0.5598
32532SOL    HW2 3433   6.831   1.451   9.872  0.4206  0.4573 -1.1191
32533SOL     OW 3434   9.763   8.543   8.166  0.0744  0.1134  0.1402
32533SOL    HW1 3435   9.706   8.512   8.095  1.4640  0.5123 -1.2031
32533SOL    HW2 3436   9.758   8.474   8.232 -0.0158 -1.0546 -1.0439
32534SOL     OW 3437   8.803   2.789   9.461 -0.3691 -0.1602  0.4979
32534SOL    HW1 3438   8.770   2.813   9.375  0.3005  0.7353  0.4737
32534SOL    HW2 3439   8.724   2.774   9.514 -0.7834 -0.3679 -0.1734
32535SOL     OW 3440   8.288  10.044   2.130  0.4249  0.0205 -0.0296
32535SOL    HW1 3441   8.269   9.952   2.148  0.9719 -0.4090 -1.5054
32535SOL    HW2 3442   8.378  10.044   2.096  0.3325  1.0690 -0.3090
32536SOL     OW 3443   4.279   9.502   4.294 -0.5222 -0.6306  0.0283
32536SOL    HW1 3444   4.275   9.594   4.322  0.8731  0.4196 -2.7858
32536SOL    HW2 3445   4.373   9.481   4.297 -0.5929 -1.2256 -1.3660
32537SOL     OW 3446   6.701   4.146   4.521  0.3163  0.4090 -0.1962
32537SOL    HW1 3447   6.677   4.085   4.591  2.9327  1.8623  2.1195
32537SOL    HW2 3448   6.650   4.225   4.539  0.9259  0.7536  0.0447
32538SOL     OW 3449   8.331   4.005   3.919  0.3163 -0.4607 -0.5563
32538SOL    HW1 3450   8.347   3.918   3.883  1.0371  0.2114 -1.9241
32538SOL    HW2 3451   8.265   4.044   3.861 -1.8918 -0.9428  1.4688
32539SOL     OW 3452   0.389   3.199   8.897  0.2443 -0.2480 -0.5513
32539SOL    HW1 3453   0.422   3.184   8.986 -0.1498 -1.0638 -0.5411
32539SOL    HW2 3454   0.335   3.278   8.905  2.0859  1.1008 -0.5550
32540SOL     OW 3455   2.955   7.155   7.026 -0.0833 -0.1182 -0.3135
32540SOL    HW1 3456   2.974   7.065   7.051  1.1216  0.2594  0.2289
32540SOL    HW2 3457   2.889   7.148   6.957  0.2099 -1.4130 -0.4810
32541SOL     OW 3458   6.652   9.556   4.095 -0.2821  0.7395 -0.1808
32541SOL    HW1 3459   6.620   9.610   4.167  1.0826  0.6738  0.5042
32541SOL    HW2 3460   6.734   9.598   4.068  0.9158 -1.0640  0.5040
32542SOL     OW 3461   4.008   4.303   4.604  0.1548  0.0749 -0.4698
32542SOL    HW1 3462   3.936   4.243   4.623 -0.4175  0.2094 -2.0099
32542SOL    HW2 3463   4.084   4.264   4.647 -0.1247 -1.9873 -1.6858
32543SOL     OW 3464   6.976   2.759   0.714  0.2701 -0.0812 -0.2075
32543SOL    HW1 3465   6.917   2.823   0.673  0.8080  0.6358  0.0991
32543SOL    HW2 3466   6.930   2.676   0.708 -1.0472  0.5600  0.5876
32544SOL     OW 3467   8.484   8.760   6.239 -0.2134  0.4961 -0.0618
32544SOL    HW1 3468   8.531   8.842   6.231  0.7524 -0.1856 -2.8021
32544SOL    HW2 3469   8.541   8.696   6.196 -0.9402 -1.6360  1.9435
32545SOL     OW 3470   1.796   2.777   4.662 -0.0252 -0.3040 -0.4952
32545SOL    HW1 3471   1.755   2.794   4.577  1.7346  0.3476 -1.2738
32545SOL    HW2 3472   1.824   2.863   4.693  1.7783 -0.7969 -0.6083
32546SOL     OW 3473   7.473   7.978   9.928  0.6335  0.5381  0.3848
32546SOL    HW1 3474   7.403   8.036   9.898  0.1758  0.3581  1.0852
32546SOL    HW2 3475   7.481   7.912   9.859 -0.7281 -0.1502  0.8431
32547SOL     OW 3476   2.772   0.392   7.558 -0.5231 -0.1959  0.3213
32547SOL    HW1 3477   2.721   0.332   7.612 -0.5713 -1.5861 -1.1816
32547SOL    HW2 3478   2.713   0.415   7.486  0.2579 -0.1402 -0.3157
32548SOL     OW 3479   0.908   0.354   2.304 -0.1111  0.1872  0.0553
32548SOL    HW1 3480   0.980   0.394   2.353  0.1522  1.5838 -1.3724
32548SOL    HW2 3481   0.878   0.283   2.360  1.9318 -0.0197  0.9963
32549SOL     OW 3482   9.372   5.416   4.952  0.0308  0.0170  0.4947
32549SOL    HW1 3483   9.464   5.437   4.966 -0.3709  1.2694  1.4000
32549SOL    HW2 3484   9.340   5.388   5.037 -0.5206 -0.0653  0.2656
32550SOL     OW 3485   9.818  10.607   2.874 -0.2555 -0.0770 -0.0770
32550SOL    HW1 3486   9.724  10.625   2.865 -0.0556  0.0021 -2.6770
32550SOL    HW2 3487   9.822  10.524   2.922 -1.6957 -0.5988 -0.7944
32551SOL     OW 3488   1.499   8.587   6.399  0.3001 -0.1809 -0.3593
32551SOL    HW1 3489   1.545   8.513   6.436  2.7644  1.6676  0.5070
32551SOL    HW2 3490   1.545   8.664   6.432 -2.4917  1.8222 -0.6932
32552SOL     OW 3491   0.633   3.271   7.473 -0.0857  0.1347  0.6934
32552SOL    HW1 3492   0.608   3.244   7.561  0.6876  0.4586  1.0224
32552SOL    HW2 3493   0.695   3.342   7.486 -0.3358  0.5211 -0.1260
32553SOL     OW 3494   3.585   9.431   8.602  0.1589  0.2507 -0.0839
32553SOL    HW1 3495   3.586   9.338   8.580  2.2817  0.2233 -0.1456
32553SOL    HW2 3496   3.630   9.436   8.687 -0.6026  1.1520  0.2846
32554SOL     OW 3497   1.026   7.555   9.697  0.1024 -0.1140  0.2032
32554SOL    HW1 3498   1.019   7.643   9.735 -0.2849 -0.1981  0.3324
32554SOL    HW2 3499   1.119   7.544   9.679 -0.1311  1.5336 -2.6693
32555SOL     OW 3500   4.920   9.848   9.171  0.4455 -0.2565 -0.6764
32555SOL    HW1 3501   4.892   9.762   9.139  0.1907 -0.3025 -0.3304
32555SOL    HW2 3502   4.951   9.893   9.092  0.1672 -0.5049 -0.9324
32556SOL     OW 3503   7.921   7.043   4.184 -0.2599  0.1779 -0.6493
32556SOL    HW1 3504   7.920   6.999   4.099 -0.1643 -0.9451 -0.0835
32556SOL    HW2 3505   8.012   7.038   4.213 -0.0491  1.6024 -0.9919
32557SOL     OW 3506   7.119   3.340   7.512 -0.5454 -0.0829  0.2953
32557SOL    HW1 3507   7.128   3.369   7.603  0.3978  1.5566 -0.2594
32557SOL    HW2 3508   7.197   3.288   7.495 -0.0142  0.7593  0.0642
32558SOL     OW 3509   5.009   7.785   2.731  0.1998  0.2992 -0.6826
32558SOL    HW1 3510   5.087   7.834   2.706  0.3827  1.6165  2.1247
32558SOL    HW2 3511   5.038   7.727   2.801 -1.0674 -0.1721 -0.5128
32559SOL     OW 3512   5.251   0.816   1.438 -0.1859 -0.1408  0.1957
32559SOL    HW1 3513   5.202   0.747   1.393  1.5195 -0.2153 -1.6919
32559SOL    HW2 3514   5.226   0.897   1.393  0.4702 -0.0187  0.0465
32560SOL     OW 3515   8.568   8.686   5.774 -0.3413 -0.2759  0.1263
32560SOL    HW1 3516   8.587   8.657   5.685  1.2364 -0.8959  0.6229
32560SOL    HW2 3517   8.574   8.607   5.827 -0.4993  0.2119  0.8892
32561SOL     OW 3518   1.087   8.429   8.881 -0.2975  0.8875  0.8167
32561SOL    HW1 3519   1.176   8.462   8.870  0.2035 -0.7560 -0.3616
32561SOL    HW2 3520   1.081   8.354   8.823 -2.6137  1.2161  0.5175
32562SOL     OW 3521   5.233   8.280   2.119 -0.2749 -0.0051  0.6102
32562SOL    HW1 3522   5.195   8.263   2.205 -0.4067 -0.8944  0.3867
32562SOL    HW2 3523   5.164   8.323   2.070 -0.1168  0.7408  1.0185
32563SOL     OW 3524   2.516   3.760   4.751 -0.4758 -0.4143 -0.0938
32563SOL    HW1 3525   2.428   3.784   4.722 -1.7744 -1.0844  2.9489
32563SOL    HW2 3526   2.515   3.665   4.757  0.5279 -0.4420 -0.1045
32564SOL     OW 3527   4.374   2.140   8.104 -0.5118 -0.2618 -0.0261
32564SOL    HW1 3528   4.408   2.095   8.026 -0.8399  2.3265 -1.7754
32564SOL    HW2 3529   4.292   2.095   8.123 -0.1623 -1.2915 -0.8459
32565SOL     OW 3530   9.627   8.751   9.990 -0.2271 -0.8796 -0.4935
32565SOL    HW1 3531   9.708   8.712   9.958  0.6455  0.0667  0.4855
32565SOL    HW2 3532   9.588   8.791   9.913  0.3094 -1.2208 -0.9505
32566SOL     OW 3533   4.624   2.845   9.780 -0.1610  0.0022  0.2504
32566SOL    HW1 3534   4.719   2.857   9.772 -0.1385 -0.3036  0.0284
32566SOL    HW2 3535   4.594   2.834   9.689 -0.4263  0.2229  0.3107
32567SOL     OW 3536   1.819   1.507   4.378  0.3525 -0.0678 -0.2285
32567SOL    HW1 3537   1.888   1.506   4.312 -0.6471  0.1445 -1.2952
32567SOL    HW2 3538   1.862   1.542   4.457  1.6098 -0.5388 -0.6821
32568SOL     OW 3539   8.759   7.213   3.617  0.2534  0.0795 -0.5816
32568SOL    HW1 3540   8.796   7.302   3.615  0.5180 -0.0392 -1.3988
32568SOL    HW2 3541   8.807   7.166   3.549 -0.5830 -0.4142 -0.8354
32569SOL     OW 3542   8.343   5.824   4.465 -0.3449  0.6723 -1.1052
32569SOL    HW1 3543   8.358   5.736   4.498 -0.4295  0.9357 -0.3348
32569SOL    HW2 3544   8.405   5.879   4.514 -1.9051  1.3817  0.1592
32570SOL     OW 3545   2.887   8.628   3.260 -0.0697 -0.0274  0.0607
32570SOL    HW1 3546   2.793   8.629   3.247 -0.2390  1.8294  1.2158
32570SOL    HW2 3547   2.922   8.681   3.188 -0.2966  2.7994  1.9268
32571SOL     OW 3548   7.436   2.632   7.692  0.4830  0.1245  0.1626
32571SOL    HW1 3549   7.396   2.545   7.699 -1.0849  0.9101  1.9915
32571SOL    HW2 3550   7.489   2.640   7.772 -1.9179  1.9488  1.7212
32572SOL     OW 3551   5.389   5.522   5.870 -0.2629 -0.1052 -0.1859
32572SOL    HW1 3552   5.375   5.450   5.931 -3.4219  0.2329 -0.3353
32572SOL    HW2 3553   5.410   5.597   5.925 -1.3055 -0.2046  0.3778
32573SOL     OW 3554   4.244   3.480   7.860  0.3634 -0.5020  0.1511
32573SOL    HW1 3555   4.155   3.478   7.825 -0.5429  0.6347  2.2073
32573SOL    HW2 3556   4.275   3.569   7.840 -0.3908  0.3832  2.5152
32574SOL     OW 3557   8.253   3.529   3.080 -0.5077  0.4373 -0.3784
32574SOL    HW1 3558   8.165   3.506   3.112 -0.2420 -0.9752 -0.5814
32574SOL    HW2 3559   8.309   3.520   3.157 -0.2818 -0.3879 -0.6268
32575SOL     OW 3560   6.151  10.324   0.638  0.5576  0.3074  0.1683
32575SOL    HW1 3561   6.239  10.311   0.674  0.1990  0.6300  1.1798
32575SOL    HW2 3562   6.138  10.419   0.641  0.3112  0.2956 -0.3343
32576SOL     OW 3563   9.700   2.695   9.241 -0.1178  0.0970  0.9135
32576SOL    HW1 3564   9.699   2.728   9.151  1.0648 -1.0408  0.4644
32576SOL    HW2 3565   9.660   2.608   9.236  0.1899 -0.0821  1.4508
32577SOL     OW 3566   2.267   5.042   2.186  0.2028 -1.0210 -0.4086
32577SOL    HW1 3567   2.234   4.964   2.141 -1.5558 -0.5805  0.0178
32577SOL    HW2 3568   2.230   5.116   2.137  1.9136 -0.4264 -0.8594
32578SOL     OW 3569   4.905   8.593   0.775  0.1609  0.5348  0.3916
32578SOL    HW1 3570   4.918   8.686   0.757 -0.4431  0.9725  1.9729
32578SOL    HW2 3571   4.990   8.553   0.760 -0.2572  0.7380 -3.2980
32579SOL     OW 3572   4.493   3.575   5.090 -0.1402  0.2117 -0.6539
32579SOL    HW1 3573   4.532   3.590   5.176 -0.2171 -0.4075 -0.5004
32579SOL    HW2 3574   4.488   3.661   5.050  1.9622  0.2448 -0.9401
32580SOL     OW 3575   2.462   4.476  10.593 -0.6626  0.6819  0.0795
32580SOL    HW1 3576   2.535   4.518  10.547 -0.3895  0.8717  0.6776
32580SOL    HW2 3577   2.485   4.383  10.594 -0.1344  0.8097  0.7739
32581SOL     OW 3578   4.541   0.674   3.297 -0.3309  0.1230 -0.2023
32581SOL    HW1 3579   4.526   0.744   3.360 -1.0652  1.2463 -1.5735
32581SOL    HW2 3580   4.460   0.670   3.245  0.1753 -0.8936 -0.9498
32582SOL     OW 3581   9.865   3.525   2.504 -0.2918 -0.2640 -0.0733
32582SOL    HW1 3582   9.951   3.503   2.539 -0.0230  0.6391 -0.1378
32582SOL    HW2 3583   9.805   3.465   2.548  0.0408  0.7886  1.9245
32583SOL     OW 3584   1.778   1.194   0.523  0.4412 -0.2421  0.0241
32583SOL    HW1 3585   1.730   1.184   0.441  1.1176 -0.6362 -0.3321
32583SOL    HW2 3586   1.861   1.234   0.498  0.1210  0.9003  0.6943
32584SOL     OW 3587   6.506   6.520   2.830 -0.2335  0.1875 -0.2016
32584SOL    HW1 3588   6.456   6.472   2.896 -0.9876  0.1725 -0.7811
32584SOL    HW2 3589   6.598   6.501   2.851 -0.4744 -3.7280 -1.9952
32585SOL     OW 3590   3.401   0.209   1.345 -0.2344  0.3659  0.0997
32585SOL    HW1 3591   3.442   0.253   1.270 -1.6135  0.1848 -0.8023
32585SOL    HW2 3592   3.450   0.127   1.355 -1.0401 -0.4075 -1.7199
32586SOL     OW 3593   8.314   1.693  10.082 -0.4770 -0.2869  0.1716
32586SOL    HW1 3594   8.312   1.607  10.040 -0.0700  0.0329 -0.5177
32586SOL    HW2 3595   8.231   1.699  10.129 -0.7281 -0.8423 -0.1943
32587SOL     OW 3596  10.412   5.614   6.800  0.1799  0.4637  0.3565
32587SOL    HW1 3597  10.429   5.573   6.885  1.2989  0.0560 -0.0558
32587SOL    HW2 3598  10.471   5.690   6.797  0.3613  0.3071 -0.1794
32588SOL     OW 3599   6.978   8.179   4.083 -0.2048  0.2623  0.4501
32588SOL    HW1 3600   6.935   8.259   4.114 -3.0134 -0.8657 -0.2059
32588SOL    HW2 3601   6.970   8.118   4.156  2.4832  0.6795  1.1813
32589SOL     OW 3602   5.313   7.896   0.840  0.2403 -0.2479 -0.5113
32589SOL    HW1 3603   5.297   7.833   0.910 -1.0315  0.0626 -0.5030
32589SOL    HW2 3604   5.267   7.976   0.868  0.5662  0.1979 -1.2211
32590SOL     OW 3605   5.857   4.882   0.896 -0.0234 -0.3465  0.3111
32590SOL    HW1 3606   5.836   4.961   0.946 -1.0743 -0.6273  0.3502
32590SOL    HW2 3607   5.940   4.901   0.853  0.0307  0.5503  0.7967
32591SOL     OW 3608  10.323   6.691   0.257 -0.4341  0.5692  0.0836
32591SOL    HW1 3609  10.276   6.712   0.177 -1.1523 -0.2729  0.2684
32591SOL    HW2 3610  10.353   6.601   0.245  1.0605  1.0399  0.0211
32592SOL     OW 3611   0.497   0.866   1.828 -0.2264  0.5697 -0.3535
32592SOL    HW1 3612   0.432   0.922   1.786 -0.1527  1.9684  1.2556
32592SOL    HW2 3613   0.580   0.910   1.812 -0.2851  1.6338  1.8690
32593SOL     OW 3614   3.458   4.981   4.023 -0.0537  0.0037 -0.0794
32593SOL    HW1 3615   3.537   4.928   4.032  0.1770  0.5350  1.3000
32593SOL    HW2 3616   3.433   4.972   3.931 -1.0676 -3.9709  0.4056
32594SOL     OW 3617   1.252   9.132   5.518  0.4653  0.2279  0.1501
32594SOL    HW1 3618   1.210   9.072   5.456  1.0167  1.4850 -1.5153
32594SOL    HW2 3619   1.345   9.108   5.515  0.5316  0.4696  0.3102
32595SOL     OW 3620   0.679   9.816   0.561  0.6715 -0.2297  0.1432
32595SOL    HW1 3621   0.685   9.884   0.628 -0.7515 -0.2275  0.3044
32595SOL    HW2 3622   0.700   9.861   0.479  1.5614 -0.0394  0.4595
32596SOL     OW 3623   7.974  10.445   2.199  0.2021 -0.2827 -0.2679
32596SOL    HW1 3624   7.899  10.408   2.246 -0.7200 -1.0107 -2.2377
32596SOL    HW2 3625   7.980  10.396   2.118  0.6639  2.0280 -1.7413
32597SOL     OW 3626   5.113   7.994   0.411  0.0751 -0.0961  0.0381
32597SOL    HW1 3627   5.025   8.021   0.385 -0.2769 -0.5410  0.7353
32597SOL    HW2 3628   5.158   7.973   0.329 -0.7618 -0.7474 -0.2639
32598SOL     OW 3629   1.712   8.928   4.018  0.0993  0.1457  0.1685
32598SOL    HW1 3630   1.666   8.849   4.045  1.1093 -1.0044 -1.3363
32598SOL    HW2 3631   1.672   8.998   4.071 -0.5971 -1.3763  1.7592
32599SOL     OW 3632   5.958   0.707   8.190 -0.3939 -0.5651 -0.5717
32599SOL    HW1 3633   5.891   0.748   8.245 -0.8236 -0.6884 -0.9919
32599SOL    HW2 3634   5.923   0.620   8.170  0.2017 -0.8843 -0.2480
32600SOL     OW 3635   0.755   8.597   5.478  0.1470 -0.0506 -0.0076
32600SOL    HW1 3636   0.738   8.598   5.384  0.8936  0.3766 -0.1521
32600SOL    HW2 3637   0.747   8.689   5.505 -0.9050 -0.2827  0.5170
32601SOL     OW 3638   7.506   0.222   6.679  0.3552  0.6308  0.4967
32601SOL    HW1 3639   7.457   0.143   6.654  0.0348  0.6839  0.9481
32601SOL    HW2 3640   7.442   0.292   6.674  0.3673  0.6907  1.1593
32602SOL     OW 3641   6.023   2.117   1.382  0.5423  0.2162  0.5096
32602SOL    HW1 3642   6.049   2.138   1.472 -0.9459 -2.2006  1.6169
32602SOL    HW2 3643   6.089   2.054   1.353  1.8497  2.0414 -0.7261
32603SOL     OW 3644   2.976   3.805   9.321 -0.5310 -0.1814 -0.1537
32603SOL    HW1 3645   2.994   3.733   9.260  1.0282 -0.6151  0.7816
32603SOL    HW2 3646   2.962   3.762   9.405  2.5164  0.6336  0.8834
32604SOL     OW 3647   7.605   2.060   7.470 -0.4661  0.3890 -0.2582
32604SOL    HW1 3648   7.629   2.150   7.451  2.0285 -0.2830 -0.6690
32604SOL    HW2 3649   7.656   2.037   7.548 -0.2103 -0.9739 -0.7897
32605SOL     OW 3650   4.521   0.651   4.454  0.1317 -0.2456  0.0910
32605SOL    HW1 3651   4.580   0.711   4.499 -0.4371  0.5344 -0.1887
32605SOL    HW2 3652   4.569   0.568   4.452  1.6473  0.6020 -0.9985
32606SOL     OW 3653   3.185   3.393   6.507  0.2073  0.3095  0.1743
32606SOL    HW1 3654   3.091   3.389   6.488 -0.2673  2.3871  1.7209
32606SOL    HW2 3655   3.217   3.465   6.453  0.7510  0.1590  0.2900
32607SOL     OW 3656   7.780   2.142   5.593 -0.1280  0.2642 -0.2606
32607SOL    HW1 3657   7.812   2.196   5.521 -2.1411  0.5657 -0.9961
32607SOL    HW2 3658   7.735   2.069   5.551 -0.7037  0.0519  0.6854
32608SOL     OW 3659   4.415   6.864   7.732 -0.0846 -0.0637 -0.7957
32608SOL    HW1 3660   4.499   6.909   7.715  0.4882 -1.1359 -0.8763
32608SOL    HW2 3661   4.429   6.775   7.700 -1.1842 -0.3232 -0.5757
32609SOL     OW 3662   7.133   3.797   3.477 -0.2469  0.0957 -0.0542
32609SOL    HW1 3663   7.106   3.711   3.509  0.3846 -0.5919 -1.3127
32609SOL    HW2 3664   7.134   3.852   3.556 -1.6009 -0.7828  0.6153
32610SOL     OW 3665   1.561  10.493   9.918 -0.2619  0.2624 -0.5510
32610SOL    HW1 3666   1.585  10.414   9.870 -1.4811 -0.1723 -0.4807
32610SOL    HW2 3667   1.466  10.488   9.927 -0.4099  1.9339 -0.8673
32611SOL     OW 3668   5.907   9.846  10.322  0.2320  0.4574  0.1533
32611SOL    HW1 3669   5.886   9.757  10.295  1.2112  0.1403  0.3829
32611SOL    HW2 3670   5.870   9.902  10.254  0.0283 -0.1544 -0.2386
32612SOL     OW 3671   7.692   1.939   5.419 -0.5498 -0.4844  0.2150
32612SOL    HW1 3672   7.632   1.875   5.381 -2.7373  2.1869 -1.2305
32612SOL    HW2 3673   7.736   1.978   5.343  0.1516  0.2515  0.9800
32613SOL     OW 3674   8.728   8.397   9.553  0.3068 -0.4632  0.2773
32613SOL    HW1 3675   8.748   8.407   9.646 -2.4592 -2.5207  1.2509
32613SOL    HW2 3676   8.666   8.468   9.534  1.0229  0.0797 -0.1033
32614SOL     OW 3677   1.652   1.276   7.326 -0.4136  0.4586 -0.0203
32614SOL    HW1 3678   1.739   1.238   7.330 -0.8409 -0.6716 -0.7971
32614SOL    HW2 3679   1.659   1.348   7.263 -0.2089 -0.1045 -0.6455
32615SOL     OW 3680   9.408   5.599   4.514 -0.2034 -0.0223 -0.5581
32615SOL    HW1 3681   9.427   5.614   4.421 -0.0644  0.6284 -0.4333
32615SOL    HW2 3682   9.482   5.639   4.560 -0.4240 -0.0668 -0.1608
32616SOL     OW 3683   0.661   6.303   9.648 -0.4428 -0.1021  0.0678
32616SOL    HW1 3684   0.748   6.303   9.607  0.5332  1.1789  1.9804
32616SOL    HW2 3685   0.644   6.395   9.667 -1.5626 -0.4968  1.0781
32617SOL     OW 3686   9.971   1.776   9.345 -0.2631 -0.4132 -0.4671
32617SOL    HW1 3687   9.950   1.859   9.389  1.6656 -0.7014  1.1480
32617SOL    HW2 3688   9.922   1.779   9.263 -1.9559  1.3475  0.5343
32618SOL     OW 3689   3.377   6.002   4.336  0.4407 -0.6425  0.0162
32618SOL    HW1 3690   3.467   5.990   4.367  0.9444  0.8829 -0.7508
32618SOL    HW2 3691   3.384   6.001   4.241 -0.1856  0.5644 -0.0581
32619SOL     OW 3692   2.266   4.569   6.587  0.2710  0.2446 -0.5013
32619SOL    HW1 3693   2.289   4.489   6.539  0.6015  0.3099 -0.4572
32619SOL    HW2 3694   2.257   4.540   6.678  2.3658  0.5868 -0.1313
32620SOL     OW 3695   5.226   1.336   9.736  0.1578 -0.0094  0.2927
32620SOL    HW1 3696   5.223   1.241   9.727  2.0864 -0.0140 -0.7595
32620SOL    HW2 3697   5.201   1.352   9.828 -2.4691 -1.3023 -0.0945
32621SOL     OW 3698   7.475  10.085   0.428 -0.3765 -0.5319 -0.4349
32621SOL    HW1 3699   7.405  10.128   0.380  0.6080  0.1584 -1.3037
32621SOL    HW2 3700   7.473  10.126   0.514  0.6341  1.4596 -1.2791
32622SOL     OW 3701   5.641   2.777   2.657 -0.5131  0.6177  0.1150
32622SOL    HW1 3702   5.735   2.788   2.667 -0.5411  0.3070  0.7343
32622SOL    HW2 3703   5.610   2.863   2.625  0.0317  0.5795 -0.5470
32623SOL     OW 3704   1.092   0.835   2.739 -0.7722  0.2318  0.1192
32623SOL    HW1 3705   1.025   0.893   2.774 -1.8161  1.0540 -2.8955
32623SOL    HW2 3706   1.052   0.799   2.659  0.7814 -2.7309  0.5294
32624SOL     OW 3707   4.342   7.804   7.151  0.3446  0.1048 -0.1759
32624SOL    HW1 3708   4.252   7.803   7.118 -0.5667 -1.5632  2.1197
32624SOL    HW2 3709   4.367   7.897   7.149 -2.4682  1.0350  1.6290
32625SOL     OW 3710   3.226   5.168  10.104  0.4017 -0.3713  0.5467
32625SOL    HW1 3711   3.291   5.099  10.098 -1.1222 -1.8173 -0.1158
32625SOL    HW2 3712   3.244   5.225  10.029  1.0358 -0.6115  0.5109
32626SOL     OW 3713   3.172   1.122   9.739  0.0689 -0.3973  0.4639
32626SOL    HW1 3714   3.113   1.067   9.686 -0.5908  0.7332 -0.0088
32626SOL    HW2 3715   3.140   1.211   9.726 -1.3675 -0.1454  4.2441
32627SOL     OW 3716   3.720   9.953   6.202  0.0709  0.4348 -0.2590
32627SOL    HW1 3717   3.656   9.887   6.227 -0.4293  1.5226  1.5462
32627SOL    HW2 3718   3.678  10.036   6.224  0.4309  1.4584 -2.9898
32628SOL     OW 3719   7.202  10.138   2.346 -0.4586 -0.5574  0.0439
32628SOL    HW1 3720   7.242  10.085   2.277  0.0477  0.4874 -0.4779
32628SOL    HW2 3721   7.274  10.188   2.383 -1.0387  0.3171  0.0286
32629SOL     OW 3722   5.383   6.762   7.968  0.2803  0.2766 -0.4394
32629SOL    HW1 3723   5.445   6.709   8.018  0.2288 -0.8483 -1.5068
32629SOL    HW2 3724   5.339   6.699   7.911 -0.0541  1.4249 -1.4933
32630SOL     OW 3725   2.914   8.332   5.271  0.9201  0.0966 -0.0584
32630SOL    HW1 3726   2.901   8.267   5.339 -1.4304 -0.7740 -1.2392
32630SOL    HW2 3727   2.957   8.405   5.315  0.0070 -0.6600  2.2123
32631SOL     OW 3728   3.274   8.326   6.542 -0.3705  0.3599  0.2073
32631SOL    HW1 3729   3.333   8.386   6.497  0.3584  0.0093  0.6891
32631SOL    HW2 3730   3.239   8.376   6.615 -1.2366  0.7965 -0.4781
32632SOL     OW 3731   8.908   5.264   4.153 -0.2829  0.2431  0.1660
32632SOL    HW1 3732   8.849   5.279   4.227  0.1705 -0.0363  0.5899
32632SOL    HW2 3733   8.883   5.330   4.089 -0.8967  0.2822  0.4396
32633SOL     OW 3734   8.355   9.725   4.466 -0.3114 -0.4837  0.0043
32633SOL    HW1 3735   8.303   9.734   4.546 -0.8096 -0.1738 -0.3508
32633SOL    HW2 3736   8.326   9.642   4.428  0.8042 -1.2476  0.7702
32634SOL     OW 3737   5.755   1.963   7.664 -0.5663  0.2765  0.1619
32634SOL    HW1 3738   5.782   1.920   7.746 -0.8892  0.3904  0.3288
32634SOL    HW2 3739   5.763   1.895   7.598 -1.2815 -0.1124  0.4615
32635SOL     OW 3740   2.376   8.805  10.213 -0.0147  0.3391  0.0852
32635SOL    HW1 3741   2.395   8.799  10.120 -0.3716  4.2102 -0.4203
32635SOL    HW2 3742   2.293   8.852  10.218 -1.3866 -2.0752  2.4052
32636SOL     OW 3743   1.505   7.023   3.378 -0.1184 -0.3077 -0.6168
32636SOL    HW1 3744   1.530   7.091   3.441  0.8166  0.2006 -1.4986
32636SOL    HW2 3745   1.487   6.946   3.432 -0.3490  0.3953  0.3436
32637SOL     OW 3746   3.285   6.337   7.830 -0.5637  0.6816  0.0015
32637SOL    HW1 3747   3.263   6.245   7.814  1.9153 -0.1859  1.0906
32637SOL    HW2 3748   3.380   6.341   7.821 -0.5212  2.9711  0.8257
32638SOL     OW 3749  10.644   0.700   2.070 -0.3798 -0.7903  0.0688
32638SOL    HW1 3750  10.683   0.721   1.986  1.7971  0.5165  1.3053
32638SOL    HW2 3751  10.558   0.743   2.068 -0.2135 -0.4782 -1.3209
32639SOL     OW 3752   7.358  10.503   3.103 -0.5271 -0.0421  0.1904
32639SOL    HW1 3753   7.437  10.522   3.153 -0.7119  1.9244 -0.1646
32639SOL    HW2 3754   7.290  10.488   3.169 -0.3305  0.4658  0.5087
32640SOL     OW 3755   5.253   2.447   1.762  0.7211 -0.3323  0.0058
32640SOL    HW1 3756   5.288   2.532   1.786  0.7982 -0.4862  0.4503
32640SOL    HW2 3757   5.165   2.445   1.801  0.5794 -0.3149 -0.3108
32641SOL     OW 3758   7.320   4.726   8.845 -0.1859  0.3828 -0.3216
32641SOL    HW1 3759   7.336   4.738   8.939 -2.2173  0.2913  0.0958
32641SOL    HW2 3760   7.388   4.778   8.802 -0.9478  2.9144  1.2789
32642SOL     OW 3761   1.181   3.652   3.163  0.1142  0.2120 -0.3964
32642SOL    HW1 3762   1.190   3.735   3.210 -0.5465 -0.2161  0.5277
32642SOL    HW2 3763   1.262   3.605   3.183  0.1331  0.3063 -0.2432
32643SOL     OW 3764   6.540   8.561   7.090 -0.1595 -0.5484  0.0816
32643SOL    HW1 3765   6.542   8.488   7.152  0.8820 -0.9268 -0.3749
32643SOL    HW2 3766   6.626   8.560   7.048 -1.0820 -0.8205 -1.9650
32644SOL     OW 3767   3.174   6.541   8.390  0.7437 -0.6175 -0.2592
32644SOL    HW1 3768   3.192   6.624   8.345  0.4592 -0.1407  0.4954
32644SOL    HW2 3769   3.148   6.566   8.478  0.6293 -1.5152 -0.0258
32645SOL     OW 3770   3.971   6.381   7.099 -0.4738  0.5461 -0.1424
32645SOL    HW1 3771   4.032   6.416   7.163  0.9757 -0.7195 -0.7686
32645SOL    HW2 3772   3.939   6.299   7.139 -0.1455  0.1406 -0.6982
32646SOL     OW 3773   9.693   0.925   7.177 -0.1305 -0.4565 -0.0026
32646SOL    HW1 3774   9.787   0.906   7.177  0.0122  0.1355  1.1559
32646SOL    HW2 3775   9.685   1.005   7.230 -1.2137 -0.1061 -0.6654
32647SOL     OW 3776   1.539   5.540   2.850  0.4792 -0.1493  0.4625
32647SOL    HW1 3777   1.513   5.496   2.931 -0.5098  1.8327  1.2891
32647SOL    HW2 3778   1.485   5.499   2.782 -0.1563 -0.4716  1.1441
32648SOL     OW 3779   1.740   7.350   9.987  0.1059  0.2732  0.4710
32648SOL    HW1 3780   1.790   7.407   9.929 -0.7611  0.6634  0.0745
32648SOL    HW2 3781   1.648   7.371   9.967 -0.2643 -1.6221 -0.0639
32649SOL     OW 3782   1.791   4.402   0.985  0.1094 -0.5964  0.4094
32649SOL    HW1 3783   1.749   4.488   0.985 -0.5441 -0.8874  1.8884
32649SOL    HW2 3784   1.807   4.384   0.892  0.6622  1.2920  0.0832
32650SOL     OW 3785   2.289   2.690   9.786 -0.0761  0.0202 -0.0681
32650SOL    HW1 3786   2.345   2.755   9.743  2.3318 -0.4640  2.1250
32650SOL    HW2 3787   2.341   2.658   9.859 -2.8191 -1.3735  1.4209
32651SOL     OW 3788  10.303   9.018   4.995 -0.1570  0.0034 -0.2601
32651SOL    HW1 3789  10.246   9.076   5.046  0.6556 -0.5485  1.3506
32651SOL    HW2 3790  10.242   8.956   4.953 -1.0241  1.8556 -1.8978
32652SOL     OW 3791   3.468   5.782   1.023  0.1985 -0.4334 -0.5384
32652SOL    HW1 3792   3.424   5.826   0.950 -1.2595 -0.8708  0.0396
32652SOL    HW2 3793   3.425   5.817   1.101  2.1528  0.4956  0.1937
32653SOL     OW 3794   9.125  10.520   6.798 -0.4943 -0.5255  0.1197
32653SOL    HW1 3795   9.124  10.613   6.772 -1.1764 -0.5750 -0.0351
32653SOL    HW2 3796   9.205  10.486   6.759 -0.1481  0.0395  0.3186
32654SOL     OW 3797   6.287   4.247   9.441  0.4854  0.2637  0.0699
32654SOL    HW1 3798   6.314   4.231   9.351 -0.1263  0.3214 -0.1268
32654SOL    HW2 3799   6.208   4.302   9.434  1.2206  1.4382  0.6738
32655SOL     OW 3800   7.005   8.836   8.320 -0.1600 -0.8456  0.5668
32655SOL    HW1 3801   7.063   8.812   8.248  0.6040  0.4000  0.7447
32655SOL    HW2 3802   7.037   8.787   8.395 -0.1908 -1.1968  0.3529
32656SOL     OW 3803   0.914   7.124   3.323  0.3286 -0.3674  0.1437
32656SOL    HW1 3804   0.998   7.166   3.306  0.9793 -1.5150  0.4491
32656SOL    HW2 3805   0.918   7.099   3.415  0.0443 -1.2946 -0.0921
32657SOL     OW 3806   0.600   4.654   3.603 -0.1447 -0.0561  0.6191
32657SOL    HW1 3807   0.584   4.714   3.675  1.1540  0.1461  0.7576
32657SOL    HW2 3808   0.575   4.703   3.525  1.6293  0.9745  0.6610
32658SOL     OW 3809   9.996   8.945   4.075 -0.4828  0.4144  0.0065
32658SOL    HW1 3810  10.050   8.895   4.136  0.1017  1.8869  0.7212
32658SOL    HW2 3811   9.911   8.901   4.078 -0.3785  0.2575  1.6588
32659SOL     OW 3812   2.870   4.008   7.360 -0.2438  0.4963 -0.5945
32659SOL    HW1 3813   2.847   3.922   7.395  1.3868  0.0036 -0.6430
32659SOL    HW2 3814   2.806   4.024   7.291  0.0062 -1.1612 -1.2710
32660SOL     OW 3815   6.328   0.374   2.357  0.1203 -0.2172 -0.2114
32660SOL    HW1 3816   6.257   0.316   2.383 -1.4651  2.0045  0.7155
32660SOL    HW2 3817   6.360   0.411   2.439 -0.5213  1.9780 -0.8947
32661SOL     OW 3818   2.246   0.631   1.807 -0.2579 -0.8540 -0.7482
32661SOL    HW1 3819   2.300   0.637   1.728 -0.6884  3.3742 -0.9636
32661SOL    HW2 3820   2.309   0.621   1.878  0.7658  1.4064 -1.2261
32662SOL     OW 3821   5.534   8.590   7.227 -0.1400  0.1448  0.5341
32662SOL    HW1 3822   5.483   8.582   7.308 -0.1355  0.5581  0.5802
32662SOL    HW2 3823   5.591   8.665   7.242 -0.5497  0.5862 -0.0715
32663SOL     OW 3824   4.590  10.293   3.252  0.0437  0.1468  0.5436
32663SOL    HW1 3825   4.501  10.258   3.256  0.2758 -0.7363 -1.1272
32663SOL    HW2 3826   4.638  10.242   3.318 -0.4881  0.0157  0.8365
32664SOL     OW 3827   5.423   7.221   9.046  0.7738 -0.2769  0.0208
32664SOL    HW1 3828   5.331   7.234   9.025  0.2380 -0.5369  2.0510
32664SOL    HW2 3829   5.431   7.128   9.065  1.6513 -0.4072 -0.8562
32665SOL     OW 3830   6.590   4.185   1.938  0.7804 -0.7375 -0.2081
32665SOL    HW1 3831   6.651   4.160   1.869  0.4208 -0.9891 -0.4437
32665SOL    HW2 3832   6.621   4.139   2.016  1.0614 -0.6254 -0.2526
32666SOL     OW 3833   2.290   9.278   2.036  0.2676 -0.5715  0.1533
32666SOL    HW1 3834   2.293   9.371   2.012  0.3211 -0.8705 -1.0990
32666SOL    HW2 3835   2.197   9.256   2.034  0.3393 -0.8545 -0.9321
32667SOL     OW 3836   0.285   5.793   7.934 -0.5819 -0.3063  0.5696
32667SOL    HW1 3837   0.362   5.780   7.877  1.1667  0.8677  2.5121
32667SOL    HW2 3838   0.222   5.728   7.904  1.3773 -1.7172 -0.7560
32668SOL     OW 3839   3.395   3.570   6.014  0.2211  0.3940  0.0389
32668SOL    HW1 3840   3.375   3.625   6.090 -1.9071 -0.7355  0.3811
32668SOL    HW2 3841   3.389   3.629   5.939 -0.4901  0.9519  0.5208
32669SOL     OW 3842   6.285   4.191   3.028 -0.4668 -0.6302 -0.4928
32669SOL    HW1 3843   6.269   4.234   2.944  0.3766 -0.3098 -0.4924
32669SOL    HW2 3844   6.217   4.227   3.086 -1.2104 -1.0437 -1.0925
32670SOL     OW 3845   4.740   8.620   5.211 -0.2364  0.5780  0.3194
32670SOL    HW1 3846   4.810   8.649   5.269 -0.5878  0.5550  0.7630
32670SOL    HW2 3847   4.737   8.525   5.221 -0.5762  0.6146  0.5884
32671SOL     OW 3848   2.133  10.009   4.414  0.7918  0.7299  0.0483
32671SOL    HW1 3849   2.090  10.092   4.398  2.0496  1.3565 -0.1894
32671SOL    HW2 3850   2.067   9.943   4.390  0.5863  1.6366 -2.1204
32672SOL     OW 3851   5.552   8.139  10.106 -0.6787 -0.2514  0.1558
32672SOL    HW1 3852   5.526   8.163  10.195 -0.9433 -1.9161  0.5681
32672SOL    HW2 3853   5.539   8.218  10.055 -0.8401  0.6474  1.5351
32673SOL     OW 3854   2.434  10.231   1.819 -0.2588 -0.1630  0.1298
32673SOL    HW1 3855   2.462  10.141   1.832  0.5458  0.0254 -0.3009
32673SOL    HW2 3856   2.515  10.282   1.818 -0.7000  0.5557  0.2720
32674SOL     OW 3857   3.036   5.294   9.844 -0.4388  0.0029 -0.0126
32674SOL    HW1 3858   3.018   5.295   9.750  0.0662  0.3180 -0.1090
32674SOL    HW2 3859   2.951   5.281   9.885 -0.9187  1.5723 -0.4497
32675SOL     OW 3860   1.485   7.718   9.443  0.4622 -0.0545  1.3019
32675SOL    HW1 3861   1.481   7.772   9.364 -0.2590 -0.9107  0.7342
32675SOL    HW2 3862   1.559   7.660   9.429  0.3147 -0.2278  1.2418
32676SOL     OW 3863   9.195   6.815   3.327  0.0535 -0.3146  0.3091
32676SOL    HW1 3864   9.255   6.880   3.290 -0.1856 -0.6975 -0.7683
32676SOL    HW2 3865   9.133   6.797   3.257  0.1903 -1.8068  0.5506
32677SOL     OW 3866   6.003   9.890   0.220  0.3609  0.4712 -0.3511
32677SOL    HW1 3867   5.983   9.823   0.154 -1.9821 -0.2722  0.9820
32677SOL    HW2 3868   5.960   9.969   0.187  0.6923  0.5695 -0.5508
32678SOL     OW 3869   4.148   4.023   1.112 -0.0386 -0.4978 -0.1703
32678SOL    HW1 3870   4.229   3.979   1.137 -0.4957 -0.4798  1.4276
32678SOL    HW2 3871   4.158   4.038   1.018 -0.1969 -4.6759 -1.0349
32679SOL     OW 3872   8.139   5.376   8.414  0.2110  0.1112 -0.7646
32679SOL    HW1 3873   8.143   5.300   8.356  2.7395 -0.8375  0.4935
32679SOL    HW2 3874   8.185   5.445   8.367 -1.7980  0.8216 -1.7686
32680SOL     OW 3875   4.607   4.682   7.788  0.0201  0.0495 -0.5132
32680SOL    HW1 3876   4.591   4.624   7.863 -0.0575 -0.5918 -1.0120
32680SOL    HW2 3877   4.647   4.760   7.826  0.0737 -0.3070  0.1840
32681SOL     OW 3878   9.656   2.996   2.509  0.9377  0.2204 -0.2401
32681SOL    HW1 3879   9.710   2.938   2.563  1.8319 -0.9567 -2.2801
32681SOL    HW2 3880   9.710   3.074   2.497  0.4217  0.8179  1.1367
32682SOL     OW 3881   6.177   5.548   5.072 -0.2216  0.0867  0.2269
32682SOL    HW1 3882   6.262   5.592   5.066 -0.5482  0.6808 -0.2133
32682SOL    HW2 3883   6.157   5.521   4.983 -0.6643  0.2968  0.2557
32683SOL     OW 3884   4.442   9.262  10.364  0.2636 -0.0505  0.1733
32683SOL    HW1 3885   4.509   9.277  10.431 -0.5848 -0.3237  1.1190
32683SOL    HW2 3886   4.461   9.325  10.295 -0.0867  1.7374  1.6372
32684SOL     OW 3887   8.098   5.914   7.736 -0.0426  0.2891 -0.3761
32684SOL    HW1 3888   8.101   5.828   7.778 -1.6516  0.0462 -0.6921
32684SOL    HW2 3889   8.190   5.938   7.724  0.5357  0.4085  3.3068
32685SOL     OW 3890   0.208   0.575   2.898 -0.3094  0.2065  0.5191
32685SOL    HW1 3891   0.200   0.487   2.932 -0.5783  0.2243  0.5034
32685SOL    HW2 3892   0.302   0.593   2.898 -0.2961  0.1506  1.0978
32686SOL     OW 3893   9.146   0.021   7.459  0.9068 -0.1906  0.5420
32686SOL    HW1 3894   9.052   0.011   7.474  0.5677  1.1500 -0.4433
32686SOL    HW2 3895   9.181  -0.068   7.462 -0.3824 -0.7131  0.9129
32687SOL     OW 3896   4.971   7.772   0.669  0.5840 -0.3287 -0.0677
32687SOL    HW1 3897   4.926   7.834   0.726 -0.1037 -1.5261  0.7368
32687SOL    HW2 3898   4.927   7.780   0.585  1.7242  1.5851 -0.5373
32688SOL     OW 3899   2.339   3.841   3.197  0.4131  0.4232 -0.1818
32688SOL    HW1 3900   2.392   3.911   3.159  0.0473  0.0308 -1.4626
32688SOL    HW2 3901   2.290   3.883   3.268  1.4069  1.0850  0.1394
32689SOL     OW 3902   7.194   6.111   4.111  0.0956 -0.4473 -1.0630
32689SOL    HW1 3903   7.180   6.017   4.124 -0.4291 -0.1386  0.9174
32689SOL    HW2 3904   7.106   6.147   4.104  0.1470  0.1860  0.8806
32690SOL     OW 3905   3.678   5.956   7.261  0.2318 -0.0367 -0.2598
32690SOL    HW1 3906   3.589   5.954   7.228  0.7444  0.3748 -1.7318
32690SOL    HW2 3907   3.717   5.874   7.230  0.3069 -0.3373  0.5921
32691SOL     OW 3908   9.499   1.227   9.765 -0.3521  0.7895 -0.4594
32691SOL    HW1 3909   9.513   1.187   9.850  1.5608  1.2223 -0.5247
32691SOL    HW2 3910   9.405   1.220   9.750 -0.3725 -1.8899  0.3970
32692SOL     OW 3911   7.881   8.301   3.541 -0.4386  0.6508 -0.8108
32692SOL    HW1 3912   7.801   8.348   3.518 -1.7017 -1.1313 -0.3109
32692SOL    HW2 3913   7.912   8.264   3.458 -1.3953 -0.4680 -0.6930
32693SOL     OW 3914   4.958   6.396   5.660 -0.0027  0.2102  0.3233
32693SOL    HW1 3915   5.018   6.444   5.717  1.3808 -0.7487 -0.2449
32693SOL    HW2 3916   5.016   6.355   5.595 -1.1838 -1.6100  0.3644
32694SOL     OW 3917   9.683   4.228   3.341 -0.0877 -0.6818 -0.1243
32694SOL    HW1 3918   9.730   4.283   3.279  0.8923 -1.0653  0.2370
32694SOL    HW2 3919   9.708   4.139   3.317  0.3488 -0.8317  0.8347
32695SOL     OW 3920   3.058   2.213   0.892  0.6586  0.4313 -0.1072
32695SOL    HW1 3921   3.074   2.295   0.939  0.6467  0.8547 -0.8236
32695SOL    HW2 3922   3.142   2.195   0.849  0.9964 -0.5058  0.8888
32696SOL     OW 3923   3.522   2.673  10.165 -0.2884 -0.7390 -0.7375
32696SOL    HW1 3924   3.514   2.624  10.083 -2.2229 -0.0200 -1.0267
32696SOL    HW2 3925   3.615   2.666  10.188  0.2107 -1.3440 -2.7432
32697SOL     OW 3926   0.795   3.297   7.136 -0.5179 -0.0106 -0.3557
32697SOL    HW1 3927   0.737   3.261   7.203 -0.0687  0.3800  0.2627
32697SOL    HW2 3928   0.846   3.223   7.105  2.7259  0.4073  3.2032
32698SOL     OW 3929   2.195   0.452   8.531 -0.3717 -0.4657 -0.5292
32698SOL    HW1 3930   2.255   0.524   8.548  0.7799 -1.6057  0.4102
32698SOL    HW2 3931   2.249   0.382   8.495 -1.3613 -1.0610 -0.9204
32699SOL     OW 3932   5.941   3.450   0.296 -0.2859  0.0467 -0.6401
32699SOL    HW1 3933   6.005   3.381   0.310  0.4489  0.6440 -0.9914
32699SOL    HW2 3934   5.993   3.530   0.285 -1.1668  1.0898  1.9696
32700SOL     OW 3935   6.219   4.211  10.194 -0.3758 -0.0434  0.6267
32700SOL    HW1 3936   6.267   4.143  10.241 -0.1582 -0.8768 -0.7536
32700SOL    HW2 3937   6.228   4.188  10.102  0.7407  2.5446  0.0036
32701SOL     OW 3938   0.007   0.292   7.243  0.4824  0.3348 -0.1398
32701SOL    HW1 3939   0.089   0.254   7.275 -0.2995  0.5093  2.2862
32701SOL    HW2 3940   0.020   0.386   7.251 -0.2438  0.3492  1.1902
32702SOL     OW 3941   9.519   1.342   2.126  0.0291 -0.1558  0.1493
32702SOL    HW1 3942   9.425   1.324   2.125 -0.0088  0.0131  0.5382
32702SOL    HW2 3943   9.535   1.385   2.210  0.4968 -0.4118  0.1995
32703SOL     OW 3944  10.651   6.765   6.543 -0.0510  0.2258  0.1131
32703SOL    HW1 3945  10.699   6.826   6.599  0.4473 -0.7773  0.8182
32703SOL    HW2 3946  10.698   6.682   6.553 -2.1370 -0.9196  1.1663
32704SOL     OW 3947   1.814   0.412   2.289  0.0862  0.2154  0.0887
32704SOL    HW1 3948   1.906   0.393   2.309  0.3423 -0.6043 -1.7206
32704SOL    HW2 3949   1.769   0.330   2.308  0.2113 -0.3209 -1.7651
32705SOL     OW 3950   2.400   0.042   5.848 -0.2348  0.5708 -0.1535
32705SOL    HW1 3951   2.353   0.069   5.927  1.2646  1.2554  0.5321
32705SOL    HW2 3952   2.492   0.054   5.869  0.5432 -3.7280 -0.3544
32706SOL     OW 3953   5.287   0.612   7.237 -0.9330  0.5182  0.1484
32706SOL    HW1 3954   5.372   0.600   7.194 -1.7095 -0.8603 -1.0862
32706SOL    HW2 3955   5.273   0.707   7.236  0.0180  0.6666 -0.7932
32707SOL     OW 3956   5.866   1.235   3.441  0.1154 -0.4080 -0.3252
32707SOL    HW1 3957   5.879   1.272   3.528  0.4581 -2.1311  0.3956
32707SOL    HW2 3958   5.833   1.146   3.457 -1.3550 -0.2266 -1.9811
32708SOL     OW 3959   3.791   3.469   9.075 -0.0093  0.1421  0.2636
32708SOL    HW1 3960   3.843   3.492   9.152  1.6206 -0.5244 -0.5792
32708SOL    HW2 3961   3.757   3.552   9.043  0.3644  0.5786  0.9753
32709SOL     OW 3962   0.633   1.962   4.200 -0.5088 -0.6009  0.5347
32709SOL    HW1 3963   0.559   1.939   4.257  0.0894 -1.8173  0.8448
32709SOL    HW2 3964   0.708   1.917   4.239  0.4706  0.8298  0.3811
32710SOL     OW 3965   5.365   9.017   3.966  0.3824 -0.4357  0.6084
32710SOL    HW1 3966   5.453   9.055   3.974 -0.0326  0.7283 -0.0694
32710SOL    HW2 3967   5.344   9.024   3.872  0.3188 -2.5004  0.4164
32711SOL     OW 3968   0.964   9.811   3.304 -0.7955 -0.1868 -0.1024
32711SOL    HW1 3969   0.935   9.895   3.267  0.0634 -1.0454 -2.9937
32711SOL    HW2 3970   0.885   9.757   3.307 -1.6171  0.9794  2.9331
32712SOL     OW 3971   9.304   6.884   2.642  0.0879 -0.4876  0.0146
32712SOL    HW1 3972   9.287   6.829   2.565  1.1170 -1.1104  0.2117
32712SOL    HW2 3973   9.223   6.933   2.655 -0.5190 -1.2566 -0.7496
32713SOL     OW 3974   5.247   8.302   9.054 -0.5712 -0.3730 -0.2279
32713SOL    HW1 3975   5.190   8.345   9.119 -1.0142  0.3631 -1.0862
32713SOL    HW2 3976   5.257   8.366   8.985  0.9867 -0.6556 -0.2962
32714SOL     OW 3977   7.486   1.119   5.741 -0.3046  0.4889  0.6458
32714SOL    HW1 3978   7.413   1.058   5.755 -0.5157  0.3340 -0.9631
32714SOL    HW2 3979   7.457   1.200   5.784 -1.8424  0.7000 -0.6745
32715SOL     OW 3980   8.062  10.703   4.234 -0.0922  0.7633  0.0167
32715SOL    HW1 3981   8.070  10.780   4.177  1.1456  0.6719  0.0285
32715SOL    HW2 3982   7.968  10.691   4.246 -0.3893  0.8565 -1.9005
32716SOL     OW 3983   3.174   5.023   8.606  0.3787 -0.3416 -1.0046
32716SOL    HW1 3984   3.123   5.052   8.530  0.3530 -0.5667 -1.0724
32716SOL    HW2 3985   3.159   4.929   8.611 -1.3806 -0.0121  0.6099
32717SOL     OW 3986   1.006   2.893   9.200 -0.0979 -0.4335 -0.2713
32717SOL    HW1 3987   1.095   2.911   9.230 -0.6942  1.3789  0.5777
32717SOL    HW2 3988   0.963   2.854   9.276 -0.5093  0.4204 -0.0524
32718SOL     OW 3989   1.655  10.498   0.609 -0.1103 -0.2339  0.2338
32718SOL    HW1 3990   1.602  10.431   0.652  0.3365 -0.3502  0.6069
32718SOL    HW2 3991   1.706  10.537   0.679 -0.4671  0.5960  0.0375
32719SOL     OW 3992   5.458   7.517  10.180 -0.3706 -0.1465 -1.0135
32719SOL    HW1 3993   5.394   7.520  10.251 -0.5978  0.3944 -1.2416
32719SOL    HW2 3994   5.408   7.493  10.103 -0.0459 -1.2106 -0.9118
32720SOL     OW 3995   6.121   5.872   4.681 -0.4794 -0.3956 -0.6735
32720SOL    HW1 3996   6.163   5.933   4.620 -0.9629 -1.3234 -1.9628
32720SOL    HW2 3997   6.187   5.857   4.749 -0.6875  2.3108  0.2478
32721SOL     OW 3998   3.854   4.780   4.104  0.1134 -0.0598 -0.6791
32721SOL    HW1 3999   3.890   4.740   4.025  1.6234 -0.7727  0.3221
32721SOL    HW2 4000   3.918   4.847   4.129  1.1894 -1.7697  1.4835
32722SOL     OW 4001   7.729  10.508   3.497  0.2717  0.0674  0.1897
32722SOL    HW1 4002   7.684  10.439   3.545  0.1018  0.6856  0.9287
32722SOL    HW2 4003   7.722  10.585   3.553  1.5836  0.3662 -0.0306
32723SOL     OW 4004  10.141   9.191   5.202  0.0626 -0.1481 -0.7663
32723SOL    HW1 4005  10.192   9.269   5.226  0.2677 -0.5792  0.2632
32723SOL    HW2 4006  10.187   9.119   5.245 -0.7136 -0.7098 -0.8652
32724SOL     OW 4007   5.707   1.829   7.955 -0.3471 -0.5723  0.0111
32724SOL    HW1 4008   5.740   1.739   7.953  0.0519 -0.4251 -1.3994
32724SOL    HW2 4009   5.612   1.820   7.946 -0.2345 -0.8488 -1.0752
32725SOL     OW 4010   4.888  10.383   1.565 -0.1234 -0.2457 -0.2930
32725SOL    HW1 4011   4.922  10.341   1.486 -1.4579  0.5363 -1.3300
32725SOL    HW2 4012   4.806  10.423   1.537 -0.8164 -0.2552  1.5942
32726SOL     OW 4013   4.796   8.763   8.627 -0.5239 -0.9578 -0.3151
32726SOL    HW1 4014   4.703   8.773   8.647 -0.3872 -2.1462  1.0880
32726SOL    HW2 4015   4.826   8.851   8.605 -1.8054 -0.4250  0.0142
32727SOL     OW 4016   7.014  10.210   1.276 -0.0376 -0.2323 -0.3157
32727SOL    HW1 4017   7.040  10.162   1.354 -1.6964 -0.6963 -0.0041
32727SOL    HW2 4018   6.928  10.175   1.254 -1.2587  2.3884 -0.2086
32728SOL     OW 4019   7.984  10.617   1.192  0.0152 -0.0877  0.1066
32728SOL    HW1 4020   8.019  10.639   1.106 -0.6345  0.7634  0.0468
32728SOL    HW2 4021   7.950  10.700   1.226  2.7288  0.2301  2.3800
32729SOL     OW 4022   8.476   7.670   2.855 -0.2633  0.1643 -0.0843
32729SOL    HW1 4023   8.391   7.641   2.820  0.1658  1.3285 -2.2576
32729SOL    HW2 4024   8.540   7.637   2.792  0.5970  1.9661 -0.2032
32730SOL     OW 4025   7.004   9.075   3.823 -0.0942  0.1621 -0.3656
32730SOL    HW1 4026   6.962   8.999   3.862 -0.1115  0.6511  0.5934
32730SOL    HW2 4027   6.985   9.068   3.729  0.9079 -1.6474 -0.4763
32731SOL     OW 4028   4.875   5.132   9.766  0.1928  0.4098  0.2292
32731SOL    HW1 4029   4.943   5.195   9.788  0.0792  1.1007 -1.3018
32731SOL    HW2 4030   4.904   5.094   9.683 -0.9307  0.1631 -0.0572
32732SOL     OW 4031   4.978   9.393   4.494 -0.4493 -0.2541 -0.5741
32732SOL    HW1 4032   5.036   9.350   4.556  0.8630  1.4160 -0.5843
32732SOL    HW2 4033   5.034   9.453   4.444 -2.1901  1.7646 -0.2980
32733SOL     OW 4034   3.855  10.472   7.300 -0.4800  0.5272  0.1605
32733SOL    HW1 4035   3.841  10.564   7.274  1.4277  1.0477  0.8111
32733SOL    HW2 4036   3.947  10.469   7.329 -0.9552 -1.2441  1.6582
32734SOL     OW 4037   8.557  10.184  10.049  0.4147 -0.5096  0.0449
32734SOL    HW1 4038   8.474  10.140  10.029  2.3695 -4.1123 -1.0531
32734SOL    HW2 4039   8.538  10.277  10.035 -3.2179 -1.1935 -0.8649
32735SOL     OW 4040   7.089   4.222   2.430  0.2657 -0.2798 -0.0158
32735SOL    HW1 4041   7.069   4.299   2.377  0.3619 -0.2696 -0.0394
32735SOL    HW2 4042   7.116   4.258   2.515 -2.3336 -0.3575  0.9311
32736SOL     OW 4043   8.347   5.017   9.270  0.7694  0.2560 -0.3437
32736SOL    HW1 4044   8.353   4.986   9.179  0.5183  1.5563 -0.8166
32736SOL    HW2 4045   8.435   5.005   9.305  0.8146 -0.4599 -0.6848
32737SOL     OW 4046   4.472   4.625   4.223 -0.0328  0.2991 -0.2185
32737SOL    HW1 4047   4.557   4.580   4.228 -0.9400 -1.4734 -0.2049
32737SOL    HW2 4048   4.408   4.558   4.245 -1.5680  1.2256 -1.6754
32738SOL     OW 4049   3.077   0.877   1.442 -0.1568  0.0927  0.3310
32738SOL    HW1 4050   3.111   0.810   1.501 -0.2224 -1.2352 -1.0696
32738SOL    HW2 4051   2.983   0.862   1.440 -0.1940  0.3377  0.1313
32739SOL     OW 4052   3.984   1.422   6.764 -0.6364  0.6652 -0.3621
32739SOL    HW1 4053   3.959   1.421   6.857 -0.6057  2.2207 -0.3060
32739SOL    HW2 4054   3.968   1.512   6.737  1.5100  0.8233 -1.2842
32740SOL     OW 4055   8.775  10.356   2.476 -0.0748  0.4094 -0.5466
32740SOL    HW1 4056   8.718  10.396   2.543  0.8576  0.1625  0.4290
32740SOL    HW2 4057   8.718  10.296   2.429 -0.4803 -0.4191  0.9172
32741SOL     OW 4058   1.250   5.446   0.987  0.0756 -0.2547 -0.2194
32741SOL    HW1 4059   1.312   5.440   0.914  1.6013 -2.4901  1.1004
32741SOL    HW2 4060   1.164   5.440   0.947  0.7804  0.7497 -1.9725
32742SOL     OW 4061   0.448   5.913   0.543 -0.0757  0.0618 -0.4870
32742SOL    HW1 4062   0.383   5.934   0.475 -1.6636  0.1818  0.9851
32742SOL    HW2 4063   0.460   5.996   0.590 -0.2407 -0.3916  0.3718
32743SOL     OW 4064   0.611   1.036   6.928  0.0544  0.3618 -0.2813
32743SOL    HW1 4065   0.531   1.072   6.888  0.2389  0.8750 -0.1865
32743SOL    HW2 4066   0.580   0.986   7.003 -0.0779  1.6501  0.5362
32744SOL     OW 4067   5.847   1.831   1.015  0.0627 -0.1922 -0.5203
32744SOL    HW1 4068   5.776   1.822   1.078 -0.0339 -1.8899 -0.8220
32744SOL    HW2 4069   5.853   1.925   0.999 -1.7654  0.0401 -0.0995
32745SOL     OW 4070   4.375   6.946   6.502 -0.5894  0.6207 -0.3156
32745SOL    HW1 4071   4.327   6.881   6.451  0.2800 -0.3176  0.0252
32745SOL    HW2 4072   4.360   7.028   6.456  0.6904 -0.2897 -2.5245
32746SOL     OW 4073   7.527   3.908   2.479 -0.2123  0.0167  0.2999
32746SOL    HW1 4074   7.604   3.898   2.534  0.2168  2.3708  0.2449
32746SOL    HW2 4075   7.493   3.995   2.502 -1.2281  0.1823 -1.6457
32747SOL     OW 4076   5.002   0.916   7.576  0.1421  0.1504 -0.0378
32747SOL    HW1 4077   4.936   0.969   7.532 -0.0216 -0.6098 -0.7326
32747SOL    HW2 4078   5.025   0.966   7.654  0.3323  1.4750 -0.9082
32748SOL     OW 4079   9.146   7.280   2.133 -0.3819 -0.5284  0.2220
32748SOL    HW1 4080   9.088   7.300   2.059 -0.0189 -1.3953 -0.3082
32748SOL    HW2 4081   9.173   7.366   2.166  0.1419 -0.1171 -1.2066
32749SOL     OW 4082   1.441   9.049   3.005 -0.2024 -0.0816 -0.8633
32749SOL    HW1 4083   1.430   8.976   3.067 -0.8150  0.1464 -0.7018
32749SOL    HW2 4084   1.513   9.100   3.041  0.1363 -0.5249 -0.8983
32750SOL     OW 4085   3.284   1.691   6.045 -0.3401  0.0764 -0.4213
32750SOL    HW1 4086   3.358   1.731   5.999  1.1568 -0.4500  1.4274
32750SOL    HW2 4087   3.281   1.601   6.012  0.9189 -0.3898  0.6530
32751SOL     OW 4088   6.882  10.026   4.113  0.3675  0.5627  0.7272
32751SOL    HW1 4089   6.906  10.110   4.152  0.7262  1.2730 -0.9229
32751SOL    HW2 4090   6.795  10.041   4.075 -1.5200 -1.0959  4.0048
32752SOL     OW 4091   4.291   8.438   3.530  0.0645  0.3743 -0.2348
32752SOL    HW1 4092   4.337   8.491   3.465  1.3283  0.6533  0.8509
32752SOL    HW2 4093   4.334   8.458   3.613 -1.5602  0.1034  0.7301
32753SOL     OW 4094   4.611   1.383  10.155  0.0825  0.4585  0.2355
32753SOL    HW1 4095   4.656   1.445  10.212  2.0664  0.6520 -1.4338
32753SOL    HW2 4096   4.676   1.316  10.135 -0.9319 -0.2630 -0.8156
32754SOL     OW 4097   9.299   9.555   0.493  0.6464  0.3606 -0.0511
32754SOL    HW1 4098   9.241   9.481   0.482  0.5610  0.6696 -1.9605
32754SOL    HW2 4099   9.334   9.545   0.582  0.1861 -1.6128 -0.0478
32755SOL     OW 4100   9.767   3.093   9.699  0.7140 -0.5046 -0.0744
32755SOL    HW1 4101   9.804   3.155   9.637  1.0381 -0.0719  0.5408
32755SOL    HW2 4102   9.750   3.145   9.778 -0.0220 -0.9672  0.0836
32756SOL     OW 4103  10.461   4.052   9.838 -0.0617  0.1148 -0.1068
32756SOL    HW1 4104  10.463   4.040   9.933 -2.4558 -1.8824 -0.1935
32756SOL    HW2 4105  10.387   4.111   9.823  0.8570  1.1250 -0.6921
32757SOL     OW 4106   6.329   3.852   7.494 -0.0973  0.0486  0.2284
32757SOL    HW1 4107   6.258   3.789   7.480 -1.2553  1.1019  1.1054
32757SOL    HW2 4108   6.395   3.829   7.428 -1.2416 -0.9733 -0.6127
32758SOL     OW 4109   2.925   0.641   4.570  0.2180  0.0633 -0.1580
32758SOL    HW1 4110   2.991   0.684   4.516 -0.8855  3.5352  0.9879
32758SOL    HW2 4111   2.887   0.574   4.513  3.2895 -0.6968 -1.4770
32759SOL     OW 4112   5.178   2.150   0.102 -0.1042  0.6834  0.2613
32759SOL    HW1 4113   5.220   2.235   0.090  0.8425  0.1866  0.0071
32759SOL    HW2 4114   5.107   2.149   0.038  0.6856  0.7693 -0.6420
32760SOL     OW 4115  10.096   4.050   4.307 -0.2745 -0.4188 -0.8169
32760SOL    HW1 4116  10.047   4.101   4.371  0.9016 -0.4055  0.0938
32760SOL    HW2 4117  10.142   4.114   4.254 -0.9622 -0.4477 -1.4861
32761SOL     OW 4118   6.826   8.102   7.728 -0.2738 -0.0272 -0.1481
32761SOL    HW1 4119   6.919   8.119   7.741  0.1870 -0.8817 -1.9909
32761SOL    HW2 4120   6.783   8.143   7.803  1.6646 -0.6127  1.3712
32762SOL     OW 4121   4.430   8.162   2.825  0.0996 -0.5612 -0.0446
32762SOL    HW1 4122   4.420   8.067   2.816 -0.8635 -0.4974  0.2464
32762SOL    HW2 4123   4.344   8.192   2.853  1.0218  0.1242  2.2377
32763SOL     OW 4124   6.524  10.401   8.987 -0.0199 -0.3804 -0.2936
32763SOL    HW1 4125   6.547  10.421   8.896 -0.7018 -2.5623 -1.0056
32763SOL    HW2 4126   6.428  10.406   8.989  0.0250  0.2819  0.4775
32764SOL     OW 4127   0.643   1.125   7.642  0.5108  0.0046 -0.4110
32764SOL    HW1 4128   0.660   1.081   7.558 -0.5029 -0.4837 -0.3754
32764SOL    HW2 4129   0.552   1.103   7.662  1.1440 -1.1047  1.5381
32765SOL     OW 4130   0.082   7.476   2.924 -0.1764 -0.7125  0.1322
32765SOL    HW1 4131   0.004   7.429   2.953 -0.0720 -0.5866  0.6371
32765SOL    HW2 4132   0.057   7.515   2.840 -0.7508 -0.4393  0.4231
32766SOL     OW 4133   3.454   4.381   2.936  0.0795  0.0327  0.4951
32766SOL    HW1 4134   3.408   4.338   3.008 -0.5751 -0.0896  0.0085
32766SOL    HW2 4135   3.538   4.408   2.974 -0.4408  0.3723  1.4183
32767SOL     OW 4136   3.758   6.282   3.377  0.0751 -0.8031 -0.1192
32767SOL    HW1 4137   3.730   6.201   3.335  1.5255 -2.1175  1.2665
32767SOL    HW2 4138   3.854   6.279   3.373  0.1982  0.0722  1.2664
32768SOL     OW 4139   6.969   9.805   6.619  0.2717 -0.0238 -0.0738
32768SOL    HW1 4140   6.885   9.758   6.616  0.4976 -0.4643  0.4096
32768SOL    HW2 4141   6.958   9.877   6.556  0.2707 -1.2918 -1.5785
32769SOL     OW 4142   1.753   3.265   8.841  0.0049 -0.3716  0.1075
32769SOL    HW1 4143   1.785   3.192   8.894  1.9192  1.6485  1.9323
32769SOL    HW2 4144   1.701   3.318   8.902  0.7247  1.0554 -0.4631
32770SOL     OW 4145   1.983   6.256   8.422  0.2654  0.1319  0.4386
32770SOL    HW1 4146   1.911   6.307   8.459  0.2127 -0.0991  0.6592
32770SOL    HW2 4147   1.948   6.167   8.417  0.3628  0.1127  0.0735
32771SOL     OW 4148   8.610   2.832   5.274  0.2629  0.1913  0.4019
32771SOL    HW1 4149   8.637   2.920   5.248  1.6717 -0.4663 -0.4869
32771SOL    HW2 4150   8.582   2.790   5.193  0.7778 -0.5772  0.6120
32772SOL     OW 4151   2.805   2.520   6.044  0.0491 -0.1755 -0.0103
32772SOL    HW1 4152   2.889   2.475   6.049 -0.2800 -0.8098 -0.1423
32772SOL    HW2 4153   2.800   2.570   6.126  0.6953  0.1363 -0.1493
32773SOL     OW 4154   5.143   5.010   6.570  0.3340 -0.5851  0.1974
32773SOL    HW1 4155   5.111   4.974   6.652 -2.3869  2.4943  0.6781
32773SOL    HW2 4156   5.087   4.971   6.503  1.2437 -1.5886  0.0022
32774SOL     OW 4157   0.757   9.147   3.040  0.4706 -0.1971  0.2816
32774SOL    HW1 4158   0.853   9.143   3.031  0.5513  1.7645 -0.2372
32774SOL    HW2 4159   0.724   9.097   2.965  1.0358 -2.4128  1.4410
32775SOL     OW 4160   9.983   8.668  10.470  0.5571  0.3040  0.4510
32775SOL    HW1 4161   9.967   8.760  10.450  1.7349  0.6779  1.0966
32775SOL    HW2 4162   9.989   8.665  10.566 -0.8848 -0.7065  0.5390
32776SOL     OW 4163   0.051   0.181   4.349  0.2814  0.3717 -0.0218
32776SOL    HW1 4164  -0.019   0.221   4.400 -0.4670  0.3473 -1.0210
32776SOL    HW2 4165   0.119   0.161   4.414 -0.8720 -0.1735  1.0561
32777SOL     OW 4166   6.808   0.446   0.119 -0.5955  0.0537  0.2424
32777SOL    HW1 4167   6.897   0.436   0.153  0.1722 -1.1048 -1.9081
32777SOL    HW2 4168   6.794   0.540   0.111 -0.1319  0.2833  1.9466
32778SOL     OW 4169   7.706   4.251   8.569 -0.0209 -0.0679 -0.2349
32778SOL    HW1 4170   7.755   4.326   8.533 -2.3655  1.7291  0.0580
32778SOL    HW2 4171   7.753   4.228   8.649  0.5977  1.3248 -0.1611
32779SOL     OW 4172   4.890   9.798  10.039 -0.0676  0.2510  0.1263
32779SOL    HW1 4173   4.821   9.733  10.050  0.7301 -0.7424 -0.5802
32779SOL    HW2 4174   4.889   9.819   9.945  1.3384 -0.6720 -0.1327
32780SOL     OW 4175   7.628   7.392   1.862 -0.4029 -0.5928  0.4775
32780SOL    HW1 4176   7.694   7.331   1.894  0.0862 -0.7713 -0.7949
32780SOL    HW2 4177   7.679   7.462   1.821 -0.9976 -0.5049 -0.1207
32781SOL     OW 4178   9.049  10.095   9.042 -0.4240  0.2455  0.2250
32781SOL    HW1 4179   9.065  10.172   9.097 -0.6083 -0.1779  0.8832
32781SOL    HW2 4180   9.134  10.073   9.005 -0.1473  0.0758  0.9530
32782SOL     OW 4181   9.798   9.891   4.448  0.3822 -0.0491  0.2337
32782SOL    HW1 4182   9.837   9.846   4.523  0.0486 -0.2284  0.3048
32782SOL    HW2 4183   9.706   9.865   4.450  0.7146 -1.6261 -1.3503
32783SOL     OW 4184   4.932   0.428   2.586  0.7902 -0.2531 -0.1713
32783SOL    HW1 4185   5.018   0.394   2.561 -0.1096 -1.8387 -1.2788
32783SOL    HW2 4186   4.883   0.433   2.504  0.0399  1.3585  0.3324
32784SOL     OW 4187   5.739   1.124   9.373  0.4653 -0.3562  0.6173
32784SOL    HW1 4188   5.715   1.133   9.465  0.9393  0.8211  0.6417
32784SOL    HW2 4189   5.675   1.062   9.337 -0.4199  0.0393  1.4762
32785SOL     OW 4190   0.340   4.169   0.886 -0.2161  0.1453  0.0400
32785SOL    HW1 4191   0.402   4.220   0.939  0.0984  1.0883 -1.2068
32785SOL    HW2 4192   0.266   4.153   0.946  0.3695  0.7026  0.9441
32786SOL     OW 4193   0.256   2.894   0.749 -0.1817 -0.3880 -0.4377
32786SOL    HW1 4194   0.229   2.812   0.791 -0.0084 -0.6942 -0.9064
32786SOL    HW2 4195   0.259   2.958   0.820  0.3303 -0.9472  0.0619
32787SOL     OW 4196   6.395   1.796   7.366  0.0924  0.9138  0.3965
32787SOL    HW1 4197   6.302   1.817   7.371  0.4857  3.1575 -0.4602
32787SOL    HW2 4198   6.433   1.836   7.444  0.4768  1.0241  0.1590
32788SOL     OW 4199   9.558   5.816   0.389 -0.3240  0.2205  0.0925
32788SOL    HW1 4200   9.641   5.829   0.435  0.2351 -1.3303 -0.3873
32788SOL    HW2 4201   9.573   5.854   0.302 -0.4273  0.7186  0.2903
32789SOL     OW 4202   5.279   1.371   1.535 -0.0715  0.0374  0.0285
32789SOL    HW1 4203   5.306   1.283   1.511 -0.8752 -0.2373  0.1237
32789SOL    HW2 4204   5.215   1.396   1.468  0.6486  0.8189 -0.3958
32790SOL     OW 4205   1.853   4.578   8.410 -0.5868  0.0462 -0.1563
32790SOL    HW1 4206   1.758   4.572   8.400 -0.4833  0.4653 -1.6636
32790SOL    HW2 4207   1.865   4.628   8.490 -1.6700  1.1023 -0.6141
32791SOL     OW 4208   0.505   4.324   2.173 -0.6605 -0.3999 -0.3186
32791SOL    HW1 4209   0.541   4.297   2.088 -1.1094 -0.9435 -0.3440
32791SOL    HW2 4210   0.529   4.252   2.232  3.3201  1.7407  1.0794
32792SOL     OW 4211   3.504   1.614   5.458 -0.0979  0.0313 -0.4657
32792SOL    HW1 4212   3.438   1.545   5.453 -0.5069  0.4568 -1.1168
32792SOL    HW2 4213   3.477   1.668   5.531 -0.4771  0.2049 -0.7316
32793SOL     OW 4214   1.335   2.060   0.393  0.2977  0.2433 -0.1698
32793SOL    HW1 4215   1.272   2.007   0.442  2.4041 -0.3593  2.0785
32793SOL    HW2 4216   1.414   2.006   0.389  2.1434  2.6457  1.1418
32794SOL     OW 4217  10.381   6.110   9.924  0.1446 -0.2940  0.1943
32794SOL    HW1 4218  10.400   6.187   9.871  0.4583 -1.4417 -1.4258
32794SOL    HW2 4219  10.379   6.037   9.862 -1.5106 -1.4175  1.4590
32795SOL     OW 4220   1.857   4.699  10.499 -0.1399 -0.3656 -0.3905
32795SOL    HW1 4221   1.826   4.690  10.589  1.2318 -1.0681  0.0541
32795SOL    HW2 4222   1.778   4.706  10.446 -1.0562 -2.2804  0.6422
32796SOL     OW 4223  10.206   4.245   6.415 -0.2020 -0.0480  0.1288
32796SOL    HW1 4224  10.293   4.215   6.440 -0.1395  0.6790  0.8374
32796SOL    HW2 4225  10.222   4.315   6.352 -0.3052 -0.5682 -0.4792
32797SOL     OW 4226   2.524   5.784   3.812 -0.0206  0.0786 -0.6596
32797SOL    HW1 4227   2.607   5.751   3.847 -0.3677  0.8043  0.9127
32797SOL    HW2 4228   2.497   5.718   3.748  2.1160  0.1732 -1.7827
32798SOL     OW 4229   0.790   4.223   7.407 -0.7594  0.5210  0.0144
32798SOL    HW1 4230   0.739   4.247   7.329 -0.4446  1.6885  0.1527
32798SOL    HW2 4231   0.881   4.241   7.382 -0.8408  3.5197  1.5124
32799SOL     OW 4232   9.202   2.393   2.768 -0.0553  0.1581 -0.0975
32799SOL    HW1 4233   9.286   2.348   2.778  0.0856 -0.3233 -2.7439
32799SOL    HW2 4234   9.225   2.486   2.771  0.2583  0.0596  1.1599
32800SOL     OW 4235   6.097   4.403   1.946  0.1128  0.0428 -0.0101
32800SOL    HW1 4236   6.169   4.449   1.902 -1.8260  1.7344 -1.6540
32800SOL    HW2 4237   6.048   4.473   1.990 -2.0395 -0.6026 -1.2484
32801SOL     OW 4238  10.329   4.319   7.660 -0.1678 -0.3562 -0.6391
32801SOL    HW1 4239  10.290   4.278   7.738  0.0852 -2.8119 -1.7030
32801SOL    HW2 4240  10.259   4.320   7.596 -0.0742  0.6664 -0.7421
32802SOL     OW 4241   4.213  10.229   6.412 -0.0683 -0.2237 -0.3378
32802SOL    HW1 4242   4.127  10.268   6.396 -0.5102 -1.5881 -1.4508
32802SOL    HW2 4243   4.236  10.257   6.501 -0.1263  2.9220 -1.1690
32803SOL     OW 4244   2.972   9.556   8.649  0.2551  0.1673  0.2989
32803SOL    HW1 4245   2.921   9.491   8.697 -0.7275 -0.3327 -1.3105
32803SOL    HW2 4246   2.959   9.637   8.698 -1.1441 -0.2050  0.6147
32804SOL     OW 4247   8.482   3.242   6.574  0.0141 -0.2444  0.5108
32804SOL    HW1 4248   8.500   3.336   6.582 -0.8106 -0.0555  0.2094
32804SOL    HW2 4249   8.393   3.232   6.606 -0.9759 -0.4587 -2.0397
32805SOL     OW 4250   9.251   2.725   6.372 -0.5000 -0.4103  0.3695
32805SOL    HW1 4251   9.302   2.729   6.291  0.0253  2.8184  0.7443
32805SOL    HW2 4252   9.309   2.683   6.435  0.6554  0.6734  0.0564
32806SOL     OW 4253   8.753   5.723  10.158  0.1503  0.1322  0.4566
32806SOL    HW1 4254   8.708   5.639  10.146 -0.2916  0.3996  0.2016
32806SOL    HW2 4255   8.786   5.719  10.248  0.6472 -0.5517  0.2526
32807SOL     OW 4256   6.752   8.598   9.433  0.5332  0.4169 -0.7549
32807SOL    HW1 4257   6.834   8.586   9.481 -1.8680 -1.8219  3.3631
32807SOL    HW2 4258   6.742   8.517   9.383 -0.6043 -0.9672  1.5262
32808SOL     OW 4259   4.289   4.167   7.256  0.4540  0.6140  0.2615
32808SOL    HW1 4260   4.337   4.190   7.177  1.3180  1.3286  0.9675
32808SOL    HW2 4261   4.243   4.087   7.234  0.2609  1.0897 -1.1246
32809SOL     OW 4262  10.372   6.743   3.904  0.4857  0.2650  0.3194
32809SOL    HW1 4263  10.432   6.742   3.829 -0.0439  0.5786 -0.1236
32809SOL    HW2 4264  10.375   6.833   3.936 -1.5006  0.9653 -1.1963
32810SOL     OW 4265   3.017   7.946   9.873 -0.0345 -0.2933 -0.8245
32810SOL    HW1 4266   3.077   7.999   9.925  0.6270 -2.2751  0.5184
32810SOL    HW2 4267   2.944   7.926   9.932 -0.4470 -0.6059 -1.4205
32811SOL     OW 4268   3.391   7.013   8.798 -0.0274  0.3413  0.9912
32811SOL    HW1 4269   3.342   7.091   8.826 -0.0160  0.1132  1.6630
32811SOL    HW2 4270   3.334   6.971   8.733  0.0588  1.0167  0.4695
32812SOL     OW 4271   9.539  10.604  10.526 -0.0191  0.3302  0.2944
32812SOL    HW1 4272   9.483  10.589  10.450 -1.1984 -0.5936  1.3049
32812SOL    HW2 4273   9.485  10.656  10.586  0.0950 -0.7327  1.3613
32813SOL     OW 4274   1.466   0.031   3.595  0.3328  0.1024  0.0536
32813SOL    HW1 4275   1.553   0.060   3.569  1.0908 -0.3863  1.9114
32813SOL    HW2 4276   1.481  -0.030   3.667 -1.5668  0.4328  0.7935
32814SOL     OW 4277   3.096   4.623   2.256  0.2119 -0.0655 -0.2231
32814SOL    HW1 4278   3.089   4.530   2.275  0.7873  0.1835  1.3865
32814SOL    HW2 4279   3.125   4.627   2.165  0.9719 -1.4696 -0.0728
32815SOL     OW 4280   7.944   2.289   7.717 -0.3620  0.1845  0.9398
32815SOL    HW1 4281   7.953   2.205   7.671  0.1892  0.0846  1.2280
32815SOL    HW2 4282   7.867   2.330   7.676  0.4683  0.3786 -0.5103
32816SOL     OW 4283   8.359   6.475   9.790  0.6033  0.4970 -0.0303
32816SOL    HW1 4284   8.314   6.393   9.810 -2.6589  1.9803 -0.5070
32816SOL    HW2 4285   8.414   6.492   9.866 -2.0549 -0.0031  2.1576
32817SOL     OW 4286   3.954   7.413   1.197  0.3449 -0.0935  0.2790
32817SOL    HW1 4287   3.968   7.398   1.291 -1.4255  0.4949  0.6859
32817SOL    HW2 4288   3.965   7.507   1.186  1.9764 -0.3370 -0.4187
32818SOL     OW 4289   3.269   3.362   0.211 -0.3405  0.5046 -0.2681
32818SOL    HW1 4290   3.192   3.369   0.268 -0.2576 -0.2777 -0.0569
32818SOL    HW2 4291   3.333   3.312   0.261 -0.2027 -0.0459 -0.9672
32819SOL     OW 4292   0.596   3.585   4.136  0.1550  0.3170  0.2168
32819SOL    HW1 4293   0.503   3.605   4.141  0.4703  1.4954  4.0762
32819SOL    HW2 4294   0.608   3.510   4.194  1.6413  0.2270 -0.1607
32820SOL     OW 4295   8.875   2.322   2.054 -0.3248  0.1149 -0.4326
32820SOL    HW1 4296   8.938   2.394   2.052  1.4746 -1.4007 -1.4567
32820SOL    HW2 4297   8.916   2.256   2.110 -1.6776 -0.3659  0.0362
32821SOL     OW 4298   0.663   1.422   6.275 -0.4271 -0.7659  1.1482
32821SOL    HW1 4299   0.616   1.367   6.337  2.1037 -1.5706  2.5096
32821SOL    HW2 4300   0.706   1.488   6.330 -0.9363  0.6923 -0.1539
32822SOL     OW 4301   2.340   0.098   0.291 -0.6384  0.1121 -0.0529
32822SOL    HW1 4302   2.372   0.035   0.356 -1.2022 -0.2574 -0.1306
32822SOL    HW2 4303   2.365   0.183   0.327 -0.3728 -0.1230  0.3302
32823SOL     OW 4304   5.438   4.990  10.371 -0.1422  0.2401  0.0642
32823SOL    HW1 4305   5.397   5.070  10.338 -1.2219 -0.4155 -0.2316
32823SOL    HW2 4306   5.428   4.927  10.299  2.1411  0.2799 -0.3551
32824SOL     OW 4307   4.297   1.923  10.376  0.3346  0.1743  0.1979
32824SOL    HW1 4308   4.305   2.001  10.322 -3.5681  0.5896 -0.0736
32824SOL    HW2 4309   4.227   1.943  10.439  0.3260 -2.5207  1.2204
32825SOL     OW 4310   5.581   5.113   6.796  0.0778 -0.4466  0.4135
32825SOL    HW1 4311   5.620   5.200   6.803  0.7864 -0.7876  0.8395
32825SOL    HW2 4312   5.519   5.120   6.724 -0.7577  0.7421  1.2136
32826SOL     OW 4313   1.561   5.630   1.278  0.2886 -0.4352 -0.2831
32826SOL    HW1 4314   1.479   5.665   1.243  0.5419  1.5202  0.8896
32826SOL    HW2 4315   1.603   5.706   1.319  2.0946 -1.6616  0.2491
32827SOL     OW 4316   9.967   8.883   0.436 -0.8359  0.2805  0.3111
32827SOL    HW1 4317   9.938   8.955   0.379 -2.4330  1.9750  3.0277
32827SOL    HW2 4318  10.028   8.924   0.497  1.0929 -1.5594 -0.2442
32828SOL     OW 4319  10.160   9.821   4.517 -0.6628 -0.4713 -0.7331
32828SOL    HW1 4320  10.095   9.837   4.586  0.9831  0.1867  0.7516
32828SOL    HW2 4321  10.204   9.741   4.545  0.5521  0.2334 -0.5628
32829SOL     OW 4322   9.106   0.873   0.478 -0.5445 -0.2444 -0.1096
32829SOL    HW1 4323   9.198   0.890   0.500 -0.8385  0.9364  0.2798
32829SOL    HW2 4324   9.075   0.813   0.547 -0.9071  1.8331  1.6365
32830SOL     OW 4325   8.976  10.543   1.849 -0.1699 -0.0885 -0.4080
32830SOL    HW1 4326   8.972  10.626   1.802 -0.8372 -1.2343 -2.4986
32830SOL    HW2 4327   8.967  10.567   1.941 -0.3446  2.1387 -0.9478
32831SOL     OW 4328  10.577   7.151   5.863 -0.1952  0.0421 -0.4992
32831SOL    HW1 4329  10.531   7.114   5.938 -0.3682 -0.8585 -1.0368
32831SOL    HW2 4330  10.507   7.184   5.806 -0.1226 -0.3540 -0.8177
32832SOL     OW 4331   2.277   6.687   9.015  0.3008 -0.0547  0.3451
32832SOL    HW1 4332   2.217   6.640   8.957  2.9299 -1.2099 -1.6557
32832SOL    HW2 4333   2.258   6.653   9.102 -0.9161 -1.4923 -0.4428
32833SOL     OW 4334   7.055   1.475   5.716 -0.4494 -0.1222 -0.3889
32833SOL    HW1 4335   7.109   1.410   5.763 -0.0309 -0.0491 -0.7642
32833SOL    HW2 4336   6.967   1.439   5.719 -0.1136 -1.0371 -1.1594
32834SOL     OW 4337   8.130   4.081   0.329 -0.0208  0.0336 -0.0970
32834SOL    HW1 4338   8.060   4.060   0.391 -1.4217  1.6765 -1.0313
32834SOL    HW2 4339   8.157   4.169   0.352  1.1163 -0.2444 -0.3396
32835SOL     OW 4340   8.194   7.352   6.969 -0.0471 -0.0077 -0.1648
32835SOL    HW1 4341   8.265   7.417   6.967  0.5931 -0.6581  0.7629
32835SOL    HW2 4342   8.117   7.402   6.997  0.1408  0.6116 -0.7180
32836SOL     OW 4343   3.787   4.552   9.842 -0.1124 -0.4090  0.4379
32836SOL    HW1 4344   3.837   4.511   9.913  0.0495  0.7649  1.0264
32836SOL    HW2 4345   3.798   4.646   9.857 -0.9977 -0.1480 -0.5002
32837SOL     OW 4346   0.528   4.633   0.151 -0.2506 -0.2354 -0.2424
32837SOL    HW1 4347   0.585   4.603   0.221 -0.3908  0.5748  0.2317
32837SOL    HW2 4348   0.440   4.607   0.178 -0.3711  0.5342  0.1629
32838SOL     OW 4349   7.869   6.497   3.362  0.2912 -0.2387  0.4341
32838SOL    HW1 4350   7.888   6.556   3.289 -1.4593  0.6743  0.6465
32838SOL    HW2 4351   7.937   6.430   3.358  0.0827 -0.4192 -2.2500
32839SOL     OW 4352   2.358   8.438   4.251 -0.0149 -0.2618 -0.0347
32839SOL    HW1 4353   2.314   8.504   4.197 -0.3650  1.6907  2.4964
32839SOL    HW2 4354   2.439   8.479   4.279  0.2727 -1.3115  0.7424
32840SOL     OW 4355   3.838   5.677   3.556 -0.2499 -0.0745 -0.0917
32840SOL    HW1 4356   3.868   5.753   3.505 -0.8376  0.1445 -0.1273
32840SOL    HW2 4357   3.742   5.684   3.554 -0.3122  1.0947  2.7542
32841SOL     OW 4358   3.373   3.061  10.398 -0.4449  0.6601 -0.1259
32841SOL    HW1 4359   3.389   2.979  10.352 -0.2826  1.6487 -1.9266
32841SOL    HW2 4360   3.442   3.065  10.465 -1.1236 -1.1536  0.7668
32842SOL     OW 4361   9.514  10.697   5.521  0.1779  0.4340  0.0838
32842SOL    HW1 4362   9.454  10.725   5.452 -0.4986 -1.3020 -0.0838
32842SOL    HW2 4363   9.522  10.602   5.509 -0.4400 -0.0469  2.7178
32843SOL     OW 4364   0.209   5.964   2.679 -0.4504 -0.1777 -0.1343
32843SOL    HW1 4365   0.191   5.938   2.589 -2.6541  0.3979  0.0899
32843SOL    HW2 4366   0.263   5.892   2.714  0.9480 -0.1164 -2.0331
32844SOL     OW 4367   9.661   0.950   0.583  0.0653  0.4942 -0.0382
32844SOL    HW1 4368   9.710   0.983   0.659  0.5918  1.3342 -0.7281
32844SOL    HW2 4369   9.704   0.867   0.562 -0.0680  0.2662  0.5651
32845SOL     OW 4370   2.520   3.497   1.637  0.3486 -0.1610 -0.1485
32845SOL    HW1 4371   2.519   3.468   1.728 -0.6384  0.1346 -0.0441
32845SOL    HW2 4372   2.563   3.426   1.590  1.8697  0.1768  0.6905
32846SOL     OW 4373   0.237   8.213   9.651  0.9194  0.3860  0.5397
32846SOL    HW1 4374   0.209   8.256   9.733  1.3678  0.6900  0.5372
32846SOL    HW2 4375   0.211   8.275   9.582  1.7345  0.7514  0.5492
32847SOL     OW 4376   6.841   9.182   2.806  0.2417  0.7783  0.5681
32847SOL    HW1 4377   6.879   9.214   2.724  0.4235 -0.2217  0.2479
32847SOL    HW2 4378   6.906   9.202   2.872  1.1202 -0.3995  0.1106
32848SOL     OW 4379   9.142   1.624  10.192 -1.0654  0.0849  0.1987
32848SOL    HW1 4380   9.084   1.576  10.250  1.0346  0.5803  2.9034
32848SOL    HW2 4381   9.177   1.695  10.246  1.3284  0.3635 -1.5374
32849SOL     OW 4382   6.773   9.516   3.571 -0.3075  0.1268 -0.1719
32849SOL    HW1 4383   6.754   9.579   3.640  0.1057  1.3547 -1.1253
32849SOL    HW2 4384   6.868   9.503   3.575 -0.5460 -1.4995  0.8709
32850SOL     OW 4385   0.371   2.588   9.902 -0.0652  0.0085 -0.0846
32850SOL    HW1 4386   0.372   2.578   9.807 -1.3616 -0.0941 -0.1095
32850SOL    HW2 4387   0.303   2.653   9.919 -1.5898 -1.7250  0.8679
32851SOL     OW 4388   6.269   1.691   9.753  0.0847  0.1851 -0.1568
32851SOL    HW1 4389   6.208   1.759   9.728 -0.3737  0.5593  1.8174
32851SOL    HW2 4390   6.348   1.738   9.781 -0.0556 -0.0895  0.7397
32852SOL     OW 4391   3.277   7.620   6.339  0.4632  0.1048 -0.1600
32852SOL    HW1 4392   3.292   7.705   6.380 -2.3697  0.7914 -0.3484
32852SOL    HW2 4393   3.281   7.637   6.245 -1.1118  0.2969 -0.2152
32853SOL     OW 4394  10.424   7.992   8.634  0.4000  0.8285 -0.2751
32853SOL    HW1 4395  10.362   8.053   8.593  0.0836  0.8690  0.2561
32853SOL    HW2 4396  10.444   7.928   8.565 -0.9916  0.2533 -0.1787
32854SOL     OW 4397   6.256   4.425   9.678 -0.1255 -0.3397 -0.3558
32854SOL    HW1 4398   6.289   4.411   9.590 -0.3190  1.2660 -0.7097
32854SOL    HW2 4399   6.325   4.476   9.722 -0.8823  0.5805 -0.2129
32855SOL     OW 4400   1.413   1.925   2.093 -0.1554  0.3115  0.5281
32855SOL    HW1 4401   1.388   1.928   2.001 -2.3667 -1.7913  0.9520
32855SOL    HW2 4402   1.490   1.869   2.095  0.4699  1.1252 -0.1035
32856SOL     OW 4403   2.806   8.878   4.301  0.0140  0.7116  0.0686
32856SOL    HW1 4404   2.889   8.908   4.337  0.6456  0.0281 -0.7703
32856SOL    HW2 4405   2.808   8.783   4.312 -1.4285  0.8014  1.6041
32857SOL     OW 4406   3.020   6.686   8.916  0.3321  0.2310  0.2834
32857SOL    HW1 4407   3.083   6.696   8.987  0.9033 -1.9509  0.1475
32857SOL    HW2 4408   2.970   6.608   8.939 -1.1849  0.9376 -0.4753
32858SOL     OW 4409   4.393   6.579   2.372 -0.3463  0.1528 -0.5129
32858SOL    HW1 4410   4.487   6.598   2.370 -0.0027 -1.4072 -2.3442
32858SOL    HW2 4411   4.371   6.575   2.465  1.7577 -0.9765  0.0037
32859SOL     OW 4412   7.492   2.538   8.140  0.4465  0.2559  0.2036
32859SOL    HW1 4413   7.471   2.489   8.220 -1.1912  0.1637 -0.2309
32859SOL    HW2 4414   7.451   2.623   8.153  0.4967  0.3679 -0.3712
32860SOL     OW 4415   3.301   4.394   9.626 -0.6403 -0.1287 -0.1969
32860SOL    HW1 4416   3.348   4.324   9.672 -0.5073  0.5039  0.6490
32860SOL    HW2 4417   3.369   4.450   9.590 -0.7494 -0.2823 -0.6555
32861SOL     OW 4418   1.714   9.636   1.667  0.1609  0.4842 -0.2580
32861SOL    HW1 4419   1.656   9.617   1.740 -3.3108  0.2920 -2.8309
32861SOL    HW2 4420   1.697   9.728   1.646  0.9200  0.4729 -0.9982
32862SOL     OW 4421   3.089  10.236   7.218  0.3471 -0.0436 -0.2376
32862SOL    HW1 4422   3.085  10.174   7.146  0.2479  0.1714 -0.4199
32862SOL    HW2 4423   3.183  10.246   7.236  0.5738  1.7877 -2.0137
32863SOL     OW 4424   5.863   6.465   3.587 -0.1768 -0.7941 -0.1066
32863SOL    HW1 4425   5.939   6.512   3.551  0.4804 -1.0007  0.9650
32863SOL    HW2 4426   5.824   6.422   3.511  1.1989 -1.2665 -0.5767
32864SOL     OW 4427   8.310   0.852   0.632  0.1386  0.0922 -0.0025
32864SOL    HW1 4428   8.309   0.782   0.567 -0.1824 -0.8678  1.0143
32864SOL    HW2 4429   8.370   0.917   0.596 -0.7832  0.0529 -1.7303
32865SOL     OW 4430   3.101   5.466   1.872  0.1867  0.1103 -0.8692
32865SOL    HW1 4431   3.148   5.540   1.834 -0.5315  0.5294 -0.9641
32865SOL    HW2 4432   3.170   5.409   1.907  0.7315  1.0894 -0.2993
32866SOL     OW 4433   7.957   2.594   9.819  0.0968  0.6317 -0.1068
32866SOL    HW1 4434   7.882   2.608   9.761 -1.4964 -0.3098  1.6065
32866SOL    HW2 4435   8.010   2.528   9.775 -2.6726 -2.4129  0.7587
32867SOL     OW 4436   5.261   5.051   9.904 -0.4947 -0.0545  0.0328
32867SOL    HW1 4437   5.269   4.956   9.897 -1.5883 -0.1911  0.5149
32867SOL    HW2 4438   5.208   5.066   9.982  1.1001  1.0311  0.9716
32868SOL     OW 4439   5.116   2.492   9.920 -0.3881  0.3065 -0.0050
32868SOL    HW1 4440   5.203   2.531   9.910 -0.3329 -0.0490 -1.0844
32868SOL    HW2 4441   5.084   2.484   9.830 -1.2160 -0.2845  0.3377
32869SOL     OW 4442   9.132   8.868   9.179  0.0365  0.3135 -0.0266
32869SOL    HW1 4443   9.202   8.900   9.121  0.9574  2.3661  2.0489
32869SOL    HW2 4444   9.103   8.946   9.227 -1.2585 -1.1177  1.6648
32870SOL     OW 4445   5.666   5.874   6.198 -0.0365 -0.2545  0.0466
32870SOL    HW1 4446   5.613   5.872   6.277 -0.2161 -2.2400 -0.0615
32870SOL    HW2 4447   5.753   5.898   6.228 -0.0683 -1.1174  0.9044
32871SOL     OW 4448   2.691   1.178   3.102  0.3067  0.4506  0.3495
32871SOL    HW1 4449   2.627   1.244   3.125 -1.0929 -0.9352  0.5653
32871SOL    HW2 4450   2.691   1.117   3.175  2.6891  0.9565  0.8628
32872SOL     OW 4451   9.229   9.900   6.582  0.4616 -0.0313 -0.5771
32872SOL    HW1 4452   9.316   9.890   6.544  1.0064 -0.4495  0.7101
32872SOL    HW2 4453   9.242   9.955   6.659  0.0818 -2.0964  1.0748
32873SOL     OW 4454   3.581   9.587   9.799  0.0975  0.5176 -0.1507
32873SOL    HW1 4455   3.525   9.515   9.771  0.3232  0.5494 -0.7003
32873SOL    HW2 4456   3.536   9.625   9.875  0.8753 -1.3401  1.3261
32874SOL     OW 4457   4.900   6.282   6.022  0.2630 -0.1474 -0.1752
32874SOL    HW1 4458   4.857   6.197   6.021  0.5015 -0.2672 -0.3282
32874SOL    HW2 4459   4.830   6.345   6.040  0.1859 -0.4386  0.5728
32875SOL     OW 4460   7.136  10.211   2.004 -0.0844 -0.1360  0.3572
32875SOL    HW1 4461   7.120  10.272   2.077 -1.8357 -1.9469  1.6296
32875SOL    HW2 4462   7.165  10.130   2.047 -1.5518 -1.3770 -0.8825
32876SOL     OW 4463  10.364   9.760   0.107 -0.2551  0.3613  0.3448
32876SOL    HW1 4464  10.319   9.702   0.168  2.4123 -1.5709  0.6476
32876SOL    HW2 4465  10.370   9.844   0.153 -0.6233 -0.2845  1.6100
32877SOL     OW 4466   8.144   3.381   9.930  0.7691 -0.2839  0.2129
32877SOL    HW1 4467   8.185   3.401   9.845 -0.4398 -1.4524 -0.6843
32877SOL    HW2 4468   8.203   3.319   9.971  0.0292 -1.8895 -1.0308
32878SOL     OW 4469   1.098   3.987   1.139  0.7733 -0.2893 -0.1964
32878SOL    HW1 4470   1.029   4.008   1.076  1.4174  0.2614 -0.7362
32878SOL    HW2 4471   1.121   3.896   1.120  0.1161 -0.5253  0.0796
32879SOL     OW 4472   4.195   1.543   4.010  0.0786  0.2558 -0.0044
32879SOL    HW1 4473   4.141   1.516   3.936 -0.0017 -1.5037  0.6563
32879SOL    HW2 4474   4.285   1.538   3.978 -0.0092  0.5858 -0.3053
32880SOL     OW 4475  10.092   5.835   3.191 -0.0695  0.4987  0.6247
32880SOL    HW1 4476  10.058   5.909   3.242 -0.2811  0.7054  0.1896
32880SOL    HW2 4477  10.051   5.758   3.230 -0.5381  0.6907  0.5188
32881SOL     OW 4478  10.529   4.302   8.252  0.5025 -0.2740 -0.1282
32881SOL    HW1 4479  10.566   4.391   8.254 -2.2599  0.9638  1.5412
32881SOL    HW2 4480  10.560   4.262   8.333  0.3716 -0.2138 -0.0483
32882SOL     OW 4481   4.972   6.000   3.581 -0.7564  0.1119 -0.4860
32882SOL    HW1 4482   4.968   5.967   3.492 -1.2897  0.0933 -0.4588
32882SOL    HW2 4483   5.039   6.069   3.579  1.6950 -2.0748 -0.1801
32883SOL     OW 4484  10.355   0.419   3.069 -0.7503 -0.3356 -0.5042
32883SOL    HW1 4485  10.323   0.415   3.159  2.0559 -0.7667  0.5949
32883SOL    HW2 4486  10.348   0.329   3.037  0.3288 -0.6765  0.1494
32884SOL     OW 4487   3.177   2.983   1.259  1.0850  0.3147 -0.3748
32884SOL    HW1 4488   3.136   2.913   1.310  1.8843 -0.4608 -0.7502
32884SOL    HW2 4489   3.270   2.962   1.261  1.0288 -1.0215 -3.8433
32885SOL     OW 4490   3.604   4.235   1.392  0.7988  0.3287  0.3943
32885SOL    HW1 4491   3.533   4.299   1.387 -0.0405 -0.4823  1.4423
32885SOL    HW2 4492   3.684   4.288   1.399  0.1095  1.2774  1.4621
32886SOL     OW 4493   3.527   6.146   2.443  0.1096 -0.1993  0.2140
32886SOL    HW1 4494   3.473   6.157   2.522  0.3552  0.8024  0.2519
32886SOL    HW2 4495   3.543   6.235   2.412  1.6753 -0.4781  0.1502
32887SOL     OW 4496   3.056   2.450   9.446  0.9564 -0.2636  0.0365
32887SOL    HW1 4497   3.085   2.501   9.522 -0.2165  0.1963  0.1958
32887SOL    HW2 4498   3.052   2.360   9.479 -1.1331  0.1433  1.0474
32888SOL     OW 4499   1.686  10.246   9.237 -0.0597 -0.4365 -0.5724
32888SOL    HW1 4500   1.673  10.319   9.176 -0.0760 -0.0311 -0.0926
32888SOL    HW2 4501   1.625  10.179   9.207  1.5376 -1.1665 -2.3874
32889SOL     OW 4502   5.860   7.024   7.806  0.4130  0.1096  0.0866
32889SOL    HW1 4503   5.820   6.964   7.868  0.4213  1.8146  1.8303
32889SOL    HW2 4504   5.954   7.015   7.821  0.4533  0.0320 -0.1944
32890SOL     OW 4505   3.141   8.088   4.043 -0.0329 -0.2154  0.0902
32890SOL    HW1 4506   3.193   8.008   4.049  0.0009 -0.1372  0.8512
32890SOL    HW2 4507   3.064   8.063   3.991  0.3983 -0.5160 -0.4089
32891SOL     OW 4508   6.548   0.301   1.699 -0.1095 -0.7589 -0.7185
32891SOL    HW1 4509   6.490   0.286   1.625 -0.8617 -0.1034 -0.2886
32891SOL    HW2 4510   6.554   0.396   1.706  1.0827 -0.8197 -0.7915
32892SOL     OW 4511   9.278   5.225   1.720 -0.7825 -0.3356 -0.1408
32892SOL    HW1 4512   9.294   5.145   1.670 -1.0039 -1.0876  0.9679
32892SOL    HW2 4513   9.202   5.265   1.677 -0.8662 -0.8811 -0.5155
32893SOL     OW 4514   5.057   9.775   1.928  0.2906 -0.5440  0.7470
32893SOL    HW1 4515   5.083   9.823   1.850 -0.4091 -1.2083  0.0850
32893SOL    HW2 4516   5.109   9.694   1.926 -0.6837 -1.1825  0.2192
32894SOL     OW 4517   1.601   6.913   1.473  0.3959  0.7454  0.2834
32894SOL    HW1 4518   1.598   6.996   1.521  1.3479  1.4201 -0.7656
32894SOL    HW2 4519   1.574   6.935   1.385  1.1594  0.0556 -0.1429
32895SOL     OW 4520   9.171   2.009   4.293 -0.1040  0.3373  0.6414
32895SOL    HW1 4521   9.085   1.980   4.263 -0.0073  0.0904  0.5962
32895SOL    HW2 4522   9.217   2.037   4.214 -0.3268  0.9655  0.7302
32896SOL     OW 4523   8.359  10.321   2.449  0.6730 -0.4714  0.1339
32896SOL    HW1 4524   8.280  10.274   2.478  0.5052 -0.6724 -0.6273
32896SOL    HW2 4525   8.392  10.364   2.528 -1.1341  0.9733  0.1771
32897SOL     OW 4526   6.602   1.862   4.855 -0.7504  0.3055  0.0973
32897SOL    HW1 4527   6.641   1.948   4.871 -0.6584 -0.0032  1.7574
32897SOL    HW2 4528   6.645   1.830   4.776  0.8040  0.9000  0.6524
32898SOL     OW 4529   7.260   1.871   8.695 -0.0033  0.3611  0.5175
32898SOL    HW1 4530   7.250   1.964   8.718  1.8345  0.9057 -0.6786
32898SOL    HW2 4531   7.259   1.870   8.600 -1.3752 -1.0621  0.5148
32899SOL     OW 4532   6.499   2.491   8.870 -0.3897  0.0265  0.4037
32899SOL    HW1 4533   6.411   2.521   8.850 -0.7706 -0.5211  1.2114
32899SOL    HW2 4534   6.547   2.499   8.787 -1.2615  0.0961 -0.0982
32900SOL     OW 4535   3.199   3.549   5.602  0.0282 -0.1218 -0.2970
32900SOL    HW1 4536   3.253   3.534   5.525  1.7134  0.3414  0.7321
32900SOL    HW2 4537   3.203   3.467   5.651 -1.0392 -0.4174 -0.6800
32901SOL     OW 4538   5.398  10.294   0.771  0.4244 -0.0667 -0.6412
32901SOL    HW1 4539   5.311  10.291   0.813  0.3358  2.6292 -0.4200
32901SOL    HW2 4540   5.388  10.358   0.701  2.5524  1.4092  0.2929
32902SOL     OW 4541   5.565   9.810   2.875  0.2771  0.2305  0.2516
32902SOL    HW1 4542   5.579   9.822   2.969 -0.7331 -0.6501  0.5384
32902SOL    HW2 4543   5.644   9.844   2.834 -0.0802  2.5060  1.2912
32903SOL     OW 4544   9.276   0.155   8.329 -0.1056 -0.1700 -0.7238
32903SOL    HW1 4545   9.227   0.237   8.318  1.2612  0.5463 -1.7088
32903SOL    HW2 4546   9.227   0.092   8.276 -0.8580  0.1214 -0.3997
32904SOL     OW 4547   8.805   3.786   4.168 -0.0938 -0.1970 -0.3751
32904SOL    HW1 4548   8.715   3.818   4.171 -0.7627 -2.0526  1.3871
32904SOL    HW2 4549   8.848   3.829   4.241 -0.1209 -0.8676  0.0386
32905SOL     OW 4550   3.083   3.566   0.076 -0.3895  0.2637  0.0107
32905SOL    HW1 4551   3.079   3.620   0.155  1.1598 -0.6798  0.7679
32905SOL    HW2 4552   3.165   3.517   0.084  0.0954  0.5263 -2.4362
32906SOL     OW 4553   5.346   0.679   8.932  0.0542  0.3627 -0.2571
32906SOL    HW1 4554   5.373   0.629   8.855 -1.2823  0.2878 -0.6947
32906SOL    HW2 4555   5.366   0.770   8.909  0.8800  0.2189 -0.1488
32907SOL     OW 4556  10.258   0.280   6.557 -0.1604  0.2820  0.0332
32907SOL    HW1 4557  10.279   0.254   6.646 -0.4387  0.5781  0.1863
32907SOL    HW2 4558  10.278   0.202   6.504 -1.4027 -0.4243  0.5406
32908SOL     OW 4559   1.632   9.342   2.026  0.4404 -0.3362  0.2593
32908SOL    HW1 4560   1.619   9.313   1.936  0.0912  0.2566  0.1132
32908SOL    HW2 4561   1.547   9.332   2.067  0.5108 -0.2681  0.4220
32909SOL     OW 4562   6.190   9.723   1.978  0.5954  0.4017 -0.0457
32909SOL    HW1 4563   6.128   9.715   1.906  0.9995 -0.1191 -0.3409
32909SOL    HW2 4564   6.137   9.711   2.057  0.1230  1.1328 -0.2412
32910SOL     OW 4565   5.743   8.263   1.175  0.1818 -0.3647 -0.2888
32910SOL    HW1 4566   5.729   8.283   1.082 -0.5876 -0.7682 -0.2724
32910SOL    HW2 4567   5.658   8.229   1.204  0.4826 -0.4340  0.5111
32911SOL     OW 4568  10.509   2.970   1.664 -0.7272  0.3249  0.0746
32911SOL    HW1 4569  10.516   2.989   1.757  0.4983 -0.3652  0.1398
32911SOL    HW2 4570  10.470   3.049   1.626 -1.0826  0.6741  1.1346
32912SOL     OW 4571   1.612   6.019   1.852 -0.3289 -0.1907  0.3754
32912SOL    HW1 4572   1.584   6.025   1.761 -0.8853  0.2759  0.5699
32912SOL    HW2 4573   1.707   6.010   1.848  0.0278  2.8059 -0.1808
32913SOL     OW 4574   0.737   7.346   2.311  0.6756  0.3763  0.0679
32913SOL    HW1 4575   0.778   7.307   2.234  1.2074  0.1816  0.4384
32913SOL    HW2 4576   0.768   7.437   2.311  1.7084  0.0429  0.7381
32914SOL     OW 4577   5.830   8.839   9.164  0.2917  0.0204 -0.4293
32914SOL    HW1 4578   5.896   8.837   9.095  1.2355 -0.6772  0.4582
32914SOL    HW2 4579   5.880   8.834   9.245 -0.9005 -2.0621  0.2498
32915SOL     OW 4580   5.952   2.988   4.526 -0.2186  0.0639 -0.2328
32915SOL    HW1 4581   5.897   2.939   4.465 -0.9205 -1.1288  1.2757
32915SOL    HW2 4582   5.896   3.058   4.559  0.0140  0.4312 -0.6094
32916SOL     OW 4583   6.442   3.246   1.603 -0.2466  0.2604  0.8356
32916SOL    HW1 4584   6.480   3.161   1.624  0.5030  0.6309  1.0174
32916SOL    HW2 4585   6.475   3.304   1.671  1.0132  1.1675 -0.4909
32917SOL     OW 4586   2.053   5.588   1.228 -0.6662 -0.4017  0.1818
32917SOL    HW1 4587   2.069   5.511   1.281 -2.0461 -0.8880 -0.0599
32917SOL    HW2 4588   2.095   5.569   1.144 -0.6497 -0.7195  0.2612
32918SOL     OW 4589   0.304   3.441   7.663  0.0219  0.1791  0.5065
32918SOL    HW1 4590   0.343   3.513   7.614  0.7316 -0.4423  0.1258
32918SOL    HW2 4591   0.261   3.483   7.737  1.6098  0.8974  1.0750
32919SOL     OW 4592   9.754   3.530   7.744 -0.2554  0.6731  0.2491
32919SOL    HW1 4593   9.816   3.463   7.715 -1.5685 -0.4764  0.0085
32919SOL    HW2 4594   9.778   3.608   7.695  0.6100  0.0786 -0.2965
32920SOL     OW 4595   4.257   8.023   6.572 -0.2207  0.1220 -0.2532
32920SOL    HW1 4596   4.272   8.078   6.649 -0.2575 -0.6004  0.2787
32920SOL    HW2 4597   4.231   8.085   6.503 -0.4351  0.7492  0.3768
32921SOL     OW 4598   8.786  10.353   5.303  0.4448 -0.0330  0.0345
32921SOL    HW1 4599   8.827  10.289   5.245  2.0455  1.4674 -0.5629
32921SOL    HW2 4600   8.692  10.342   5.288  0.7551 -1.0097 -1.3742
32922SOL     OW 4601   2.656   6.525   1.127  0.1502  0.4965  0.4247
32922SOL    HW1 4602   2.729   6.490   1.075 -1.0864 -0.2380 -0.9110
32922SOL    HW2 4603   2.643   6.614   1.093 -0.3855  0.1659 -0.2677
32923SOL     OW 4604   0.614   5.282   4.611 -0.3317  0.3181 -0.0103
32923SOL    HW1 4605   0.546   5.308   4.548 -0.6844  2.7691  1.2439
32923SOL    HW2 4606   0.695   5.286   4.561 -0.8403 -0.1671 -0.9031
32924SOL     OW 4607   5.139   2.358   8.917  0.3832 -0.2942  0.3573
32924SOL    HW1 4608   5.194   2.298   8.866  2.4539  1.0069  0.9434
32924SOL    HW2 4609   5.057   2.310   8.929  0.3723 -1.3066 -2.7470
32925SOL     OW 4610   6.120  10.232   5.927  0.3802  0.4484  0.2519
32925SOL    HW1 4611   6.031  10.201   5.911  0.4401  1.1514 -1.7719
32925SOL    HW2 4612   6.111  10.300   5.994 -0.8475  1.5762 -0.9983
32926SOL     OW 4613  10.399   1.092   5.845 -0.1922  0.0481 -0.2807
32926SOL    HW1 4614  10.310   1.062   5.864 -0.7285  1.2834 -0.7209
32926SOL    HW2 4615  10.455   1.027   5.887 -1.2836 -1.0605 -0.4470
32927SOL     OW 4616   6.036   9.981   3.423  0.5104  0.4833 -0.3801
32927SOL    HW1 4617   6.064   9.891   3.414  2.1799  0.8959  0.3305
32927SOL    HW2 4618   5.946   9.975   3.456 -0.2432 -0.8784 -2.4783
32928SOL     OW 4619   1.665   4.352   0.216 -0.5473  0.4577  0.1159
32928SOL    HW1 4620   1.710   4.406   0.282 -0.7832  1.2857 -0.3876
32928SOL    HW2 4621   1.586   4.402   0.195 -0.1326  0.5423 -1.2971
32929SOL     OW 4622   4.727   2.950   6.229 -0.0029  0.6188  0.4997
32929SOL    HW1 4623   4.814   2.973   6.260  0.4701 -0.7861  0.3090
32929SOL    HW2 4624   4.698   2.880   6.288 -0.3787  0.0729 -0.3125
32930SOL     OW 4625   3.704   3.239   3.035  0.1500  0.1298 -0.5236
32930SOL    HW1 4626   3.655   3.308   2.991 -1.5963 -0.7184  0.0035
32930SOL    HW2 4627   3.667   3.157   3.002  0.8749 -0.5448  0.2610
32931SOL     OW 4628   9.025   3.647   4.041  0.0175  0.2298  0.2926
32931SOL    HW1 4629   9.105   3.697   4.022  0.1580  0.0040  0.2971
32931SOL    HW2 4630   8.973   3.707   4.094  0.5882  0.0293  1.0997
32932SOL     OW 4631   1.410   5.882   1.150 -0.4642  0.2216  0.1137
32932SOL    HW1 4632   1.472   5.838   1.091 -2.2804 -0.4956 -1.3575
32932SOL    HW2 4633   1.355   5.934   1.091 -0.6781  1.6209  1.4836
32933SOL     OW 4634   5.905   1.296   4.723 -0.3816 -0.7210 -0.3697
32933SOL    HW1 4635   5.843   1.336   4.663 -0.3920  0.1350  0.2048
32933SOL    HW2 4636   5.918   1.207   4.688  0.9132  0.2599 -2.6219
32934SOL     OW 4637   1.847   8.711   9.358  0.4187 -0.3350  0.3000
32934SOL    HW1 4638   1.791   8.732   9.432  0.2576  2.2376 -0.4511
32934SOL    HW2 4639   1.933   8.695   9.396  0.7093  2.5214  0.9983
32935SOL     OW 4640   7.634  10.349  10.625  0.2763 -0.7093 -0.0080
32935SOL    HW1 4641   7.602  10.422  10.677 -1.1646 -1.8986  0.8604
32935SOL    HW2 4642   7.722  10.332  10.659  1.0196  1.1858 -0.8769
32936SOL     OW 4643   4.405   9.822   1.100  0.1889 -0.0884  0.5444
32936SOL    HW1 4644   4.410   9.744   1.156  0.6400 -0.2988  0.2243
32936SOL    HW2 4645   4.320   9.861   1.120 -1.0355 -1.8685 -0.8768
32937SOL     OW 4646   7.456   7.241   2.677  0.2072 -0.2539  0.2886
32937SOL    HW1 4647   7.386   7.271   2.620  0.0775  0.0769  0.6219
32937SOL    HW2 4648   7.525   7.213   2.617  0.0991  0.1539 -0.0318
32938SOL     OW 4649   9.315   9.543   0.801  0.1175  0.4018  0.8052
32938SOL    HW1 4650   9.250   9.610   0.781 -0.9486 -0.9824 -0.5204
32938SOL    HW2 4651   9.269   9.478   0.854 -0.0605 -1.2679 -1.2508
32939SOL     OW 4652  10.392   6.064   5.132 -0.3868  0.0733  0.9568
32939SOL    HW1 4653  10.298   6.061   5.151 -0.1867  0.1682  2.0085
32939SOL    HW2 4654  10.409   5.985   5.081 -1.1915  0.5004  0.0004
32940SOL     OW 4655   3.292  10.211   1.489 -0.7673 -0.2708  0.1093
32940SOL    HW1 4656   3.251  10.228   1.404  0.4482  0.2748 -0.3870
32940SOL    HW2 4657   3.379  10.249   1.481  0.6496 -3.2091  0.3796
32941SOL     OW 4658   0.387   4.821   2.492  0.3356  0.0202 -0.2877
32941SOL    HW1 4659   0.310   4.826   2.435  0.5817 -0.2581 -0.6451
32941SOL    HW2 4660   0.456   4.786   2.437  0.8264  0.6240 -0.0691
32942SOL     OW 4661   2.140   8.275   8.814 -0.0923 -0.2295  0.1391
32942SOL    HW1 4662   2.217   8.240   8.769 -1.0196 -1.1901 -0.7497
32942SOL    HW2 4663   2.176   8.342   8.873  1.2886  0.2757 -1.1936
32943SOL     OW 4664   9.588   4.168   4.102 -0.2677 -0.3509  0.8091
32943SOL    HW1 4665   9.617   4.093   4.050  1.1600 -0.1667  1.2818
32943SOL    HW2 4666   9.654   4.236   4.085 -1.6242  0.8721  0.2552
32944SOL     OW 4667   3.123   5.882   2.288 -0.5555  0.3116 -0.4932
32944SOL    HW1 4668   3.143   5.809   2.229  0.7937  0.2691 -0.0262
32944SOL    HW2 4669   3.204   5.934   2.290 -0.7681  0.6391  0.8344
32945SOL     OW 4670  10.696   1.569   0.018  0.1130 -0.1582 -0.2852
32945SOL    HW1 4671  10.743   1.612   0.090 -0.1693  0.0189 -0.2065
32945SOL    HW2 4672  10.634   1.511   0.061  0.3912 -0.5417 -0.3918
32946SOL     OW 4673   8.833   3.021   2.043  0.3636 -0.1781 -0.2234
32946SOL    HW1 4674   8.833   2.985   1.954  0.3690  1.0237 -0.7198
32946SOL    HW2 4675   8.880   2.955   2.094 -0.8707 -1.5698 -0.8104
32947SOL     OW 4676   1.975   5.118   9.828 -0.3272  0.2529 -0.1440
32947SOL    HW1 4677   1.980   5.110   9.923 -1.1560 -0.9551 -0.1865
32947SOL    HW2 4678   2.032   5.050   9.794 -0.7974  0.0274 -0.5043
32948SOL     OW 4679   2.595   1.943   7.989 -0.4333  0.1526  0.8057
32948SOL    HW1 4680   2.583   1.926   7.896  2.2654 -2.0401  0.7329
32948SOL    HW2 4681   2.659   2.014   7.993  0.1228 -0.3470  0.9461
32949SOL     OW 4682   6.329   5.638   3.054 -0.1872  0.0890  0.8171
32949SOL    HW1 4683   6.261   5.585   3.097  0.5383 -1.0410  0.6111
32949SOL    HW2 4684   6.288   5.723   3.040 -1.3376 -0.3685  1.3088
32950SOL     OW 4685   3.608   5.409   4.679 -0.0693 -0.6476 -0.2211
32950SOL    HW1 4686   3.529   5.428   4.628  0.4060  1.6999 -0.1851
32950SOL    HW2 4687   3.585   5.434   4.769  0.1182 -1.7988  0.1687
32951SOL     OW 4688   9.266   9.896   5.298  0.2146 -0.5184  0.3807
32951SOL    HW1 4689   9.336   9.874   5.359  1.1194 -0.3759 -0.5983
32951SOL    HW2 4690   9.231   9.979   5.330  1.8801  0.4792 -0.2968
32952SOL     OW 4691   2.715   2.102   6.373 -0.2697  0.0665  0.0261
32952SOL    HW1 4692   2.721   2.198   6.373  0.3013  0.0347  0.3111
32952SOL    HW2 4693   2.804   2.073   6.354 -0.4842 -0.4113 -0.2622
32953SOL     OW 4694   7.362   6.728   2.424  0.5951 -0.3451 -0.0112
32953SOL    HW1 4695   7.409   6.644   2.418 -1.3956 -1.4562 -1.4336
32953SOL    HW2 4696   7.279   6.705   2.467 -1.0920  0.2927 -2.7146
32954SOL     OW 4697   2.109   0.093   5.352  0.0754 -0.3053 -0.1114
32954SOL    HW1 4698   2.121   0.057   5.440  0.7307  0.2421  0.0253
32954SOL    HW2 4699   2.167   0.169   5.348 -1.9910  1.3457 -0.0632
32955SOL     OW 4700   7.096   2.194   1.589  0.1762  0.1622  0.1519
32955SOL    HW1 4701   7.098   2.257   1.517  1.3565  1.2503  1.0827
32955SOL    HW2 4702   7.175   2.142   1.577 -0.3608 -0.6032 -0.1305
32956SOL     OW 4703   4.828   1.479   4.506  0.2395 -0.2701 -0.1280
32956SOL    HW1 4704   4.750   1.427   4.486 -0.2512  0.4250 -0.0533
32956SOL    HW2 4705   4.810   1.565   4.468  1.6561 -0.5489 -1.5690
32957SOL     OW 4706   5.607   2.594   0.260  0.1417  0.6152 -0.0991
32957SOL    HW1 4707   5.607   2.560   0.171  1.7258 -0.8691  0.4140
32957SOL    HW2 4708   5.684   2.554   0.301  0.3519  2.4964  1.4712
32958SOL     OW 4709   3.412   6.903   3.004  0.4956 -0.1829 -0.0356
32958SOL    HW1 4710   3.331   6.913   3.054  0.2773  0.5272 -0.5146
32958SOL    HW2 4711   3.389   6.843   2.933 -0.2022  1.5476 -1.3522
32959SOL     OW 4712   0.749   5.204   2.212 -0.2497 -0.0190 -0.3520
32959SOL    HW1 4713   0.737   5.225   2.119 -0.8292  1.0255 -0.0483
32959SOL    HW2 4714   0.685   5.134   2.229 -0.6803  0.3225 -0.5567
32960SOL     OW 4715   6.304   1.187   0.956 -0.7490 -0.5743  0.4183
32960SOL    HW1 4716   6.212   1.202   0.979 -0.9787 -1.0895 -0.1233
32960SOL    HW2 4717   6.328   1.262   0.902 -0.7236 -0.2271  0.9113
32961SOL     OW 4718   3.662   4.943   4.263  0.1680 -0.0879  0.2163
32961SOL    HW1 4719   3.714   5.021   4.243  1.0689 -0.0900  2.3233
32961SOL    HW2 4720   3.719   4.870   4.239 -0.9365 -0.2110 -2.4278
32962SOL     OW 4721   9.133   6.391   1.978 -0.3135 -0.4287 -0.3335
32962SOL    HW1 4722   9.084   6.472   1.986  0.6735  0.0774  1.0229
32962SOL    HW2 4723   9.067   6.324   1.959 -1.4215  0.3414  0.6881
32963SOL     OW 4724   1.817   7.647   7.744 -0.6055 -0.0715 -0.5092
32963SOL    HW1 4725   1.817   7.622   7.652  0.6538  0.4953 -0.6748
32963SOL    HW2 4726   1.824   7.742   7.744  0.5156 -0.1301  0.1581
32964SOL     OW 4727   8.374   6.413   3.853 -0.0683  0.4180  0.4208
32964SOL    HW1 4728   8.354   6.469   3.778 -1.6290  1.0599  1.2705
32964SOL    HW2 4729   8.442   6.460   3.901 -0.5823  1.0648  0.5334
32965SOL     OW 4730   4.359   3.238   1.570  0.2381  0.0254 -0.0443
32965SOL    HW1 4731   4.283   3.186   1.598  0.6881 -0.4730  0.2833
32965SOL    HW2 4732   4.322   3.309   1.519 -0.5769  0.6204  1.3279
32966SOL     OW 4733   8.244   4.796   1.324  0.0589  0.1995  0.1019
32966SOL    HW1 4734   8.282   4.778   1.410  1.1562  0.7393 -0.2610
32966SOL    HW2 4735   8.298   4.747   1.263  0.1786  0.9669 -0.4240
32967SOL     OW 4736   3.641   9.953   4.318  0.1245 -0.1623 -0.4113
32967SOL    HW1 4737   3.721   9.962   4.266 -0.0127  0.5119 -0.5223
32967SOL    HW2 4738   3.572   9.943   4.252  0.0424 -0.0806 -0.3373
32968SOL     OW 4739   4.841   6.721  10.623 -0.0134 -0.1894 -0.2266
32968SOL    HW1 4740   4.910   6.703  10.559  0.9160  1.0226  0.3973
32968SOL    HW2 4741   4.785   6.787  10.581 -1.3847 -1.8063 -1.0974
32969SOL     OW 4742   6.422   4.063   9.841  0.0293 -0.4158 -0.2936
32969SOL    HW1 4743   6.492   4.118   9.875 -0.3675  1.0361 -1.6913
32969SOL    HW2 4744   6.412   3.994   9.906  0.6159  1.1059  1.5070
32970SOL     OW 4745   7.976   2.198   6.871 -0.1086 -0.1268 -0.4914
32970SOL    HW1 4746   7.957   2.275   6.924  1.0481 -2.0508  3.0407
32970SOL    HW2 4747   8.068   2.206   6.848  0.2878 -0.8449  0.7439
32971SOL     OW 4748   4.715   9.172   6.610  0.2122 -0.0924  0.0091
32971SOL    HW1 4749   4.724   9.107   6.679  1.2028  0.0225 -0.0012
32971SOL    HW2 4750   4.777   9.241   6.634  0.5589 -0.0452 -0.9826
32972SOL     OW 4751   2.916   4.864   3.026  0.2864 -0.2986  0.0391
32972SOL    HW1 4752   2.892   4.885   3.116  1.0951 -0.1770  0.2336
32972SOL    HW2 4753   2.954   4.946   2.992  0.4659 -0.4987 -0.2456
32973SOL     OW 4754   3.449   1.566   6.858 -0.1072  0.1535  0.0244
32973SOL    HW1 4755   3.456   1.470   6.853  0.2052  0.2169 -2.7671
32973SOL    HW2 4756   3.359   1.585   6.831  0.4015  0.6613 -1.4359
32974SOL     OW 4757   8.336   1.086   8.269  0.5792  0.2333 -0.0539
32974SOL    HW1 4758   8.289   1.167   8.248  0.0990  0.3325  1.3582
32974SOL    HW2 4759   8.332   1.035   8.187  1.0559  1.6868 -1.0241
32975SOL     OW 4760   4.825   5.704   7.181  0.1591  0.1621 -0.1581
32975SOL    HW1 4761   4.811   5.685   7.274 -2.4420 -0.4167 -0.5965
32975SOL    HW2 4762   4.738   5.698   7.142  0.8494  2.4630 -2.2989
32976SOL     OW 4763   7.247   4.599  10.027  0.3806 -0.5052  0.5524
32976SOL    HW1 4764   7.264   4.595   9.933 -0.4189  0.3543  0.3502
32976SOL    HW2 4765   7.196   4.520  10.046 -1.6742  0.5445 -0.2616
32977SOL     OW 4766   2.811   1.843   0.251 -0.5650  0.0073 -0.5400
32977SOL    HW1 4767   2.834   1.855   0.158  0.2438  1.1756 -0.2137
32977SOL    HW2 4768   2.753   1.767   0.251  0.2903 -0.6950 -1.8728
32978SOL     OW 4769   2.440   8.450   1.992  0.1234  0.0789  0.6084
32978SOL    HW1 4770   2.492   8.529   2.005  0.7479 -0.2983  0.4538
32978SOL    HW2 4771   2.406   8.428   2.078  0.0506  0.4413  0.6735
32979SOL     OW 4772   2.757   1.918   5.941 -0.1005 -0.4891  0.1869
32979SOL    HW1 4773   2.772   1.850   5.875 -2.5240 -0.1168 -0.8495
32979SOL    HW2 4774   2.692   1.880   6.000  1.5373 -0.5571  2.0758
32980SOL     OW 4775   0.431   0.856   0.905 -0.1628  0.4737 -0.5476
32980SOL    HW1 4776   0.345   0.884   0.874 -0.9524 -1.0609  0.1187
32980SOL    HW2 4777   0.487   0.856   0.827 -1.3277 -0.4636 -1.4229
32981SOL     OW 4778   4.660   8.026   1.393  0.0984 -0.3353  0.2144
32981SOL    HW1 4779   4.615   7.994   1.315 -0.9775  1.1662  0.1713
32981SOL    HW2 4780   4.626   7.972   1.465 -1.3777  0.3924  0.0911
32982SOL     OW 4781   1.100   6.194   2.366  0.5288 -0.3293 -0.2130
32982SOL    HW1 4782   1.019   6.189   2.417  0.3775  1.9340 -0.1227
32982SOL    HW2 4783   1.083   6.140   2.289 -0.7770 -0.5572  0.2026
32983SOL     OW 4784  10.513   1.683   5.092  0.0057  0.5031  0.3020
32983SOL    HW1 4785  10.458   1.753   5.128  0.0732  0.5184  0.3727
32983SOL    HW2 4786  10.461   1.648   5.019 -0.1193  0.4835  0.4015
32984SOL     OW 4787   8.924   1.219   2.584  0.3008 -0.0240 -0.2242
32984SOL    HW1 4788   8.884   1.159   2.647  0.2638  0.4839  0.2409
32984SOL    HW2 4789   8.978   1.277   2.637  2.2555 -1.1229 -0.8876
32985SOL     OW 4790   0.387   7.917   2.801 -0.3443  0.0157  0.0362
32985SOL    HW1 4791   0.341   7.956   2.728 -0.9864  1.6800  1.2676
32985SOL    HW2 4792   0.380   7.822   2.786  0.6834  0.2876 -2.6794
32986SOL     OW 4793   7.712   2.585   5.218  0.3787  0.3487 -0.1678
32986SOL    HW1 4794   7.702   2.674   5.253 -0.9449  0.1117  0.1207
32986SOL    HW2 4795   7.805   2.566   5.227  0.2224  0.4989  2.7816
32987SOL     OW 4796   0.517   8.899   0.485 -0.0937  0.1432 -0.0221
32987SOL    HW1 4797   0.553   8.972   0.536 -0.7973 -0.8182  1.9117
32987SOL    HW2 4798   0.427   8.926   0.466 -1.5350 -1.4669  3.5898
32988SOL     OW 4799   1.879   6.802   0.220 -0.2745 -0.1529 -0.1636
32988SOL    HW1 4800   1.873   6.758   0.135  2.0732  2.4980 -1.9220
32988SOL    HW2 4801   1.973   6.817   0.232 -0.6752  0.8608  2.1857
32989SOL     OW 4802   7.608   9.003   5.915 -0.4136 -0.1374  0.3743
32989SOL    HW1 4803   7.675   8.955   5.865 -0.4655 -0.8755  1.0082
32989SOL    HW2 4804   7.635   8.995   6.006 -0.4368  1.0335  0.5054
32990SOL     OW 4805   0.330   0.619   5.447 -0.1487  0.2049  0.8252
32990SOL    HW1 4806   0.353   0.711   5.451  0.4725  0.0636  0.6296
32990SOL    HW2 4807   0.254   0.610   5.505 -2.8652  1.5888 -2.2148
32991SOL     OW 4808   6.304   7.802   8.673  0.1700  0.5708  0.3508
32991SOL    HW1 4809   6.358   7.875   8.644  0.8508 -0.5308 -1.3361
32991SOL    HW2 4810   6.336   7.781   8.761  1.7468  0.6628 -0.1704
32992SOL     OW 4811   2.472   4.351   8.329  0.5192 -0.5424 -0.1373
32992SOL    HW1 4812   2.538   4.362   8.398 -0.1117 -2.6675  0.8627
32992SOL    HW2 4813   2.508   4.284   8.272  0.7920  0.8274 -1.6383
32993SOL     OW 4814   5.757   7.116   2.629 -0.7454 -0.0760  0.5025
32993SOL    HW1 4815   5.778   7.185   2.566 -1.4094 -0.6703 -0.3886
32993SOL    HW2 4816   5.828   7.053   2.621  0.0971  0.6894  1.6357
32994SOL     OW 4817   2.307   7.218   4.631  0.0875 -0.1871  0.1473
32994SOL    HW1 4818   2.282   7.127   4.642 -0.5128 -0.2742 -1.6598
32994SOL    HW2 4819   2.290   7.258   4.717 -1.5762 -1.3272  0.3983
32995SOL     OW 4820   0.136   8.734   5.290 -0.3555  0.1373  0.1879
32995SOL    HW1 4821   0.120   8.700   5.378  0.2410  1.4420  0.8334
32995SOL    HW2 4822   0.165   8.824   5.304  0.3638  0.1742 -1.3156
32996SOL     OW 4823   7.379   1.214   9.066  0.3648  0.3362 -0.1310
32996SOL    HW1 4824   7.342   1.299   9.087 -1.5305 -0.2120 -1.0716
32996SOL    HW2 4825   7.304   1.157   9.054  1.5345 -1.0216 -1.4367
32997SOL     OW 4826   5.165   1.065   9.729  0.6917 -0.1119 -0.3427
32997SOL    HW1 4827   5.146   1.008   9.804 -0.8429 -0.2711 -0.8311
32997SOL    HW2 4828   5.121   1.024   9.655  1.9557  0.2016 -1.3029
32998SOL     OW 4829  10.700   7.042   3.167 -0.6533 -0.0370  0.0998
32998SOL    HW1 4830  10.789   7.070   3.148 -0.0570 -2.1749 -0.4491
32998SOL    HW2 4831  10.647   7.087   3.101  0.2385 -0.1407 -0.7019
32999SOL     OW 4832   1.980   0.489   4.548  0.1153  0.7380  0.4061
32999SOL    HW1 4833   1.925   0.529   4.616 -1.2283 -1.9347  1.0497
32999SOL    HW2 4834   2.023   0.416   4.592  2.3889  1.3046 -0.7210
33000SOL     OW 4835   4.656   8.027   4.117 -0.5289 -0.2316 -0.0546
33000SOL    HW1 4836   4.635   8.121   4.117 -1.7302 -0.4790 -1.0960
33000SOL    HW2 4837   4.667   8.005   4.024 -0.4164 -1.1508  0.1706
33001SOL     OW 4838  10.142   3.337   6.078 -0.3834  0.2045 -0.2652
33001SOL    HW1 4839  10.154   3.417   6.026  1.1356  1.1927  1.5149
33001SOL    HW2 4840  10.118   3.270   6.013  0.9002  1.4920 -2.1834
33002SOL     OW 4841   8.568   8.910   1.572  0.6006 -0.1628  0.6294
33002SOL    HW1 4842   8.628   8.941   1.641 -0.6542  1.3581  1.1244
33002SOL    HW2 4843   8.511   8.986   1.556 -0.9711 -1.4403 -0.0343
33003SOL     OW 4844  10.282   9.536  10.012 -0.6722  0.1450 -0.4094
33003SOL    HW1 4845  10.228   9.533   9.933 -0.9991  1.5153 -0.2731
33003SOL    HW2 4846  10.328   9.620  10.006 -0.4437  0.1128  0.6867
33004SOL     OW 4847   2.190   0.613   6.308 -0.0197 -0.0102 -0.0508
33004SOL    HW1 4848   2.109   0.606   6.257 -0.0621 -0.2667  0.0507
33004SOL    HW2 4849   2.226   0.524   6.309  0.6685  0.2487 -0.7494
33005SOL     OW 4850   6.119   3.011   5.194 -0.7216  0.3756  0.0156
33005SOL    HW1 4851   6.166   2.937   5.155  1.1219  1.6201 -0.2442
33005SOL    HW2 4852   6.036   2.973   5.225  0.7368 -2.0923  1.1776
33006SOL     OW 4853   7.284   6.949   4.636  0.0160  0.0200 -0.5167
33006SOL    HW1 4854   7.335   6.869   4.647 -1.1542 -0.5606  0.9328
33006SOL    HW2 4855   7.303   6.976   4.546  0.7739 -1.6387 -0.9032
33007SOL     OW 4856  10.296   5.596   3.468 -0.5462  0.0169 -0.2309
33007SOL    HW1 4857  10.202   5.606   3.456 -0.9788  1.0753  3.0335
33007SOL    HW2 4858  10.335   5.647   3.398 -2.4441  0.9701 -0.6495
33008SOL     OW 4859   5.441   5.743   0.420 -0.3888  0.3898  0.2766
33008SOL    HW1 4860   5.408   5.822   0.377 -1.1564  0.3239  0.7242
33008SOL    HW2 4861   5.429   5.761   0.514  0.1681  0.0591  0.4132
33009SOL     OW 4862   0.187  10.724   2.099  0.2845 -1.1122 -0.5343
33009SOL    HW1 4863   0.282  10.735   2.092  0.1019 -0.2867 -2.3338
33009SOL    HW2 4864   0.172  10.632   2.079  0.6747 -1.1543 -0.6362
33010SOL     OW 4865   2.058   7.410   0.589  0.2259 -0.0088 -0.4117
33010SOL    HW1 4866   2.134   7.353   0.590 -0.3027 -0.7319 -0.1438
33010SOL    HW2 4867   2.004   7.379   0.662  0.5705  1.7420  0.6458
33011SOL     OW 4868   9.996   0.642   8.525  0.2027 -0.4791 -0.5081
33011SOL    HW1 4869  10.035   0.726   8.549 -2.6407  0.9665 -0.5783
33011SOL    HW2 4870   9.974   0.601   8.608 -0.9972  0.1830 -0.4835
33012SOL     OW 4871  10.063   5.172   1.440  0.0005  0.0747 -0.0201
33012SOL    HW1 4872   9.981   5.126   1.458  0.5416 -0.8706  0.1111
33012SOL    HW2 4873  10.054   5.256   1.485 -0.7412 -0.1752  0.3167
33013SOL     OW 4874   1.335   9.080   1.857  0.0231 -0.1232  0.5546
33013SOL    HW1 4875   1.256   9.111   1.901  0.3525 -0.2710  1.2692
33013SOL    HW2 4876   1.309   8.996   1.818 -0.3843  0.2053  0.1112
33014SOL     OW 4877   4.366   4.863   1.642  0.3058 -0.0393 -0.2171
33014SOL    HW1 4878   4.372   4.916   1.563 -0.5244  0.4063 -0.0056
33014SOL    HW2 4879   4.392   4.775   1.615  1.4834  0.4244 -0.6294
33015SOL     OW 4880   6.925   6.444   2.959  0.0278  0.4281 -0.2476
33015SOL    HW1 4881   6.976   6.455   3.040  0.9054 -2.2013 -0.3384
33015SOL    HW2 4882   6.843   6.404   2.988  1.6616 -3.7964 -0.7563
33016SOL     OW 4883  10.433   3.235   5.271  0.1827  0.2433 -0.0262
33016SOL    HW1 4884  10.443   3.210   5.363  1.9090  1.1595  0.0766
33016SOL    HW2 4885  10.341   3.217   5.251 -0.0977 -0.4558  1.7214
33017SOL     OW 4886   4.823  10.473   9.029 -0.1301 -0.2378  0.3733
33017SOL    HW1 4887   4.763  10.449   8.958 -1.7025  0.0885  1.5517
33017SOL    HW2 4888   4.873  10.546   8.994  2.0510 -2.5817 -1.8820
33018SOL     OW 4889   6.792   7.867   0.861 -0.1371 -0.0184  0.2557
33018SOL    HW1 4890   6.782   7.948   0.811  1.6461 -0.2729 -0.6026
33018SOL    HW2 4891   6.721   7.810   0.829 -0.6428  0.7581 -0.0400
33019SOL     OW 4892   7.181   3.110   3.732 -0.2189  0.2830 -0.2267
33019SOL    HW1 4893   7.197   3.018   3.711 -1.9224 -0.5086  1.5806
33019SOL    HW2 4894   7.263   3.154   3.710  1.2119 -1.9309  0.3072
33020SOL     OW 4895   9.360   3.832   3.203 -0.7085 -0.9181 -0.8951
33020SOL    HW1 4896   9.289   3.792   3.152 -3.3821  0.9091  1.1398
33020SOL    HW2 4897   9.333   3.821   3.294  1.4641  0.2564 -0.0384
33021SOL     OW 4898   4.309   8.340   8.795  0.3562  0.6591  0.2045
33021SOL    HW1 4899   4.388   8.395   8.791 -0.1263  1.3262 -0.2660
33021SOL    HW2 4900   4.265   8.368   8.876  0.3813  0.5829  0.2449
33022SOL     OW 4901   5.181   9.481   8.970 -0.2089 -0.0702 -0.3884
33022SOL    HW1 4902   5.193   9.555   8.910  2.9621  0.5985  0.9070
33022SOL    HW2 4903   5.091   9.491   9.002 -0.1015  2.9055 -0.7164
33023SOL     OW 4904   0.395  10.661   8.836  0.0430  0.4571  0.0264
33023SOL    HW1 4905   0.450  10.671   8.914 -0.2773  0.0078  0.3098
33023SOL    HW2 4906   0.306  10.668   8.868 -0.2267 -2.4241  0.1564
33024SOL     OW 4907   6.404  10.535   9.211  0.2106  0.2034 -0.0141
33024SOL    HW1 4908   6.326  10.504   9.165  1.5296  1.5786 -3.4663
33024SOL    HW2 4909   6.395  10.631   9.210  2.7218  0.5078 -2.2001
33025SOL     OW 4910  10.262   4.589   5.538 -0.1688  0.1413  0.2198
33025SOL    HW1 4911  10.334   4.613   5.479 -0.8475 -2.2086 -1.7500
33025SOL    HW2 4912  10.293   4.511   5.583 -0.9247 -0.0636  0.4056
33026SOL     OW 4913   6.672   0.830   7.975  0.1525 -0.5941 -0.8811
33026SOL    HW1 4914   6.684   0.924   7.990  0.1566 -0.1055 -3.5052
33026SOL    HW2 4915   6.577   0.820   7.969  0.0868 -0.9972  0.5101
33027SOL     OW 4916   6.306   8.862   3.887  0.2582  0.1897 -0.1753
33027SOL    HW1 4917   6.387   8.866   3.836 -0.3244  1.1809 -1.0710
33027SOL    HW2 4918   6.265   8.948   3.873 -0.4617  0.0764  1.0870
33028SOL     OW 4919   0.838   4.360   8.234 -0.3356  0.2414 -0.2364
33028SOL    HW1 4920   0.851   4.451   8.264  1.1598  0.9222 -2.6681
33028SOL    HW2 4921   0.916   4.314   8.265 -1.2882 -0.3807  1.3532
33029SOL     OW 4922  10.557   3.673   6.527  0.3118 -0.5091  0.1986
33029SOL    HW1 4923  10.480   3.686   6.472 -0.1627  0.1667  0.9917
33029SOL    HW2 4924  10.619   3.739   6.498  0.1602 -0.3213  0.2995
33030SOL     OW 4925   3.115   5.664   0.609 -0.1482 -0.1656 -0.1698
33030SOL    HW1 4926   3.074   5.580   0.630 -1.4160  0.6327  0.7032
33030SOL    HW2 4927   3.075   5.689   0.525 -0.6188  0.0860  0.1264
33031SOL     OW 4928   4.206   4.888   5.575  0.3776  0.1598 -0.1091
33031SOL    HW1 4929   4.151   4.815   5.546  1.1013 -0.0671 -0.9626
33031SOL    HW2 4930   4.294   4.864   5.548  0.7444  0.9941  0.3128
33032SOL     OW 4931   8.325   9.305   7.242  0.2940  0.8146 -0.3762
33032SOL    HW1 4932   8.295   9.394   7.261 -1.7023  0.1237 -0.0572
33032SOL    HW2 4933   8.248   9.262   7.205  0.5263 -1.4295  1.5661
33033SOL     OW 4934  10.557   2.714   2.274  0.2598 -0.6438  0.0215
33033SOL    HW1 4935  10.512   2.757   2.347  1.4451 -1.5659  1.3540
33033SOL    HW2 4936  10.602   2.785   2.229 -0.9460  0.0209 -0.1767
33034SOL     OW 4937   5.520   8.476   1.096  0.0795 -0.0857 -0.0504
33034SOL    HW1 4938   5.544   8.492   1.187 -0.4136  0.1312  0.0432
33034SOL    HW2 4939   5.500   8.382   1.093 -0.8490  0.0908  0.2900
33035SOL     OW 4940   8.929   4.596   6.687  0.2584 -0.1083  0.3211
33035SOL    HW1 4941   8.874   4.630   6.616 -0.1041 -1.4355 -0.0564
33035SOL    HW2 4942   8.933   4.502   6.671 -1.3812 -0.7532  3.1251
33036SOL     OW 4943   7.611   1.510   2.695  0.4461  0.2157 -0.2439
33036SOL    HW1 4944   7.642   1.461   2.619  3.0976  1.0265  0.2138
33036SOL    HW2 4945   7.691   1.538   2.740 -1.0117 -0.6355  3.1442
33037SOL     OW 4946   3.082   4.350   3.359  0.2850 -0.0818  0.1557
33037SOL    HW1 4947   3.006   4.295   3.379  0.6052 -0.6550 -0.1488
33037SOL    HW2 4948   3.070   4.373   3.267  0.3291  0.0655  0.1879
33038SOL     OW 4949   2.392   8.208   8.717 -0.0685 -0.5870 -0.1222
33038SOL    HW1 4950   2.407   8.208   8.623 -0.7191  0.6409 -0.2396
33038SOL    HW2 4951   2.479   8.198   8.755  0.1555 -1.5301 -0.8382
33039SOL     OW 4952   4.541   9.508   9.773  0.1034 -0.4175  0.1406
33039SOL    HW1 4953   4.467   9.461   9.812 -1.0083 -1.6415 -3.1077
33039SOL    HW2 4954   4.502   9.587   9.736  1.1203  0.6845  1.3164
33040SOL     OW 4955   2.399   5.926   0.994 -0.0978  0.2919 -0.6954
33040SOL    HW1 4956   2.368   5.857   0.936 -1.9615  1.1408 -0.7748
33040SOL    HW2 4957   2.396   6.005   0.941 -0.7812  0.8977  0.2210
33041SOL     OW 4958   3.409   4.558   0.503  0.0520  0.0023 -0.1358
33041SOL    HW1 4959   3.432   4.624   0.438 -0.1197 -0.7205 -0.9524
33041SOL    HW2 4960   3.473   4.488   0.490 -0.4945 -0.5133 -0.0994
33042SOL     OW 4961   6.736   6.276  10.588  0.2544  0.7039 -0.0970
33042SOL    HW1 4962   6.718   6.367  10.563 -0.4055  0.6000 -0.0127
33042SOL    HW2 4963   6.770   6.236  10.508  0.3757  0.9763 -0.1844
33043SOL     OW 4964   2.705   8.860   8.260  0.0328 -0.6074 -0.3300
33043SOL    HW1 4965   2.662   8.935   8.302 -1.7573 -1.9582  0.3874
33043SOL    HW2 4966   2.683   8.786   8.317  0.8906 -1.8496 -1.5692
33044SOL     OW 4967   1.441   1.984   0.689 -0.6608 -0.0706  0.0998
33044SOL    HW1 4968   1.471   1.911   0.743 -0.3117 -0.6982 -0.9155
33044SOL    HW2 4969   1.421   1.944   0.605 -0.8179  0.9576 -0.3597
33045SOL     OW 4970   9.849   8.061   8.834  0.2488  0.7519  0.0400
33045SOL    HW1 4971   9.874   7.969   8.845 -0.4210  0.7873  2.4359
33045SOL    HW2 4972   9.918   8.109   8.880  0.5809  1.4894 -1.1802
33046SOL     OW 4973   4.822   3.287   1.999  0.4899  0.4168  0.0347
33046SOL    HW1 4974   4.808   3.277   1.905 -0.9251  0.6252  0.1978
33046SOL    HW2 4975   4.914   3.266   2.012  0.8607  0.9493 -1.4783
33047SOL     OW 4976   6.517   8.474   4.971 -0.4589 -0.6639 -0.7080
33047SOL    HW1 4977   6.462   8.492   4.895 -2.4301  0.6280  0.9131
33047SOL    HW2 4978   6.588   8.538   4.967 -0.0557 -1.1572 -1.8546
33048SOL     OW 4979   7.708   2.938   9.473 -0.4480  0.5474  0.4832
33048SOL    HW1 4980   7.663   2.994   9.410 -0.0171 -0.2585 -0.5577
33048SOL    HW2 4981   7.775   2.893   9.422  0.9619  1.0341  1.8162
33049SOL     OW 4982   9.760   6.949   0.512  0.3271  0.0571 -0.8880
33049SOL    HW1 4983   9.782   6.861   0.484  1.8229  0.4625 -1.0383
33049SOL    HW2 4984   9.834   7.003   0.485 -0.5147  1.3529 -0.7166
33050SOL     OW 4985   7.789   3.278   8.046  0.1761 -0.1886 -0.1823
33050SOL    HW1 4986   7.712   3.220   8.043 -0.2736  0.3719  0.3886
33050SOL    HW2 4987   7.809   3.295   7.953 -2.3682  2.2081 -0.4189
33051SOL     OW 4988   1.936   9.543   5.882 -0.0262 -0.3924  0.2667
33051SOL    HW1 4989   1.933   9.565   5.975 -0.9631 -2.4943  0.7919
33051SOL    HW2 4990   2.028   9.523   5.864  0.1399 -0.0622  0.7435
33052SOL     OW 4991   8.351   3.065   7.775  0.2736  0.5705  0.0492
33052SOL    HW1 4992   8.353   3.107   7.861  0.9106  1.2321 -0.2863
33052SOL    HW2 4993   8.416   2.995   7.781 -1.1654 -0.7693  0.7856
33053SOL     OW 4994   8.460   4.845  10.603  0.4245  0.3458 -0.0477
33053SOL    HW1 4995   8.372   4.856  10.567  0.7120  0.3162 -0.7807
33053SOL    HW2 4996   8.493   4.934  10.614 -0.1085  0.3973  1.3034
33054SOL     OW 4997   5.546   3.969   0.404  0.1433  0.0892  0.1145
33054SOL    HW1 4998   5.562   4.030   0.333 -0.2112  2.6110  2.0655
33054SOL    HW2 4999   5.471   3.918   0.375  0.2673  0.7368 -1.4644
33055SOL     OW 5000   6.245   2.512   8.818  0.5844 -0.0066 -0.0031
33055SOL    HW1 5001   6.217   2.603   8.805 -1.4162 -0.3620  1.3821
33055SOL    HW2 5002   6.220   2.468   8.737  0.2113  0.3976 -0.1155
33056SOL     OW 5003   7.163   3.329   9.395  0.2830  0.2597 -0.2329
33056SOL    HW1 5004   7.077   3.300   9.363 -0.4056  1.6267  0.2827
33056SOL    HW2 5005   7.167   3.422   9.371  1.5576  0.2528 -0.1012
33057SOL     OW 5006   9.526   7.351   7.842 -0.9763 -0.2924 -0.1031
33057SOL    HW1 5007   9.469   7.419   7.878  0.1206  0.6146 -0.0163
33057SOL    HW2 5008   9.613   7.390   7.844 -0.3482 -1.6425 -0.2401
33058SOL     OW 5009   6.542   7.677   6.195 -0.2694  0.3678  0.4446
33058SOL    HW1 5010   6.594   7.696   6.118 -1.2296 -0.9502 -0.5707
33058SOL    HW2 5011   6.566   7.588   6.220  0.6551  1.0691  2.2148
33059SOL     OW 5012   4.930   0.858   4.806  0.2249  0.1402 -0.3794
33059SOL    HW1 5013   4.973   0.914   4.871 -0.3313 -0.1686  0.2599
33059SOL    HW2 5014   4.839   0.886   4.806  0.1926  0.0572 -0.9493
33060SOL     OW 5015  10.445   4.747   3.794 -0.0373  0.5176  0.1211
33060SOL    HW1 5016  10.423   4.785   3.709 -0.7501 -1.1180 -0.4601
33060SOL    HW2 5017  10.472   4.658   3.774  2.0108  0.8005  1.4051
33061SOL     OW 5018   9.534   6.486   1.769 -0.3066 -0.2522  0.1604
33061SOL    HW1 5019   9.452   6.457   1.729 -0.5242  0.4282  0.1031
33061SOL    HW2 5020   9.510   6.513   1.857 -0.6378  2.2568 -0.6098
33062SOL     OW 5021   9.391   4.626   0.807 -0.2392  0.3701 -0.1355
33062SOL    HW1 5022   9.473   4.615   0.855 -0.1857 -0.8383 -0.4708
33062SOL    HW2 5023   9.408   4.700   0.748 -0.1837  1.6283  1.3910
33063SOL     OW 5024   2.725   1.659   9.467 -0.3905 -0.5205 -0.2767
33063SOL    HW1 5025   2.701   1.630   9.379 -2.0973  0.5204 -0.2131
33063SOL    HW2 5026   2.717   1.755   9.464  0.2964 -0.4103  0.8029
33064SOL     OW 5027   8.559   7.044   7.794  0.1811  0.2847  0.4868
33064SOL    HW1 5028   8.531   7.088   7.874 -0.9766  3.6431 -1.5806
33064SOL    HW2 5029   8.484   6.990   7.769 -1.3118  2.6680 -0.5412
33065SOL     OW 5030   2.303   2.863   0.941  0.1236  0.0452  0.0933
33065SOL    HW1 5031   2.385   2.879   0.894 -0.9224  0.3879 -1.7119
33065SOL    HW2 5032   2.262   2.949   0.949  0.6238  0.1229  2.4125
33066SOL     OW 5033   7.616   0.835   1.106 -0.1324 -0.0876  0.1918
33066SOL    HW1 5034   7.638   0.913   1.157  0.3564 -0.2980  0.3088
33066SOL    HW2 5035   7.520   0.837   1.098 -0.0009  1.9393 -2.0369
33067SOL     OW 5036   4.252   2.953   0.174 -0.7888 -0.0281 -0.4356
33067SOL    HW1 5037   4.214   2.952   0.262 -1.4941  0.7928 -0.7152
33067SOL    HW2 5038   4.337   2.911   0.184 -0.9554 -0.1435  0.5961
33068SOL     OW 5039   5.344   9.798   7.096  0.2683  0.2986 -0.0768
33068SOL    HW1 5040   5.345   9.828   7.005  1.9869 -2.0550 -0.9372
33068SOL    HW2 5041   5.435   9.804   7.124  0.3353 -1.9445  0.3820
33069SOL     OW 5042   2.784  10.338   8.175 -0.7968 -0.6333 -0.0234
33069SOL    HW1 5043   2.854  10.388   8.134 -0.5913 -1.1954 -0.3670
33069SOL    HW2 5044   2.799  10.247   8.148  1.0750 -1.5874  3.5515
33070SOL     OW 5045   5.598  10.453   2.878  0.0698  0.3012  0.0385
33070SOL    HW1 5046   5.552  10.526   2.920  2.6438  1.5966  0.8433
33070SOL    HW2 5047   5.602  10.385   2.946  0.0814  0.5121  0.2499
33071SOL     OW 5048   4.874   1.076   5.565 -0.2531  0.1366 -0.2172
33071SOL    HW1 5049   4.940   1.074   5.496 -0.3147  0.3194 -0.2816
33071SOL    HW2 5050   4.897   1.152   5.619 -0.2222  0.0119 -0.0520
33072SOL     OW 5051   6.821   1.499   0.931 -0.3818 -0.6654 -0.3146
33072SOL    HW1 5052   6.887   1.560   0.897 -0.5462 -0.3432 -0.0701
33072SOL    HW2 5053   6.768   1.476   0.855  1.5376 -2.9438 -1.0788
33073SOL     OW 5054   3.125   8.441   3.958  0.6630 -0.7275  0.8372
33073SOL    HW1 5055   3.063   8.482   4.018  0.1469 -1.1563  0.6042
33073SOL    HW2 5056   3.210   8.457   3.998  0.2757 -1.7271  2.1245
33074SOL     OW 5057   2.810  10.118   8.016 -0.6858 -0.0594 -0.4263
33074SOL    HW1 5058   2.777  10.173   7.945 -1.5280 -1.1182 -0.9009
33074SOL    HW2 5059   2.818  10.031   7.976  0.6059 -0.2981  0.2921
33075SOL     OW 5060   4.838   0.591   0.909 -0.2520 -0.3957  0.1760
33075SOL    HW1 5061   4.812   0.614   0.820 -0.9276 -2.1496 -0.1070
33075SOL    HW2 5062   4.840   0.675   0.956  2.9166  1.0289 -2.1250
33076SOL     OW 5063   4.251   8.424   5.680  0.2684 -0.1758  0.0522
33076SOL    HW1 5064   4.271   8.391   5.592 -0.7869 -2.2583  0.5347
33076SOL    HW2 5065   4.336   8.447   5.717  0.9021 -0.9047 -0.8997
33077SOL     OW 5066   1.092   0.475   4.945  0.6844 -0.1096  0.0735
33077SOL    HW1 5067   1.172   0.423   4.936  0.8495  0.4390 -2.6789
33077SOL    HW2 5068   1.109   0.554   4.892 -0.8759  1.0765  1.2482
33078SOL     OW 5069   6.255   4.556   2.988  0.0514 -0.2389 -0.2813
33078SOL    HW1 5070   6.189   4.486   2.997 -0.5604  0.0385 -2.1111
33078SOL    HW2 5071   6.229   4.602   2.909  1.7698  0.6660 -0.3551
33079SOL     OW 5072   1.141   5.306   8.815 -0.2702 -0.1218 -0.4932
33079SOL    HW1 5073   1.223   5.319   8.767 -0.7774 -0.1236 -1.3915
33079SOL    HW2 5074   1.073   5.328   8.751 -0.9538  1.3373  0.6921
33080SOL     OW 5075   1.430   3.921   9.746  0.0319 -0.5034  0.2574
33080SOL    HW1 5076   1.433   3.995   9.807 -0.5636 -0.4292  0.2011
33080SOL    HW2 5077   1.419   3.844   9.802 -2.0809 -0.3012  0.1903
33081SOL     OW 5078   3.520   5.794   8.323 -0.0289 -0.0064  0.2443
33081SOL    HW1 5079   3.459   5.745   8.377 -1.8797  0.2608 -1.4822
33081SOL    HW2 5080   3.471   5.814   8.243  1.9124  1.3415 -0.7000
33082SOL     OW 5081   4.717   9.973   5.819  0.3879  0.3705 -0.3819
33082SOL    HW1 5082   4.651  10.014   5.876  0.8888  2.1540 -1.0314
33082SOL    HW2 5083   4.744   9.894   5.867 -1.5957  0.0338  0.2814
33083SOL     OW 5084   9.878   9.673   2.160 -0.3428 -0.3732  0.2245
33083SOL    HW1 5085   9.969   9.697   2.177 -0.1940 -1.2347  0.6793
33083SOL    HW2 5086   9.853   9.726   2.084  0.4746 -0.0023  0.2033
33084SOL     OW 5087   3.308   7.875   2.449  0.2888 -0.2108 -0.2481
33084SOL    HW1 5088   3.262   7.792   2.456 -2.1881  1.1980  2.2055
33084SOL    HW2 5089   3.335   7.895   2.539  0.4112  1.7980 -0.6894
33085SOL     OW 5090   9.428   2.599   7.590  0.1429  0.4296 -0.7139
33085SOL    HW1 5091   9.419   2.583   7.496  0.6464  0.1870 -0.7232
33085SOL    HW2 5092   9.478   2.524   7.622 -2.0231 -0.7240  0.1550
33086SOL     OW 5093   2.258   7.599   2.089 -0.2778  0.1134 -1.0958
33086SOL    HW1 5094   2.302   7.678   2.119 -2.3138  1.2436 -0.8538
33086SOL    HW2 5095   2.259   7.540   2.165 -0.1378  0.5487 -0.7564
33087SOL     OW 5096   1.487   0.869   4.255 -0.6308  0.4206 -0.0248
33087SOL    HW1 5097   1.440   0.785   4.254 -1.1022  0.6704 -1.6595
33087SOL    HW2 5098   1.555   0.857   4.322 -2.9440  0.0251  2.4654
33088SOL     OW 5099   0.526   3.338   4.356 -0.5659  0.4171 -0.1442
33088SOL    HW1 5100   0.589   3.301   4.418 -1.7021 -0.8207  0.3065
33088SOL    HW2 5101   0.560   3.315   4.270 -0.4045 -0.2338  0.0910
33089SOL     OW 5102   6.411   8.650   5.344  0.1797 -0.2558 -0.2350
33089SOL    HW1 5103   6.415   8.623   5.436 -0.4866 -2.3296 -0.7586
33089SOL    HW2 5104   6.484   8.605   5.302 -2.0110 -2.9565 -1.4787
33090SOL     OW 5105   4.000   7.309   8.095  0.0245  0.2811 -0.0311
33090SOL    HW1 5106   3.956   7.297   8.180  0.4366 -1.3832 -0.0125
33090SOL    HW2 5107   4.091   7.287   8.113 -0.0345 -0.8906 -1.0618
33091SOL     OW 5108   3.498   9.362   3.855  0.1116  0.3315  0.1388
33091SOL    HW1 5109   3.529   9.447   3.824  1.4184  0.9234  2.7692
33091SOL    HW2 5110   3.416   9.381   3.900  0.8330  0.3923  1.4715
33092SOL     OW 5111   2.318   9.573   8.462  0.0562  0.6745  0.4120
33092SOL    HW1 5112   2.359   9.645   8.511  0.8731 -0.7062  1.8326
33092SOL    HW2 5113   2.259   9.532   8.525  0.5922 -0.7058  0.0384
33093SOL     OW 5114   3.903   1.908   0.324 -0.1758 -0.2007  0.4884
33093SOL    HW1 5115   3.881   1.982   0.380 -0.7706 -0.3766  0.4851
33093SOL    HW2 5116   3.947   1.846   0.382  0.7276  0.3296  0.4023
33094SOL     OW 5117   8.419   3.265   1.680 -0.6713 -0.3800 -0.5214
33094SOL    HW1 5118   8.514   3.281   1.684 -0.9820  1.5327  1.7791
33094SOL    HW2 5119   8.395   3.289   1.591  0.5708  2.6044 -0.1959
33095SOL     OW 5120   0.894   3.878   3.405 -0.0181  0.5143  0.7490
33095SOL    HW1 5121   0.884   3.868   3.500 -0.3025  3.4563  1.1387
33095SOL    HW2 5122   0.813   3.919   3.377 -0.0003 -0.4604 -0.8332
33096SOL     OW 5123   2.205   4.365   8.234  0.0996  0.0627  0.0234
33096SOL    HW1 5124   2.300   4.363   8.244  0.1455  2.0015  0.3726
33096SOL    HW2 5125   2.170   4.350   8.322  0.0839 -0.3902 -0.0590
33097SOL     OW 5126   5.235   9.809   0.133 -0.0192  0.2659 -0.1642
33097SOL    HW1 5127   5.249   9.813   0.227 -0.6987  0.4639 -0.0652
33097SOL    HW2 5128   5.146   9.776   0.123  0.1402 -0.0024 -0.7405
33098SOL     OW 5129   4.485   9.135   8.104  0.4479 -0.1766 -0.4554
33098SOL    HW1 5130   4.575   9.146   8.136  0.2420  0.4089 -0.0624
33098SOL    HW2 5131   4.495   9.121   8.010  1.0219 -1.2655 -0.2609
33099SOL     OW 5132   9.401   5.308   9.379  0.2264 -0.2208 -0.2265
33099SOL    HW1 5133   9.470   5.337   9.320  0.7831 -0.0092  0.5157
33099SOL    HW2 5134   9.430   5.222   9.409  1.7848  1.1202  2.4992
33100SOL     OW 5135   6.836   2.951   5.503 -0.0330 -0.2814 -0.0408
33100SOL    HW1 5136   6.922   2.992   5.500  0.6282 -1.6354  0.1578
33100SOL    HW2 5137   6.844   2.881   5.567 -0.5762 -1.9684 -1.7080
33101SOL     OW 5138   1.005   5.776   1.305 -0.2863  0.5960  0.4822
33101SOL    HW1 5139   0.942   5.783   1.233  0.2118 -0.7814 -0.1367
33101SOL    HW2 5140   1.061   5.853   1.295 -0.6573  0.7886 -0.1967
33102SOL     OW 5141   7.717   9.375   1.116  0.2833  0.0177 -0.0737
33102SOL    HW1 5142   7.630   9.347   1.089 -0.2400  0.6926  0.8213
33102SOL    HW2 5143   7.704   9.415   1.203  1.1315  1.9575 -0.7729
33103SOL     OW 5144   7.546   7.511   2.404  0.6256  0.4958  0.5239
33103SOL    HW1 5145   7.594   7.481   2.482  0.9672  0.2917  0.2374
33103SOL    HW2 5146   7.569   7.447   2.336 -0.5192  0.0430  0.5368
33104SOL     OW 5147   9.804   9.380   2.125  0.3864  0.2483  0.0263
33104SOL    HW1 5148   9.868   9.450   2.140  1.7406 -0.5792 -1.5823
33104SOL    HW2 5149   9.856   9.301   2.119 -0.9455 -0.6607  0.0283
33105SOL     OW 5150   4.244   3.709   5.567  0.4137  0.0807 -0.3446
33105SOL    HW1 5151   4.294   3.731   5.646  0.4805  0.8682 -0.6045
33105SOL    HW2 5152   4.265   3.616   5.552  0.2208 -0.1455  0.6864
33106SOL     OW 5153   5.873   0.695   6.071  0.3767 -0.3729 -0.0691
33106SOL    HW1 5154   5.952   0.643   6.089  0.4251 -0.2759  0.0007
33106SOL    HW2 5155   5.883   0.723   5.980  0.5912 -0.0694  0.0474
33107SOL     OW 5156   2.962   0.308   7.123  0.2838 -0.1603 -0.3777
33107SOL    HW1 5157   2.923   0.381   7.171  0.4421  0.9377 -1.8591
33107SOL    HW2 5158   2.894   0.241   7.123 -0.0203  0.1304  0.6449
33108SOL     OW 5159   3.997   3.356   6.044 -0.2026  0.0321 -0.3699
33108SOL    HW1 5160   3.921   3.325   5.995  0.4848 -0.6540 -1.0250
33108SOL    HW2 5161   4.020   3.439   6.002  0.1425 -0.3587 -0.9645
33109SOL     OW 5162   0.804  10.590   9.962 -0.1273  0.0448  0.0783
33109SOL    HW1 5163   0.712  10.615   9.965  0.4409  2.7288 -1.2198
33109SOL    HW2 5164   0.851  10.669   9.988  1.8291 -0.9902 -0.1100
33110SOL     OW 5165   7.375   1.206   3.106 -0.2942 -0.6776 -0.0989
33110SOL    HW1 5166   7.399   1.142   3.040 -0.0067 -0.8116  0.1310
33110SOL    HW2 5167   7.417   1.175   3.187 -1.7908 -1.2775  0.4758
33111SOL     OW 5168   9.284   1.518   2.302  0.0535 -0.5207  0.0720
33111SOL    HW1 5169   9.375   1.493   2.320 -0.3781 -1.4821  1.0470
33111SOL    HW2 5170   9.233   1.472   2.368 -1.1942 -0.3350 -0.7237
33112SOL     OW 5171   5.841   2.355   3.570 -0.3071 -0.4545 -0.2172
33112SOL    HW1 5172   5.879   2.314   3.647 -0.2430  1.8014  1.0284
33112SOL    HW2 5173   5.916   2.376   3.515 -0.3141 -1.5887 -0.6971
33113SOL     OW 5174   5.909   2.920   2.677 -0.2847  0.0360 -0.1674
33113SOL    HW1 5175   5.916   2.866   2.756  1.0827 -0.0981 -0.3532
33113SOL    HW2 5176   5.980   2.889   2.621  2.8674  4.2631  1.0739
33114SOL     OW 5177   8.893   2.833   1.773 -0.1275  0.0569  0.3326
33114SOL    HW1 5178   8.808   2.855   1.734  0.0583 -0.3545 -0.3090
33114SOL    HW2 5179   8.932   2.770   1.713 -0.9609 -2.7191  2.4911
33115SOL     OW 5180   7.162   5.013   9.976  0.1452  0.2362  0.5089
33115SOL    HW1 5181   7.070   5.026   9.954  0.0606  2.0584  1.7039
33115SOL    HW2 5182   7.204   5.096   9.954  1.2344 -0.1110  1.1819
33116SOL     OW 5183   4.042   8.556   4.336  0.3465 -0.8040 -0.0269
33116SOL    HW1 5184   3.968   8.500   4.358 -0.0303 -0.2737  0.0908
33116SOL    HW2 5185   4.114   8.496   4.319  0.5613 -1.2921  2.2250
33117SOL     OW 5186   1.696   9.875   9.520 -0.0951  0.3073  0.3279
33117SOL    HW1 5187   1.739   9.790   9.514  1.8348  1.2617 -0.2393
33117SOL    HW2 5188   1.721   9.909   9.605  0.0417  0.7548  0.1118
33118SOL     OW 5189   8.564   2.912   3.859  0.6730 -0.7996 -0.3626
33118SOL    HW1 5190   8.653   2.878   3.852 -0.3150 -3.2770 -2.3388
33118SOL    HW2 5191   8.512   2.857   3.801 -1.8391  1.8184 -0.8455
33119SOL     OW 5192   1.843   9.450   7.696 -0.6628 -0.2348 -1.1643
33119SOL    HW1 5193   1.802   9.437   7.781 -0.2269  1.5734 -0.6208
33119SOL    HW2 5194   1.771   9.442   7.633 -0.9026 -2.0792 -0.7078
33120SOL     OW 5195   7.251   9.184   8.607 -0.2454 -0.0491 -0.3572
33120SOL    HW1 5196   7.233   9.277   8.616 -1.9290 -0.5058  1.9299
33120SOL    HW2 5197   7.304   9.177   8.528 -3.0512  2.4901 -2.7241
33121SOL     OW 5198   4.927   1.141   2.226  0.2552  0.5113  0.4148
33121SOL    HW1 5199   4.863   1.086   2.271 -0.0210  0.1650 -0.3837
33121SOL    HW2 5200   5.012   1.113   2.261 -0.0089  0.8430  1.3429
33122SOL     OW 5201   5.509   1.822   4.696  0.2391 -0.4951  0.5243
33122SOL    HW1 5202   5.523   1.731   4.669  1.5802 -0.3334  0.6081
33122SOL    HW2 5203   5.422   1.844   4.662 -0.2424 -1.8991  0.7785
33123SOL     OW 5204   7.283   1.146   5.038  0.1567 -0.2330 -0.1276
33123SOL    HW1 5205   7.195   1.173   5.012 -0.3246 -1.1560  0.4845
33123SOL    HW2 5206   7.338   1.223   5.020 -1.1794  1.2964  1.8317
33124SOL     OW 5207   8.909   4.406   3.037  0.1717 -0.6930 -0.0661
33124SOL    HW1 5208   8.982   4.378   3.092  0.1342 -1.9415 -0.6139
33124SOL    HW2 5209   8.895   4.333   2.976  1.1029  1.1485 -2.6537
33125SOL     OW 5210   0.372   2.401   5.473 -0.5595  0.2454  0.4959
33125SOL    HW1 5211   0.349   2.310   5.455 -0.7769  0.6283 -1.3752
33125SOL    HW2 5212   0.347   2.415   5.564 -0.9943 -1.4190  0.6533
33126SOL     OW 5213   4.517  10.474   9.733 -0.2591  0.1688 -0.2445
33126SOL    HW1 5214   4.536  10.565   9.757  0.5212  0.3295 -1.4035
33126SOL    HW2 5215   4.562  10.461   9.649  2.0421 -2.1245  1.1755
33127SOL     OW 5216   5.272   6.665   5.527  0.2742  0.1857 -0.0963
33127SOL    HW1 5217   5.199   6.688   5.585  0.6712  2.5245 -0.4250
33127SOL    HW2 5218   5.230   6.624   5.451 -0.7222  1.3840 -0.2215
33128SOL     OW 5219   4.968   1.156   0.563 -0.6849 -0.6625 -0.0284
33128SOL    HW1 5220   5.060   1.182   0.558 -0.4960 -1.5244 -1.9541
33128SOL    HW2 5221   4.957   1.127   0.654  1.0743 -0.9942  0.1299
33129SOL     OW 5222   3.541   8.388   6.464  0.4586 -0.4061  0.8613
33129SOL    HW1 5223   3.565   8.479   6.449  0.5753 -0.3741  1.2318
33129SOL    HW2 5224   3.580   8.340   6.391  2.8498 -0.5538  2.1210
33130SOL     OW 5225   6.216   3.169   4.967  0.1311 -0.7455  0.6382
33130SOL    HW1 5226   6.304   3.205   4.972 -0.2866  0.3436  0.2822
33130SOL    HW2 5227   6.196   3.141   5.057  0.1168  0.7569  1.1249
33131SOL     OW 5228   4.477   0.116   9.822 -0.0395 -0.3013 -0.7601
33131SOL    HW1 5229   4.463   0.028   9.858  0.1989 -1.0663 -2.3892
33131SOL    HW2 5230   4.401   0.131   9.767 -0.0309  0.4813 -0.5579
33132SOL     OW 5231   1.655   2.199   3.038  0.4921 -0.3089 -0.4742
33132SOL    HW1 5232   1.693   2.134   2.978  0.0567  0.7356 -1.9513
33132SOL    HW2 5233   1.730   2.239   3.082  0.8195 -1.1327 -0.2687
33133SOL     OW 5234   8.158   9.218   9.806 -0.8954 -0.1423 -0.4195
33133SOL    HW1 5235   8.217   9.203   9.732  1.0102 -0.7827  1.1223
33133SOL    HW2 5236   8.174   9.144   9.864 -1.0114  1.2078  1.4271
33134SOL     OW 5237   6.539   4.786   1.481  0.0556 -0.4982  0.3531
33134SOL    HW1 5238   6.463   4.739   1.513  0.4275 -2.2183 -1.0999
33134SOL    HW2 5239   6.614   4.737   1.515  0.4579 -0.7921 -0.8921
33135SOL     OW 5240   3.249   8.717   4.762 -0.3502 -0.3739 -0.3468
33135SOL    HW1 5241   3.156   8.739   4.769 -0.0614  0.7839  0.1042
33135SOL    HW2 5242   3.260   8.686   4.673 -1.0724 -0.0150 -0.5681
33136SOL     OW 5243   2.328   1.861   0.168  0.5832  0.5105 -0.1153
33136SOL    HW1 5244   2.422   1.849   0.156  0.8327  1.1138  1.0557
33136SOL    HW2 5245   2.289   1.824   0.089  1.6156 -2.3127  0.5655
33137SOL     OW 5246   9.605   1.510   6.786 -0.0109  0.4333 -0.6056
33137SOL    HW1 5247   9.619   1.426   6.741  0.5636  0.0134  0.3218
33137SOL    HW2 5248   9.512   1.528   6.774 -0.3351 -0.7717 -0.1138
33138SOL     OW 5249   2.214   6.750   0.979  0.9456  0.2331  0.3436
33138SOL    HW1 5250   2.193   6.841   0.956  4.0984  1.3871  1.5101
33138SOL    HW2 5251   2.179   6.739   1.067 -1.1481 -0.4232 -0.5038
33139SOL     OW 5252  10.046   5.347   3.892  0.1922 -0.0171  0.0263
33139SOL    HW1 5253   9.969   5.337   3.836  0.6088 -0.8136 -0.4229
33139SOL    HW2 5254  10.106   5.278   3.863  1.3359  0.9859 -0.0400
33140SOL     OW 5255   1.818   3.613   8.593 -0.1909  0.0628 -0.0254
33140SOL    HW1 5256   1.807   3.707   8.584 -1.4103 -0.1305 -0.8101
33140SOL    HW2 5257   1.778   3.576   8.514  0.8042 -1.0847 -0.0191
33141SOL     OW 5258   7.729   3.769   4.106  0.4818  0.2039 -0.3980
33141SOL    HW1 5259   7.813   3.741   4.070  1.4022  1.4152  0.7288
33141SOL    HW2 5260   7.742   3.861   4.131 -0.0989 -0.4424  2.8036
33142SOL     OW 5261   5.922   4.225   3.376 -0.9422 -0.0918 -0.0853
33142SOL    HW1 5262   5.972   4.283   3.433  1.5472  0.4001 -2.6087
33142SOL    HW2 5263   5.860   4.182   3.435 -0.5491  2.5213  2.4524
33143SOL     OW 5264   2.719  10.190   7.758 -0.1294 -0.5430 -0.3658
33143SOL    HW1 5265   2.713  10.104   7.716 -0.6997 -1.8419  2.1551
33143SOL    HW2 5266   2.649  10.242   7.717 -1.1643 -1.9761 -0.4904
33144SOL     OW 5267   7.815   9.681   3.103 -0.3754  0.0972 -0.0540
33144SOL    HW1 5268   7.830   9.678   3.197  1.0669  0.1628 -0.2623
33144SOL    HW2 5269   7.790   9.772   3.086 -1.5205 -0.1171  0.3609
33145SOL     OW 5270   8.698   9.910   4.357 -0.0052  0.1429  0.1055
33145SOL    HW1 5271   8.675   9.855   4.432 -1.3539  1.6668  0.8726
33145SOL    HW2 5272   8.657   9.866   4.283 -1.2267  0.1745  0.7284
33146SOL     OW 5273   4.919   9.852   5.034  0.1253 -0.1287  0.2346
33146SOL    HW1 5274   4.995   9.894   5.075 -0.7033  1.8937 -0.1900
33146SOL    HW2 5275   4.941   9.850   4.941 -0.8197  1.6900 -0.0767
33147SOL     OW 5276  10.627   4.706   1.738  0.0274  0.1523  0.2272
33147SOL    HW1 5277  10.649   4.637   1.801 -0.3411  0.6551  0.9164
33147SOL    HW2 5278  10.712   4.735   1.704  0.2329 -0.0908  0.5254
33148SOL     OW 5279   0.623   5.972   3.875  0.6747 -0.0266  0.1558
33148SOL    HW1 5280   0.695   5.941   3.821  0.4446  1.0919 -0.8182
33148SOL    HW2 5281   0.553   5.909   3.860  1.0898 -0.5332  0.2998
33149SOL     OW 5282   4.154   7.456   9.242  0.1587  0.5059  0.3549
33149SOL    HW1 5283   4.077   7.511   9.254 -0.6068  0.1124 -2.1081
33149SOL    HW2 5284   4.182   7.473   9.152  1.7455 -0.8435  0.5404
33150SOL     OW 5285   8.855   8.342   5.952 -0.1182  0.3658  0.1552
33150SOL    HW1 5286   8.790   8.388   5.899  0.3387  1.0389  0.1601
33150SOL    HW2 5287   8.806   8.271   5.993 -0.9192  1.0277  0.3868
33151SOL     OW 5288   4.491   6.560   0.626 -0.4300  0.4776  0.5277
33151SOL    HW1 5289   4.504   6.503   0.702  1.1094  1.6893  1.2265
33151SOL    HW2 5290   4.399   6.547   0.602 -0.1603 -2.2522  0.6655
33152SOL     OW 5291   0.745   1.459   4.611  0.4152  0.3953  0.1939
33152SOL    HW1 5292   0.738   1.366   4.633 -1.6926  0.3536 -0.4350
33152SOL    HW2 5293   0.711   1.466   4.522 -0.3044  1.8707  0.5487
33153SOL     OW 5294   9.679   3.379   6.830  0.9325 -0.0483 -0.2370
33153SOL    HW1 5295   9.735   3.408   6.902  0.9344 -0.9681  0.1486
33153SOL    HW2 5296   9.635   3.458   6.800  1.2371  0.4124  0.5038
33154SOL     OW 5297   9.553   0.370   9.236  0.5439 -0.1872  0.2841
33154SOL    HW1 5298   9.587   0.430   9.303  1.1602 -1.6497  1.3546
33154SOL    HW2 5299   9.628   0.315   9.213 -0.5585 -2.2481  1.2975
33155SOL     OW 5300   3.608  10.132   3.975  0.7293  0.2457 -0.2084
33155SOL    HW1 5301   3.523  10.088   3.984  1.0520 -0.0525  1.7560
33155SOL    HW2 5302   3.623  10.174   4.060  1.0750  3.0895 -1.5461
33156SOL     OW 5303   5.176   8.052   0.045  0.5158 -0.1476  0.0248
33156SOL    HW1 5304   5.100   8.109   0.033  1.7022  1.2045 -1.3890
33156SOL    HW2 5305   5.142   7.978   0.096 -1.9795 -0.0595 -1.3461
33157SOL     OW 5306   7.187   3.520   0.429  0.1740 -0.2692  0.0511
33157SOL    HW1 5307   7.122   3.477   0.373  0.8730 -2.1946  0.6488
33157SOL    HW2 5308   7.195   3.608   0.392 -2.0838 -0.2629 -0.5951
33158SOL     OW 5309   5.501   3.575   7.901 -0.6138  0.3394  0.5037
33158SOL    HW1 5310   5.484   3.542   7.990  1.1645  0.2906  0.8688
33158SOL    HW2 5311   5.511   3.496   7.848 -0.1420  0.3308  0.5965
33159SOL     OW 5312   6.093   2.392   5.777  0.1692  0.3126  0.0401
33159SOL    HW1 5313   6.184   2.387   5.804 -0.4192  1.5922  2.5203
33159SOL    HW2 5314   6.087   2.471   5.723  0.5400  0.1123 -0.2998
33160SOL     OW 5315   6.878   6.499   7.986  0.0351 -0.2795  0.0294
33160SOL    HW1 5316   6.804   6.442   7.965 -0.4170  0.0833  0.5956
33160SOL    HW2 5317   6.857   6.534   8.073  0.0061  1.2045 -0.5375
33161SOL     OW 5318   1.605   5.411   0.247  0.0641  0.4104 -0.1796
33161SOL    HW1 5319   1.534   5.347   0.249  0.2137  0.1433 -1.7937
33161SOL    HW2 5320   1.658   5.392   0.324  0.7710 -2.1924 -1.2043
33162SOL     OW 5321   2.698   6.316   0.771  0.1564 -0.0459 -0.4060
33162SOL    HW1 5322   2.672   6.256   0.701 -0.3921 -0.7249  0.3589
33162SOL    HW2 5323   2.619   6.366   0.791  0.1124 -0.3415  0.1921
33163SOL     OW 5324   2.105   9.422   3.896  0.1385 -0.0361 -0.1887
33163SOL    HW1 5325   2.138   9.483   3.831  0.5046 -1.4212 -1.3622
33163SOL    HW2 5326   2.179   9.406   3.954  0.1355  0.3736 -0.0686
33164SOL     OW 5327   1.042   6.121   2.987  0.1880  0.0043  0.1120
33164SOL    HW1 5328   1.056   6.134   2.894  0.0372 -1.8837 -0.2104
33164SOL    HW2 5329   1.097   6.187   3.029  0.2673  0.8733 -1.3013
33165SOL     OW 5330   2.205   7.823   6.047 -0.1310  0.2497  0.0452
33165SOL    HW1 5331   2.122   7.782   6.022  1.2702 -2.9030  0.0778
33165SOL    HW2 5332   2.217   7.799   6.139  0.4242  1.3829  0.2780
33166SOL     OW 5333   0.769   8.242   2.972  0.0617  0.1724 -0.2547
33166SOL    HW1 5334   0.721   8.173   2.927  1.4541 -1.3577  0.4909
33166SOL    HW2 5335   0.850   8.252   2.921  0.6632 -0.0249  0.6334
33167SOL     OW 5336   8.296   8.273   7.258  0.2600 -0.2833 -0.6072
33167SOL    HW1 5337   8.348   8.193   7.249 -1.1902 -1.4014  0.4294
33167SOL    HW2 5338   8.208   8.248   7.231 -0.4524  0.6704  0.6966
33168SOL     OW 5339   3.976   6.142   3.827  0.4123  0.0775 -0.7899
33168SOL    HW1 5340   4.051   6.134   3.769  0.4637  1.6102 -0.9731
33168SOL    HW2 5341   3.900   6.133   3.769  0.4647  0.5232 -0.9333
33169SOL     OW 5342   2.482   2.571   7.174  0.0454  0.1069  0.1305
33169SOL    HW1 5343   2.481   2.482   7.210  1.5631  0.0444  0.0895
33169SOL    HW2 5344   2.413   2.617   7.222 -2.8755 -1.8038 -1.8795
33170SOL     OW 5345  10.061   5.021   6.886  0.1162  0.0670  0.3681
33170SOL    HW1 5346  10.072   5.039   6.793 -0.7688  0.6429  0.3681
33170SOL    HW2 5347   9.991   4.956   6.890  0.7246 -0.5904  0.5943
33171SOL     OW 5348   8.456   0.490   7.086  0.6281  0.2715  0.4225
33171SOL    HW1 5349   8.398   0.492   7.162  1.3737 -0.5987  1.0462
33171SOL    HW2 5350   8.436   0.407   7.043  0.4535  0.6008 -0.1413
33172SOL     OW 5351   3.344   5.124   7.212 -0.2217  0.3962 -0.3814
33172SOL    HW1 5352   3.345   5.209   7.256  0.7679 -0.8686  2.2660
33172SOL    HW2 5353   3.404   5.070   7.263 -2.3396 -2.4877 -0.6848
33173SOL     OW 5354   2.022   0.599   8.058 -0.2486  0.0159 -0.1122
33173SOL    HW1 5355   2.046   0.594   8.150 -0.1026 -0.7856 -0.1799
33173SOL    HW2 5356   2.105   0.592   8.011 -0.5028 -2.4170 -0.3433
33174SOL     OW 5357   3.944   5.392   3.043 -0.1274 -0.0876  0.1457
33174SOL    HW1 5358   3.987   5.356   2.966 -1.2700 -0.1001 -0.5045
33174SOL    HW2 5359   3.888   5.462   3.009 -0.2858  0.2243  1.0167
33175SOL     OW 5360  10.479   8.470   0.190  0.2699 -0.1287 -0.3736
33175SOL    HW1 5361  10.441   8.452   0.276 -0.1986 -1.1106 -0.7761
33175SOL    HW2 5362  10.564   8.426   0.192  0.6532  0.6011 -0.1059
33176SOL     OW 5363   6.033   4.316   8.164  0.5338  0.7600  0.3334
33176SOL    HW1 5364   6.018   4.411   8.171 -0.3176  0.6043  0.7486
33176SOL    HW2 5365   6.072   4.292   8.248 -1.5994  0.3380  1.2500
33177SOL     OW 5366  10.352   3.231   4.672  0.0879 -0.1048 -0.5151
33177SOL    HW1 5367  10.314   3.155   4.716 -1.3025  1.0926  0.4364
33177SOL    HW2 5368  10.326   3.306   4.726 -0.7951  1.3389 -2.7765
33178SOL     OW 5369   9.161   9.292   5.363 -0.1173 -0.4697 -0.3766
33178SOL    HW1 5370   9.088   9.275   5.423  0.8974 -1.0764  0.7424
33178SOL    HW2 5371   9.153   9.225   5.296  0.9326 -2.2921  1.2305
33179SOL     OW 5372   6.567   3.505   7.831 -0.6976  0.2509  0.1629
33179SOL    HW1 5373   6.522   3.587   7.849  0.5845  1.4649 -1.7520
33179SOL    HW2 5374   6.509   3.437   7.864 -1.1552  1.9314  3.1669
33180SOL     OW 5375   4.932   4.563   7.241  0.4011 -0.4963 -0.0684
33180SOL    HW1 5376   4.928   4.596   7.331  0.7024 -0.9231  0.1080
33180SOL    HW2 5377   4.845   4.527   7.224  0.7266 -1.6512  0.5486
33181SOL     OW 5378   4.525   4.648   8.249  0.2738  0.2148 -0.0386
33181SOL    HW1 5379   4.534   4.686   8.162 -0.3273  0.1766 -0.1233
33181SOL    HW2 5380   4.550   4.556   8.238 -0.4741  0.0370 -0.3273
33182SOL     OW 5381   2.814   8.476   5.783 -0.4435  0.1746 -0.2436
33182SOL    HW1 5382   2.732   8.522   5.800  0.2375  0.9225  1.2072
33182SOL    HW2 5383   2.806   8.393   5.831 -0.1093  0.5170  0.4042
33183SOL     OW 5384   6.382   0.337   3.020  0.1205 -0.0177 -0.5919
33183SOL    HW1 5385   6.389   0.294   2.935  0.1245 -0.1152 -0.5415
33183SOL    HW2 5386   6.469   0.372   3.037 -0.0882  0.7593 -1.0335
33184SOL     OW 5387   9.431   6.587   9.964 -0.3431 -0.0820 -0.0827
33184SOL    HW1 5388   9.383   6.618   9.887  0.0804 -1.0204 -0.7479
33184SOL    HW2 5389   9.502   6.535   9.928 -0.2225 -0.6659  0.9626
33185SOL     OW 5390   1.779   8.890   2.510 -0.4011  0.5602  0.0807
33185SOL    HW1 5391   1.764   8.892   2.605  0.9674 -1.5928  0.4203
33185SOL    HW2 5392   1.703   8.844   2.475 -0.8349  1.2212  0.1449
33186SOL     OW 5393   1.886   5.367   9.767  0.4690  0.8047 -0.2518
33186SOL    HW1 5394   1.945   5.379   9.693  0.3101  0.0685 -0.5037
33186SOL    HW2 5395   1.913   5.284   9.807  0.5521  1.1917  0.5141
33187SOL     OW 5396   1.527   7.716  10.053  0.3132 -0.2596  0.7415
33187SOL    HW1 5397   1.488   7.774   9.987  0.0909 -0.9775  0.2337
33187SOL    HW2 5398   1.618   7.706  10.026  0.2986 -0.3136  0.7123
33188SOL     OW 5399   1.142  10.436   5.613 -0.1011 -0.0183  0.0849
33188SOL    HW1 5400   1.126  10.529   5.626  1.1597  0.3937 -1.0440
33188SOL    HW2 5401   1.219  10.417   5.667  0.7768  0.0496 -1.1084
33189SOL     OW 5402   8.453   9.280   9.827 -0.5379  0.2581 -0.4265
33189SOL    HW1 5403   8.461   9.307   9.736  0.4009 -0.5985 -0.6283
33189SOL    HW2 5404   8.514   9.207   9.835  0.2261  1.0288  1.1794
33190SOL     OW 5405   6.035   7.682   1.441 -0.1616 -0.1830 -0.1124
33190SOL    HW1 5406   5.972   7.733   1.492 -0.1765 -1.2263  0.9617
33190SOL    HW2 5407   6.121   7.715   1.467 -0.2206  1.3426 -1.6880
33191SOL     OW 5408   3.836   8.706   2.006  0.0809 -0.1386 -0.1112
33191SOL    HW1 5409   3.921   8.662   2.001 -0.6518 -1.5032 -1.7796
33191SOL    HW2 5410   3.815   8.727   1.915 -0.6108  1.7386  0.4503
33192SOL     OW 5411  10.165   4.847   5.503 -0.1756  0.1219 -0.0145
33192SOL    HW1 5412  10.239   4.906   5.518 -1.1821  1.3209  0.4572
33192SOL    HW2 5413  10.201   4.760   5.518  1.7103  0.4551 -2.0880
33193SOL     OW 5414   5.583   1.860   6.018 -0.4021 -0.1844  0.3241
33193SOL    HW1 5415   5.571   1.887   5.926 -1.9499 -2.8190 -0.3502
33193SOL    HW2 5416   5.494   1.841   6.048  0.3483 -2.3893  1.3288
33194SOL     OW 5417   9.106   7.878  10.335 -0.0605 -0.2610 -0.5940
33194SOL    HW1 5418   9.057   7.867  10.416  1.0244  2.5192  0.5531
33194SOL    HW2 5419   9.196   7.852  10.357  0.4531  1.4286 -0.5532
33195SOL     OW 5420   9.387   2.968   0.017 -0.2671  0.4126 -0.1035
33195SOL    HW1 5421   9.442   3.041  -0.009  1.0854  0.0861  1.6343
33195SOL    HW2 5422   9.440   2.890  -0.005  0.4811  0.1151  2.4469
33196SOL     OW 5423   6.360   0.993   4.678 -0.2177 -0.1649 -0.3481
33196SOL    HW1 5424   6.451   0.963   4.684 -1.1525 -3.8639 -2.2112
33196SOL    HW2 5425   6.321   0.968   4.762  0.3728  1.4926  0.4838
33197SOL     OW 5426   3.304   6.675   2.855 -0.2538 -0.0454  0.2016
33197SOL    HW1 5427   3.362   6.643   2.785  0.9131  1.9548  0.1514
33197SOL    HW2 5428   3.217   6.646   2.830 -0.0906  1.6859 -2.8718
33198SOL     OW 5429   7.820   3.452   3.421 -0.0625  0.2015 -0.2413
33198SOL    HW1 5430   7.744   3.478   3.369 -0.5250 -0.1060  0.2667
33198SOL    HW2 5431   7.895   3.485   3.372 -0.5250  0.5572 -0.7238
33199SOL     OW 5432   4.608   0.102   6.288  0.1997 -0.1273 -0.0501
33199SOL    HW1 5433   4.620   0.099   6.383  1.4125 -0.1612 -0.1854
33199SOL    HW2 5434   4.538   0.039   6.271 -0.0704 -0.0846  0.8201
33200SOL     OW 5435   5.957   5.204   8.985  0.1752 -0.0790  0.0069
33200SOL    HW1 5436   6.005   5.131   8.947  1.4190  1.0254 -0.6031
33200SOL    HW2 5437   5.949   5.181   9.078  1.5925 -0.4583  0.0647
33201SOL     OW 5438   2.693   9.890   0.389  0.1144  0.1673  0.0246
33201SOL    HW1 5439   2.663   9.865   0.301 -1.3586 -0.4180  0.6610
33201SOL    HW2 5440   2.714   9.807   0.432 -1.4534  0.2424  0.9973
33202SOL     OW 5441   5.660   1.893   9.486 -0.1915 -0.1047 -0.1735
33202SOL    HW1 5442   5.741   1.881   9.535 -0.9088  1.4141  1.4980
33202SOL    HW2 5443   5.601   1.825   9.520 -0.1421 -0.1395 -0.1585
33203SOL     OW 5444   1.404   4.641   8.561 -0.1812 -0.4263 -0.5135
33203SOL    HW1 5445   1.437   4.610   8.645  0.8020 -0.6959 -0.9816
33203SOL    HW2 5446   1.319   4.598   8.550 -0.2473 -0.5022  0.2661
33204SOL     OW 5447   8.703   7.929   4.209  0.3167  0.2938 -0.0505
33204SOL    HW1 5448   8.721   7.867   4.138  1.2117 -0.4089  0.7619
33204SOL    HW2 5449   8.782   7.928   4.262 -0.6631  0.1389  1.4463
33205SOL     OW 5450   2.454   7.370   8.445 -0.0548 -0.2211 -0.1789
33205SOL    HW1 5451   2.436   7.457   8.480  0.6546 -0.1534  0.0391
33205SOL    HW2 5452   2.466   7.384   8.351 -0.5392 -0.1829 -0.2395
33206SOL     OW 5453   7.052  10.546  10.688  0.4898 -0.0293 -0.3001
33206SOL    HW1 5454   6.968  10.567  10.647  0.8453  0.9369 -0.5490
33206SOL    HW2 5455   7.031  10.476  10.751 -1.3260  2.8220  2.5926
33207SOL     OW 5456   6.970   7.148   2.524 -0.3367 -0.4045 -0.2055
33207SOL    HW1 5457   6.923   7.154   2.440  0.9149 -1.5186 -1.0439
33207SOL    HW2 5458   7.008   7.234   2.536 -1.7400  0.2189 -0.0054
33208SOL     OW 5459   4.916   0.760   0.110  0.0832  0.0502 -1.3811
33208SOL    HW1 5460   4.964   0.679   0.094  1.2592  0.7875 -1.6499
33208SOL    HW2 5461   4.832   0.730   0.148  1.0318 -1.2294 -0.1646
33209SOL     OW 5462   8.347   8.158   1.233  0.2599  0.2506  0.1953
33209SOL    HW1 5463   8.258   8.130   1.214 -0.0756  1.0622  0.5353
33209SOL    HW2 5464   8.343   8.195   1.321  1.3179 -1.3631  0.9714
33210SOL     OW 5465   5.962   2.963   5.485  0.6296 -0.3118 -0.2481
33210SOL    HW1 5466   5.918   3.013   5.416  0.2841 -1.4821 -0.8936
33210SOL    HW2 5467   6.049   3.004   5.492  1.6799 -1.7828 -3.2457
33211SOL     OW 5468   7.963   1.726   7.027 -0.2637 -0.2464  0.0236
33211SOL    HW1 5469   7.910   1.745   7.105 -0.8891 -1.9207  0.0598
33211SOL    HW2 5470   8.020   1.802   7.017  0.5089 -0.3704  2.6939
33212SOL     OW 5471   9.675   6.282   1.090  0.4544 -0.0821 -0.4871
33212SOL    HW1 5472   9.686   6.278   0.995  1.4364 -2.4342 -0.3565
33212SOL    HW2 5473   9.717   6.364   1.116 -0.1603  0.7788 -2.1089
33213SOL     OW 5474   1.707   6.872   4.670 -0.6890  0.2818  0.1092
33213SOL    HW1 5475   1.741   6.788   4.701  0.2009  0.0793 -1.3301
33213SOL    HW2 5476   1.740   6.880   4.580 -0.4598  2.3292  0.3214
33214SOL     OW 5477   7.681   4.933   5.275  0.2321  0.2201 -0.0831
33214SOL    HW1 5478   7.751   4.995   5.256  0.8607 -0.8923 -1.5728
33214SOL    HW2 5479   7.726   4.857   5.312 -0.4464  0.3156  0.9898
33215SOL     OW 5480   8.784   2.659   2.227  0.0682  0.2690 -0.0814
33215SOL    HW1 5481   8.819   2.695   2.145  2.3382 -3.5324 -1.0495
33215SOL    HW2 5482   8.851   2.679   2.293  0.6157 -0.8041 -0.2951
33216SOL     OW 5483   3.710   5.653   0.960 -0.1211 -0.6211 -0.3338
33216SOL    HW1 5484   3.691   5.568   0.920 -1.9768 -1.5185  2.2145
33216SOL    HW2 5485   3.625   5.697   0.964  0.2830  0.0947  1.0773
33217SOL     OW 5486   1.855   4.180   2.532  0.1892  0.0495  0.1882
33217SOL    HW1 5487   1.840   4.268   2.567  0.2567  0.2593 -0.3075
33217SOL    HW2 5488   1.772   4.156   2.490 -0.4689 -0.8689  1.8646
33218SOL     OW 5489   4.800   2.817   0.280 -0.0648 -0.0612  0.4109
33218SOL    HW1 5490   4.806   2.899   0.231 -1.8994 -1.3113 -2.1556
33218SOL    HW2 5491   4.756   2.841   0.362  0.3951  1.6717  0.1897
33219SOL     OW 5492   0.569   3.596   8.623 -0.4495  0.2927  0.0894
33219SOL    HW1 5493   0.661   3.570   8.620  0.4547  2.9958  0.8011
33219SOL    HW2 5494   0.520   3.517   8.602  1.9309 -1.8032  1.8424
33220SOL     OW 5495   5.566   7.536   1.112  0.3156 -0.0223  0.2058
33220SOL    HW1 5496   5.612   7.617   1.091 -0.0126  0.4329  1.1954
33220SOL    HW2 5497   5.500   7.527   1.043 -1.8168  2.2756  1.7895
33221SOL     OW 5498   9.038   5.576   3.708 -0.5402 -0.3020 -0.2807
33221SOL    HW1 5499   9.057   5.483   3.692 -0.3251 -0.1862 -0.7376
33221SOL    HW2 5500   9.113   5.608   3.758 -0.9591 -0.5395  0.5159
33222SOL     OW 5501   9.694   2.430   8.685 -0.1515 -0.1891 -0.3766
33222SOL    HW1 5502   9.683   2.402   8.776  2.2544  0.0866  0.0705
33222SOL    HW2 5503   9.733   2.355   8.641 -0.9804 -0.1997 -1.1298
33223SOL     OW 5504   4.409  10.430  10.627 -0.3811 -0.6698 -0.1137
33223SOL    HW1 5505   4.363  10.473  10.699 -0.2855  0.8165 -0.9067
33223SOL    HW2 5506   4.499  10.421  10.657 -0.4306 -0.4177  0.1088
33224SOL     OW 5507   1.172   8.446   2.271 -0.3974 -0.0339 -0.6701
33224SOL    HW1 5508   1.157   8.412   2.183  0.1591 -0.8049 -0.4713
33224SOL    HW2 5509   1.204   8.535   2.257  1.8022 -0.8785 -1.3568
33225SOL     OW 5510   7.315   8.849  10.094  0.0217 -0.0809  0.0155
33225SOL    HW1 5511   7.243   8.815  10.147 -0.5282  1.8764  0.6305
33225SOL    HW2 5512   7.391   8.798  10.121 -0.7091 -0.7156  0.9701
33226SOL     OW 5513   5.548   9.202   0.697  0.5644  0.1928  0.1819
33226SOL    HW1 5514   5.534   9.189   0.791 -1.2156 -0.4571 -0.1234
33226SOL    HW2 5515   5.613   9.272   0.692  1.2711 -0.2882  1.8894
33227SOL     OW 5516   3.681   1.216   5.956  0.1580  0.1924  0.5190
33227SOL    HW1 5517   3.746   1.173   6.011  0.8195 -0.7093 -0.9079
33227SOL    HW2 5518   3.714   1.306   5.946  1.3416 -0.3130 -0.3629
33228SOL     OW 5519   4.673   0.377   3.182  0.2043 -0.4088  0.1536
33228SOL    HW1 5520   4.584   0.345   3.195 -0.1090  0.6598  0.7151
33228SOL    HW2 5521   4.674   0.411   3.093 -0.0047 -0.2586  0.2076
33229SOL     OW 5522   5.546   1.810   9.226 -0.3943  0.0589  0.2537
33229SOL    HW1 5523   5.521   1.718   9.233 -0.3174  0.0833  0.8572
33229SOL    HW2 5524   5.621   1.819   9.285  0.4331  0.2106 -0.7814
33230SOL     OW 5525   7.869   3.896   7.369  0.0456 -0.2366  0.4126
33230SOL    HW1 5526   7.934   3.863   7.432  1.3085 -0.4355 -0.9306
33230SOL    HW2 5527   7.902   3.982   7.344 -1.0289  0.3055  0.8130
33231SOL     OW 5528   7.583   2.940   1.422 -0.1234  0.5407  0.0116
33231SOL    HW1 5529   7.585   3.002   1.494 -0.6959  0.9638 -0.3328
33231SOL    HW2 5530   7.499   2.895   1.430 -1.7571  2.9271 -2.3082
33232SOL     OW 5531   4.621   0.490   1.673 -0.4828 -0.4011 -0.2997
33232SOL    HW1 5532   4.637   0.399   1.645  1.2316  0.1663 -1.3257
33232SOL    HW2 5533   4.709   0.525   1.689 -1.1677  0.8611  0.8680
33233SOL     OW 5534   0.293   2.198   1.808 -0.3479  0.3494  1.4097
33233SOL    HW1 5535   0.230   2.146   1.759  0.4980 -0.6858  1.3979
33233SOL    HW2 5536   0.336   2.135   1.867  2.6553  0.4083 -0.5186
33234SOL     OW 5537   3.547   2.093   4.610  0.3018 -1.0948 -0.2654
33234SOL    HW1 5538   3.550   2.072   4.516 -1.3934 -0.6986 -0.4462
33234SOL    HW2 5539   3.605   2.169   4.619 -1.5192  0.5682 -1.5546
33235SOL     OW 5540   8.412   9.598   0.439 -0.0794  0.0470 -0.1161
33235SOL    HW1 5541   8.427   9.505   0.424  0.1148  0.4891 -3.4424
33235SOL    HW2 5542   8.499   9.637   0.441 -0.2048  0.3765 -0.7466
33236SOL     OW 5543   2.981   8.538   6.382 -0.6652 -0.2772 -0.0472
33236SOL    HW1 5544   3.057   8.594   6.367  0.3708 -1.3212  1.1458
33236SOL    HW2 5545   2.961   8.550   6.475  0.0191 -2.3957  0.4108
33237SOL     OW 5546   1.537   8.395   6.735 -0.3158 -0.2761 -0.2188
33237SOL    HW1 5547   1.480   8.466   6.763 -0.8593 -0.5590 -0.5936
33237SOL    HW2 5548   1.517   8.384   6.642  1.2545  0.4648 -0.6875
33238SOL     OW 5549   7.903   4.008   9.123 -0.3155  0.6581  0.4479
33238SOL    HW1 5550   7.905   3.958   9.204 -0.5249  1.9284  1.2635
33238SOL    HW2 5551   7.959   4.084   9.140 -0.5616  1.0685 -0.4991
33239SOL     OW 5552   3.238   7.059  10.309 -0.2596 -0.2120 -0.2814
33239SOL    HW1 5553   3.169   7.066  10.375 -0.1029  0.2187 -0.1650
33239SOL    HW2 5554   3.289   7.140  10.317  0.5382 -0.7223 -0.0593
33240SOL     OW 5555   2.644   7.638   4.150 -0.2523 -0.5322 -0.6018
33240SOL    HW1 5556   2.558   7.603   4.128 -0.9433 -0.1832  1.3650
33240SOL    HW2 5557   2.690   7.565   4.192 -0.4442 -0.0822  0.4115
33241SOL     OW 5558  10.380   0.859   2.743  0.2117  0.1720  0.4599
33241SOL    HW1 5559  10.370   0.767   2.718 -0.1336 -0.1237  1.5965
33241SOL    HW2 5560  10.472   0.868   2.768  0.3180  0.2153  0.0526
33242SOL     OW 5561   3.938   5.481   8.812  0.7547  0.2092 -0.4112
33242SOL    HW1 5562   3.846   5.459   8.824  0.4726  1.1543 -0.7174
33242SOL    HW2 5563   3.984   5.398   8.823 -0.0368 -0.1112  0.7530
33243SOL     OW 5564   0.225  10.563   3.936 -0.4309 -0.3944 -0.0804
33243SOL    HW1 5565   0.166  10.495   3.903  1.2270 -2.7586  1.4453
33243SOL    HW2 5566   0.187  10.589   4.020 -0.4140 -0.3928 -0.0732
33244SOL     OW 5567   7.466   1.934   9.945 -0.2687 -0.4419  0.0024
33244SOL    HW1 5568   7.526   1.999   9.906  1.6416 -1.4118  1.1951
33244SOL    HW2 5569   7.378   1.969   9.926  0.6474  1.3093 -1.3631
33245SOL     OW 5570   8.349   5.557   4.012  0.0721  0.6413  0.0810
33245SOL    HW1 5571   8.371   5.477   3.965 -0.2947 -0.0424  1.0411
33245SOL    HW2 5572   8.279   5.597   3.961 -0.7397 -0.3987  0.3336
33246SOL     OW 5573   8.004   0.469   9.855  0.2723 -0.1233  0.3387
33246SOL    HW1 5574   7.993   0.563   9.865  0.8593  0.0541 -0.6204
33246SOL    HW2 5575   7.934   0.431   9.909 -0.3209  0.8599  0.2786
33247SOL     OW 5576   0.372   1.681   3.332  0.0429  0.6482  0.1993
33247SOL    HW1 5577   0.417   1.623   3.393 -1.7767  1.3841  2.4219
33247SOL    HW2 5578   0.434   1.754   3.319  0.4643  0.5066  1.2613
33248SOL     OW 5579   7.904   3.998  10.657 -0.1127  0.3027  0.7560
33248SOL    HW1 5580   7.932   3.979  10.747 -0.6408 -0.0098  0.8616
33248SOL    HW2 5581   7.968   3.955  10.601 -1.5804 -2.3648  0.9749
33249SOL     OW 5582   0.185   8.399   6.029  0.0265  0.5739 -0.3058
33249SOL    HW1 5583   0.169   8.306   6.043 -0.5629  0.7679  0.3546
33249SOL    HW2 5584   0.278   8.411   6.051  0.1729  0.0993 -0.6581
33250SOL     OW 5585   5.651   5.545   8.950  0.6054 -0.2206 -0.0388
33250SOL    HW1 5586   5.631   5.473   8.890 -1.7992  0.1982  0.1607
33250SOL    HW2 5587   5.605   5.522   9.031  1.7653  0.4304  0.8435
33251SOL     OW 5588   2.566   3.277   5.255 -0.2169  0.1676 -0.1707
33251SOL    HW1 5589   2.477   3.303   5.277 -0.9415 -0.0983 -2.5112
33251SOL    HW2 5590   2.581   3.196   5.305 -0.4456  1.3211  1.8703
33252SOL     OW 5591  10.662   2.754   3.138  0.2320  0.2216  0.0975
33252SOL    HW1 5592  10.665   2.735   3.232  0.2982 -1.7475 -0.2512
33252SOL    HW2 5593  10.570   2.749   3.115  0.4037 -1.6190 -0.3229
33253SOL     OW 5594   4.402  10.617   3.496  0.1817 -0.1225  0.0645
33253SOL    HW1 5595   4.348  10.646   3.569 -0.8669  0.7006 -0.9887
33253SOL    HW2 5596   4.340  10.587   3.430  1.0995 -0.8857 -0.4877
33254SOL     OW 5597   4.865   9.044   6.059 -0.5095  0.1666  0.5477
33254SOL    HW1 5598   4.845   9.110   6.125 -1.2842  0.4385  0.0604
33254SOL    HW2 5599   4.948   9.006   6.087 -0.4734  0.7659  1.2877
33255SOL     OW 5600   3.087   1.219   2.906  0.0472 -0.4444  0.1847
33255SOL    HW1 5601   3.133   1.208   2.823  1.2554  2.5149  0.3434
33255SOL    HW2 5602   3.001   1.180   2.891  0.7170 -1.2597 -1.9583
33256SOL     OW 5603   6.274   5.762   0.024  0.8773  0.1762 -0.4216
33256SOL    HW1 5604   6.218   5.694  -0.015 -2.7042  1.8105  1.4260
33256SOL    HW2 5605   6.284   5.827  -0.046 -0.3353  0.2467 -0.5592
33257SOL     OW 5606   8.227   5.101  10.262  0.2669 -0.4892  0.2190
33257SOL    HW1 5607   8.195   5.188  10.236  0.1180 -0.0529  1.7903
33257SOL    HW2 5608   8.180   5.040  10.204 -1.5252  0.3162  0.7478
33258SOL     OW 5609   5.203   7.124   7.587  0.0837  0.2763  0.4396
33258SOL    HW1 5610   5.227   7.037   7.555  1.1427  1.2788 -1.7322
33258SOL    HW2 5611   5.281   7.177   7.572 -1.0166  1.9299  0.3377
33259SOL     OW 5612   3.230   7.450   1.529 -0.3148  0.1045  0.1331
33259SOL    HW1 5613   3.240   7.372   1.583  1.2750 -0.2985 -0.6915
33259SOL    HW2 5614   3.258   7.422   1.441 -0.8640  1.2861 -0.4460
33260SOL     OW 5615   3.114   9.424   5.182 -0.4968  0.1266 -0.0700
33260SOL    HW1 5616   3.130   9.434   5.089 -0.5813  1.2719  0.0238
33260SOL    HW2 5617   3.138   9.334   5.201  3.6413  0.9885 -0.3907
33261SOL     OW 5618   1.919   9.590   8.155  0.3967  0.1687 -0.3857
33261SOL    HW1 5619   1.972   9.634   8.089  0.9844 -0.8838 -0.6257
33261SOL    HW2 5620   1.829   9.605   8.127  0.4483  2.6963  0.4772
33262SOL     OW 5621   8.909   5.765   5.526 -1.0608 -0.4142  0.4002
33262SOL    HW1 5622   8.829   5.813   5.548 -0.6206  1.0538 -1.0088
33262SOL    HW2 5623   8.894   5.732   5.438 -0.0023  0.1666 -0.0082
33263SOL     OW 5624   8.735  10.668   0.736  0.1639 -0.3325  0.0350
33263SOL    HW1 5625   8.692  10.705   0.659 -0.2100 -0.3787  0.2186
33263SOL    HW2 5626   8.744  10.741   0.797  2.1907  0.1579 -0.7748
33264SOL     OW 5627   5.288   6.134   3.876 -0.1210  0.3639  0.1417
33264SOL    HW1 5628   5.369   6.129   3.926 -0.1862  0.5949  0.2693
33264SOL    HW2 5629   5.260   6.225   3.883  0.5743  0.7148 -1.4401
33265SOL     OW 5630   2.914   1.958   4.571  0.1786  0.9073  0.5655
33265SOL    HW1 5631   2.985   1.932   4.630  0.6804  0.1384 -0.3684
33265SOL    HW2 5632   2.881   1.876   4.534 -2.3670  1.0468  2.2424
33266SOL     OW 5633   0.366   2.424   5.756 -0.0260 -0.1098  0.4578
33266SOL    HW1 5634   0.431   2.425   5.826 -1.6669 -0.8266  2.0675
33266SOL    HW2 5635   0.347   2.516   5.739  0.1151  0.0639  1.2238
33267SOL     OW 5636   2.612   2.278   9.999  0.2257 -0.1788 -0.6907
33267SOL    HW1 5637   2.525   2.313  10.018  0.1818 -0.9100  0.5764
33267SOL    HW2 5638   2.672   2.347  10.026  0.0645  0.0620 -0.9394
33268SOL     OW 5639   6.944   6.302   7.379  0.4159  0.4954 -0.1471
33268SOL    HW1 5640   6.906   6.382   7.416 -1.0417  0.0466 -0.6028
33268SOL    HW2 5641   6.953   6.243   7.454  1.3050  1.0012  0.1568
33269SOL     OW 5642   4.873   5.213   7.699 -0.1255  0.0298 -0.5830
33269SOL    HW1 5643   4.859   5.296   7.653  1.4903  0.7326  0.1070
33269SOL    HW2 5644   4.786   5.183   7.722 -0.7616  3.5939  2.6714
33270SOL     OW 5645   8.487   5.249   5.102  0.7629  0.1676 -0.3934
33270SOL    HW1 5646   8.534   5.165   5.106  0.5692  0.0971  0.6927
33270SOL    HW2 5647   8.398   5.228   5.130  0.4750  0.5852 -0.9809
33271SOL     OW 5648   2.888   3.366   0.032  0.5445 -0.1430 -0.6369
33271SOL    HW1 5649   2.872   3.322   0.116 -2.1872 -0.1711 -1.0730
33271SOL    HW2 5650   2.924   3.452   0.056 -0.9060  0.1461  0.6308
33272SOL     OW 5651   5.124  10.289   4.413 -0.5988  0.8554  0.3069
33272SOL    HW1 5652   5.078  10.285   4.497 -0.3029 -0.5222  0.4292
33272SOL    HW2 5653   5.215  10.309   4.437  0.0896 -2.1813  0.6201
33273SOL     OW 5654   2.284   5.850   8.661 -0.1594  0.4227  0.1012
33273SOL    HW1 5655   2.189   5.837   8.659 -0.0688 -0.6530  1.5068
33273SOL    HW2 5656   2.297   5.938   8.626 -1.6248  0.3864 -0.6141
33274SOL     OW 5657   4.141   1.333   5.918  0.4649 -0.1544  0.3866
33274SOL    HW1 5658   4.200   1.382   5.975 -1.4877  4.0918 -0.8658
33274SOL    HW2 5659   4.064   1.317   5.972 -0.0439  0.8314 -0.0281
33275SOL     OW 5660   4.680   5.325   1.976  0.4331 -0.3075 -0.1499
33275SOL    HW1 5661   4.673   5.363   2.064  1.7691 -0.0994 -0.1134
33275SOL    HW2 5662   4.593   5.337   1.938 -1.6649 -4.2880  2.6167
33276SOL     OW 5663   5.191   5.430   8.597 -0.3559  0.0148  0.6242
33276SOL    HW1 5664   5.171   5.512   8.551 -0.3829 -0.2746  0.1206
33276SOL    HW2 5665   5.138   5.435   8.677  1.2508  1.4708  1.6719
33277SOL     OW 5666   2.001   7.933   0.058 -0.1564 -0.3982 -0.0016
33277SOL    HW1 5667   1.986   7.939   0.152  1.1963 -1.1003  0.2912
33277SOL    HW2 5668   2.093   7.958   0.047  0.8656 -3.7818 -0.6295
33278SOL     OW 5669   1.464   4.949   0.806  0.1226  0.2477  0.2711
33278SOL    HW1 5670   1.520   5.001   0.863 -1.1739  2.3805 -0.2929
33278SOL    HW2 5671   1.503   4.958   0.719  1.1408 -1.6203  0.4814
33279SOL     OW 5672   5.011   0.311   6.164 -0.0100  0.0101 -0.0042
33279SOL    HW1 5673   5.019   0.264   6.081 -2.0804 -2.0362  0.8329
33279SOL    HW2 5674   5.024   0.403   6.142  1.7192 -0.6772 -2.1758
33280SOL     OW 5675   4.555   8.475   4.896 -0.8360  0.2383 -0.3336
33280SOL    HW1 5676   4.510   8.414   4.837  0.6644 -2.2492  0.9170
33280SOL    HW2 5677   4.504   8.472   4.977  1.5279 -3.0493  1.3010
33281SOL     OW 5678   0.687   8.533   2.819 -0.4576  0.0832  0.5788
33281SOL    HW1 5679   0.607   8.586   2.822 -1.7480 -1.4274 -2.4632
33281SOL    HW2 5680   0.659   8.445   2.843  0.1702 -0.5440 -0.8819
33282SOL     OW 5681   0.943   3.398   9.863 -0.3101  0.6291  0.0510
33282SOL    HW1 5682   0.983   3.437   9.785 -0.5219 -2.1540 -1.5785
33282SOL    HW2 5683   1.016   3.355   9.908 -0.2861  1.7655  1.1477
33283SOL     OW 5684   2.826   2.498   0.227 -0.4385 -0.0611 -0.4610
33283SOL    HW1 5685   2.805   2.406   0.240  0.2689 -0.3429 -1.2169
33283SOL    HW2 5686   2.786   2.520   0.142 -0.0701  0.1581 -0.5785
33284SOL     OW 5687   8.446   3.777   3.009 -0.0479 -0.3746  0.1702
33284SOL    HW1 5688   8.407   3.690   3.000  0.0897 -0.2674 -2.0338
33284SOL    HW2 5689   8.454   3.809   2.919  3.8810  0.1315  0.5254
33285SOL     OW 5690   5.604   8.645   9.129  0.0839  0.3609  0.1619
33285SOL    HW1 5691   5.645   8.731   9.133 -0.1666  0.5928 -1.5265
33285SOL    HW2 5692   5.674   8.586   9.099 -0.5659  0.6487 -2.1213
33286SOL     OW 5693   9.469   0.114   9.582  0.2922 -0.3253 -0.2463
33286SOL    HW1 5694   9.512   0.094   9.500  0.0914 -1.2182 -0.1470
33286SOL    HW2 5695   9.522   0.183   9.621 -1.8667  3.2335 -3.0133
33287SOL     OW 5696   6.243   9.463   3.206  0.3359 -0.0700 -0.3918
33287SOL    HW1 5697   6.160   9.506   3.184 -0.3809 -1.2137 -0.0043
33287SOL    HW2 5698   6.287   9.450   3.122  0.1749  0.6461 -0.5875
33288SOL     OW 5699   2.349   6.031   5.188  0.0085 -0.2573 -0.3194
33288SOL    HW1 5700   2.330   6.100   5.252  0.6586  1.0719 -1.4904
33288SOL    HW2 5701   2.417   5.978   5.230 -0.8800 -0.5361  0.8204
33289SOL     OW 5702  10.702   6.441  10.192 -0.5430 -0.3994  0.0640
33289SOL    HW1 5703  10.754   6.438  10.112 -0.6194  0.6559 -0.0439
33289SOL    HW2 5704  10.635   6.374  10.179 -0.9121  0.1462 -1.0192
33290SOL     OW 5705   7.471   9.214   2.661  0.0925 -0.1596  0.0980
33290SOL    HW1 5706   7.545   9.154   2.662 -0.3613 -0.7934 -1.2802
33290SOL    HW2 5707   7.509   9.297   2.630  0.1955 -0.5764 -0.9596
33291SOL     OW 5708   7.496   4.619   3.854  0.1447 -0.2239  0.2666
33291SOL    HW1 5709   7.514   4.553   3.920  0.4395 -0.5618 -0.1469
33291SOL    HW2 5710   7.482   4.569   3.773  0.5670  0.2262 -0.0893
33292SOL     OW 5711  10.543   5.899   1.784  0.0010 -0.1944 -0.0541
33292SOL    HW1 5712  10.461   5.872   1.743  0.8527 -1.1974 -1.1787
33292SOL    HW2 5713  10.549   5.846   1.864 -1.2734  1.1759  0.9953
33293SOL     OW 5714   8.293   1.633   8.000 -0.1962  0.0330 -0.0759
33293SOL    HW1 5715   8.309   1.727   8.013  0.8186  0.1994 -2.1747
33293SOL    HW2 5716   8.324   1.593   8.081  1.4768  1.3263  0.0039
33294SOL     OW 5717   9.285   7.850   1.923  0.1727 -0.6554 -0.5502
33294SOL    HW1 5718   9.214   7.912   1.939  0.7211  0.2031 -1.3524
33294SOL    HW2 5719   9.253   7.795   1.852  0.5670  0.1881 -1.4028
33295SOL     OW 5720   3.510   5.252   8.022 -0.0945 -0.8878 -0.0398
33295SOL    HW1 5721   3.436   5.225   7.968 -0.3097 -1.2063  0.4080
33295SOL    HW2 5722   3.556   5.170   8.042  1.3056 -0.5569 -1.6176
33296SOL     OW 5723   5.255   3.286   9.224 -0.0716  0.5848  0.1404
33296SOL    HW1 5724   5.293   3.286   9.136 -0.1476  0.3408  0.1076
33296SOL    HW2 5725   5.255   3.194   9.250  0.0858  0.6749  0.4542
33297SOL     OW 5726   8.131   1.730   6.681  0.6963 -0.7623 -0.0307
33297SOL    HW1 5727   8.203   1.762   6.627 -1.2006  1.0843 -1.6162
33297SOL    HW2 5728   8.151   1.637   6.695  3.1172 -0.4223 -0.7645
33298SOL     OW 5729   0.298  10.597   1.368  0.3158  0.3385  0.7865
33298SOL    HW1 5730   0.279  10.615   1.460  0.4749 -1.6646  1.2480
33298SOL    HW2 5731   0.317  10.503   1.365  2.1040  0.6837 -0.9934
33299SOL     OW 5732   0.741   4.892   0.173  0.1478  0.0062  0.1982
33299SOL    HW1 5733   0.772   4.803   0.190  1.4339  0.4406  0.2201
33299SOL    HW2 5734   0.821   4.942   0.156 -0.4823  1.3633  1.1149
33300SOL     OW 5735   0.659   9.786   8.115  0.3447 -0.4194 -0.3070
33300SOL    HW1 5736   0.582   9.803   8.169 -0.7048 -1.4814 -1.4119
33300SOL    HW2 5737   0.675   9.692   8.125  0.1544 -0.6298 -1.7643
33301SOL     OW 5738  10.605   8.303   5.069 -0.2667 -0.0380 -0.4046
33301SOL    HW1 5739  10.634   8.391   5.093 -0.8083 -0.2966  1.3382
33301SOL    HW2 5740  10.685   8.250   5.072 -0.0125  0.3065 -1.0305
33302SOL     OW 5741   9.174   4.035   4.827 -0.4331  1.0309  0.1608
33302SOL    HW1 5742   9.099   3.980   4.850 -0.8580  1.8747  0.8854
33302SOL    HW2 5743   9.244   4.004   4.885 -0.4022  0.6526 -0.0769
33303SOL     OW 5744  10.388   6.140   1.640  0.0950 -1.1274  0.1024
33303SOL    HW1 5745  10.478   6.172   1.627 -0.6180  0.5927 -1.1148
33303SOL    HW2 5746  10.393   6.046   1.626  1.6681 -1.0170 -0.2285
33304SOL     OW 5747   6.101  10.462   8.138 -0.7354 -0.0191 -0.1720
33304SOL    HW1 5748   6.140  10.379   8.165 -2.0171 -0.6005 -0.0470
33304SOL    HW2 5749   6.020  10.469   8.189  0.0363  2.0213  0.9218
33305SOL     OW 5750   4.434   2.648   4.054 -0.5388  0.6574 -0.3715
33305SOL    HW1 5751   4.349   2.688   4.035 -1.1806  0.2059  1.3731
33305SOL    HW2 5752   4.484   2.717   4.096 -0.3768  0.6566 -0.5642
33306SOL     OW 5753   2.296   7.003   4.264  0.1452 -0.2362  0.6482
33306SOL    HW1 5754   2.319   6.941   4.332 -2.7910 -1.1393  0.9481
33306SOL    HW2 5755   2.286   6.950   4.185 -0.7869  0.0912  0.5375
33307SOL     OW 5756   1.178   1.817   5.859 -0.8713 -0.7764 -0.0596
33307SOL    HW1 5757   1.270   1.794   5.845 -0.7988  0.1765 -1.2676
33307SOL    HW2 5758   1.181   1.879   5.933 -0.6213 -1.2825  0.3601
33308SOL     OW 5759   7.884   6.664   3.881  0.9224  0.1153  0.1763
33308SOL    HW1 5760   7.815   6.603   3.855  1.7181 -1.0105  0.6380
33308SOL    HW2 5761   7.896   6.649   3.974  1.2932  0.8405  0.2547
33309SOL     OW 5762   0.397   7.685  10.602  0.1516  0.0116  0.3235
33309SOL    HW1 5763   0.493   7.696  10.600  0.3987 -1.5841  1.5023
33309SOL    HW2 5764   0.374   7.657  10.514  0.9221 -0.5864  0.2991
33310SOL     OW 5765   3.513   6.478   9.441  0.2910  0.6514 -0.1639
33310SOL    HW1 5766   3.494   6.384   9.436 -0.8947  0.9067 -0.7782
33310SOL    HW2 5767   3.469   6.515   9.364 -0.3068  1.8820  0.7423
33311SOL     OW 5768   9.907   0.066   4.831  0.7988  0.1333  0.1755
33311SOL    HW1 5769   9.933   0.066   4.738 -4.0098 -0.2860 -1.4657
33311SOL    HW2 5770   9.900   0.158   4.854  1.6513  0.2441  0.0199
33312SOL     OW 5771   7.650   3.501   0.416 -0.0592 -0.3913  0.1555
33312SOL    HW1 5772   7.604   3.538   0.341  0.2923 -1.2176 -0.4796
33312SOL    HW2 5773   7.587   3.507   0.488 -0.8527 -0.7020 -0.4932
33313SOL     OW 5774   9.912   4.692   8.829  0.5121 -0.4306 -0.3015
33313SOL    HW1 5775   9.878   4.628   8.767  1.4826  1.4278 -2.9609
33313SOL    HW2 5776  10.006   4.697   8.809  0.7697  0.5734  1.0176
33314SOL     OW 5777   8.646   7.269   1.019 -0.6686 -0.5395  0.0005
33314SOL    HW1 5778   8.735   7.248   0.990 -0.4661  0.5392 -0.1745
33314SOL    HW2 5779   8.655   7.286   1.113 -0.1968  2.0843 -0.4511
33315SOL     OW 5780   6.993   5.751   7.899  0.0755 -0.0398 -0.3674
33315SOL    HW1 5781   7.017   5.713   7.815 -0.0069  1.2194 -0.9843
33315SOL    HW2 5782   7.072   5.744   7.952  0.1138 -0.8896 -0.5303
33316SOL     OW 5783   0.932   5.278   9.676  0.5964  0.3310  0.4168
33316SOL    HW1 5784   0.966   5.314   9.594  0.7183 -1.6111 -0.4396
33316SOL    HW2 5785   0.939   5.184   9.666 -0.0727  0.0131  2.3989
33317SOL     OW 5786   0.285   1.692   8.019  0.1300 -0.1233 -0.8385
33317SOL    HW1 5787   0.283   1.653   8.107  0.2960 -0.4504 -0.9805
33317SOL    HW2 5788   0.378   1.698   7.997  0.0818 -0.2306 -1.0756
33318SOL     OW 5789   8.356   9.998   5.490 -0.0674  0.5843 -0.6870
33318SOL    HW1 5790   8.420   9.998   5.561 -1.4466  0.4397  0.5954
33318SOL    HW2 5791   8.330  10.090   5.482 -0.6255  0.4609 -0.3326
33319SOL     OW 5792   4.976   6.916   5.211  0.3347 -0.9567 -0.7076
33319SOL    HW1 5793   4.886   6.930   5.183  0.5436  0.6358 -0.7058
33319SOL    HW2 5794   4.974   6.931   5.306  1.1050  2.6029 -1.0841
33320SOL     OW 5795   6.740   6.262   9.231  0.0824 -0.2931 -0.2169
33320SOL    HW1 5796   6.696   6.271   9.146 -1.0907 -0.5792  0.3451
33320SOL    HW2 5797   6.680   6.301   9.294  1.0947  0.2201  0.4608
33321SOL     OW 5798   2.729   6.791   2.841 -0.5984 -0.3122  0.3208
33321SOL    HW1 5799   2.679   6.782   2.922  1.8995 -1.7467  1.8489
33321SOL    HW2 5800   2.676   6.748   2.774 -2.0772 -0.3933  1.5074
33322SOL     OW 5801   5.178   0.560   2.914  0.1894 -0.0630  0.1795
33322SOL    HW1 5802   5.210   0.538   3.002 -0.7719 -2.7072 -0.0518
33322SOL    HW2 5803   5.136   0.646   2.925 -0.5763 -0.6576  2.5103
33323SOL     OW 5804   2.887   3.237   7.715 -0.4504 -0.3407  0.4027
33323SOL    HW1 5805   2.922   3.326   7.717 -1.4388  0.0518  0.8559
33323SOL    HW2 5806   2.934   3.194   7.643 -0.3462  0.6975 -0.1623
33324SOL     OW 5807   7.991   4.473   3.151  0.1868  0.3187  0.0687
33324SOL    HW1 5808   7.909   4.483   3.102 -0.8765  0.4086  1.7812
33324SOL    HW2 5809   8.048   4.423   3.093 -1.9594 -1.9721 -0.2272
33325SOL     OW 5810   5.448   9.576   1.770 -0.4122 -0.5267 -0.1241
33325SOL    HW1 5811   5.377   9.588   1.834  0.3168 -0.9234  0.7796
33325SOL    HW2 5812   5.429   9.492   1.729  0.5497 -1.6142  1.5093
33326SOL     OW 5813   2.344   1.414   4.938 -0.3962  0.1432  0.0985
33326SOL    HW1 5814   2.300   1.334   4.909  1.1569 -0.9188  0.5675
33326SOL    HW2 5815   2.363   1.398   5.031  0.0936  0.9736  0.1466
33327SOL     OW 5816   1.351   3.603   4.091  0.3030  0.0960  0.5901
33327SOL    HW1 5817   1.267   3.645   4.109 -0.0755 -0.3563 -0.0919
33327SOL    HW2 5818   1.382   3.644   4.010  0.5497 -0.0316  0.6177
33328SOL     OW 5819   1.198   2.522   6.947  0.0291 -0.3743  0.6526
33328SOL    HW1 5820   1.164   2.593   6.893  0.2300  0.7836  2.0077
33328SOL    HW2 5821   1.264   2.480   6.892  0.6589  1.1440  0.2139
33329SOL     OW 5822   7.624   1.489   3.366  0.2238 -0.4924  0.0140
33329SOL    HW1 5823   7.628   1.531   3.452 -2.4412 -1.2300  0.6202
33329SOL    HW2 5824   7.571   1.549   3.313  0.5486 -0.7673 -0.6257
33330SOL     OW 5825   6.769   4.751   8.504  0.2276 -0.0434 -0.2705
33330SOL    HW1 5826   6.835   4.688   8.533  0.2102  0.5970  1.2211
33330SOL    HW2 5827   6.703   4.697   8.459  1.0474 -0.8624 -0.5224
33331SOL     OW 5828   4.811   4.512   6.014  0.3383 -0.0923  0.0650
33331SOL    HW1 5829   4.823   4.424   5.979  1.3314 -0.1059  0.4119
33331SOL    HW2 5830   4.718   4.530   6.000 -0.2914 -1.8532  1.4808
33332SOL     OW 5831  10.415   0.921   2.105 -0.0514 -0.1866  0.9847
33332SOL    HW1 5832  10.379   0.901   2.192 -0.6438 -0.1525  0.7504
33332SOL    HW2 5833  10.341   0.910   2.046  0.4390 -0.5776  0.4309
33333SOL     OW 5834   8.249   3.806   0.463  0.5119 -0.0080  0.1248
33333SOL    HW1 5835   8.237   3.753   0.542  1.3519 -1.3172 -0.5947
33333SOL    HW2 5836   8.253   3.896   0.496  3.5935 -0.6562  1.9596
33334SOL     OW 5837   6.416   2.652   9.683 -0.2206 -0.1576 -0.5311
33334SOL    HW1 5838   6.390   2.740   9.706  0.5051 -0.3318  1.0759
33334SOL    HW2 5839   6.503   2.641   9.722 -0.5493 -1.7782 -0.1683
33335SOL     OW 5840   4.512   8.231   3.775  0.2021 -0.1917  0.6533
33335SOL    HW1 5841   4.420   8.211   3.794 -0.5355  1.0726 -1.2272
33335SOL    HW2 5842   4.550   8.148   3.748 -1.1537 -0.3051 -1.1115
33336SOL     OW 5843   2.999   3.120   2.741 -0.3114 -0.0897 -0.2622
33336SOL    HW1 5844   3.064   3.150   2.805 -0.6950  0.0280  0.0766
33336SOL    HW2 5845   2.916   3.120   2.789 -0.4486 -0.9479 -0.4738
33337SOL     OW 5846   5.866   5.347   7.917  0.1565 -0.1250 -0.3988
33337SOL    HW1 5847   5.920   5.383   7.846  1.5357  0.1184  0.7320
33337SOL    HW2 5848   5.832   5.265   7.882  0.5044  0.1773 -1.4836
33338SOL     OW 5849   4.424   6.804   7.273  0.5023  1.0352  0.3420
33338SOL    HW1 5850   4.372   6.885   7.273 -1.3016  0.0175 -2.2200
33338SOL    HW2 5851   4.472   6.806   7.190 -0.0376 -0.7278 -0.0684
33339SOL     OW 5852   9.613   6.627   3.013  0.5440 -0.2225 -0.5453
33339SOL    HW1 5853   9.584   6.669   3.094 -0.2056  0.1230 -0.9788
33339SOL    HW2 5854   9.532   6.617   2.962  0.4705 -3.2176 -0.0032
33340SOL     OW 5855   9.212   9.418   1.219  0.1173  0.2689 -0.2874
33340SOL    HW1 5856   9.295   9.371   1.229 -0.1574 -0.3329 -0.7889
33340SOL    HW2 5857   9.234   9.510   1.235  0.6435 -0.0362  0.7837
33341SOL     OW 5858  10.050   8.627   0.309 -0.1922 -0.2376  0.6186
33341SOL    HW1 5859  10.032   8.709   0.356 -1.1900 -0.2264  0.2240
33341SOL    HW2 5860  10.042   8.559   0.376 -0.9361 -0.1556  0.6221
33342SOL     OW 5861   6.246   4.774   9.590  0.6245 -0.3865  0.1923
33342SOL    HW1 5862   6.290   4.724   9.520  0.6745  0.4114 -0.3663
33342SOL    HW2 5863   6.317   4.799   9.649  0.5834 -1.0658  0.5337
33343SOL     OW 5864   2.933   2.710   7.415  0.1876  0.4832  0.0565
33343SOL    HW1 5865   2.989   2.742   7.344  2.0831 -1.0716  0.7831
33343SOL    HW2 5866   2.892   2.631   7.379  1.4423 -0.5212  0.7629
33344SOL     OW 5867   6.941   2.709   7.353  0.2027  0.0576  0.1357
33344SOL    HW1 5868   7.015   2.749   7.306  0.4441  0.6042  0.9548
33344SOL    HW2 5869   6.957   2.731   7.444 -0.7067 -0.2807  0.3802
33345SOL     OW 5870   5.187   6.474  10.357  0.5115 -0.0091  0.2510
33345SOL    HW1 5871   5.269   6.447  10.400  0.5270 -3.1176 -1.4171
33345SOL    HW2 5872   5.144   6.391  10.333 -1.2339  1.4965 -2.3847
33346SOL     OW 5873   3.083  10.468   4.173  0.2537  0.4885 -0.0264
33346SOL    HW1 5874   3.101  10.555   4.137  1.8563 -0.3015 -1.2480
33346SOL    HW2 5875   3.166  10.439   4.209 -0.2991 -0.4908  0.5005
33347SOL     OW 5876   5.375   4.113   0.140 -0.0452  0.0553 -0.3010
33347SOL    HW1 5877   5.410   4.057   0.070 -2.0252 -0.5333 -0.8747
33347SOL    HW2 5878   5.366   4.199   0.099 -1.7418 -0.4206 -0.9955
33348SOL     OW 5879   5.891   6.752   0.252  0.0414 -0.5257  0.3492
33348SOL    HW1 5880   5.856   6.677   0.205  0.3098 -0.4350  0.0011
33348SOL    HW2 5881   5.945   6.798   0.188  0.7247 -0.6148  0.8417
33349SOL     OW 5882   7.169   7.128   4.794  0.1675 -0.0175 -0.1720
33349SOL    HW1 5883   7.200   7.111   4.883  0.3382 -0.3832 -0.3001
33349SOL    HW2 5884   7.198   7.052   4.743 -2.2481 -1.1885  0.0227
33350SOL     OW 5885   2.519   1.212   7.186 -0.0142 -0.9409  0.3091
33350SOL    HW1 5886   2.438   1.251   7.221  0.7175  0.4188  0.5520
33350SOL    HW2 5887   2.525   1.127   7.230 -0.8946 -0.7152  0.8940
33351SOL     OW 5888   8.517   4.249   6.983  0.2527 -0.0097 -0.4858
33351SOL    HW1 5889   8.525   4.226   6.890 -0.1090 -1.6092 -0.1523
33351SOL    HW2 5890   8.487   4.168   7.025 -0.1111  0.8390  0.9498
33352SOL     OW 5891   2.991   4.718   6.890 -0.1602  0.4679  0.2967
33352SOL    HW1 5892   3.026   4.746   6.805  0.0827  0.1109  0.2756
33352SOL    HW2 5893   2.907   4.678   6.868 -1.3679  2.7445  0.5183
33353SOL     OW 5894   3.597   1.374   1.913 -0.4311 -1.2369 -0.8766
33353SOL    HW1 5895   3.532   1.435   1.947  0.7389 -0.2312 -0.3792
33353SOL    HW2 5896   3.593   1.385   1.818 -0.7398 -0.9267 -0.8301
33354SOL     OW 5897   6.068   3.706   4.341  0.0520 -0.9371  0.2993
33354SOL    HW1 5898   6.039   3.614   4.338 -2.0525 -0.3229 -0.5623
33354SOL    HW2 5899   5.994   3.755   4.305 -0.2347  1.4447  3.6993
33355SOL     OW 5900   5.678   5.265   4.156 -0.2184  0.3782  0.1463
33355SOL    HW1 5901   5.688   5.270   4.060 -1.7291  0.7746 -0.0218
33355SOL    HW2 5902   5.652   5.175   4.173  0.7957  0.1002  0.2811
33356SOL     OW 5903   9.225   6.223   0.024  0.8643 -0.3854  0.1928
33356SOL    HW1 5904   9.145   6.170   0.021 -0.0495  0.5284  3.8198
33356SOL    HW2 5905   9.228   6.266  -0.062 -0.9899 -2.5348 -1.0542
33357SOL     OW 5906   5.225   2.762   0.074 -0.5871 -0.3386  0.6323
33357SOL    HW1 5907   5.302   2.815   0.094 -0.1547 -1.2546  1.4477
33357SOL    HW2 5908   5.197   2.728   0.158 -2.1709  0.3320  0.4052
33358SOL     OW 5909   8.470   0.128   0.222  0.5364 -0.1016  0.3000
33358SOL    HW1 5910   8.477   0.134   0.127 -2.7339 -1.8020 -0.1917
33358SOL    HW2 5911   8.519   0.048   0.244  1.7178  0.5595  0.1732
33359SOL     OW 5912   9.470  10.274   2.590 -0.1863  0.8042  0.4030
33359SOL    HW1 5913   9.547  10.280   2.647 -0.6289  0.0403  1.1054
33359SOL    HW2 5914   9.397  10.258   2.650 -0.9772  1.9862 -0.2050
33360SOL     OW 5915   2.099   0.710   0.633 -0.3710  0.0400  0.9770
33360SOL    HW1 5916   2.033   0.658   0.679 -0.9601  0.8478  1.0727
33360SOL    HW2 5917   2.051   0.785   0.599  0.3424  0.1974  0.2871
33361SOL     OW 5918   4.176  10.080   1.705  0.3441 -0.4743 -0.3046
33361SOL    HW1 5919   4.173  10.016   1.635 -1.4658  0.7672 -1.4471
33361SOL    HW2 5920   4.252  10.135   1.685 -0.5895  0.3377 -1.7894
33362SOL     OW 5921   9.213   1.171  10.143 -0.0979 -0.3509 -0.5806
33362SOL    HW1 5922   9.179   1.089  10.180 -2.6420  0.2978 -1.3071
33362SOL    HW2 5923   9.228   1.228  10.218 -1.5456 -0.3599 -0.2642
33363SOL     OW 5924   8.689   2.652   7.382 -0.0722 -0.5599  0.1105
33363SOL    HW1 5925   8.605   2.617   7.351 -0.3631 -0.4973  0.8156
33363SOL    HW2 5926   8.718   2.591   7.449  0.2748 -0.3899  0.1188
33364SOL     OW 5927   9.462   0.529   3.512 -0.3178 -0.6947 -0.0897
33364SOL    HW1 5928   9.509   0.575   3.582  1.6420 -1.9309 -0.5275
33364SOL    HW2 5929   9.408   0.464   3.558  1.1577 -1.6858  0.3161
33365SOL     OW 5930   5.018   2.487   1.879  0.1472 -0.0582  0.1009
33365SOL    HW1 5931   4.951   2.526   1.936  0.4022  0.4980  0.0235
33365SOL    HW2 5932   5.005   2.392   1.889 -0.5702  0.0384  0.1818
33366SOL     OW 5933   5.629   3.023   5.545 -0.4330  0.4003  0.2921
33366SOL    HW1 5934   5.614   3.009   5.452 -0.9408 -0.1707  0.4575
33366SOL    HW2 5935   5.706   2.970   5.566 -1.9905 -1.7840  0.7884
33367SOL     OW 5936   5.791   8.448  10.257  0.0243 -0.2036 -0.2672
33367SOL    HW1 5937   5.872   8.396  10.256 -0.1101 -0.4605  0.9086
33367SOL    HW2 5938   5.728   8.393  10.303 -0.4334  0.5419  0.0095
33368SOL     OW 5939   6.908   5.212   1.959  0.5602  0.2170  0.1516
33368SOL    HW1 5940   6.961   5.283   1.923 -1.0993  0.9717 -0.9233
33368SOL    HW2 5941   6.876   5.245   2.043 -0.3384  0.8567 -0.4181
33369SOL     OW 5942   8.176   0.555   8.013  0.7488 -0.3681 -0.4765
33369SOL    HW1 5943   8.265   0.523   7.999  0.3860 -2.0437  0.6706
33369SOL    HW2 5944   8.185   0.625   8.078  1.1130 -1.6943  0.9693
33370SOL     OW 5945   2.462   9.549   5.282 -0.9786  0.1162  0.0944
33370SOL    HW1 5946   2.469   9.460   5.245 -1.9642 -0.0237  0.2118
33370SOL    HW2 5947   2.544   9.561   5.330  0.0218  0.0073 -1.4844
33371SOL     OW 5948   9.020   9.547   4.998  0.6661  0.1448 -0.3826
33371SOL    HW1 5949   9.030   9.584   4.910  0.0086  1.1473 -0.0450
33371SOL    HW2 5950   8.950   9.598   5.038  0.6759 -0.5773  0.5888
33372SOL     OW 5951   5.282   9.296   0.632  0.3080  0.2774  0.4997
33372SOL    HW1 5952   5.350   9.228   0.634 -0.1949 -0.2678 -0.5216
33372SOL    HW2 5953   5.221   9.267   0.565 -1.0973  0.6210  1.5930
33373SOL     OW 5954   6.711   4.142   5.258  0.1713 -0.1398 -0.2569
33373SOL    HW1 5955   6.634   4.194   5.233  0.0652 -0.6549 -1.0463
33373SOL    HW2 5956   6.698   4.122   5.350  0.4981  1.7266  0.2366
33374SOL     OW 5957   5.699   8.340   2.187  0.3510  0.5004 -0.0689
33374SOL    HW1 5958   5.669   8.251   2.170 -0.1182  0.9418 -1.7005
33374SOL    HW2 5959   5.689   8.352   2.281  0.3922 -1.1542  0.1642
33375SOL     OW 5960   9.601   9.477   3.653 -0.5481 -0.1187 -0.1055
33375SOL    HW1 5961   9.665   9.548   3.656 -1.3437  0.6714 -1.0898
33375SOL    HW2 5962   9.556   9.489   3.570 -1.8523 -0.7595  0.4756
33376SOL     OW 5963   6.629   8.888   4.960 -0.1365 -0.1347 -0.0874
33376SOL    HW1 5964   6.633   8.983   4.950 -2.5351 -0.0200 -0.6850
33376SOL    HW2 5965   6.606   8.876   5.053 -0.4006 -0.0747 -0.1416
33377SOL     OW 5966   9.301   6.949   8.275 -0.0215  0.2077  0.0895
33377SOL    HW1 5967   9.397   6.945   8.268  0.0238  1.3169 -0.1697
33377SOL    HW2 5968   9.278   6.877   8.334  0.8117 -1.1241 -1.1302
33378SOL     OW 5969   9.223   5.901   7.089  0.8073 -0.5639  0.5060
33378SOL    HW1 5970   9.149   5.941   7.136  0.4751 -1.4150  0.7331
33378SOL    HW2 5971   9.207   5.921   6.997  0.2970 -0.7212  0.5571
33379SOL     OW 5972   9.154   8.871   2.540  0.2794  0.3871 -0.1503
33379SOL    HW1 5973   9.139   8.940   2.605  3.0325  0.2834  0.7537
33379SOL    HW2 5974   9.161   8.790   2.591 -2.1437 -0.5212 -1.1267
33380SOL     OW 5975   3.704   6.138   2.672 -0.1681 -0.0202  0.2026
33380SOL    HW1 5976   3.681   6.226   2.645  0.5494  0.0050 -0.3593
33380SOL    HW2 5977   3.771   6.149   2.739  0.0202 -0.1356  0.0367
33381SOL     OW 5978   3.368   2.086   2.720 -0.0429 -0.6633  0.8401
33381SOL    HW1 5979   3.440   2.050   2.668  0.4377  0.0560  0.9811
33381SOL    HW2 5980   3.297   2.100   2.657  0.5197  0.1733  0.3660
33382SOL     OW 5981  10.060   0.437   7.566  0.1603 -0.4578 -0.1301
33382SOL    HW1 5982  10.120   0.510   7.580 -1.3961  1.3167 -2.1570
33382SOL    HW2 5983   9.994   0.445   7.635 -0.7429  0.9177 -1.1122
33383SOL     OW 5984   9.013   1.836   3.530  0.3318 -0.1809  0.3351
33383SOL    HW1 5985   8.937   1.895   3.530  0.0662 -0.4972  1.6041
33383SOL    HW2 5986   9.017   1.804   3.440 -1.3536 -0.5448  0.3488
33384SOL     OW 5987   7.067   1.169   0.426 -0.1032  0.1321  0.5379
33384SOL    HW1 5988   7.034   1.258   0.426 -0.6946 -0.0709 -0.3788
33384SOL    HW2 5989   7.083   1.148   0.518  1.1933  1.5928  0.6843
33385SOL     OW 5990   5.525   0.757  10.371 -0.2909 -0.1591 -0.6019
33385SOL    HW1 5991   5.516   0.809  10.451 -2.7090 -1.2726 -0.0799
33385SOL    HW2 5992   5.466   0.799  10.308  1.3282  0.4978 -1.7742
33386SOL     OW 5993  10.423   1.591   4.349  0.1986  0.5306  0.3258
33386SOL    HW1 5994  10.414   1.580   4.254 -0.5831  2.2942  0.1648
33386SOL    HW2 5995  10.358   1.531   4.385  1.5568 -1.3185 -0.1562
33387SOL     OW 5996   5.097   7.777   6.284 -0.0273  0.1566  0.6433
33387SOL    HW1 5997   5.188   7.802   6.273 -0.0649  0.2687  0.5800
33387SOL    HW2 5998   5.089   7.752   6.376  0.3050 -0.8698  0.4043
33388SOL     OW 5999   2.612   6.849   1.595 -0.4096 -0.1629  0.1642
33388SOL    HW1 6000   2.699   6.858   1.556 -0.4760 -0.2951 -0.0124
33388SOL    HW2 6001   2.582   6.763   1.567 -0.6671 -0.0489  0.0932
33389SOL     OW 6002   8.952   2.918   5.096 -0.1548 -0.3440  0.2363
33389SOL    HW1 6003   8.990   2.950   5.014 -0.5494  2.3245  0.9879
33389SOL    HW2 6004   8.874   2.972   5.109 -0.8027 -1.5698  1.7495
33390SOL     OW 6005   3.669   5.650   9.919  0.2496 -0.3565  0.3268
33390SOL    HW1 6006   3.634   5.693   9.841 -0.0413 -1.2343 -0.0461
33390SOL    HW2 6007   3.732   5.712   9.954 -1.5856  1.2340  0.9710
33391SOL     OW 6008   8.532   4.567   5.872  0.4038  0.3285  0.2587
33391SOL    HW1 6009   8.596   4.621   5.825  1.0712 -2.1112 -1.8552
33391SOL    HW2 6010   8.584   4.497   5.912 -0.5066  0.7946  2.3987
33392SOL     OW 6011   7.734   0.385   7.444 -0.0739 -0.1846  0.0910
33392SOL    HW1 6012   7.777   0.313   7.398 -1.0040  0.3827 -1.7867
33392SOL    HW2 6013   7.784   0.462   7.420 -0.8698  0.1912 -0.4134
33393SOL     OW 6014   4.239   1.343   6.362  0.1839 -0.6708 -0.4598
33393SOL    HW1 6015   4.195   1.348   6.447 -0.9412  0.4565 -1.0843
33393SOL    HW2 6016   4.183   1.288   6.309 -0.4151  0.6152 -1.2019
33394SOL     OW 6017   9.528   0.486   1.330  0.2784  0.1201 -0.2513
33394SOL    HW1 6018   9.561   0.415   1.275  0.1034 -1.2173  1.2864
33394SOL    HW2 6019   9.465   0.444   1.387  0.8925  1.3103  1.3791
33395SOL     OW 6020   7.777   2.250   8.143  0.3740 -0.4691 -0.0635
33395SOL    HW1 6021   7.852   2.239   8.202  1.7638 -0.5903 -1.7671
33395SOL    HW2 6022   7.797   2.330   8.095  0.3431 -1.4814 -1.8336
33396SOL     OW 6023   1.565   2.528   9.297  0.1757  0.3649  0.6087
33396SOL    HW1 6024   1.600   2.600   9.245 -0.2276 -0.4371 -0.8208
33396SOL    HW2 6025   1.484   2.562   9.335 -0.3145  0.5045 -0.5249
33397SOL     OW 6026  10.031   2.557   0.275 -0.1646 -0.5291 -0.4094
33397SOL    HW1 6027  10.058   2.643   0.243 -1.4629 -0.4843 -1.4707
33397SOL    HW2 6028   9.954   2.575   0.330  0.6935 -0.8451  0.9484
33398SOL     OW 6029   0.489   5.918   0.155  0.1875 -0.0006 -0.1609
33398SOL    HW1 6030   0.438   5.970   0.217 -0.3554 -1.9989  1.2000
33398SOL    HW2 6031   0.577   5.916   0.192  0.8754  1.9479 -1.5505
33399SOL     OW 6032   5.748   2.576   4.039  0.0941  0.0664 -0.1103
33399SOL    HW1 6033   5.720   2.485   4.047  0.3141 -0.1395 -1.4379
33399SOL    HW2 6034   5.681   2.627   4.084  0.6326 -0.8321  1.7838
33400SOL     OW 6035   9.010   7.390   2.943 -0.2898  0.4170 -0.1635
33400SOL    HW1 6036   9.051   7.442   2.873  0.3721  2.7673  1.8168
33400SOL    HW2 6037   9.056   7.418   3.022  0.2379 -3.4492  1.0781
33401SOL     OW 6038   6.633   2.281   2.648 -0.4212 -0.4985 -0.3405
33401SOL    HW1 6039   6.647   2.264   2.555 -0.5482 -0.1929 -0.4191
33401SOL    HW2 6040   6.721   2.292   2.684 -0.3890 -0.1329 -0.5236
33402SOL     OW 6041   3.900   0.756   6.885  0.3674 -0.0326 -0.9082
33402SOL    HW1 6042   3.840   0.700   6.837  1.1968 -1.5872 -0.2181
33402SOL    HW2 6043   3.917   0.709   6.967  1.5060  0.9736 -0.5264
33403SOL     OW 6044   7.223   6.187   9.934 -0.4756  0.4488 -0.5173
33403SOL    HW1 6045   7.151   6.138   9.973  1.0165 -0.6262  0.9871
33403SOL    HW2 6046   7.283   6.120   9.900  0.1996  1.3015 -1.0703
33404SOL     OW 6047   3.610   5.026   8.106  0.0032 -0.2788  0.2851
33404SOL    HW1 6048   3.546   4.964   8.141 -1.1334  1.4694  1.4543
33404SOL    HW2 6049   3.694   4.995   8.138 -0.4278 -1.7410  0.0435
33405SOL     OW 6050   4.435   7.159   0.539 -0.0661  0.3871  0.5867
33405SOL    HW1 6051   4.440   7.245   0.581 -0.8290  0.5748  0.3153
33405SOL    HW2 6052   4.345   7.131   0.552 -0.3112  0.4281 -0.8755
33406SOL     OW 6053   8.960   4.789  10.117  0.2792 -0.1514 -0.4715
33406SOL    HW1 6054   8.947   4.811  10.025  1.6532  1.3024 -0.3630
33406SOL    HW2 6055   9.047   4.748  10.119 -0.1417 -1.0522  0.0610
33407SOL     OW 6056   8.224   8.249   0.849 -0.0880 -0.4108  0.3855
33407SOL    HW1 6057   8.186   8.259   0.936  2.0943  1.2135  1.2097
33407SOL    HW2 6058   8.286   8.177   0.858  2.1845  1.5173  1.0040
33408SOL     OW 6059   2.101   3.802   8.766 -0.0505  0.0914  0.0882
33408SOL    HW1 6060   2.076   3.877   8.713  1.4248  1.3928  1.1083
33408SOL    HW2 6061   2.192   3.784   8.741  1.0603  1.4265  2.8000
33409SOL     OW 6062   6.821  10.080   5.702 -1.0257  0.3600 -0.0632
33409SOL    HW1 6063   6.843  10.037   5.785 -1.2069  1.6704  0.6810
33409SOL    HW2 6064   6.890  10.146   5.691 -0.5041 -0.3674 -1.4126
33410SOL     OW 6065   1.588   0.556   7.465  0.3965  0.3759 -0.2839
33410SOL    HW1 6066   1.631   0.575   7.382  0.9483 -1.1569 -0.3839
33410SOL    HW2 6067   1.609   0.464   7.483 -0.2315  0.4917  1.2423
33411SOL     OW 6068   3.235   6.819   9.032  0.1595  1.0360  0.0130
33411SOL    HW1 6069   3.292   6.896   9.025  1.1042  0.2688 -1.3017
33411SOL    HW2 6070   3.230   6.801   9.126  2.1509  1.1189  0.1870
33412SOL     OW 6071   5.368   0.505   6.643  0.0816 -0.2771  0.2217
33412SOL    HW1 6072   5.425   0.554   6.584 -1.2792  0.0360 -0.9003
33412SOL    HW2 6073   5.306   0.460   6.585 -0.0859 -1.5514  1.3335
33413SOL     OW 6074   5.735   2.683   3.371 -0.4400 -0.2503  0.0025
33413SOL    HW1 6075   5.817   2.677   3.420 -0.6379  0.0932  0.3813
33413SOL    HW2 6076   5.706   2.773   3.383 -0.5858 -0.2165 -0.5982
33414SOL     OW 6077   1.141   6.888  10.164 -0.0426  1.1927  0.0126
33414SOL    HW1 6078   1.071   6.910  10.225 -0.6163 -0.0504 -0.1580
33414SOL    HW2 6079   1.196   6.826  10.211 -0.2904  0.4962 -0.5881
33415SOL     OW 6080   1.985   1.085   2.082  0.5385  0.1247  0.4242
33415SOL    HW1 6081   2.072   1.123   2.096  1.7853 -1.8133 -1.4102
33415SOL    HW2 6082   1.993   0.995   2.114 -0.8106 -0.0768  0.2476
33416SOL     OW 6083   7.838   7.617   9.323 -0.4024  0.1716  0.0175
33416SOL    HW1 6084   7.931   7.606   9.341 -0.3951  1.6898  1.0763
33416SOL    HW2 6085   7.826   7.578   9.237  1.2153  0.0022 -0.1718
33417SOL     OW 6086   3.610   1.840   0.602 -0.5034 -0.6323  0.1124
33417SOL    HW1 6087   3.589   1.827   0.509 -0.0562  1.3644 -0.3188
33417SOL    HW2 6088   3.699   1.808   0.611 -0.8474 -1.6460  0.0789
33418SOL     OW 6089   7.387   5.710   6.664  0.4454 -0.2976 -0.2726
33418SOL    HW1 6090   7.355   5.782   6.719  0.9804 -0.0725 -0.2508
33418SOL    HW2 6091   7.422   5.646   6.727  0.4811 -0.3252 -0.3207
33419SOL     OW 6092   5.963   5.291  10.451  0.0923 -0.5319 -0.7902
33419SOL    HW1 6093   6.007   5.319  10.532 -1.2724 -0.1999 -0.1411
33419SOL    HW2 6094   6.025   5.230  10.411  1.3791  0.3274 -0.1903
33420SOL     OW 6095   4.097   3.897   3.670 -0.1678  0.1393  0.4574
33420SOL    HW1 6096   4.078   3.981   3.630 -0.8149 -0.6783 -1.0356
33420SOL    HW2 6097   4.069   3.832   3.605  1.2728 -1.2220  1.1313
33421SOL     OW 6098   9.860   1.438   7.874 -0.3613 -0.7756 -0.0152
33421SOL    HW1 6099   9.922   1.396   7.933 -0.1544  0.4689  0.6740
33421SOL    HW2 6100   9.843   1.371   7.807  0.3669 -1.7550  0.7394
33422SOL     OW 6101   3.347   8.098   0.284 -0.8380  0.3234 -0.1810
33422SOL    HW1 6102   3.280   8.104   0.216  0.0339 -0.2982 -1.1243
33422SOL    HW2 6103   3.405   8.173   0.268 -0.4808  0.0267 -0.3042
33423SOL     OW 6104   4.566   6.802   5.329 -0.6675 -0.5635 -0.3557
33423SOL    HW1 6105   4.534   6.744   5.260 -1.1105 -1.0466  0.2425
33423SOL    HW2 6106   4.627   6.748   5.379  0.0938 -0.0409 -0.7030
33424SOL     OW 6107   8.332   9.263   3.635  0.1317  0.4194 -0.1221
33424SOL    HW1 6108   8.314   9.321   3.709 -0.4819  0.0852 -0.0012
33424SOL    HW2 6109   8.412   9.299   3.596 -0.2704  1.3958 -0.0969
33425SOL     OW 6110   0.858   1.875   2.975 -0.5736 -0.7316 -0.2060
33425SOL    HW1 6111   0.832   1.944   2.913 -1.5524  1.1437  2.1137
33425SOL    HW2 6112   0.934   1.911   3.020  0.8647 -2.5724 -1.0780
33426SOL     OW 6113  10.261   9.760   4.091  0.3586 -0.1518 -0.2499
33426SOL    HW1 6114  10.208   9.747   4.012 -0.6334 -0.7387  0.4825
33426SOL    HW2 6115  10.197   9.784   4.158  0.7101 -2.6936  1.1115
33427SOL     OW 6116   1.633   3.018  10.648 -0.2902 -0.0789 -0.4748
33427SOL    HW1 6117   1.641   2.972  10.732  1.3916  2.1205  0.6508
33427SOL    HW2 6118   1.722   3.041  10.624 -0.7850 -0.2433 -2.6737
33428SOL     OW 6119   2.843   2.208   4.270  0.1548 -0.1301  0.0792
33428SOL    HW1 6120   2.801   2.168   4.346 -0.9834  1.1773  0.1774
33428SOL    HW2 6121   2.854   2.135   4.208 -0.2230 -0.9357  0.9368
33429SOL     OW 6122   0.737   8.174   5.868  0.0645 -0.4061 -0.1952
33429SOL    HW1 6123   0.799   8.239   5.835 -0.2618 -0.6135 -1.2540
33429SOL    HW2 6124   0.651   8.213   5.851 -0.1376  0.1799  1.8653
33430SOL     OW 6125   6.196   2.835   1.180 -1.1130 -0.1048 -0.3530
33430SOL    HW1 6126   6.197   2.907   1.242 -0.1962 -0.7039  0.3554
33430SOL    HW2 6127   6.279   2.841   1.133 -2.2645  1.0329 -2.3904
33431SOL     OW 6128   0.425   5.234   9.427 -0.3068 -0.3234 -0.0055
33431SOL    HW1 6129   0.499   5.212   9.369 -0.6959 -2.8742  0.3611
33431SOL    HW2 6130   0.457   5.215   9.515 -0.5837  1.0478  0.4126
33432SOL     OW 6131   0.983   3.624   6.550 -0.2299  0.4046 -0.6483
33432SOL    HW1 6132   0.902   3.654   6.510 -0.0677 -0.4818 -1.7018
33432SOL    HW2 6133   0.964   3.621   6.644 -1.6627 -0.4618 -0.9286
33433SOL     OW 6134   0.711   8.758   4.185  0.3333 -0.0315 -0.8489
33433SOL    HW1 6135   0.622   8.789   4.166  0.0415 -0.3603 -0.0805
33433SOL    HW2 6136   0.756   8.835   4.220  0.7569  0.4759 -2.4530
33434SOL     OW 6137   6.769   4.173   1.655 -0.2486  0.0189 -0.1423
33434SOL    HW1 6138   6.772   4.082   1.624  0.2062 -0.0142 -0.0154
33434SOL    HW2 6139   6.695   4.212   1.609  0.8832  0.2034 -1.9126
33435SOL     OW 6140   1.174   5.386   4.735  0.1919  0.0888 -0.6030
33435SOL    HW1 6141   1.212   5.313   4.685  1.7442  0.6009 -0.2476
33435SOL    HW2 6142   1.197   5.366   4.826 -1.8506 -0.3983 -0.1444
33436SOL     OW 6143   1.469   3.393   0.579  0.2326 -0.1467 -0.1679
33436SOL    HW1 6144   1.396   3.389   0.641  0.6862 -1.8885  0.3118
33436SOL    HW2 6145   1.541   3.429   0.630 -0.2421  1.5692 -0.6403
33437SOL     OW 6146   4.593   1.558   7.025  0.2609  0.2133 -0.3924
33437SOL    HW1 6147   4.553   1.544   7.111  1.0640  1.7294  0.2799
33437SOL    HW2 6148   4.604   1.471   6.989  0.0508 -0.4749  1.1257
33438SOL     OW 6149   1.023   8.297   3.733  0.1299 -0.0667  0.1025
33438SOL    HW1 6150   1.029   8.353   3.811 -1.7305  0.6798 -0.2329
33438SOL    HW2 6151   1.045   8.355   3.660 -0.8021 -0.0067 -0.1511
33439SOL     OW 6152   6.835  10.575   7.347  0.4436 -0.1198  0.4424
33439SOL    HW1 6153   6.778  10.528   7.285  1.7735 -0.8779 -0.2414
33439SOL    HW2 6154   6.852  10.512   7.417  0.6770 -0.0062  0.4886
33440SOL     OW 6155   8.442   4.897   2.945 -0.1559  0.7420 -0.4773
33440SOL    HW1 6156   8.430   4.812   2.905  2.9692 -0.7644  1.3343
33440SOL    HW2 6157   8.524   4.930   2.907 -0.3224  2.0285  0.2183
33441SOL     OW 6158   9.751   1.339   2.831 -0.6431  0.2506 -0.2258
33441SOL    HW1 6159   9.668   1.299   2.804 -0.3130 -1.6142  1.2987
33441SOL    HW2 6160   9.774   1.293   2.912  2.4678 -0.0902 -1.1964
33442SOL     OW 6161   5.587   3.508   1.477  0.7946  0.1654  0.4629
33442SOL    HW1 6162   5.665   3.562   1.468 -1.4709  3.8559  0.9052
33442SOL    HW2 6163   5.556   3.496   1.387  1.5730 -1.0069  0.3184
33443SOL     OW 6164   2.569   5.173  10.687  0.1219  0.4300 -0.7476
33443SOL    HW1 6165   2.502   5.137  10.628 -0.4433  1.2189 -0.6017
33443SOL    HW2 6166   2.637   5.105  10.689 -1.3775 -1.1378  0.3490
33444SOL     OW 6167   3.326   1.140   3.081  0.0047  0.0348 -0.2654
33444SOL    HW1 6168   3.253   1.179   3.032 -0.8545 -0.1892  0.7789
33444SOL    HW2 6169   3.399   1.141   3.020 -0.9987 -0.1694 -1.5343
33445SOL     OW 6170   0.753   8.031   4.432 -0.1292  0.3492  0.1006
33445SOL    HW1 6171   0.770   8.088   4.357 -0.7094  0.2765 -0.0897
33445SOL    HW2 6172   0.675   7.981   4.407  0.8893 -1.1909 -0.1239
33446SOL     OW 6173   7.349   3.482   0.023  0.0219 -0.5206 -0.9474
33446SOL    HW1 6174   7.367   3.403   0.073  0.2589 -0.6054 -1.1686
33446SOL    HW2 6175   7.406   3.477  -0.054 -0.8194 -0.7283 -1.5854
33447SOL     OW 6176   2.884   6.029   4.434 -0.7716  0.1540  0.2005
33447SOL    HW1 6177   2.978   6.014   4.448 -1.1571 -3.0467  0.0247
33447SOL    HW2 6178   2.881   6.089   4.360  1.1247  0.4636  0.3032
33448SOL     OW 6179   4.715  10.077   8.660 -0.2627  0.1278 -0.2240
33448SOL    HW1 6180   4.790  10.124   8.694 -0.6948  2.9018 -2.7021
33448SOL    HW2 6181   4.751  10.018   8.594 -0.0295 -0.9034  0.7844
33449SOL     OW 6182   0.381   9.012   4.740 -0.3015  0.4342 -0.0577
33449SOL    HW1 6183   0.431   9.019   4.821  0.3940  1.2910 -0.5571
33449SOL    HW2 6184   0.318   9.084   4.744  1.2661  1.9608 -1.3081
33450SOL     OW 6185   8.524   3.503   4.398  0.3520 -0.1148  0.5598
33450SOL    HW1 6186   8.433   3.476   4.404  0.0697  0.4253 -0.8811
33450SOL    HW2 6187   8.542   3.507   4.304  2.1031 -0.9875  0.8156
33451SOL     OW 6188   8.036   0.147   3.785 -0.1947  0.2676  0.0268
33451SOL    HW1 6189   8.052   0.105   3.701  1.3657  0.0143  0.4049
33451SOL    HW2 6190   8.124   0.166   3.819 -0.7981  3.3305  0.1345
33452SOL     OW 6191   9.499   4.190   5.017 -0.3538  0.2232  0.2087
33452SOL    HW1 6192   9.578   4.138   5.029  0.6045  1.2421 -1.4167
33452SOL    HW2 6193   9.427   4.128   5.032  0.7417 -1.4931 -1.2926
33453SOL     OW 6194   9.571   0.610   5.575 -0.4685  0.3327  0.2101
33453SOL    HW1 6195   9.623   0.686   5.600 -4.2462  3.2842  0.0579
33453SOL    HW2 6196   9.593   0.594   5.484  1.1965  0.4654  0.5664
33454SOL     OW 6197   9.131   0.011   1.534  0.3227 -0.4191  0.0655
33454SOL    HW1 6198   9.134   0.075   1.463  1.0238  0.2519  0.6810
33454SOL    HW2 6199   9.221  -0.022   1.540 -0.1650 -1.9476 -0.6629
33455SOL     OW 6200   0.288   3.324   7.114 -0.5681  0.4483  0.5849
33455SOL    HW1 6201   0.337   3.333   7.196  0.4405 -0.1404  0.0581
33455SOL    HW2 6202   0.315   3.399   7.061 -1.8603  1.3107  1.0794
33456SOL     OW 6203   7.584   8.235   5.571 -0.5296 -0.1683  0.0240
33456SOL    HW1 6204   7.650   8.182   5.615 -0.9430  0.0351  0.9182
33456SOL    HW2 6205   7.551   8.293   5.639  0.1489  1.4937 -1.0032
33457SOL     OW 6206   3.498   9.358   0.637 -0.1610  0.1653 -0.2089
33457SOL    HW1 6207   3.556   9.284   0.654 -2.2343 -2.0576 -2.2076
33457SOL    HW2 6208   3.410   9.320   0.633 -1.6696  3.1427  1.1491
33458SOL     OW 6209   7.844   2.960   1.619  0.2444 -0.2341  0.0479
33458SOL    HW1 6210   7.772   2.927   1.672 -0.1305 -1.8892 -1.3807
33458SOL    HW2 6211   7.806   3.032   1.568 -0.4038 -1.0527 -0.6472
33459SOL     OW 6212   0.501   8.116   4.936 -0.0627 -0.4817 -0.9378
33459SOL    HW1 6213   0.596   8.122   4.925 -0.1292  1.6381 -0.8654
33459SOL    HW2 6214   0.468   8.199   4.900 -1.6414 -0.0116  1.3662
33460SOL     OW 6215   9.636   0.699   1.505  0.4048 -0.5094  0.0029
33460SOL    HW1 6216   9.597   0.642   1.438  1.5698 -0.7176 -0.5271
33460SOL    HW2 6217   9.694   0.641   1.555  2.0633  0.2957 -0.9243
33461SOL     OW 6218   8.359   0.772   8.381  0.3222 -0.1050  0.4538
33461SOL    HW1 6219   8.310   0.763   8.299  0.2081 -3.1245  0.7352
33461SOL    HW2 6220   8.447   0.740   8.360 -0.0182 -2.0029  1.7155
33462SOL     OW 6221   9.043   9.988   1.308 -0.0013 -0.1890 -0.6515
33462SOL    HW1 6222   9.036   9.924   1.237 -0.2788 -1.6050  0.5778
33462SOL    HW2 6223   8.956  10.027   1.314  0.4423  1.0729 -2.0623
33463SOL     OW 6224   5.463   2.424   7.202  0.1182  0.2159 -0.3992
33463SOL    HW1 6225   5.477   2.336   7.166 -0.6728  0.3720 -1.1025
33463SOL    HW2 6226   5.472   2.412   7.297 -3.7658 -1.4611 -0.0311
33464SOL     OW 6227  10.008   1.057   5.620  0.1122 -0.3201  0.0231
33464SOL    HW1 6228  10.095   1.018   5.615 -0.0647 -0.8504  0.8488
33464SOL    HW2 6229   9.980   1.042   5.711 -0.8722 -0.2388 -0.2543
33465SOL     OW 6230   8.458   3.777   7.401  0.6751  0.4003  0.4807
33465SOL    HW1 6231   8.378   3.763   7.351  0.8395  0.9122  0.0602
33465SOL    HW2 6232   8.430   3.828   7.477  0.8326  1.9722 -0.4768
33466SOL     OW 6233   5.637   9.545   7.322 -0.2118  0.6081  0.6777
33466SOL    HW1 6234   5.662   9.603   7.394  0.0464  2.0820 -0.5581
33466SOL    HW2 6235   5.550   9.514   7.345 -0.3937  1.5612  1.3275
33467SOL     OW 6236   4.515   5.588   0.718 -0.4710  0.0264 -0.1830
33467SOL    HW1 6237   4.531   5.536   0.640 -0.5683  0.2050 -0.3218
33467SOL    HW2 6238   4.586   5.652   0.720  0.0166 -0.5174  0.3371
33468SOL     OW 6239   1.569   7.336   2.362 -0.1467  0.7393  0.0037
33468SOL    HW1 6240   1.621   7.416   2.373  1.4565 -0.0653 -1.3212
33468SOL    HW2 6241   1.572   7.318   2.268 -1.2007 -0.4383  0.1701
33469SOL     OW 6242   2.376   0.021   8.418  0.4986 -0.1953  0.2768
33469SOL    HW1 6243   2.377   0.115   8.436  0.1784 -0.4601  1.7804
33469SOL    HW2 6244   2.468  -0.001   8.401  0.4056  0.6114 -1.4925
33470SOL     OW 6245   9.316   3.672   1.550  0.2185 -0.3600  0.5209
33470SOL    HW1 6246   9.347   3.589   1.514 -0.0843 -0.3200  0.1687
33470SOL    HW2 6247   9.226   3.679   1.520  0.8522  1.0910 -1.2092
33471SOL     OW 6248   9.658   7.651   1.390 -0.1613  0.7780  0.1797
33471SOL    HW1 6249   9.687   7.580   1.446  0.3178  0.2630 -0.6962
33471SOL    HW2 6250   9.732   7.713   1.390 -0.6319  1.3585  1.0524
33472SOL     OW 6251   0.695   6.323   3.044  0.6622 -0.6305 -0.4455
33472SOL    HW1 6252   0.712   6.368   3.126 -0.7796 -0.6446 -0.1111
33472SOL    HW2 6253   0.728   6.234   3.059  1.4071 -0.3419 -0.2952
33473SOL     OW 6254   5.804   2.899   9.469  0.1416 -0.1308 -0.0012
33473SOL    HW1 6255   5.819   2.885   9.563  0.0102 -0.6983 -0.0591
33473SOL    HW2 6256   5.825   2.815   9.429  0.5952  0.2296 -0.5358
33474SOL     OW 6257   0.623   8.889   5.235 -0.1993  0.1349 -0.5535
33474SOL    HW1 6258   0.647   8.902   5.327  1.3457 -2.8264 -0.4319
33474SOL    HW2 6259   0.704   8.860   5.193 -1.2978 -0.3116 -2.4651
33475SOL     OW 6260   4.024   0.582   2.466  0.0797  0.1244  0.0836
33475SOL    HW1 6261   4.094   0.524   2.496  0.6971  0.3070 -0.9272
33475SOL    HW2 6262   4.033   0.582   2.370 -1.8523 -0.5236 -0.1374
33476SOL     OW 6263   4.935   9.527   8.166 -0.5289 -0.4290 -0.1374
33476SOL    HW1 6264   4.930   9.616   8.132 -1.2781 -0.6460 -0.6267
33476SOL    HW2 6265   4.990   9.533   8.244  1.7521 -0.0092 -1.6827
33477SOL     OW 6266   7.052   4.745   7.668  0.2762 -0.5029 -0.5204
33477SOL    HW1 6267   7.052   4.741   7.572  0.4100  0.3654 -0.5667
33477SOL    HW2 6268   6.964   4.776   7.690  0.2302 -0.7505 -0.3549
33478SOL     OW 6269   1.812   3.564   9.070 -0.5037  0.0169  0.6801
33478SOL    HW1 6270   1.832   3.600   8.983  0.9381 -1.3635  0.3785
33478SOL    HW2 6271   1.717   3.556   9.071 -0.5068 -0.7710 -1.1510
33479SOL     OW 6272   1.717   3.487   3.228  0.6149  0.3378 -0.0732
33479SOL    HW1 6273   1.743   3.446   3.311  0.3698  0.4138  0.0417
33479SOL    HW2 6274   1.711   3.414   3.167  0.7785  0.2788 -0.0206
33480SOL     OW 6275   2.198   3.321   2.557 -0.0137  0.4472  0.3458
33480SOL    HW1 6276   2.226   3.410   2.579  1.4480 -0.4710  2.5572
33480SOL    HW2 6277   2.195   3.275   2.641  0.8133 -2.0017 -0.8573
33481SOL     OW 6278   6.479   7.347   3.746 -0.1356 -0.8061  0.5907
33481SOL    HW1 6279   6.523   7.382   3.824 -0.7448  0.1891  0.5062
33481SOL    HW2 6280   6.420   7.280   3.779 -0.0581 -0.7040  0.9369
33482SOL     OW 6281  10.368   4.851   0.275  0.4223 -0.6406 -0.3128
33482SOL    HW1 6282  10.308   4.923   0.256 -1.4144 -0.9696  3.2333
33482SOL    HW2 6283  10.430   4.887   0.338 -0.4345 -1.9613  1.3938
33483SOL     OW 6284   4.519   2.848   5.957  0.5324  1.0066  0.3511
33483SOL    HW1 6285   4.586   2.783   5.936  0.9772  0.8864  2.0631
33483SOL    HW2 6286   4.485   2.874   5.871  0.6223 -1.1671 -0.4212
33484SOL     OW 6287   6.279   7.832   2.416  0.2274 -0.3990  0.1609
33484SOL    HW1 6288   6.370   7.826   2.445  1.5904  1.7350 -3.0055
33484SOL    HW2 6289   6.261   7.748   2.374  1.0514 -0.5405  0.0747
33485SOL     OW 6290   6.403   0.285   9.817 -0.1094  0.1822  0.6891
33485SOL    HW1 6291   6.361   0.210   9.776 -0.7695  1.0088 -0.2182
33485SOL    HW2 6292   6.339   0.318   9.880  0.3648 -0.2825  1.4232
33486SOL     OW 6293  10.500   7.609   2.406  0.0067  0.3152  1.1894
33486SOL    HW1 6294  10.561   7.553   2.357  0.1073  1.2791  0.1521
33486SOL    HW2 6295  10.414   7.589   2.369 -0.0339  0.4208  1.2262
33487SOL     OW 6296   1.700   9.824   3.437 -0.3097  0.4275  0.2505
33487SOL    HW1 6297   1.616   9.801   3.399 -0.8134  2.8370 -0.2662
33487SOL    HW2 6298   1.765   9.779   3.382 -1.1969 -0.6883  0.0773
33488SOL     OW 6299   2.660   4.454   9.054  0.4669  0.2247  0.2713
33488SOL    HW1 6300   2.674   4.361   9.037  0.6540  0.0886  1.1546
33488SOL    HW2 6301   2.567   4.468   9.035  0.4849 -0.0926 -0.0651
33489SOL     OW 6302   7.014   1.439   0.539 -0.2987  0.0670 -0.1784
33489SOL    HW1 6303   7.077   1.403   0.602  0.2143 -0.6729 -1.0661
33489SOL    HW2 6304   6.998   1.528   0.568  0.2045 -0.1422  0.7823
33490SOL     OW 6305   0.109   4.830   6.292  0.2943 -0.5716  0.2829
33490SOL    HW1 6306   0.200   4.852   6.271  0.0189  0.7565  0.3645
33490SOL    HW2 6307   0.111   4.800   6.383  0.7903 -1.5701 -0.0477
33491SOL     OW 6308   8.929   4.838   0.955  0.1006 -0.0023  0.6917
33491SOL    HW1 6309   8.987   4.882   0.892 -1.6780  0.4770 -0.7003
33491SOL    HW2 6310   8.909   4.754   0.914  0.2998 -0.4311  1.4595
33492SOL     OW 6311   8.258   3.441   4.356  0.2633  0.1301 -0.4298
33492SOL    HW1 6312   8.231   3.357   4.319 -1.0398  0.0685  0.5915
33492SOL    HW2 6313   8.182   3.499   4.343 -0.6515 -0.1429  2.8329
33493SOL     OW 6314   5.614   9.066   9.213 -0.0584 -0.0877  0.7570
33493SOL    HW1 6315   5.610   9.080   9.118 -2.5153  0.6964  0.9011
33493SOL    HW2 6316   5.662   8.984   9.223  0.6613  0.0344 -1.1099
33494SOL     OW 6317   2.236   5.164   8.626 -0.0468  0.1178 -0.5409
33494SOL    HW1 6318   2.277   5.079   8.613 -1.9947 -1.2388  1.5137
33494SOL    HW2 6319   2.170   5.169   8.556  1.1304  0.7120 -1.6480
33495SOL     OW 6320   6.054   0.947   2.740 -0.1189 -0.4850 -0.0876
33495SOL    HW1 6321   6.069   0.853   2.750 -1.6076 -0.8360 -0.7559
33495SOL    HW2 6322   6.090   0.986   2.820  3.2008 -1.2280 -1.0814
33496SOL     OW 6323   1.583   0.513   5.567 -0.5735 -0.3885  0.2439
33496SOL    HW1 6324   1.546   0.601   5.571  0.7357  0.3255 -1.7344
33496SOL    HW2 6325   1.625   0.501   5.652 -0.2500  1.1588  0.3288
33497SOL     OW 6326   4.344  10.508   3.924  0.3440  0.1235 -0.5181
33497SOL    HW1 6327   4.263  10.553   3.948  1.5347  2.7673 -1.0308
33497SOL    HW2 6328   4.325  10.467   3.839 -1.2478 -1.8136  0.6781
33498SOL     OW 6329   8.455   0.885   9.171 -0.0951  0.0987  0.3038
33498SOL    HW1 6330   8.442   0.790   9.162 -1.6337  0.3099 -0.0821
33498SOL    HW2 6331   8.403   0.908   9.249 -0.5571  0.7552 -0.1835
33499SOL     OW 6332   4.026   1.924   1.652  0.6149 -0.8529  0.4267
33499SOL    HW1 6333   4.115   1.948   1.677  0.8204  0.5274 -1.3909
33499SOL    HW2 6334   4.000   1.991   1.588 -1.1359 -2.1083 -0.2684
33500SOL     OW 6335   5.188   4.169   3.179  0.0753  0.2202  0.1102
33500SOL    HW1 6336   5.223   4.095   3.128 -1.3502 -1.4171  1.3830
33500SOL    HW2 6337   5.255   4.187   3.245  0.1707 -0.3744  0.1840
33501SOL     OW 6338   7.841   9.738   4.956 -0.2334  0.9730  0.2693
33501SOL    HW1 6339   7.834   9.655   5.002 -0.8693 -0.0846 -1.6066
33501SOL    HW2 6340   7.935   9.756   4.954 -0.0260 -0.0472  0.1539
33502SOL     OW 6341   6.081   1.874   7.679 -0.2373 -0.0593  0.2780
33502SOL    HW1 6342   6.072   1.817   7.603  2.8593 -0.0945 -0.1827
33502SOL    HW2 6343   6.064   1.962   7.644  3.3341  0.2207 -1.1674
33503SOL     OW 6344   1.819   2.512   8.070  0.1258 -0.6769 -0.6909
33503SOL    HW1 6345   1.778   2.560   7.998  0.4934 -1.3910 -1.4073
33503SOL    HW2 6346   1.816   2.571   8.144 -0.3516  0.0484 -1.2762
33504SOL     OW 6347   8.033   8.010   8.982 -0.0203 -0.2519 -0.3539
33504SOL    HW1 6348   7.961   7.978   9.036  0.0349  0.3115  0.0503
33504SOL    HW2 6349   8.080   8.072   9.037  0.7462 -0.5688 -0.6339
33505SOL     OW 6350   7.846   1.515  10.464  0.2919  0.1480  0.1779
33505SOL    HW1 6351   7.898   1.435  10.463  1.4062  0.8576 -0.2036
33505SOL    HW2 6352   7.789   1.505  10.540 -1.0276 -1.8748 -0.9857
33506SOL     OW 6353   8.107   2.828   3.476 -0.0559  0.5315  0.1400
33506SOL    HW1 6354   8.051   2.798   3.548  0.6646  0.7941  0.8263
33506SOL    HW2 6355   8.114   2.752   3.418 -1.0863  0.4869  0.0574
33507SOL     OW 6356   5.637   0.453   6.992  0.2882  0.2149  0.0943
33507SOL    HW1 6357   5.664   0.472   6.902 -1.4926 -2.4810 -1.1671
33507SOL    HW2 6358   5.603   0.536   7.025  1.4793  1.4049 -1.5259
33508SOL     OW 6359   6.809   3.132   2.325  0.3060 -0.0939  0.3066
33508SOL    HW1 6360   6.835   3.168   2.410  0.1968 -0.1252  0.3528
33508SOL    HW2 6361   6.891   3.129   2.275  1.1095 -3.2725  1.5658
33509SOL     OW 6362   7.834   0.693   4.299  0.5946 -0.0827 -0.1005
33509SOL    HW1 6363   7.747   0.654   4.302  0.9801 -0.9048  0.7305
33509SOL    HW2 6364   7.859   0.704   4.390  1.4243  0.0099 -0.3310
33510SOL     OW 6365   6.199   8.631   5.152  0.1620  0.2543  0.6141
33510SOL    HW1 6366   6.258   8.654   5.224  0.4469 -0.5595  0.6443
33510SOL    HW2 6367   6.188   8.536   5.159 -0.7343  0.3299  0.2837
33511SOL     OW 6368   1.924   0.540   0.824 -0.4456  0.2316  0.1578
33511SOL    HW1 6369   1.905   0.457   0.869 -0.1865  0.0255 -0.1092
33511SOL    HW2 6370   1.837   0.577   0.806 -0.5748  1.0515  2.1360
33512SOL     OW 6371   5.807   0.002   9.804 -0.3639 -0.9071 -0.6486
33512SOL    HW1 6372   5.790   0.094   9.825 -0.5729 -1.3753  1.4623
33512SOL    HW2 6373   5.900  -0.010   9.824  0.3615 -0.5923 -3.3972
33513SOL     OW 6374   1.990   6.824  10.169  0.2218 -0.1203 -0.2162
33513SOL    HW1 6375   1.995   6.844  10.075  0.1643  1.5895  0.1059
33513SOL    HW2 6376   1.900   6.793  10.182  0.0517  0.1793 -0.6470
33514SOL     OW 6377   3.769   0.743   9.538 -0.2459 -0.0561  0.3723
33514SOL    HW1 6378   3.689   0.775   9.496  1.0102  0.0638 -2.0828
33514SOL    HW2 6379   3.816   0.697   9.469  0.9013 -1.9174  2.2669
33515SOL     OW 6380   1.244   5.035   8.023 -0.1377  0.3648  0.3506
33515SOL    HW1 6381   1.300   4.962   7.995 -0.0959  1.2292 -2.0298
33515SOL    HW2 6382   1.155   5.005   8.006 -0.0824  1.2295 -1.8644
33516SOL     OW 6383   8.902   3.592   7.579  0.0800  0.9833 -0.5083
33516SOL    HW1 6384   8.943   3.657   7.521  1.1164  1.7360  0.9843
33516SOL    HW2 6385   8.810   3.618   7.583 -0.2715  0.2265 -2.6749
33517SOL     OW 6386   7.536   9.037   1.754 -0.4624 -0.4230  0.4274
33517SOL    HW1 6387   7.451   9.052   1.796 -1.1528 -2.1922 -0.2133
33517SOL    HW2 6388   7.516   9.027   1.662  0.4488 -0.8602  0.2632
33518SOL     OW 6389   0.955   3.484   2.613  0.4406  0.5014 -0.1710
33518SOL    HW1 6390   0.938   3.572   2.645  0.2625  0.0284  1.1168
33518SOL    HW2 6391   1.047   3.468   2.633  0.6541  0.6520 -1.0416
33519SOL     OW 6392   6.689   5.656   2.742  0.7346  0.1927  0.2704
33519SOL    HW1 6393   6.619   5.619   2.796 -0.1875  2.4119  0.7144
33519SOL    HW2 6394   6.708   5.741   2.782  1.8383  0.7837 -1.4029
33520SOL     OW 6395   3.738   9.617   8.789  0.1086  0.3411 -0.0099
33520SOL    HW1 6396   3.674   9.611   8.860  0.1931 -0.8512 -0.0081
33520SOL    HW2 6397   3.738   9.709   8.764 -0.7590  0.5684  0.7701
33521SOL     OW 6398   9.752   4.919   8.730 -0.3462  0.5235 -0.9949
33521SOL    HW1 6399   9.741   4.922   8.635  2.1147  2.2314 -1.3064
33521SOL    HW2 6400   9.801   4.838   8.745  0.2094  0.7935 -1.3181
33522SOL     OW 6401  10.715   2.892   6.668  0.0822  0.4167 -0.5241
33522SOL    HW1 6402  10.710   2.861   6.577  1.2743  0.5742 -0.6614
33522SOL    HW2 6403  10.698   2.986   6.663  0.5614  0.5013 -0.6508
33523SOL     OW 6404   1.482   0.125   7.393 -0.0953 -0.0400  0.0107
33523SOL    HW1 6405   1.393   0.094   7.410 -0.1128 -0.5829 -1.0284
33523SOL    HW2 6406   1.537   0.048   7.405 -0.1056 -0.4715 -2.2650
33524SOL     OW 6407   1.565   7.610   0.424  0.2431  0.1345 -0.1244
33524SOL    HW1 6408   1.630   7.540   0.420 -1.7147 -1.8551  0.6393
33524SOL    HW2 6409   1.586   7.667   0.350  0.9402 -2.2130 -1.8593
33525SOL     OW 6410   2.448   7.593   1.319  0.1992 -0.2950  0.4691
33525SOL    HW1 6411   2.491   7.568   1.401  1.9324 -0.4769 -0.4429
33525SOL    HW2 6412   2.457   7.516   1.263  1.3360  0.6602 -0.7321
33526SOL     OW 6413   9.571   9.491   2.052 -0.1825 -0.1113 -0.1840
33526SOL    HW1 6414   9.512   9.418   2.068 -0.3873  0.4289  1.7983
33526SOL    HW2 6415   9.655   9.463   2.090  0.1330  0.1359 -0.6824
33527SOL     OW 6416   7.265   7.852   1.156  0.0392 -0.0873  0.0323
33527SOL    HW1 6417   7.356   7.884   1.152  0.0017  0.3815  1.8007
33527SOL    HW2 6418   7.263   7.777   1.097  1.6530 -0.2532  0.1344
33528SOL     OW 6419   8.355   3.208   9.989 -0.0970  0.4186 -0.9339
33528SOL    HW1 6420   8.347   3.115   9.971 -0.5313  0.2068  0.2063
33528SOL    HW2 6421   8.361   3.213  10.085  0.1784  1.5408 -0.9945
33529SOL     OW 6422  10.514   7.347   1.169 -0.2876 -0.2763 -0.2456
33529SOL    HW1 6423  10.438   7.305   1.209  0.1138  0.7543  1.6918
33529SOL    HW2 6424  10.478   7.397   1.096 -1.7244  1.3597  1.5077
33530SOL     OW 6425  10.472   6.915   2.360  0.1953  0.4832  0.9183
33530SOL    HW1 6426  10.450   6.907   2.452  0.5913  0.0377  0.9798
33530SOL    HW2 6427  10.417   6.849   2.317 -0.0295  0.7280  0.8267
33531SOL     OW 6428   2.430   0.838   1.982 -0.4550  0.1943  0.0558
33531SOL    HW1 6429   2.373   0.910   1.954  1.2892  1.1098 -1.3510
33531SOL    HW2 6430   2.377   0.789   2.045 -2.8070  0.9346 -1.2155
33532SOL     OW 6431   7.461   7.257  10.624  0.8470  0.1141  0.5338
33532SOL    HW1 6432   7.473   7.185  10.686 -2.4834 -0.5184  0.6636
33532SOL    HW2 6433   7.366   7.262  10.612  1.2372  1.2722 -3.3225
33533SOL     OW 6434   3.955   1.230   8.180 -0.8781  0.3758  0.6180
33533SOL    HW1 6435   3.913   1.305   8.222 -1.9432 -0.3969  0.9895
33533SOL    HW2 6436   3.882   1.180   8.142 -0.0150  0.7571 -1.7348
33534SOL     OW 6437   8.824   3.552  10.286 -0.9541 -0.0298  0.3733
33534SOL    HW1 6438   8.758   3.617  10.311  0.4704  2.1557 -1.1867
33534SOL    HW2 6439   8.894   3.562  10.350 -0.9099 -0.3891  0.3880
33535SOL     OW 6440   6.939   0.597   1.138  0.2350 -0.4312  0.0848
33535SOL    HW1 6441   6.987   0.673   1.105  1.2011 -1.4285 -0.9070
33535SOL    HW2 6442   6.939   0.607   1.233  0.1926  0.8817 -0.0425
33536SOL     OW 6443   8.982   9.138   9.728  0.2336 -0.2372 -0.5128
33536SOL    HW1 6444   8.996   9.066   9.789 -1.9959 -0.3594 -0.0873
33536SOL    HW2 6445   8.914   9.191   9.769  0.0436  0.7356 -2.0219
33537SOL     OW 6446   6.233   2.191   7.836 -0.0344  0.2268 -0.3387
33537SOL    HW1 6447   6.160   2.221   7.782 -0.3045 -0.6154 -0.4521
33537SOL    HW2 6448   6.211   2.101   7.859  1.2456 -0.2520 -0.8719
33538SOL     OW 6449   0.137   3.514   3.779  0.6669 -0.3607 -0.8417
33538SOL    HW1 6450   0.083   3.437   3.799  0.0486  0.0771 -0.7901
33538SOL    HW2 6451   0.187   3.488   3.701  1.4255 -1.2652 -0.0744
33539SOL     OW 6452  10.351   7.539   9.781 -0.3576 -0.8438 -0.7129
33539SOL    HW1 6453  10.351   7.635   9.783  0.4238 -0.8321  1.5004
33539SOL    HW2 6454  10.283   7.517   9.717 -0.0296  1.1693 -1.8507
33540SOL     OW 6455   5.723   6.519   0.149  0.1554  0.2572  0.6233
33540SOL    HW1 6456   5.650   6.544   0.206 -0.0853 -1.4110  1.0889
33540SOL    HW2 6457   5.682   6.482   0.071  0.4124 -2.3284  1.6215
33541SOL     OW 6458   9.526   2.379  10.423 -0.6304 -0.2859 -0.2339
33541SOL    HW1 6459   9.613   2.372  10.463 -0.0337  2.6652 -0.7756
33541SOL    HW2 6460   9.471   2.321  10.475  1.1795 -0.4645  1.6032
33542SOL     OW 6461   3.520   3.430   0.670 -0.2654  0.6871  0.6424
33542SOL    HW1 6462   3.486   3.343   0.646 -1.0838  0.9304  0.8571
33542SOL    HW2 6463   3.492   3.487   0.599 -2.7685  1.4226  2.0997
33543SOL     OW 6464   8.932   8.609   7.800 -0.2310 -0.0082  0.6479
33543SOL    HW1 6465   8.968   8.559   7.873 -1.0292 -0.5102  0.7131
33543SOL    HW2 6466   8.842   8.628   7.826 -0.4910 -0.0985 -0.1577
33544SOL     OW 6467   3.871   0.597  10.064 -0.3785  0.3828  0.3436
33544SOL    HW1 6468   3.838   0.571  10.150 -0.4932  0.4501  0.3196
33544SOL    HW2 6469   3.849   0.689  10.057 -0.9134  0.2292 -0.0144
33545SOL     OW 6470   4.204   1.123   3.734  0.0110 -0.5430 -0.4033
33545SOL    HW1 6471   4.118   1.164   3.734  0.1707 -0.1887  0.0234
33545SOL    HW2 6472   4.188   1.030   3.748 -0.1971 -0.1775  2.3555
33546SOL     OW 6473   8.025   3.528   2.651  0.2303  0.1591  0.4593
33546SOL    HW1 6474   8.019   3.434   2.637 -0.3419  0.1575  0.6615
33546SOL    HW2 6475   8.106   3.540   2.700  0.9748 -0.0850 -0.6810
33547SOL     OW 6476   9.764   0.939   1.427  0.2462  0.7652  0.1711
33547SOL    HW1 6477   9.726   0.852   1.444  1.0111  0.5154  0.6399
33547SOL    HW2 6478   9.690   0.991   1.394 -0.0842 -0.2501 -0.7774
33548SOL     OW 6479   6.859   0.342   9.868 -0.0828 -0.4819 -0.8253
33548SOL    HW1 6480   6.868   0.436   9.858 -1.6267 -0.4456 -2.2805
33548SOL    HW2 6481   6.948   0.307   9.856  0.6052  0.7864  0.3114
33549SOL     OW 6482  10.565   5.776   0.887  0.1113  0.8132 -0.3464
33549SOL    HW1 6483  10.537   5.827   0.964 -0.0948  3.8745 -2.2825
33549SOL    HW2 6484  10.499   5.708   0.878  0.7577 -0.3881  2.7737
33550SOL     OW 6485   5.921   0.192   6.881  0.3111  0.6536  0.3389
33550SOL    HW1 6486   5.924   0.274   6.832 -1.0242  0.8117  0.4793
33550SOL    HW2 6487   5.901   0.219   6.971 -0.7423  0.1510  0.2676
33551SOL     OW 6488   3.175   8.205   5.231 -0.0655  0.2500  0.0336
33551SOL    HW1 6489   3.082   8.225   5.239 -0.4456 -0.5545 -1.7734
33551SOL    HW2 6490   3.215   8.239   5.311 -1.7598  1.4934  0.3931
33552SOL     OW 6491   9.587  10.634   0.356  0.3275  0.0742 -0.1271
33552SOL    HW1 6492   9.624  10.575   0.421  0.5214 -0.4101 -0.6737
33552SOL    HW2 6493   9.503  10.662   0.393  0.8190  0.4688  0.7072
33553SOL     OW 6494   7.111   2.233   9.234 -0.2012  0.0504 -0.4011
33553SOL    HW1 6495   7.181   2.208   9.173 -0.6738 -1.2113 -0.4630
33553SOL    HW2 6496   7.152   2.295   9.294  0.9681 -0.6328 -0.4584
33554SOL     OW 6497   9.743   5.354   2.831 -0.3141  0.0599 -0.1711
33554SOL    HW1 6498   9.757   5.449   2.829 -1.5767  0.2944  0.8611
33554SOL    HW2 6499   9.811   5.319   2.773  0.5912  1.5348 -0.0688
33555SOL     OW 6500   9.361   1.360   4.010 -0.0320 -0.3317  0.1824
33555SOL    HW1 6501   9.407   1.394   4.087  2.1741  0.6585 -1.4560
33555SOL    HW2 6502   9.292   1.305   4.046  1.1881 -0.2778  2.8546
33556SOL     OW 6503   3.983   1.583   4.734  0.3167  0.1834 -0.1680
33556SOL    HW1 6504   3.952   1.493   4.745  0.0749  0.4589  1.8077
33556SOL    HW2 6505   3.954   1.608   4.646  0.5024 -1.6901 -0.7965
33557SOL     OW 6506   8.453   3.876   0.655  0.2005 -0.1050  0.8085
33557SOL    HW1 6507   8.539   3.840   0.680  0.6563 -1.0032 -1.7905
33557SOL    HW2 6508   8.391   3.808   0.681  0.6082 -0.7851  0.0635
33558SOL     OW 6509   6.176   8.993   0.806 -0.0399  0.5111 -0.3360
33558SOL    HW1 6510   6.172   9.083   0.836 -0.0347  0.9784 -1.6658
33558SOL    HW2 6511   6.223   8.946   0.875  2.0369  1.9958 -0.6546
33559SOL     OW 6512   5.650   5.877   2.232 -0.4814 -0.1623  0.8366
33559SOL    HW1 6513   5.731   5.927   2.232 -0.9132  0.7111 -1.9381
33559SOL    HW2 6514   5.596   5.919   2.300  0.9855 -0.1371  2.0240
33560SOL     OW 6515   4.797   6.559   3.668  0.5100 -0.3251 -0.0356
33560SOL    HW1 6516   4.738   6.541   3.595 -0.3114 -1.0982  0.8061
33560SOL    HW2 6517   4.876   6.594   3.626 -0.8215  1.5364 -1.1330
33561SOL     OW 6518   5.173   6.182   2.528 -0.3593 -0.0284  0.9436
33561SOL    HW1 6519   5.126   6.119   2.472 -0.0020 -0.3236  0.9708
33561SOL    HW2 6520   5.180   6.261   2.474 -2.6776  0.7539  1.6526
33562SOL     OW 6521   8.696   9.778   8.854 -0.0041 -0.2427 -0.2401
33562SOL    HW1 6522   8.727   9.772   8.763  0.5354 -1.2895  0.0024
33562SOL    HW2 6523   8.656   9.865   8.860  1.7081  0.6319 -0.9422
33563SOL     OW 6524   7.796   0.441   5.197 -0.0945 -0.5032  0.2181
33563SOL    HW1 6525   7.738   0.514   5.177  0.3241  0.0694  1.0161
33563SOL    HW2 6526   7.760   0.403   5.278  0.8028  0.0605  0.9011
33564SOL     OW 6527   7.919   7.490   3.458  0.2644 -0.4716 -0.0634
33564SOL    HW1 6528   8.014   7.499   3.467  0.3118 -0.5824 -0.4336
33564SOL    HW2 6529   7.907   7.442   3.376 -0.1163 -0.3368 -0.0903
33565SOL     OW 6530   3.480   2.609   0.893  0.1443  0.6852  0.0666
33565SOL    HW1 6531   3.560   2.569   0.861 -0.1848 -0.1705  0.3004
33565SOL    HW2 6532   3.497   2.703   0.887  0.7535  0.5339 -0.9147
33566SOL     OW 6533   2.987   5.293   2.931 -0.4987  0.2163  0.1474
33566SOL    HW1 6534   2.958   5.368   2.982  1.3320  1.2212 -0.1803
33566SOL    HW2 6535   3.078   5.280   2.958 -0.2958 -0.8625 -0.9620
33567SOL     OW 6536   0.271   9.711  10.502  0.0568 -0.1082 -0.0559
33567SOL    HW1 6537   0.248   9.683  10.590  1.1203  2.3652  1.1022
33567SOL    HW2 6538   0.316   9.795  10.514  0.9289 -0.0504 -2.8958
33568SOL     OW 6539   3.972   6.444   0.121 -0.1359 -0.4808  0.4999
33568SOL    HW1 6540   3.983   6.531   0.083  1.0811 -0.2557  1.3138
33568SOL    HW2 6541   4.009   6.385   0.056  0.1278 -0.2784  0.4642
33569SOL     OW 6542   5.723   6.893   5.801 -0.6033  0.4540  0.2295
33569SOL    HW1 6543   5.673   6.916   5.723 -0.8952  0.9061  0.5395
33569SOL    HW2 6544   5.802   6.946   5.796 -1.0173  1.1335  0.6617
33570SOL     OW 6545   3.625  10.543   6.056 -0.3604  0.7237 -0.3098
33570SOL    HW1 6546   3.707  10.583   6.085 -0.1819  0.6837 -0.7468
33570SOL    HW2 6547   3.613  10.574   5.966  0.4627 -1.1963 -1.1360
33571SOL     OW 6548   4.007   5.130   8.833  0.5306  0.1320  0.7249
33571SOL    HW1 6549   3.920   5.165   8.817 -0.2588 -1.8090  0.5555
33571SOL    HW2 6550   4.010   5.113   8.928  0.6216 -0.0399  0.6937
33572SOL     OW 6551   2.456  10.684   9.327 -0.0280 -0.5351  0.2417
33572SOL    HW1 6552   2.540  10.688   9.282  0.9005 -1.8224  1.7723
33572SOL    HW2 6553   2.420  10.772   9.318  0.7525 -0.3548 -1.7434
33573SOL     OW 6554   5.339   2.004   9.262  0.1731 -0.4901 -0.6151
33573SOL    HW1 6555   5.416   1.949   9.274  0.0401 -0.7221 -0.8137
33573SOL    HW2 6556   5.277   1.949   9.215 -0.4110 -0.5667  0.2188
33574SOL     OW 6557  10.092   5.419   4.551  0.2678 -0.1049 -0.3373
33574SOL    HW1 6558  10.017   5.386   4.600  1.0959 -1.1555  0.2760
33574SOL    HW2 6559  10.119   5.346   4.496  0.3426  0.5339 -1.1568
33575SOL     OW 6560   0.730   4.586   5.385 -0.7889 -0.0183  0.4005
33575SOL    HW1 6561   0.738   4.566   5.479 -2.4560 -0.9983  0.3760
33575SOL    HW2 6562   0.688   4.509   5.348  0.5408  0.0169 -1.3390
33576SOL     OW 6563   1.805   1.613   4.847  0.1252  0.2142 -0.2592
33576SOL    HW1 6564   1.829   1.702   4.873  1.2565  0.0690 -0.7639
33576SOL    HW2 6565   1.839   1.557   4.916  2.9430 -0.1514 -1.7991
33577SOL     OW 6566  10.530   7.344   3.630  0.3486  0.2688  0.1152
33577SOL    HW1 6567  10.446   7.324   3.670 -0.0664 -0.1666 -0.9442
33577SOL    HW2 6568  10.557   7.263   3.588  1.1711  0.4826  0.2079
33578SOL     OW 6569  10.210   8.313   7.151 -0.2248  0.5826 -0.2648
33578SOL    HW1 6570  10.165   8.230   7.133 -0.8557  0.7658  0.4213
33578SOL    HW2 6571  10.303   8.292   7.141 -0.2366 -0.7071  1.7034
33579SOL     OW 6572   5.475   2.286   1.837  0.0225  0.8601  0.0142
33579SOL    HW1 6573   5.560   2.304   1.797 -0.6443  1.2117 -1.2979
33579SOL    HW2 6574   5.412   2.312   1.770 -1.1295  1.0326  1.1458
33580SOL     OW 6575   5.650   4.660   8.183 -0.1904  0.7400 -0.5028
33580SOL    HW1 6576   5.630   4.596   8.252 -3.1397  2.8692  0.8622
33580SOL    HW2 6577   5.744   4.651   8.168 -0.1591 -2.6066  0.8591
33581SOL     OW 6578   4.762   0.170   4.726 -0.1474  0.0172  0.1670
33581SOL    HW1 6579   4.743   0.241   4.788  0.5812  1.3335 -1.0559
33581SOL    HW2 6580   4.696   0.180   4.658  0.4375  0.0274 -0.4070
33582SOL     OW 6581   1.294   0.623   4.186  0.9192  0.4007  0.7044
33582SOL    HW1 6582   1.226   0.575   4.231  0.5172 -0.6618 -0.9405
33582SOL    HW2 6583   1.248   0.696   4.143  0.7912 -0.2827 -0.3578
33583SOL     OW 6584   7.045   9.973   4.351  0.4931  0.4416  0.4201
33583SOL    HW1 6585   6.962   9.942   4.315  0.3372  1.4881 -0.1657
33583SOL    HW2 6586   7.109   9.957   4.282  0.2649  2.0989 -0.2142
33584SOL     OW 6587   9.273  10.184   1.696 -0.4169 -0.4199  1.1331
33584SOL    HW1 6588   9.190  10.222   1.725 -0.2081 -0.8456  2.3381
33584SOL    HW2 6589   9.340  10.230   1.746  0.2426  1.0129 -0.9443
33585SOL     OW 6590   5.351   8.039   1.701 -0.5034  0.2825  0.3576
33585SOL    HW1 6591   5.375   8.130   1.719  1.2284  0.3898 -2.0145
33585SOL    HW2 6592   5.404   7.987   1.761 -1.8287  0.8012  2.0343
33586SOL     OW 6593   4.341   0.078   4.215  0.5673  0.3640 -0.1151
33586SOL    HW1 6594   4.296  -0.002   4.186  0.0117  0.5397  0.2501
33586SOL    HW2 6595   4.434   0.058   4.203  0.7345 -1.7430  3.3408
33587SOL     OW 6596   6.840   4.701   4.567 -0.1986 -0.1167  0.3153
33587SOL    HW1 6597   6.823   4.796   4.568  1.2982  0.1901  2.2240
33587SOL    HW2 6598   6.822   4.673   4.657 -1.1231 -1.7734 -0.3587
33588SOL     OW 6599   8.345   8.891   6.924 -0.1826 -0.1417 -0.0578
33588SOL    HW1 6600   8.362   8.954   6.994 -2.1497  0.6604 -0.2424
33588SOL    HW2 6601   8.409   8.821   6.939 -0.2768  0.1817  2.3045
33589SOL     OW 6602   2.515   6.973   5.432 -0.4404 -0.2649 -0.1112
33589SOL    HW1 6603   2.498   6.895   5.379  0.1285 -0.9805  0.7323
33589SOL    HW2 6604   2.594   6.951   5.482 -0.7086  0.5693  0.6959
33590SOL     OW 6605   1.719   0.636   4.754 -0.2707 -0.0558  0.4817
33590SOL    HW1 6606   1.757   0.723   4.767 -0.0963 -0.1162  0.3867
33590SOL    HW2 6607   1.706   0.601   4.842  0.3409 -0.2237  0.5103
33591SOL     OW 6608   0.854   0.301   0.193  0.3414  0.0565 -0.2506
33591SOL    HW1 6609   0.928   0.296   0.253  0.3165  1.5928 -0.0573
33591SOL    HW2 6610   0.798   0.369   0.230  0.5304  1.3523 -2.1847
33592SOL     OW 6611   1.031   9.450   8.253  0.2174 -0.3618 -0.1326
33592SOL    HW1 6612   1.006   9.383   8.316 -2.3884  0.4513 -0.1863
33592SOL    HW2 6613   1.060   9.524   8.306 -1.1697  0.0206  0.1265
33593SOL     OW 6614  10.135   9.491   1.364  0.3201  0.0341 -0.3055
33593SOL    HW1 6615  10.071   9.500   1.293  0.5241 -0.6120 -0.5820
33593SOL    HW2 6616  10.211   9.542   1.335 -0.4919  1.8254  0.5685
33594SOL     OW 6617   8.474   2.989   8.370  0.0354 -0.8297  0.2526
33594SOL    HW1 6618   8.452   2.899   8.395 -1.5342 -0.4877  0.1775
33594SOL    HW2 6619   8.398   3.040   8.395 -0.0358  0.1385 -1.7520
33595SOL     OW 6620   8.663   2.918   8.913  0.2459 -0.2344 -0.2609
33595SOL    HW1 6621   8.640   2.986   8.976  1.4418  0.3056 -0.3916
33595SOL    HW2 6622   8.647   2.835   8.959  0.9155  0.1500  0.6774
33596SOL     OW 6623   9.464   4.064   4.337 -0.3239 -0.6691 -0.0219
33596SOL    HW1 6624   9.517   4.070   4.257 -0.1615 -0.6362  0.0874
33596SOL    HW2 6625   9.387   4.118   4.319 -0.1352 -0.4021 -0.0384
33597SOL     OW 6626   8.012   3.110   7.633  0.0464  0.2500  0.2768
33597SOL    HW1 6627   7.992   3.044   7.567 -1.5458  0.5935  0.3765
33597SOL    HW2 6628   8.047   3.060   7.707  0.1121 -0.3364 -0.1457
33598SOL     OW 6629   8.577  10.532   2.975  0.1671  0.2138  0.4157
33598SOL    HW1 6630   8.649  10.595   2.964  1.3423 -0.9726  1.0069
33598SOL    HW2 6631   8.550  10.511   2.886  1.5518 -0.4123  0.1203
33599SOL     OW 6632   3.261   5.713   1.508 -0.4911 -0.3865  0.3878
33599SOL    HW1 6633   3.223   5.725   1.595  0.1393 -0.2489  0.6490
33599SOL    HW2 6634   3.329   5.647   1.521  1.6561  1.7752  0.6251
33600SOL     OW 6635   1.244   3.128   1.685  0.3458 -0.1243  0.0018
33600SOL    HW1 6636   1.237   3.221   1.664 -0.7495  0.1342  1.3212
33600SOL    HW2 6637   1.237   3.084   1.600  2.7027  0.9991 -0.8672
33601SOL     OW 6638   9.755   8.305   1.148  0.4790 -0.0427  0.4014
33601SOL    HW1 6639   9.815   8.246   1.194 -0.7804 -0.9192  0.9678
33601SOL    HW2 6640   9.668   8.270   1.167 -0.2206  1.2223 -0.3753
33602SOL     OW 6641  10.638   0.877   0.562  0.0533 -0.2816 -0.0517
33602SOL    HW1 6642  10.592   0.838   0.487 -1.9366 -0.2357  1.0724
33602SOL    HW2 6643  10.655   0.968   0.536 -2.0206  0.1863  0.0737
33603SOL     OW 6644   9.573   8.520   1.190  0.5585  0.0407 -0.4428
33603SOL    HW1 6645   9.506   8.470   1.145  0.4664  0.4005 -0.7072
33603SOL    HW2 6646   9.645   8.458   1.202  0.1121 -0.3961  0.0090
33604SOL     OW 6647   1.508   8.739   9.513 -0.5614 -0.3376 -0.1527
33604SOL    HW1 6648   1.576   8.805   9.529  0.5943 -0.9139 -2.2402
33604SOL    HW2 6649   1.467   8.768   9.431 -0.1263 -2.0925 -1.0317
33605SOL     OW 6650   5.026   7.793   7.103  0.4058 -0.3429 -0.0128
33605SOL    HW1 6651   5.017   7.843   7.022 -0.0445  0.0086  0.2473
33605SOL    HW2 6652   5.037   7.859   7.172  2.1781 -0.6809  0.0592
33606SOL     OW 6653   1.750   9.584   2.609  0.0507 -0.2296 -0.2553
33606SOL    HW1 6654   1.795   9.622   2.685  0.1695 -1.3189  0.2336
33606SOL    HW2 6655   1.821   9.550   2.554 -0.0586  0.1878 -0.6611
33607SOL     OW 6656   1.990   7.618   9.577  0.2179 -0.3639  0.4976
33607SOL    HW1 6657   1.906   7.659   9.599  0.4425  0.0669  0.5719
33607SOL    HW2 6658   1.967   7.537   9.533 -0.2463 -0.9139  1.7049
33608SOL     OW 6659   7.008   2.328   1.809  0.0753  0.3154  0.3994
33608SOL    HW1 6660   7.038   2.283   1.730 -1.1393  0.0020  0.0915
33608SOL    HW2 6661   6.916   2.304   1.816 -0.0379  1.0039  1.4647
33609SOL     OW 6662   5.712   0.636   8.670 -0.1000 -0.8350 -0.3531
33609SOL    HW1 6663   5.709   0.606   8.761  1.1356  0.4159  0.1385
33609SOL    HW2 6664   5.634   0.598   8.630 -0.8466 -1.1630  1.3121
33610SOL     OW 6665   7.016   4.964   3.365  0.0538 -0.3901 -0.3148
33610SOL    HW1 6666   7.017   5.037   3.303  0.5979 -1.3674 -1.5175
33610SOL    HW2 6667   6.991   5.003   3.448  0.8674  1.2597 -0.8004
33611SOL     OW 6668   9.048   2.825   8.208  0.1151 -0.1309 -0.0637
33611SOL    HW1 6669   9.093   2.788   8.283 -0.2451 -0.5622 -0.0604
33611SOL    HW2 6670   9.042   2.919   8.227 -0.1241 -0.2647  0.5156
33612SOL     OW 6671   8.242   9.119   6.162  0.4105 -0.4407 -0.3254
33612SOL    HW1 6672   8.241   9.025   6.179  0.5506 -0.4929 -0.5978
33612SOL    HW2 6673   8.154   9.139   6.132  1.0175 -0.9459 -2.6643
33613SOL     OW 6674   7.642   4.253   6.822 -0.5560  0.1962 -0.7094
33613SOL    HW1 6675   7.590   4.227   6.898 -0.2585 -1.2280 -0.9588
33613SOL    HW2 6676   7.604   4.336   6.794  0.0511  1.3430  1.6510
33614SOL     OW 6677   6.632   9.874   2.119 -0.6479  0.2244  0.1285
33614SOL    HW1 6678   6.539   9.878   2.095 -0.7272  0.6823  0.4966
33614SOL    HW2 6679   6.669   9.808   2.061 -0.9795  0.7934 -0.7437
33615SOL     OW 6680  10.313   0.386   3.752 -0.1766  0.4266 -0.0809
33615SOL    HW1 6681  10.383   0.327   3.724 -0.7212  0.5187 -1.7957
33615SOL    HW2 6682  10.340   0.417   3.838 -0.2682 -2.9617  1.3127
33616SOL     OW 6683   2.856   7.403   7.028 -0.3118 -0.2901  0.4573
33616SOL    HW1 6684   2.906   7.322   7.028  0.6883  0.3055  0.8128
33616SOL    HW2 6685   2.896   7.456   6.959 -0.8512 -0.0344  0.3304
33617SOL     OW 6686   0.965   1.542   7.155  0.8368 -0.0201 -0.1263
33617SOL    HW1 6687   0.927   1.628   7.138  1.0969  0.1810  0.2770
33617SOL    HW2 6688   1.060   1.556   7.148  0.8522 -0.4761 -0.9649
33618SOL     OW 6689  10.693   0.012   6.981  0.2973  0.2652  0.3032
33618SOL    HW1 6690  10.777   0.034   7.022  0.2623 -0.1316  0.5879
33618SOL    HW2 6691  10.711  -0.069   6.933 -0.0295 -0.0466  0.7022
33619SOL     OW 6692   5.925   8.482   5.834  0.0443 -0.2257  1.1339
33619SOL    HW1 6693   5.874   8.560   5.858  1.9883  1.6832 -0.5537
33619SOL    HW2 6694   5.999   8.482   5.894  1.1847  0.5089 -0.2332
33620SOL     OW 6695   8.366   8.919   6.488 -0.2785  0.0590  0.0798
33620SOL    HW1 6696   8.360   8.876   6.403 -1.5212 -1.8211  1.0420
33620SOL    HW2 6697   8.277   8.914   6.524  0.2720  0.5441  1.5990
33621SOL     OW 6698   7.334   4.718  10.497  0.0533  0.1086 -0.0685
33621SOL    HW1 6699   7.356   4.695  10.406  0.2687 -2.4977  0.5593
33621SOL    HW2 6700   7.419   4.731  10.539  0.0722 -1.2299  0.3301
33622SOL     OW 6701  10.648   3.611   3.582  0.0169  0.0905 -0.0217
33622SOL    HW1 6702  10.722   3.550   3.578 -0.3025 -0.3899  1.0328
33622SOL    HW2 6703  10.686   3.692   3.616  0.5110  0.6292 -1.7501
33623SOL     OW 6704   3.641   9.451   0.269  0.0823  0.2137 -0.3078
33623SOL    HW1 6705   3.607   9.374   0.316  1.4425 -1.4776 -1.9492
33623SOL    HW2 6706   3.727   9.424   0.238  0.0092  1.9062 -2.1906
33624SOL     OW 6707   4.786   7.759   5.994 -0.4029  0.2476  0.0072
33624SOL    HW1 6708   4.713   7.818   5.973  0.7959  1.8978  0.2235
33624SOL    HW2 6709   4.864   7.813   5.980  0.8492 -1.7203 -1.1208
33625SOL     OW 6710   1.087   4.366   4.600  0.2149 -0.0021 -0.0384
33625SOL    HW1 6711   1.163   4.308   4.597 -0.5941 -1.1100  0.1643
33625SOL    HW2 6712   1.033   4.331   4.671 -2.0062 -1.2501 -2.1702
33626SOL     OW 6713   9.505   3.537   5.201  0.1262  0.8833 -0.2416
33626SOL    HW1 6714   9.447   3.507   5.131  0.6659 -0.0393 -0.2986
33626SOL    HW2 6715   9.581   3.573   5.155  0.1990  0.8633 -0.1353
33627SOL     OW 6716   1.376   7.930   5.763 -0.0768  0.3567  0.5274
33627SOL    HW1 6717   1.363   7.835   5.760  2.3391 -0.0781  1.8094
33627SOL    HW2 6718   1.296   7.963   5.803 -0.8724 -1.1455  0.2802
33628SOL     OW 6719  10.056   5.131   5.710 -0.3083 -0.3073 -0.4539
33628SOL    HW1 6720  10.014   5.047   5.729  1.5566 -1.7172 -2.1306
33628SOL    HW2 6721  10.138   5.128   5.760  0.0216  0.2822 -0.9550
33629SOL     OW 6722   0.088   3.436   1.262 -0.1869  0.2338 -0.0829
33629SOL    HW1 6723   0.104   3.495   1.188 -0.4379  0.8989  0.3873
33629SOL    HW2 6724   0.003   3.463   1.296  0.4642  0.7361  1.1892
33630SOL     OW 6725   0.203   5.869   5.161  0.2028  0.7864  0.6416
33630SOL    HW1 6726   0.108   5.865   5.173 -0.0735  1.6208 -0.9278
33630SOL    HW2 6727   0.223   5.963   5.168  0.6960  0.7602 -0.2437
33631SOL     OW 6728   8.133   7.641   9.230 -0.2369 -0.7208 -0.3975
33631SOL    HW1 6729   8.089   7.617   9.148 -1.6578 -2.1390  0.6985
33631SOL    HW2 6730   8.189   7.566   9.250 -1.2763 -1.2203  0.7974
33632SOL     OW 6731   4.937   8.228   4.989  0.1726 -0.3045 -0.2467
33632SOL    HW1 6732   4.882   8.291   4.942 -0.1899 -0.5428 -0.1487
33632SOL    HW2 6733   4.973   8.279   5.062  1.5451  0.3302 -1.3372
33633SOL     OW 6734   3.709   0.761   3.920  0.6791  0.1192  0.3365
33633SOL    HW1 6735   3.736   0.670   3.908 -1.1494 -0.4010 -0.0606
33633SOL    HW2 6736   3.618   0.756   3.950  0.0273  1.8253 -1.1442
33634SOL     OW 6737   6.386   9.730   0.928  0.7513  0.3292 -0.2067
33634SOL    HW1 6738   6.381   9.675   1.007 -2.1199 -0.6774 -0.9862
33634SOL    HW2 6739   6.453   9.688   0.874 -0.3744 -1.6218 -0.1605
33635SOL     OW 6740   1.986   5.131   0.346 -0.1503 -0.0296 -0.0462
33635SOL    HW1 6741   2.072   5.113   0.308 -0.5156 -0.8788 -0.4760
33635SOL    HW2 6742   2.006   5.182   0.425  0.6337  1.5030 -1.1734
33636SOL     OW 6743   3.398   2.520   0.437 -0.0220  0.2921  0.1724
33636SOL    HW1 6744   3.486   2.559   0.436  0.6223 -1.0450 -1.5302
33636SOL    HW2 6745   3.374   2.517   0.529  2.3534 -0.5867  0.8357
33637SOL     OW 6746   5.677   9.782   0.776  0.4350 -0.3306  0.6656
33637SOL    HW1 6747   5.606   9.755   0.834 -1.9613 -0.8663 -2.2844
33637SOL    HW2 6748   5.713   9.860   0.818 -0.9405 -0.8352  2.9705
33638SOL     OW 6749   8.768   3.501   8.220 -0.0099 -0.4606  0.5204
33638SOL    HW1 6750   8.794   3.581   8.266  2.4767 -0.7068 -0.2886
33638SOL    HW2 6751   8.752   3.437   8.290  2.4993 -0.4941  1.1468
33639SOL     OW 6752   0.419   1.189   1.591  0.3514 -0.4380  0.0016
33639SOL    HW1 6753   0.443   1.163   1.680  1.6034  0.1563 -0.1436
33639SOL    HW2 6754   0.422   1.284   1.592 -1.6855 -0.3255 -0.1513
33640SOL     OW 6755   9.300   4.783   0.421  0.2944 -0.3314  0.0594
33640SOL    HW1 6756   9.272   4.835   0.346 -0.3944 -0.0589  0.4919
33640SOL    HW2 6757   9.375   4.733   0.390  0.2380  0.0529 -0.7005
33641SOL     OW 6758   8.583   0.916   5.556 -0.0324  0.1328 -0.1127
33641SOL    HW1 6759   8.611   0.991   5.608 -0.1657  1.0376 -1.3303
33641SOL    HW2 6760   8.506   0.882   5.603  0.2198  0.5516  0.6143
33642SOL     OW 6761   3.707   7.557   5.954 -0.0811 -0.2108 -0.2633
33642SOL    HW1 6762   3.789   7.556   5.905 -0.0659  0.1852 -0.2560
33642SOL    HW2 6763   3.732   7.533   6.043  0.8107  3.8897  0.8348
33643SOL     OW 6764   1.517   0.396   7.761  0.4358 -0.0435  0.0668
33643SOL    HW1 6765   1.457   0.383   7.688  0.2532 -0.6934  0.3251
33643SOL    HW2 6766   1.596   0.348   7.735  1.0802  1.3017 -0.5376
33644SOL     OW 6767   6.355   3.144   4.687  0.0020 -0.3094  0.6518
33644SOL    HW1 6768   6.379   3.188   4.605  1.8109 -1.3227  0.5814
33644SOL    HW2 6769   6.373   3.210   4.755 -0.9115  0.3172  0.3068
33645SOL     OW 6770   8.776   2.100   2.379  0.0764  0.3301 -0.4397
33645SOL    HW1 6771   8.752   2.092   2.287 -1.4171 -1.6222  0.0480
33645SOL    HW2 6772   8.732   2.026   2.422 -0.9543  2.2946  2.1776
33646SOL     OW 6773   3.146   6.280   0.900 -0.0969 -0.1270 -0.6370
33646SOL    HW1 6774   3.183   6.293   0.812 -1.3079 -0.3249 -1.2013
33646SOL    HW2 6775   3.062   6.326   0.897  0.3274  0.7756  0.7890
33647SOL     OW 6776   9.939   0.161   1.755 -0.0042 -0.4503 -0.3846
33647SOL    HW1 6777   9.893   0.180   1.672  1.2336 -0.8971 -1.1994
33647SOL    HW2 6778   9.967   0.070   1.745 -0.1785 -0.6273  0.7054
33648SOL     OW 6779   8.339   9.477   8.800  0.0949 -0.8541  0.0569
33648SOL    HW1 6780   8.414   9.418   8.789 -0.7060 -1.8907 -0.0451
33648SOL    HW2 6781   8.294   9.474   8.716 -0.8431 -1.3795  0.5606
33649SOL     OW 6782   5.310   8.691   8.166  0.8322  0.9551 -0.3049
33649SOL    HW1 6783   5.265   8.659   8.088  1.6008  1.5973 -1.0303
33649SOL    HW2 6784   5.271   8.641   8.238 -1.3252  1.8059 -0.8278
33650SOL     OW 6785   1.748   3.510   3.622 -0.2388  0.2841 -0.5318
33650SOL    HW1 6786   1.746   3.439   3.557 -1.6167  0.3321 -0.5569
33650SOL    HW2 6787   1.679   3.569   3.595  0.0101  0.9587  0.2767
33651SOL     OW 6788  10.014   2.568   5.794 -0.3422 -0.0709 -0.4790
33651SOL    HW1 6789  10.071   2.495   5.769  0.6840  0.9978 -1.4229
33651SOL    HW2 6790   9.928   2.545   5.758 -0.0362 -0.8267 -0.7386
33652SOL     OW 6791   9.216   6.127   3.496 -0.4042 -0.3931  0.1218
33652SOL    HW1 6792   9.310   6.110   3.486 -0.7393 -1.1154 -2.4885
33652SOL    HW2 6793   9.211   6.216   3.530  1.2143  0.0530 -0.7319
33653SOL     OW 6794   8.298   3.968   5.461 -0.2521 -0.2569 -0.6149
33653SOL    HW1 6795   8.208   4.001   5.462  0.6287  2.4974 -1.9484
33653SOL    HW2 6796   8.298   3.902   5.391 -1.3590 -0.7433 -0.1772
33654SOL     OW 6797   1.206   8.771   1.833 -0.0969  0.0132  0.0953
33654SOL    HW1 6798   1.236   8.705   1.896 -0.7069  1.5734  2.1152
33654SOL    HW2 6799   1.287   8.809   1.799  0.2562 -1.3400 -0.6803
33655SOL     OW 6800   9.893   3.601   1.350 -0.0654 -0.6876 -0.0664
33655SOL    HW1 6801   9.824   3.613   1.285 -1.0807  1.0652  1.2615
33655SOL    HW2 6802   9.849   3.613   1.434  1.4215 -1.8326  0.9304
33656SOL     OW 6803  10.031   2.347   3.248  0.1037 -0.4406  1.4026
33656SOL    HW1 6804  10.069   2.344   3.160  1.3152 -0.4307  1.9103
33656SOL    HW2 6805  10.077   2.278   3.296 -1.2442 -1.1169  1.7766
33657SOL     OW 6806   5.198   6.629   8.230  0.0390 -0.1969 -0.2715
33657SOL    HW1 6807   5.239   6.606   8.147  0.6395  0.2476 -0.1053
33657SOL    HW2 6808   5.267   6.616   8.295 -0.1085  0.4516  0.0216
33658SOL     OW 6809   0.872   2.431   4.485  0.1705  0.1780  0.0499
33658SOL    HW1 6810   0.801   2.495   4.488 -0.1404 -0.0344 -1.5391
33658SOL    HW2 6811   0.855   2.381   4.405  0.7302 -1.5294  0.9567
33659SOL     OW 6812   1.294  10.258   6.239 -0.2610 -0.0731  0.0463
33659SOL    HW1 6813   1.381  10.219   6.246 -0.3201 -0.5186 -1.4169
33659SOL    HW2 6814   1.234  10.188   6.265 -0.2589 -0.2814 -0.5040
33660SOL     OW 6815   2.403   2.179  10.567  0.0156 -0.2320 -0.1736
33660SOL    HW1 6816   2.432   2.268  10.584 -1.9261  0.3548  0.2670
33660SOL    HW2 6817   2.467   2.124  10.612  0.0429  1.0160  1.3867
33661SOL     OW 6818   1.022   1.286   5.775 -0.0645  0.3545 -0.2904
33661SOL    HW1 6819   1.030   1.381   5.771  0.3010  0.3776  0.6296
33661SOL    HW2 6820   0.967   1.270   5.852  0.8267 -0.2037  0.2564
33662SOL     OW 6821   9.088   9.709   7.717  0.3625 -0.2212  0.8088
33662SOL    HW1 6822   9.142   9.728   7.640  0.5914  1.1960  1.2812
33662SOL    HW2 6823   9.127   9.761   7.787 -0.1541 -1.0890  1.7681
33663SOL     OW 6824   7.946   0.425   2.180  0.3168 -0.2954  0.4494
33663SOL    HW1 6825   7.992   0.372   2.114  1.7813 -0.6810  1.7046
33663SOL    HW2 6826   7.984   0.512   2.171 -1.6233  0.4695 -1.1670
33664SOL     OW 6827   5.141   5.274   3.304  0.5766  0.3763 -0.7555
33664SOL    HW1 6828   5.134   5.258   3.209  0.7749  0.5147 -0.7957
33664SOL    HW2 6829   5.105   5.195   3.344 -2.8926  1.7195 -0.8963
33665SOL     OW 6830   7.414   9.017   3.484  0.1644 -0.0014 -0.2038
33665SOL    HW1 6831   7.408   9.023   3.579 -0.2500  1.3438 -0.2968
33665SOL    HW2 6832   7.488   9.073   3.461  0.7299 -0.9001 -0.6261
33666SOL     OW 6833   8.672   3.233   0.190 -0.0168  0.4836 -0.6949
33666SOL    HW1 6834   8.598   3.231   0.129  0.1560  1.7501 -0.9577
33666SOL    HW2 6835   8.633   3.257   0.274 -0.1387 -0.5051 -0.4573
33667SOL     OW 6836  10.284   2.826   7.347  0.3953 -0.0143  0.6367
33667SOL    HW1 6837  10.287   2.731   7.336  2.8842 -0.0213  0.9172
33667SOL    HW2 6838  10.332   2.843   7.428  3.1366  1.6664 -1.1895
33668SOL     OW 6839   7.045   3.704   6.174 -0.4146 -0.5593 -0.1794
33668SOL    HW1 6840   7.025   3.731   6.264 -1.8228 -1.1895 -0.2768
33668SOL    HW2 6841   6.960   3.678   6.137  0.1202 -0.2091 -1.7339
33669SOL     OW 6842   4.385   9.494   1.222  0.2251 -0.0270  0.2962
33669SOL    HW1 6843   4.303   9.459   1.257 -0.0095 -0.9903 -1.1610
33669SOL    HW2 6844   4.451   9.474   1.289 -0.3546 -1.1010  0.5557
33670SOL     OW 6845   0.445   2.033   1.962  0.6663 -0.1790 -0.4625
33670SOL    HW1 6846   0.365   2.032   2.013 -1.1716  0.4753 -3.0950
33670SOL    HW2 6847   0.452   1.945   1.925 -1.0910  0.7375 -3.2722
33671SOL     OW 6848   8.530   0.210   4.065 -0.2418  0.2019 -0.2750
33671SOL    HW1 6849   8.504   0.302   4.071  1.5170  0.6897  0.8982
33671SOL    HW2 6850   8.608   0.204   4.120  0.2473 -1.7943 -1.0872
33672SOL     OW 6851   4.625   3.021   4.736 -0.3954 -0.2600 -0.4247
33672SOL    HW1 6852   4.670   3.017   4.652 -1.9892 -0.6811 -1.2943
33672SOL    HW2 6853   4.532   3.029   4.714 -0.9279 -1.1307  1.2734
33673SOL     OW 6854   3.621   2.833   9.244 -0.1432 -0.1205 -0.5346
33673SOL    HW1 6855   3.539   2.843   9.196  0.0465  0.2082 -0.7917
33673SOL    HW2 6856   3.640   2.739   9.239 -0.7411 -0.2758 -0.0715
33674SOL     OW 6857   6.208   3.263   0.757 -0.0163 -0.6140  0.4090
33674SOL    HW1 6858   6.210   3.334   0.694  0.4685 -3.1278 -2.6563
33674SOL    HW2 6859   6.123   3.221   0.744 -0.2674 -0.7124  2.1060
33675SOL     OW 6860   1.781   0.838   6.395  0.3149 -0.1953 -0.0031
33675SOL    HW1 6861   1.718   0.905   6.419  0.7723 -0.3798  1.9113
33675SOL    HW2 6862   1.831   0.876   6.322 -0.2968  0.9938  0.1810
33676SOL     OW 6863   8.389   4.781   8.622  0.1114  0.4857  0.3794
33676SOL    HW1 6864   8.413   4.689   8.635  1.2404  1.0277  2.7262
33676SOL    HW2 6865   8.452   4.813   8.557 -0.9967 -0.6137 -1.3083
33677SOL     OW 6866   3.004   5.074   6.411 -0.3159 -1.0283 -0.1764
33677SOL    HW1 6867   3.013   5.067   6.506 -2.6905 -3.0950  0.0127
33677SOL    HW2 6868   2.910   5.081   6.397 -0.4543 -4.7687 -2.4500
33678SOL     OW 6869   0.460   5.493   9.139 -0.0702  0.5389  0.2422
33678SOL    HW1 6870   0.470   5.401   9.115 -0.0426  0.6841 -0.3148
33678SOL    HW2 6871   0.458   5.493   9.235  1.9904  0.1612  0.3302
33679SOL     OW 6872   0.998   7.437   3.872 -0.0277 -0.0487 -0.1545
33679SOL    HW1 6873   0.993   7.463   3.964 -1.1604  1.4006 -0.5966
33679SOL    HW2 6874   1.048   7.506   3.830 -0.5930 -0.0501 -0.8422
33680SOL     OW 6875   6.176   7.594   0.667 -0.3540  0.1752  0.5994
33680SOL    HW1 6876   6.140   7.544   0.594 -0.3494 -1.2339  1.5098
33680SOL    HW2 6877   6.259   7.628   0.635 -1.0609  0.8955 -0.5392
33681SOL     OW 6878   2.198   1.401   3.915  0.0438 -0.5497  0.1352
33681SOL    HW1 6879   2.173   1.404   3.822  0.4771 -0.8929  0.0029
33681SOL    HW2 6880   2.115   1.394   3.961 -0.2886  1.3875 -0.1138
33682SOL     OW 6881   4.869   9.325   7.715 -0.4313 -0.4859 -0.3938
33682SOL    HW1 6882   4.828   9.240   7.701  0.5718 -0.9014 -0.9112
33682SOL    HW2 6883   4.963   9.307   7.710 -0.2000  0.5940 -0.1618
33683SOL     OW 6884   4.199   6.492   1.928 -0.9386  0.8313  0.3305
33683SOL    HW1 6885   4.231   6.565   1.981  0.9359  0.2931  0.0286
33683SOL    HW2 6886   4.235   6.414   1.971 -3.7605 -0.0666  1.2563
33684SOL     OW 6887   3.598   7.773   1.377  0.3351 -0.0879 -0.2673
33684SOL    HW1 6888   3.644   7.805   1.299 -2.2993  1.2653 -1.4149
33684SOL    HW2 6889   3.600   7.678   1.369  1.1875  0.0034 -1.3311
33685SOL     OW 6890   9.892   6.912   9.547  0.0708 -0.5632 -0.2719
33685SOL    HW1 6891   9.844   6.834   9.575  1.3677 -0.9476  0.9662
33685SOL    HW2 6892   9.837   6.950   9.478 -1.0179 -2.0669 -0.2816
33686SOL     OW 6893   4.326   4.628   5.210 -0.2553 -0.8020  0.1397
33686SOL    HW1 6894   4.350   4.609   5.119 -0.4841 -1.2874  0.1776
33686SOL    HW2 6895   4.238   4.667   5.203 -0.5650 -1.4743  0.1997
33687SOL     OW 6896   3.515   3.553   9.977  0.2936  0.2428  0.0749
33687SOL    HW1 6897   3.486   3.483  10.035  0.1267  0.7734  0.6548
33687SOL    HW2 6898   3.554   3.509   9.901 -1.5439 -0.5024 -0.4821
33688SOL     OW 6899   8.638   7.788   9.115  0.1509 -0.2238 -0.6425
33688SOL    HW1 6900   8.722   7.820   9.148 -1.7742  1.8143  2.9345
33688SOL    HW2 6901   8.626   7.703   9.158 -0.2620  0.2012  0.0941
33689SOL     OW 6902   5.797   6.339   3.366 -0.3739  0.0837 -0.0800
33689SOL    HW1 6903   5.828   6.352   3.277  2.0488  1.4202  0.8605
33689SOL    HW2 6904   5.804   6.245   3.381  0.1817 -0.0287 -0.9768
33690SOL     OW 6905   3.362   3.456   2.746  0.1430  0.0286 -0.6833
33690SOL    HW1 6906   3.361   3.540   2.794 -1.9831  0.8989 -2.0975
33690SOL    HW2 6907   3.453   3.426   2.752  0.7567  1.9475  0.6952
33691SOL     OW 6908   8.052   2.064   7.544 -0.1982 -0.0210  0.4227
33691SOL    HW1 6909   8.036   2.061   7.450 -2.2972 -2.6057  0.7155
33691SOL    HW2 6910   8.123   2.001   7.559  0.1356  0.3864  0.5673
33692SOL     OW 6911   2.503   1.235   0.346  0.3617 -0.3650  0.4522
33692SOL    HW1 6912   2.449   1.314   0.338  0.9604  0.0647  0.6451
33692SOL    HW2 6913   2.439   1.164   0.357 -0.4166 -0.4627 -3.2529
33693SOL     OW 6914   2.604   5.891   2.108 -0.5777  0.6303 -0.9012
33693SOL    HW1 6915   2.567   5.968   2.152 -1.3517 -0.1108 -0.1962
33693SOL    HW2 6916   2.694   5.886   2.139 -1.6683 -1.1472  2.5789
33694SOL     OW 6917   6.764   2.453   5.186 -0.5632 -0.1098 -0.1941
33694SOL    HW1 6918   6.802   2.407   5.261 -0.9234  2.5177  1.7366
33694SOL    HW2 6919   6.838   2.494   5.142 -0.4921 -0.5185 -0.4579
33695SOL     OW 6920   4.011   5.692   2.277 -0.2225 -0.3938  0.1866
33695SOL    HW1 6921   4.042   5.692   2.187 -0.6786  0.6354  0.0208
33695SOL    HW2 6922   3.934   5.748   2.276 -0.9893 -1.3853  0.9655
33696SOL     OW 6923   4.850   0.801   4.376 -0.5545 -0.0354  0.2354
33696SOL    HW1 6924   4.911   0.871   4.352 -0.5804  0.6573  2.0664
33696SOL    HW2 6925   4.893   0.721   4.347 -0.3732  0.6822 -1.6072
33697SOL     OW 6926   3.420   0.857   7.221 -0.0237 -0.4759  0.0796
33697SOL    HW1 6927   3.497   0.864   7.166 -1.3521 -2.6665 -2.2814
33697SOL    HW2 6928   3.451   0.817   7.302  1.5128  0.0209 -0.2400
33698SOL     OW 6929   3.682   0.833   1.141 -0.4234  0.0359 -0.0016
33698SOL    HW1 6930   3.764   0.846   1.093  1.2927 -3.6717  1.5631
33698SOL    HW2 6931   3.620   0.803   1.074  0.8953 -1.6510 -0.5218
33699SOL     OW 6932   1.772   5.543   8.670  0.1428 -0.1258  0.4475
33699SOL    HW1 6933   1.687   5.554   8.630 -0.4640 -0.9604  1.4361
33699SOL    HW2 6934   1.827   5.505   8.601 -0.6655 -0.8475  0.1843
33700SOL     OW 6935   5.217  10.719   4.503 -0.3670  0.1291  0.1744
33700SOL    HW1 6936   5.151  10.693   4.567 -1.4844 -0.3226 -1.1197
33700SOL    HW2 6937   5.277  10.644   4.500  0.1709  0.4932  1.2667
33701SOL     OW 6938   3.821   5.963   9.386 -0.0352  0.1237  0.4095
33701SOL    HW1 6939   3.782   5.914   9.314  1.4896 -1.8021  0.7908
33701SOL    HW2 6940   3.819   5.903   9.460 -0.3064  1.5531  1.6153
33702SOL     OW 6941   8.122   7.711   6.196 -0.2089  0.0770  0.1977
33702SOL    HW1 6942   8.136   7.780   6.262 -0.4663 -1.0564  1.4894
33702SOL    HW2 6943   8.030   7.685   6.208  0.2786 -1.4971  0.7714
33703SOL     OW 6944  10.628   2.693   6.844  0.0410 -0.7957  0.0981
33703SOL    HW1 6945  10.641   2.763   6.780  0.2580 -0.4765  0.4941
33703SOL    HW2 6946  10.711   2.687   6.890  0.1121 -1.4879 -0.1036
33704SOL     OW 6947   6.985   1.938   7.114 -0.0146 -0.5400  0.2485
33704SOL    HW1 6948   6.930   1.875   7.068  0.3188  0.3932 -1.5332
33704SOL    HW2 6949   6.956   2.023   7.081  1.6165  0.0489  0.2436
33705SOL     OW 6950   8.958   9.806   6.071  0.0895  0.0454  0.0532
33705SOL    HW1 6951   8.984   9.896   6.090 -2.8941  1.4543 -1.8123
33705SOL    HW2 6952   8.876   9.814   6.021 -0.1544 -3.7070 -0.4670
33706SOL     OW 6953   4.404   2.124   7.691 -0.2000  0.4791 -0.2445
33706SOL    HW1 6954   4.466   2.094   7.624  0.3667  1.0244  0.0236
33706SOL    HW2 6955   4.426   2.073   7.769 -0.8049 -0.0963 -0.4519
33707SOL     OW 6956   2.671  10.491   2.625 -0.2226 -0.0386 -0.1852
33707SOL    HW1 6957   2.733  10.563   2.627 -0.5930  0.3308 -1.3730
33707SOL    HW2 6958   2.679  10.451   2.712  0.0867  1.3283  0.4472
33708SOL     OW 6959   8.880   5.691   3.898  0.4519 -0.0650  0.3915
33708SOL    HW1 6960   8.875   5.783   3.870 -1.0017 -0.2364 -0.0080
33708SOL    HW2 6961   8.912   5.644   3.822 -0.4554 -0.1021  0.0183
33709SOL     OW 6962   1.597   2.881   7.025 -0.2258  0.3945  0.0732
33709SOL    HW1 6963   1.590   2.879   6.929  0.8674  1.4054 -0.0581
33709SOL    HW2 6964   1.507   2.879   7.056 -0.6578  1.3699 -1.0267
33710SOL     OW 6965   1.787   8.097   8.208  0.2750 -0.4450 -0.3235
33710SOL    HW1 6966   1.844   8.171   8.228 -0.1189 -0.1557 -0.2674
33710SOL    HW2 6967   1.723   8.096   8.279 -0.3634 -0.1894 -0.8859
33711SOL     OW 6968   6.413   6.479   6.113 -0.3401 -0.4193 -0.7434
33711SOL    HW1 6969   6.395   6.419   6.040 -1.5963  1.3116 -1.9402
33711SOL    HW2 6970   6.506   6.499   6.105 -0.3511 -0.6449 -1.5763
33712SOL     OW 6971   9.534   9.782   7.700  0.6234  0.0032 -0.0233
33712SOL    HW1 6972   9.464   9.784   7.766  0.3817  0.3564 -0.2917
33712SOL    HW2 6973   9.601   9.841   7.734  1.0912 -0.8228  0.5542
33713SOL     OW 6974   3.145   7.711  10.087  0.0085  0.1357  0.4725
33713SOL    HW1 6975   3.205   7.769  10.040  1.5129  0.0325  2.1770
33713SOL    HW2 6976   3.192   7.628  10.094 -1.3308 -0.7255 -0.2180
33714SOL     OW 6977   7.716   8.313   5.863  0.1372  0.4190  0.0828
33714SOL    HW1 6978   7.733   8.399   5.901 -0.2680  1.5711 -2.2205
33714SOL    HW2 6979   7.773   8.309   5.786  0.0522 -1.3389  0.0710
33715SOL     OW 6980   2.026   4.923   8.793 -0.1012 -0.3697  0.2380
33715SOL    HW1 6981   2.106   4.912   8.846  0.6284  2.7834  0.0008
33715SOL    HW2 6982   1.968   4.973   8.850 -0.2419  0.9763 -1.0418
33716SOL     OW 6983   1.667   5.138   1.310  0.7573 -0.6934 -0.1915
33716SOL    HW1 6984   1.579   5.104   1.291 -0.2588  2.3767 -1.4677
33716SOL    HW2 6985   1.653   5.208   1.373  2.1011  0.7787 -1.4614
33717SOL     OW 6986   7.778   5.629  10.109  0.3807  0.5001  0.2164
33717SOL    HW1 6987   7.718   5.680  10.053 -0.9635 -0.2854  0.9044
33717SOL    HW2 6988   7.791   5.684  10.186 -1.5917 -0.3959  1.2569
33718SOL     OW 6989   0.079   5.039  10.372  0.1216 -0.7024  0.3051
33718SOL    HW1 6990   0.062   5.033  10.278  0.6668 -1.1240  0.2299
33718SOL    HW2 6991  -0.008   5.048  10.411 -0.0434  0.6369 -0.3137
33719SOL     OW 6992   3.821   6.251   0.418  0.3016 -0.0495 -0.0879
33719SOL    HW1 6993   3.730   6.235   0.394  0.4988  1.0032 -1.7052
33719SOL    HW2 6994   3.867   6.171   0.394  0.1337  0.2223 -1.4220
33720SOL     OW 6995   0.829  10.419   2.718  0.4036  0.0719 -0.2238
33720SOL    HW1 6996   0.860  10.391   2.804 -0.5937  0.2179  0.2031
33720SOL    HW2 6997   0.888  10.377   2.656  0.8960 -0.3574  0.5204
33721SOL     OW 6998   8.194  10.482   0.559  0.3658  0.1914  0.0614
33721SOL    HW1 6999   8.171  10.400   0.603  0.7608 -0.0026 -0.0864
33721SOL    HW2 7000   8.271  10.460   0.506  1.4454  1.0503  1.2267
33722SOL     OW 7001   8.487   3.902   5.995  0.3645 -0.1686  0.1061
33722SOL    HW1 7002   8.499   3.926   5.903  0.0644 -0.1644  0.0669
33722SOL    HW2 7003   8.554   3.835   6.011 -1.2324 -2.0894 -0.8350
33723SOL     OW 7004   2.196   7.761   4.671  0.0268  0.1068  0.0195
33723SOL    HW1 7005   2.245   7.832   4.712  1.1000 -0.4569 -0.2438
33723SOL    HW2 7006   2.110   7.798   4.652  0.9078  1.6959 -1.1130
33724SOL     OW 7007   3.490  10.724   3.366 -0.2942 -0.1889 -0.1896
33724SOL    HW1 7008   3.514  10.689   3.452 -1.7078 -0.5290  0.0965
33724SOL    HW2 7009   3.464  10.814   3.384 -3.0143 -0.9585  0.2381
33725SOL     OW 7010   9.921  10.311   5.031  0.0492  0.4469  0.0259
33725SOL    HW1 7011  10.011  10.331   5.005  0.0080 -0.4106 -0.8139
33725SOL    HW2 7012   9.930  10.249   5.103  0.1323  0.8460  0.3629
33726SOL     OW 7013   2.619   3.165   4.028 -0.3905  0.2205 -0.8580
33726SOL    HW1 7014   2.652   3.092   4.081  1.6907  0.4031 -1.8094
33726SOL    HW2 7015   2.535   3.187   4.068  0.6660 -0.1979  1.8536
33727SOL     OW 7016   6.104   8.898   7.722 -0.2798 -0.1589  0.1405
33727SOL    HW1 7017   6.155   8.818   7.733  2.7377  1.8286  2.2865
33727SOL    HW2 7018   6.085   8.902   7.628  2.2247 -1.8356 -0.5357
33728SOL     OW 7019   2.010   7.484   1.515 -0.3146 -0.3924  0.0822
33728SOL    HW1 7020   2.009   7.523   1.428  0.6958 -0.3990  0.0577
33728SOL    HW2 7021   2.103   7.471   1.535 -0.2483  2.5607  2.4370
33729SOL     OW 7022   9.407   3.758   2.276 -0.0555 -0.4602 -0.2511
33729SOL    HW1 7023   9.364   3.694   2.219 -0.2900 -1.4775  1.0315
33729SOL    HW2 7024   9.363   3.841   2.255 -0.5807 -0.9252 -1.0817
33730SOL     OW 7025  10.307   9.980  10.317 -0.0152  0.2015 -0.0282
33730SOL    HW1 7026  10.390  10.016  10.349 -0.2271 -0.1649  0.9790
33730SOL    HW2 7027  10.243  10.005  10.383 -0.7706  0.6997 -0.9211
33731SOL     OW 7028   9.726   2.464   5.400  0.1187 -0.3060  0.3366
33731SOL    HW1 7029   9.714   2.390   5.341  0.4261 -0.2486  0.2004
33731SOL    HW2 7030   9.750   2.537   5.343 -1.7373  0.3229  0.2709
33732SOL     OW 7031   4.145   3.346   7.637 -0.6011  0.1155 -0.0593
33732SOL    HW1 7032   4.105   3.409   7.577 -0.9322  0.3029  0.3567
33732SOL    HW2 7033   4.235   3.377   7.648 -0.2169 -0.4986 -1.2667
33733SOL     OW 7034   1.671   0.896   4.454  0.1894 -0.0259  0.3463
33733SOL    HW1 7035   1.606   0.955   4.493  1.6993  1.4225  0.8120
33733SOL    HW2 7036   1.722   0.864   4.528 -0.8911 -2.3757  0.1495
33734SOL     OW 7037   5.187   3.052   9.345 -0.3187  0.0253 -0.6395
33734SOL    HW1 7038   5.277   3.026   9.328  0.2183  0.2204  1.6397
33734SOL    HW2 7039   5.134   2.978   9.314  0.8584 -1.6050  1.0048
33735SOL     OW 7040   6.151   0.395   2.781  0.0997 -0.0063  0.6489
33735SOL    HW1 7041   6.129   0.346   2.861  0.8249  1.1768  1.6167
33735SOL    HW2 7042   6.237   0.361   2.756  0.1686  0.0865  0.7577
33736SOL     OW 7043   7.350   7.678   3.968 -0.8060  0.7965  0.2870
33736SOL    HW1 7044   7.264   7.683   4.011 -0.1161 -0.9786  2.0313
33736SOL    HW2 7045   7.345   7.598   3.915 -0.0094  0.2620  0.9969
33737SOL     OW 7046   8.880   0.865   8.020  0.2466 -0.0165 -0.6779
33737SOL    HW1 7047   8.859   0.892   8.110 -0.1424 -0.5622 -0.5985
33737SOL    HW2 7048   8.970   0.831   8.026  0.6997  1.1396 -0.7590
33738SOL     OW 7049   0.762   8.887   8.076 -0.1099 -0.2718 -0.6310
33738SOL    HW1 7050   0.714   8.825   8.020  0.8728 -2.4219  0.7483
33738SOL    HW2 7051   0.817   8.936   8.016 -2.6854  1.0587 -2.0583
33739SOL     OW 7052   0.356   6.138   3.356  0.3794  0.1215 -0.3207
33739SOL    HW1 7053   0.296   6.119   3.284  1.0241 -0.5496 -0.6936
33739SOL    HW2 7054   0.439   6.161   3.314  0.8969 -0.7188  0.1978
33740SOL     OW 7055   2.983   6.971   8.079  0.1160  0.0905 -0.1459
33740SOL    HW1 7056   3.056   6.926   8.038 -1.6934 -1.3407 -2.0017
33740SOL    HW2 7057   2.939   6.904   8.132 -1.0652  0.3245 -0.7843
33741SOL     OW 7058   5.104   6.009   4.164 -0.2417  0.0055 -0.2412
33741SOL    HW1 7059   5.100   5.968   4.250 -0.4589 -1.0172 -0.7165
33741SOL    HW2 7060   5.152   5.946   4.110 -2.5739 -0.7728 -1.5724
33742SOL     OW 7061   2.107   5.814  10.330  0.1590  0.0208 -0.0730
33742SOL    HW1 7062   2.029   5.845  10.375 -0.6855 -2.6208  0.4936
33742SOL    HW2 7063   2.102   5.853  10.243 -0.6690  1.5327  0.6206
33743SOL     OW 7064   2.182   2.364   1.348 -0.4945 -0.4057  0.2696
33743SOL    HW1 7065   2.237   2.307   1.294 -0.4764 -0.4275  0.3108
33743SOL    HW2 7066   2.104   2.379   1.295 -0.0826  0.3206 -0.1515
33744SOL     OW 7067   4.221   9.471   4.961  0.0570 -0.2777  0.1755
33744SOL    HW1 7068   4.305   9.480   4.915 -0.6035  0.6255 -0.9135
33744SOL    HW2 7069   4.161   9.436   4.895 -1.4268  2.9634 -0.3900
33745SOL     OW 7070   7.118   0.659   6.542  0.0088 -0.3139  0.5145
33745SOL    HW1 7071   7.171   0.697   6.612 -1.4970  1.1289  0.9247
33745SOL    HW2 7072   7.039   0.627   6.586 -1.4237  1.5257 -0.5875
33746SOL     OW 7073   9.127   7.003   7.223 -0.3319  0.1002  0.0605
33746SOL    HW1 7074   9.108   7.093   7.252 -0.3097  0.3934 -0.8123
33746SOL    HW2 7075   9.118   7.006   7.128  2.0028 -0.2541 -0.2263
33747SOL     OW 7076   9.096   8.081   1.345 -0.5416  0.5747  0.2184
33747SOL    HW1 7077   9.108   8.161   1.397  1.1984  1.0190 -0.7776
33747SOL    HW2 7078   9.038   8.026   1.398 -1.2100  2.2077  1.2462
33748SOL     OW 7079   5.332   0.977   6.750  0.2703 -0.7232 -0.3411
33748SOL    HW1 7080   5.263   1.041   6.733  0.3798 -0.2467  0.8531
33748SOL    HW2 7081   5.386   0.978   6.671  0.8917  1.5017  0.0256
33749SOL     OW 7082   6.006   8.875   1.064 -0.4860 -0.3024 -0.0572
33749SOL    HW1 7083   5.923   8.915   1.038  0.1843  0.1503 -1.6575
33749SOL    HW2 7084   6.059   8.948   1.097 -0.7355 -0.6070  1.0697
33750SOL     OW 7085  10.697   3.857  10.686  0.3506 -0.5082  0.1166
33750SOL    HW1 7086  10.746   3.874  10.606  0.7608 -0.2264  0.4236
33750SOL    HW2 7087  10.763   3.859  10.755  0.0392 -1.0081  0.4334
33751SOL     OW 7088   8.483   5.404   1.603 -0.2831  0.1151 -0.1195
33751SOL    HW1 7089   8.546   5.336   1.579  0.1022  0.5287 -0.2904
33751SOL    HW2 7090   8.530   5.458   1.667 -0.5543  0.2692 -0.0498
33752SOL     OW 7091   6.908   2.165   5.140  0.0803  0.2660 -0.6451
33752SOL    HW1 7092   6.990   2.183   5.095  0.7272 -0.5547  0.1909
33752SOL    HW2 7093   6.898   2.070   5.136  0.3417  0.1257  1.2297
33753SOL     OW 7094   6.543   5.375   9.429 -0.0444  0.2294 -0.4752
33753SOL    HW1 7095   6.510   5.298   9.383  2.8596  0.0635 -2.5164
33753SOL    HW2 7096   6.598   5.339   9.500 -0.9391  0.4828  0.3693
33754SOL     OW 7097   6.238   2.464   4.261 -0.0715  0.4332 -0.2481
33754SOL    HW1 7098   6.315   2.484   4.209  0.0343  0.9871  0.1088
33754SOL    HW2 7099   6.179   2.538   4.248 -0.3434  0.2433 -0.1383
33755SOL     OW 7100   1.790   0.687   5.759 -0.2570 -0.0615 -0.1440
33755SOL    HW1 7101   1.814   0.608   5.807 -1.0330  0.1900  0.6786
33755SOL    HW2 7102   1.872   0.718   5.720  0.1228 -1.0407 -0.1395
33756SOL     OW 7103  10.371   9.864   9.903  0.2813  0.1642  0.2895
33756SOL    HW1 7104  10.457   9.873   9.862 -0.2301  2.3098 -0.4499
33756SOL    HW2 7105  10.309   9.869   9.830 -0.5233 -1.1312  0.8332
33757SOL     OW 7106   6.335   4.122   7.583 -0.7488 -0.4176 -0.1566
33757SOL    HW1 7107   6.373   4.185   7.521  1.4736 -1.1195  0.4170
33757SOL    HW2 7108   6.335   4.039   7.536 -1.9475 -0.3813 -0.2548
33758SOL     OW 7109   4.141   9.509   6.836 -0.0143  0.2625 -0.0338
33758SOL    HW1 7110   4.064   9.466   6.873 -0.1244  0.1048 -0.4526
33758SOL    HW2 7111   4.106   9.585   6.788  0.1118  0.3327 -0.0161
33759SOL     OW 7112   9.063   0.817   2.590 -0.3319  0.3477  0.3484
33759SOL    HW1 7113   9.122   0.779   2.525  0.7920  0.6743  1.1317
33759SOL    HW2 7114   8.988   0.759   2.592  0.3177 -0.5294 -0.1226
33760SOL     OW 7115   7.367   6.241   5.470 -0.3430 -0.5459 -0.0606
33760SOL    HW1 7116   7.303   6.210   5.406  0.0527  1.0404 -1.2767
33760SOL    HW2 7117   7.449   6.247   5.422 -0.4523  2.6157 -0.0503
33761SOL     OW 7118   9.988   4.750   8.568  0.6211  0.5602 -0.1833
33761SOL    HW1 7119   9.915   4.804   8.539 -2.5353 -2.0546  2.1172
33761SOL    HW2 7120   9.984   4.672   8.514  2.3525  0.7087 -0.5875
33762SOL     OW 7121   1.352   2.749   0.077  0.7348 -0.6179  0.0461
33762SOL    HW1 7122   1.380   2.740  -0.014  2.4129 -2.5334  0.6727
33762SOL    HW2 7123   1.267   2.706   0.080  0.7181 -0.6381 -0.6100
33763SOL     OW 7124   8.572   1.125   5.728  0.5990 -0.6225 -0.3238
33763SOL    HW1 7125   8.604   1.209   5.759  1.3262 -1.5821  1.7360
33763SOL    HW2 7126   8.533   1.085   5.806 -1.5389 -1.3909 -1.7049
33764SOL     OW 7127   1.879   7.523   7.067 -0.0033 -0.2765 -0.0771
33764SOL    HW1 7128   1.872   7.429   7.051 -1.8798 -0.5332  1.8326
33764SOL    HW2 7129   1.869   7.532   7.162 -0.5903  1.9114 -0.3012
33765SOL     OW 7130   1.748   0.688   6.131 -0.7786 -0.0140 -0.0781
33765SOL    HW1 7131   1.753   0.593   6.143 -0.1426 -0.0257 -0.3972
33765SOL    HW2 7132   1.799   0.724   6.204 -0.5892  0.0654 -0.2499
33766SOL     OW 7133   1.006   3.148   3.542 -0.3062  0.3365 -0.2011
33766SOL    HW1 7134   0.961   3.109   3.467 -0.2758  1.9449 -1.1241
33766SOL    HW2 7135   1.056   3.076   3.581  0.0973 -0.4569 -2.0675
33767SOL     OW 7136   5.199   5.931   3.142  0.3526  0.1336 -0.1024
33767SOL    HW1 7137   5.148   5.957   3.065 -2.1989 -0.8703  1.1370
33767SOL    HW2 7138   5.234   6.013   3.176  1.4808  0.6079 -2.2331
33768SOL     OW 7139   4.076   0.686   3.347  0.3157  0.5255  0.1961
33768SOL    HW1 7140   4.157   0.662   3.393 -0.5177 -1.2080  0.8475
33768SOL    HW2 7141   4.079   0.634   3.266  0.4041  1.3866 -0.3709
33769SOL     OW 7142   8.653  10.366   7.941  0.2343  0.3612  0.0586
33769SOL    HW1 7143   8.639  10.374   8.036  0.5050 -1.0848  0.2379
33769SOL    HW2 7144   8.705  10.443   7.918 -1.1127  1.5535  0.7946
33770SOL     OW 7145   7.519   5.069   2.358 -0.1563  0.9045 -0.2867
33770SOL    HW1 7146   7.564   5.014   2.422  0.6966  0.6661 -1.0752
33770SOL    HW2 7147   7.427   5.065   2.384  0.0378 -0.0352  0.3010
33771SOL     OW 7148   5.951   5.692   6.382 -0.4825 -0.1129  0.4536
33771SOL    HW1 7149   5.976   5.777   6.346  3.1029 -1.1585  0.0310
33771SOL    HW2 7150   5.877   5.664   6.329  1.5468  0.5310 -3.0335
33772SOL     OW 7151   3.884   7.373   2.497 -0.1108  0.8908 -0.4984
33772SOL    HW1 7152   3.915   7.319   2.570 -1.4500 -0.5098 -0.9013
33772SOL    HW2 7153   3.842   7.448   2.538  0.9211  1.1548  0.1044
33773SOL     OW 7154   7.824   3.994  10.109 -0.0068  0.3032 -0.2553
33773SOL    HW1 7155   7.736   4.032  10.122  0.0735  0.1656  0.8363
33773SOL    HW2 7156   7.815   3.938  10.032 -1.1184 -0.4046  0.3555
33774SOL     OW 7157   8.431   7.386   0.368 -0.1207  0.2558  0.2170
33774SOL    HW1 7158   8.462   7.395   0.457 -1.9450 -0.9174  1.0421
33774SOL    HW2 7159   8.340   7.417   0.371 -0.5556 -0.8105 -0.9521
33775SOL     OW 7160   7.751   5.580   4.536 -0.3830 -0.8482  0.6279
33775SOL    HW1 7161   7.734   5.508   4.476  1.3837 -1.6296  1.0130
33775SOL    HW2 7162   7.744   5.659   4.482  1.1296 -1.5233 -0.6177
33776SOL     OW 7163   8.498   3.834   1.922  0.1829  0.3134  0.1718
33776SOL    HW1 7164   8.561   3.770   1.889  1.2275  0.8231  1.1046
33776SOL    HW2 7165   8.499   3.905   1.858 -0.5548 -0.3181 -0.5678
33777SOL     OW 7166   3.641   6.215   9.258  0.1332 -0.7028 -0.5514
33777SOL    HW1 7167   3.650   6.183   9.348  0.8535  0.3545 -0.2254
33777SOL    HW2 7168   3.562   6.174   9.225 -0.9617  0.0039  1.0686
33778SOL     OW 7169   9.909   4.031   7.794  0.1561 -0.1526 -0.2415
33778SOL    HW1 7170   9.894   4.080   7.713  0.8233  1.5051  0.5763
33778SOL    HW2 7171   9.969   3.961   7.770 -1.5194 -1.1758 -1.6460
33779SOL     OW 7172   8.627  10.235   5.898 -0.1607 -0.2653 -0.0434
33779SOL    HW1 7173   8.652  10.218   5.807  1.6153 -1.9849  0.6783
33779SOL    HW2 7174   8.539  10.271   5.893  1.1028  2.8624 -2.6109
33780SOL     OW 7175   7.919   2.131   6.492  0.2652 -0.6998  0.0367
33780SOL    HW1 7176   7.892   2.197   6.555  0.3574 -1.5443  0.9771
33780SOL    HW2 7177   7.897   2.047   6.533  0.2492 -1.2664 -1.0835
33781SOL     OW 7178   7.068   1.603   4.769  0.0906 -0.2099 -0.3515
33781SOL    HW1 7179   7.052   1.665   4.698 -0.4373  1.9314  1.5212
33781SOL    HW2 7180   7.155   1.568   4.751  0.2329  0.7608 -1.7043
33782SOL     OW 7181   6.101   4.415   9.343  0.4342 -0.0033  0.2348
33782SOL    HW1 7182   6.039   4.474   9.300 -0.2040  0.6220  1.8938
33782SOL    HW2 7183   6.075   4.328   9.314 -0.5049  0.3377  0.0056
33783SOL     OW 7184   2.126   9.812   5.794 -0.4196  0.0125 -0.5384
33783SOL    HW1 7185   2.114   9.775   5.707 -0.6333 -1.7123  0.1783
33783SOL    HW2 7186   2.218   9.796   5.816 -0.6110 -0.4665 -0.0613
33784SOL     OW 7187   5.610   1.236   6.638  0.7706 -0.2042 -0.1735
33784SOL    HW1 7188   5.612   1.237   6.542 -1.5653 -0.4304 -0.2750
33784SOL    HW2 7189   5.653   1.318   6.663 -1.3109  1.4315 -1.5615
33785SOL     OW 7190   6.950   3.576   4.231  0.2147  0.6934  0.2801
33785SOL    HW1 7191   6.937   3.506   4.294 -0.5362  1.0459  0.5216
33785SOL    HW2 7192   6.935   3.535   4.146  0.6031  0.3685  0.3631
33786SOL     OW 7193   7.814   5.380  10.020 -0.3224 -0.3955 -0.2492
33786SOL    HW1 7194   7.743   5.339   9.971 -0.3990 -0.3130 -0.2052
33786SOL    HW2 7195   7.784   5.469  10.037 -0.8095 -0.7819  1.0101
33787SOL     OW 7196   2.511   0.375   5.907 -0.3176  0.1981 -0.5713
33787SOL    HW1 7197   2.529   0.327   5.988  1.8738 -0.8460 -1.5918
33787SOL    HW2 7198   2.523   0.467   5.930 -0.8743  0.0112  0.5343
33788SOL     OW 7199   7.875   5.743   3.069 -0.2561  0.2795  0.2828
33788SOL    HW1 7200   7.897   5.799   2.995 -0.0731 -0.2741 -0.0889
33788SOL    HW2 7201   7.935   5.770   3.138 -2.7459  3.2776  1.4884
33789SOL     OW 7202   2.491   6.886   3.037  0.1180 -0.0521  0.1728
33789SOL    HW1 7203   2.414   6.919   2.990 -0.5671 -1.2507  0.3933
33789SOL    HW2 7204   2.514   6.955   3.099  1.0040  1.5363 -1.8411
33790SOL     OW 7205   8.559   0.002   6.546  0.5948 -0.0695 -0.0184
33790SOL    HW1 7206   8.469   0.012   6.517  1.1981 -0.0613 -2.0557
33790SOL    HW2 7207   8.555  -0.065   6.615 -0.9477 -0.0447 -0.0567
33791SOL     OW 7208   7.597   6.202   1.774  0.2985  0.1503  0.4970
33791SOL    HW1 7209   7.560   6.125   1.730  1.3875  0.0167 -0.2257
33791SOL    HW2 7210   7.692   6.190   1.767  0.4881  0.7812  1.7662
33792SOL     OW 7211   4.874   0.123   1.056  0.2214  0.0500  0.4987
33792SOL    HW1 7212   4.916   0.200   1.019  2.5152 -1.5520 -0.4274
33792SOL    HW2 7213   4.917   0.049   1.013 -0.7826 -1.7968  2.5003
33793SOL     OW 7214   8.311   2.134   6.903  0.3873  0.3355 -0.1358
33793SOL    HW1 7215   8.319   2.123   6.808 -0.1621 -0.7998 -0.0655
33793SOL    HW2 7216   8.320   2.228   6.917 -1.5352  0.7813 -1.5293
33794SOL     OW 7217   4.071  10.324  10.247  0.5846  0.2295 -0.0453
33794SOL    HW1 7218   4.039  10.253  10.303  2.1362 -1.4476 -1.1839
33794SOL    HW2 7219   4.147  10.359  10.293  1.0514 -0.2386 -0.4576
33795SOL     OW 7220   5.005   7.722   4.533 -0.0907 -0.2460  0.0462
33795SOL    HW1 7221   4.952   7.795   4.565  0.3518  0.5538 -0.9600
33795SOL    HW2 7222   5.064   7.762   4.469  0.4371 -1.4294 -0.2372
33796SOL     OW 7223   2.452   9.823   4.686 -0.4426 -0.3076 -0.0358
33796SOL    HW1 7224   2.407   9.740   4.673  0.9226 -0.8402 -1.7171
33796SOL    HW2 7225   2.516   9.806   4.755  0.1890 -0.8308 -0.7346
33797SOL     OW 7226   4.954   2.762  10.703 -0.5252 -0.3302 -0.3046
33797SOL    HW1 7227   4.886   2.807  10.752 -1.6284  0.2106 -2.2510
33797SOL    HW2 7228   5.030   2.820  10.710 -0.6514 -0.2560  0.7046
33798SOL     OW 7229   4.547   7.484   5.996 -0.5670 -0.2662 -0.0252
33798SOL    HW1 7230   4.633   7.472   6.035  0.4366  0.4273 -1.8735
33798SOL    HW2 7231   4.555   7.449   5.907 -2.5782 -1.3121  0.1479
33799SOL     OW 7232   2.371   9.091   9.576 -0.6687  0.0708 -0.1606
33799SOL    HW1 7233   2.306   9.062   9.512  0.7436 -0.1296 -1.5721
33799SOL    HW2 7234   2.389   9.012   9.628 -1.9442  0.2766  0.6477
33800SOL     OW 7235   3.955  10.182   1.425 -0.0337 -0.4356 -0.0038
33800SOL    HW1 7236   3.890  10.113   1.437 -0.4719 -0.1662 -0.7523
33800SOL    HW2 7237   4.016  10.146   1.361 -1.7674  0.8254 -2.5576
33801SOL     OW 7238   7.019  10.051   8.987 -0.3167  0.3560  0.1313
33801SOL    HW1 7239   6.998  10.112   9.058 -2.1238  0.6496 -0.6114
33801SOL    HW2 7240   7.111  10.069   8.966  0.4368 -0.1268  2.7227
33802SOL     OW 7241   6.364   9.371   2.558 -0.0236  0.5381 -0.0226
33802SOL    HW1 7242   6.369   9.359   2.653  0.6715  0.1227 -0.1051
33802SOL    HW2 7243   6.420   9.302   2.522 -1.7208 -0.4807 -0.8226
33803SOL     OW 7244   8.981  10.643   2.595  0.0908  0.5827 -0.1422
33803SOL    HW1 7245   8.976  10.729   2.637 -0.7212 -0.1049  1.2357
33803SOL    HW2 7246   8.890  10.621   2.575  0.1993 -0.3438  0.3490
33804SOL     OW 7247  10.256   4.717   3.377 -0.5320  0.1575  0.3668
33804SOL    HW1 7248  10.289   4.646   3.322 -0.7666  0.1586  0.2212
33804SOL    HW2 7249  10.334   4.764   3.406 -0.4486  2.2155 -2.6658
33805SOL     OW 7250   6.579   3.104   2.484 -0.5308 -0.7814  0.2471
33805SOL    HW1 7251   6.662   3.081   2.442  0.2277 -0.9544  1.7714
33805SOL    HW2 7252   6.582   3.199   2.494  0.9299 -0.9962  3.0025
33806SOL     OW 7253   7.076   0.519   0.213  0.6595  0.0477  0.6054
33806SOL    HW1 7254   7.133   0.448   0.182 -0.2662 -1.0036  1.2426
33806SOL    HW2 7255   7.068   0.505   0.307 -2.5717 -1.3501  0.2494
33807SOL     OW 7256   7.986   0.981   4.957 -0.5924 -0.6645  0.3230
33807SOL    HW1 7257   7.992   1.067   4.998 -0.4904 -0.5922  0.1553
33807SOL    HW2 7258   7.994   0.998   4.863  0.1565 -0.9243  0.3324
33808SOL     OW 7259   5.603   0.201   4.177  0.1056  0.1481  0.2789
33808SOL    HW1 7260   5.570   0.113   4.196  2.3345 -0.6068  0.9457
33808SOL    HW2 7261   5.629   0.198   4.085  0.6329 -0.0372  0.4355
33809SOL     OW 7262   2.641   7.016   6.982  0.0472  0.0668  0.1916
33809SOL    HW1 7263   2.668   7.088   6.925 -0.6721  0.6562  0.5778
33809SOL    HW2 7264   2.590   7.058   7.051 -0.1472 -0.7858  0.5756
33810SOL     OW 7265  10.110   7.043   9.630 -0.1691  0.3167  0.0360
33810SOL    HW1 7266  10.086   7.132   9.656  0.5684 -0.1230  2.4271
33810SOL    HW2 7267  10.026   6.996   9.627 -0.3243  0.4845  1.3344
33811SOL     OW 7268   9.476   5.560   2.422 -0.3786  0.0572  0.5262
33811SOL    HW1 7269   9.470   5.621   2.495 -1.4783  0.0358  0.4701
33811SOL    HW2 7270   9.434   5.480   2.455 -4.0696  1.0885 -1.1642
33812SOL     OW 7271   0.112   0.230   5.900  0.3014  0.2574  0.4103
33812SOL    HW1 7272   0.144   0.255   5.814 -0.3777  0.2258  0.1480
33812SOL    HW2 7273   0.066   0.307   5.933 -0.1049  0.0146  0.4196
33813SOL     OW 7274   3.603   4.910   2.858 -0.0817 -0.4155 -0.1793
33813SOL    HW1 7275   3.608   4.864   2.774  2.2388 -0.4725 -0.0717
33813SOL    HW2 7276   3.583   5.000   2.835 -0.2425 -0.5868 -0.7312
33814SOL     OW 7277   3.766   2.378   3.932 -0.1257 -0.5768 -0.8016
33814SOL    HW1 7278   3.858   2.353   3.923 -0.9552 -3.2001 -3.7235
33814SOL    HW2 7279   3.762   2.466   3.895  1.0825 -0.7489 -1.4088
33815SOL     OW 7280   1.382   4.721   7.396  0.1756  0.0964 -0.1617
33815SOL    HW1 7281   1.450   4.696   7.458 -0.3144 -0.6124  0.1051
33815SOL    HW2 7282   1.314   4.762   7.450  0.4847  1.0250 -0.4562
33816SOL     OW 7283   3.628   6.724   0.149 -0.1866 -0.3808  0.0036
33816SOL    HW1 7284   3.634   6.794   0.213 -2.8599 -1.7187  1.8837
33816SOL    HW2 7285   3.657   6.645   0.195  0.2414 -0.9881 -1.2331
33817SOL     OW 7286   6.751   3.946   0.207 -0.4549  0.0419  0.1145
33817SOL    HW1 7287   6.806   4.023   0.194 -1.0664  0.1460 -2.5180
33817SOL    HW2 7288   6.715   3.928   0.120 -1.8053 -2.1111  1.0400
33818SOL     OW 7289   2.939   6.654   3.853 -0.1677  0.4368 -0.6113
33818SOL    HW1 7290   2.967   6.723   3.794  0.0237  2.4163  1.6289
33818SOL    HW2 7291   3.013   6.593   3.856  1.3956  2.2661  0.3459
33819SOL     OW 7292   3.055   9.420   8.408  0.0070 -0.3472  0.3309
33819SOL    HW1 7293   3.017   9.339   8.443 -3.9202  0.5924 -1.2413
33819SOL    HW2 7294   3.052   9.481   8.482 -1.3989 -0.3887  0.3322
33820SOL     OW 7295   3.350   4.293   3.408  0.0964 -0.1555 -0.4314
33820SOL    HW1 7296   3.255   4.309   3.411  0.2272  0.5296  0.2733
33820SOL    HW2 7297   3.358   4.204   3.373 -0.7775  0.0496 -1.1877
33821SOL     OW 7298  10.430   2.607   1.215 -0.3350  0.5314 -0.3486
33821SOL    HW1 7299  10.464   2.595   1.304  0.0507  2.2970 -0.2035
33821SOL    HW2 7300  10.335   2.605   1.225 -0.3413 -2.3485 -0.4168
33822SOL     OW 7301   9.671   4.353   9.561  0.8111  0.2286  0.0689
33822SOL    HW1 7302   9.619   4.292   9.509  0.7128  0.1504  0.2564
33822SOL    HW2 7303   9.629   4.353   9.647  1.7979 -0.7234  0.5811
33823SOL     OW 7304   2.180   3.449   4.979 -0.0539 -0.5592  0.0803
33823SOL    HW1 7305   2.197   3.358   5.003 -0.4110 -0.7917 -0.5197
33823SOL    HW2 7306   2.241   3.500   5.032 -1.5581 -0.9672  2.3148
33824SOL     OW 7307   8.353   7.778   0.252  1.1511 -0.0955 -0.1198
33824SOL    HW1 7308   8.281   7.718   0.232  1.3758 -0.2475 -0.4946
33824SOL    HW2 7309   8.319   7.864   0.226  0.5689  0.0589  1.0720
33825SOL     OW 7310   3.092   1.917   4.780  0.7881 -0.5123 -0.2351
33825SOL    HW1 7311   3.140   1.992   4.745  1.0711 -0.6600 -0.1669
33825SOL    HW2 7312   3.057   1.948   4.864  0.9234 -0.4645 -0.1971
33826SOL     OW 7313   4.746  10.455   6.272  0.3624  0.4976 -0.2823
33826SOL    HW1 7314   4.653  10.436   6.285  0.7451 -1.4738 -0.1619
33826SOL    HW2 7315   4.786  10.441   6.358  1.5584 -4.1879 -1.3171
33827SOL     OW 7316   7.187   6.743   4.993 -0.3895 -0.3243 -0.9761
33827SOL    HW1 7317   7.281   6.726   4.990 -0.4124 -0.5154 -0.6093
33827SOL    HW2 7318   7.157   6.728   4.903 -0.1492 -0.7065 -0.9939
33828SOL     OW 7319  10.346  10.480   7.559  0.3407  0.1168 -0.4189
33828SOL    HW1 7320  10.315  10.513   7.475  0.8433 -0.6287 -0.9101
33828SOL    HW2 7321  10.403  10.407   7.537  1.0782  0.3682  0.5309
33829SOL     OW 7322   2.105   0.109   3.153  0.3851 -0.2725  0.0307
33829SOL    HW1 7323   2.095   0.103   3.248  1.2200  0.3872  0.1732
33829SOL    HW2 7324   2.060   0.189   3.128 -1.6089 -1.4709 -0.4345
33830SOL     OW 7325   6.934   1.008   6.465 -0.0307  0.3639 -0.1679
33830SOL    HW1 7326   7.024   0.986   6.441  0.2611  0.6771  0.6075
33830SOL    HW2 7327   6.903   0.933   6.516  0.3221  0.8920  0.8619
33831SOL     OW 7328   1.108   8.054   0.279 -0.2007  0.0957 -0.2811
33831SOL    HW1 7329   1.197   8.078   0.251  0.4280 -0.3497  1.2357
33831SOL    HW2 7330   1.051   8.112   0.228  1.0578  1.7910  0.1354
33832SOL     OW 7331   4.534   4.022   2.251  0.0331 -0.2303 -0.3747
33832SOL    HW1 7332   4.443   4.042   2.274  0.0210 -0.9648  0.2755
33832SOL    HW2 7333   4.585   4.075   2.312  0.0027 -1.7966  1.0939
33833SOL     OW 7334   1.911   8.810   8.384  0.3704 -0.4292 -0.0755
33833SOL    HW1 7335   1.923   8.882   8.446 -1.2354  0.0876 -0.3359
33833SOL    HW2 7336   1.979   8.746   8.409  1.1258  0.6862  0.8390
33834SOL     OW 7337   3.112   9.774   2.631 -0.2211 -0.0560  0.2846
33834SOL    HW1 7338   3.111   9.869   2.642 -0.7976  0.0127 -0.3291
33834SOL    HW2 7339   3.026   9.752   2.596  0.2269 -0.6911 -0.4649
33835SOL     OW 7340   1.593  10.490   5.760 -0.0729 -0.2862 -0.0363
33835SOL    HW1 7341   1.573  10.465   5.670 -0.7722 -0.1557  0.0725
33835SOL    HW2 7342   1.524  10.447   5.812  0.0727 -0.0091  0.3878
33836SOL     OW 7343   6.846   2.979   8.530  0.1156 -0.3472 -0.3200
33836SOL    HW1 7344   6.787   2.974   8.605  2.2297 -1.0831  1.4132
33836SOL    HW2 7345   6.797   2.939   8.458 -1.4629 -0.9699  1.0301
33837SOL     OW 7346   9.929   7.765   8.804 -0.5923  0.0603  0.5235
33837SOL    HW1 7347   9.895   7.680   8.831  0.2670 -0.7371 -0.7880
33837SOL    HW2 7348   9.957   7.752   8.713  1.0418  1.2835  0.8038
33838SOL     OW 7349   1.301   8.652   3.161  0.1736  0.1929 -0.6211
33838SOL    HW1 7350   1.299   8.567   3.116  0.3121  0.6176 -1.4385
33838SOL    HW2 7351   1.210   8.683   3.156 -0.5870 -1.2159  2.2778
33839SOL     OW 7352   8.147   7.469   6.033  0.1290 -0.3023  0.1347
33839SOL    HW1 7353   8.070   7.425   5.998 -0.0197  1.3391 -1.8117
33839SOL    HW2 7354   8.112   7.545   6.079  0.5348  0.5816 -0.9602
33840SOL     OW 7355   1.041   4.308   9.222  0.2539  0.0097  0.3599
33840SOL    HW1 7356   0.984   4.241   9.184 -0.7107  1.3606 -0.6812
33840SOL    HW2 7357   1.089   4.344   9.148  2.0568 -0.6635  1.1376
33841SOL     OW 7358   4.598   3.155   0.274  0.4459 -0.4763  0.2141
33841SOL    HW1 7359   4.636   3.169   0.361 -0.3999 -1.0737  0.7059
33841SOL    HW2 7360   4.516   3.108   0.292  0.0594 -0.2418 -0.8832
33842SOL     OW 7361   0.242   1.265   1.227  0.0455 -0.0177 -0.8736
33842SOL    HW1 7362   0.296   1.200   1.272  1.7074  3.1383  2.1866
33842SOL    HW2 7363   0.304   1.312   1.170  0.5218  2.8775  1.7848
33843SOL     OW 7364   0.844   8.086   2.506  0.0505 -0.1502 -0.2794
33843SOL    HW1 7365   0.759   8.100   2.464  1.0392 -0.4412 -2.5166
33843SOL    HW2 7366   0.904   8.143   2.458  1.2820 -0.5781  0.7050
33844SOL     OW 7367   4.156   1.780   3.161 -0.3409  0.2345 -0.5076
33844SOL    HW1 7368   4.065   1.765   3.186 -0.4916 -0.4745 -1.4387
33844SOL    HW2 7369   4.196   1.693   3.161  0.2849  0.5139 -0.3186
33845SOL     OW 7370   7.334   1.918   8.404  0.3206  0.0297 -0.0225
33845SOL    HW1 7371   7.357   2.005   8.439  0.4674 -0.2618  0.6181
33845SOL    HW2 7372   7.412   1.890   8.357  0.8082 -0.3628  0.9847
33846SOL     OW 7373   0.779   0.334   3.761  0.6492 -0.1021  0.3570
33846SOL    HW1 7374   0.796   0.342   3.667 -0.8576 -0.0228  0.0667
33846SOL    HW2 7375   0.693   0.290   3.766  0.0343  1.1686  1.6617
33847SOL     OW 7376   6.137   1.831   9.278 -1.0125  0.1250 -0.0385
33847SOL    HW1 7377   6.058   1.799   9.320 -2.1993  0.6665 -1.7468
33847SOL    HW2 7378   6.188   1.752   9.258 -0.5007 -0.1502  2.1445
33848SOL     OW 7379  10.265   4.475   1.582  0.0498 -0.0043 -0.0492
33848SOL    HW1 7380  10.214   4.490   1.661 -2.4280 -0.5371 -1.4311
33848SOL    HW2 7381  10.320   4.553   1.573 -1.7797  1.4213  0.6562
33849SOL     OW 7382   0.977   6.212   8.658  0.0553  0.1816 -0.2448
33849SOL    HW1 7383   0.978   6.307   8.672 -1.3089 -0.0477  1.8598
33849SOL    HW2 7384   1.059   6.194   8.612  0.6844  2.2762 -0.0690
33850SOL     OW 7385  10.643   2.984  10.430  0.1884 -0.8405  0.0406
33850SOL    HW1 7386  10.649   2.932  10.510 -3.6509  1.0211  1.7950
33850SOL    HW2 7387  10.695   3.062  10.448 -1.4744  0.0450  1.2744
33851SOL     OW 7388   5.065   7.841   0.168 -0.0510 -0.2062 -0.5147
33851SOL    HW1 7389   5.135   7.776   0.162 -0.5013 -0.5921 -2.1810
33851SOL    HW2 7390   4.986   7.790   0.186 -0.2161  0.0009 -0.6447
33852SOL     OW 7391   2.206   8.040   7.619  0.0108  0.3848  0.5381
33852SOL    HW1 7392   2.235   7.956   7.583 -1.9731  0.1522 -0.7015
33852SOL    HW2 7393   2.211   8.101   7.546 -1.5493  0.5644  0.5516
33853SOL     OW 7394  10.479   0.472   8.456 -0.1650  0.0113  0.8269
33853SOL    HW1 7395  10.405   0.434   8.407  0.0650  0.0931  0.4076
33853SOL    HW2 7396  10.545   0.403   8.458 -0.2591 -0.0672  1.2154
33854SOL     OW 7397   5.430   0.291   8.162  0.6736 -0.1861 -0.0380
33854SOL    HW1 7398   5.493   0.355   8.196  1.9108 -0.2547 -2.0321
33854SOL    HW2 7399   5.476   0.248   8.090 -1.1587 -1.3075 -0.6045
33855SOL     OW 7400   7.443   8.054   7.335 -0.4524  0.0102  0.4212
33855SOL    HW1 7401   7.498   8.044   7.258 -1.2011 -0.1600 -0.1073
33855SOL    HW2 7402   7.497   8.103   7.398  0.6030 -0.9111  0.2631
33856SOL     OW 7403   1.227   8.801   6.626  0.4702 -0.0588  0.3661
33856SOL    HW1 7404   1.189   8.882   6.661 -0.7989 -0.3755 -0.2111
33856SOL    HW2 7405   1.202   8.801   6.534 -0.9379 -1.8343  0.6875
33857SOL     OW 7406   0.880   4.993   9.640 -0.2444 -0.4575  0.6272
33857SOL    HW1 7407   0.876   4.965   9.549 -1.6287  0.4688  0.3720
33857SOL    HW2 7408   0.942   4.933   9.681 -0.5425 -1.6779 -0.6376
33858SOL     OW 7409   6.055   0.340   0.434  0.0083  0.0245  0.1508
33858SOL    HW1 7410   6.014   0.365   0.517  0.1435  0.1643  0.1766
33858SOL    HW2 7411   6.115   0.413   0.414  1.1373 -0.7111  0.7266
33859SOL     OW 7412   9.374   1.534   5.783 -0.0894 -0.0555 -0.2015
33859SOL    HW1 7413   9.349   1.445   5.758  1.3153 -0.8850  1.1500
33859SOL    HW2 7414   9.454   1.551   5.734 -1.2401  1.1824 -1.7594
33860SOL     OW 7415   1.998   7.279   3.712 -0.1510  0.3106 -0.1023
33860SOL    HW1 7416   2.051   7.292   3.790 -0.8783  1.5540  0.2112
33860SOL    HW2 7417   2.060   7.253   3.644  0.8280  1.5378  0.3028
33861SOL     OW 7418   3.236   1.129   8.846  0.5843 -0.2606  0.1338
33861SOL    HW1 7419   3.186   1.108   8.925  1.8776  0.0745  1.0800
33861SOL    HW2 7420   3.263   1.044   8.812 -0.6502 -0.4516 -0.4334
33862SOL     OW 7421   7.389   0.014   8.304  0.2273 -0.1705 -0.3136
33862SOL    HW1 7422   7.423  -0.038   8.376 -0.8072  0.6134  0.7818
33862SOL    HW2 7423   7.374   0.101   8.342  2.1026  1.0420 -2.1171
33863SOL     OW 7424   1.746   9.990   0.077  0.3039  0.8712  0.0259
33863SOL    HW1 7425   1.653  10.003   0.094  0.7294  2.4421  1.4689
33863SOL    HW2 7426   1.765  10.049   0.004 -0.3078 -1.4400 -2.1309
33864SOL     OW 7427   5.186   9.573  10.410 -0.1608  0.0390 -0.2896
33864SOL    HW1 7428   5.099   9.611  10.400 -0.0789  0.0170 -1.1064
33864SOL    HW2 7429   5.216   9.604  10.496 -0.2554  1.5015 -0.7606
33865SOL     OW 7430   0.741   6.014   1.322 -0.7406  0.0996 -0.2084
33865SOL    HW1 7431   0.716   5.921   1.322 -1.4467  0.2632 -1.4816
33865SOL    HW2 7432   0.796   6.023   1.244 -0.0385  0.6041  0.3365
33866SOL     OW 7433   4.891   4.636   9.173  0.0878 -0.1287 -0.3389
33866SOL    HW1 7434   4.821   4.580   9.206  0.2946 -1.2341 -1.7003
33866SOL    HW2 7435   4.907   4.605   9.084  1.1550  1.2165 -0.6492
33867SOL     OW 7436   8.278   9.176   2.885  0.1563 -0.1873 -0.4701
33867SOL    HW1 7437   8.202   9.120   2.904  0.9292 -1.3160 -0.5749
33867SOL    HW2 7438   8.242   9.249   2.835 -1.2590  0.6303  1.5698
33868SOL     OW 7439   2.437   3.134   2.681 -0.4530  0.0864 -0.0616
33868SOL    HW1 7440   2.344   3.144   2.700 -0.2419 -0.0862  1.1185
33868SOL    HW2 7441   2.466   3.064   2.739  0.6622  0.9232  0.4151
33869SOL     OW 7442   2.195   6.167   0.853  0.0632  0.0512  0.3463
33869SOL    HW1 7443   2.247   6.216   0.789 -0.6861 -0.9742 -1.1303
33869SOL    HW2 7444   2.106   6.202   0.843  0.0254  0.1981  1.1761
33870SOL     OW 7445   4.054   8.449   6.296  0.6915  0.1280 -0.2709
33870SOL    HW1 7446   4.099   8.397   6.230  1.4097  0.5609 -0.1366
33870SOL    HW2 7447   4.030   8.387   6.364  1.7272  0.0006 -0.0120
33871SOL     OW 7448   8.704   8.414   4.455  0.2656 -0.1573 -0.7317
33871SOL    HW1 7449   8.742   8.332   4.425 -0.5087 -0.6956 -0.2941
33871SOL    HW2 7450   8.696   8.403   4.550 -1.6632 -0.3888 -0.8819
33872SOL     OW 7451   3.417   2.245   6.604  0.3948 -0.0246 -0.2572
33872SOL    HW1 7452   3.444   2.271   6.692  0.6150  0.8648 -0.5830
33872SOL    HW2 7453   3.497   2.206   6.566  0.4672  0.1382 -0.2731
33873SOL     OW 7454   7.912   1.521   1.434 -0.0069 -0.4897  0.3924
33873SOL    HW1 7455   7.933   1.468   1.511 -0.9219 -0.1625  0.8868
33873SOL    HW2 7456   7.966   1.599   1.443 -0.8944  0.0515  1.3032
33874SOL     OW 7457   3.391   2.064   1.292 -0.2466 -0.3732 -0.2471
33874SOL    HW1 7458   3.451   2.124   1.335  0.4920 -2.4639  1.8342
33874SOL    HW2 7459   3.413   2.070   1.199  0.8560  1.3480  0.0939
33875SOL     OW 7460   9.570   4.610   8.912  0.0633  0.3749 -0.1222
33875SOL    HW1 7461   9.664   4.619   8.925  0.3269 -0.7261 -1.1086
33875SOL    HW2 7462   9.537   4.700   8.909  0.6588  0.7949  2.8471
33876SOL     OW 7463   6.763   8.220   1.996  0.0151  0.3152 -0.4986
33876SOL    HW1 7464   6.809   8.152   1.947 -0.0467  0.0984 -0.2576
33876SOL    HW2 7465   6.693   8.249   1.937  0.8984  1.1598 -1.1595
33877SOL     OW 7466   1.392   6.311   8.970  0.0342  0.0505  0.4971
33877SOL    HW1 7467   1.445   6.255   9.027  1.0210  0.0436 -0.3950
33877SOL    HW2 7468   1.388   6.265   8.887 -1.8446 -0.1915  0.6709
33878SOL     OW 7469   8.477   9.422   9.548  0.0611 -0.0645 -0.0152
33878SOL    HW1 7470   8.417   9.376   9.489 -0.8327 -2.1805  2.3407
33878SOL    HW2 7471   8.557   9.434   9.497 -1.0194 -0.7860 -1.9842
33879SOL     OW 7472   9.197   2.938   4.374 -0.0800 -0.2748 -0.1047
33879SOL    HW1 7473   9.193   2.897   4.288 -0.8707  0.7208 -0.5667
33879SOL    HW2 7474   9.238   3.023   4.358  3.5101 -1.5548  1.1511
33880SOL     OW 7475   2.586   0.947   9.661 -0.5942 -0.6659 -0.0286
33880SOL    HW1 7476   2.502   0.914   9.629 -0.2863 -1.3018 -0.2017
33880SOL    HW2 7477   2.652   0.897   9.612 -0.1086  0.2057 -0.2822
33881SOL     OW 7478   3.210   8.892   0.495 -0.3514 -0.2101 -0.2129
33881SOL    HW1 7479   3.265   8.862   0.423  0.6922  0.2132  0.3702
33881SOL    HW2 7480   3.159   8.815   0.521  1.7887 -1.3503  0.8465
33882SOL     OW 7481   0.337  10.086   0.132  0.1197 -0.2042 -0.1171
33882SOL    HW1 7482   0.350   9.998   0.167 -0.1561 -0.4141 -0.5279
33882SOL    HW2 7483   0.413  10.135   0.161 -0.4946 -0.1380  1.5003
33883SOL     OW 7484   7.614   1.745   7.783  0.3658  0.2006  0.1844
33883SOL    HW1 7485   7.699   1.788   7.789  0.1260  0.5117  2.3061
33883SOL    HW2 7486   7.619   1.691   7.704  2.7226 -0.2151  0.5591
33884SOL     OW 7487   9.368   3.186   3.065 -0.1363  1.0360 -0.2903
33884SOL    HW1 7488   9.456   3.158   3.094  0.2064  2.8795  0.5871
33884SOL    HW2 7489   9.315   3.107   3.074  1.0254  0.3397  0.9819
33885SOL     OW 7490   6.192   6.712   4.032  0.4030  0.0011 -0.0322
33885SOL    HW1 7491   6.180   6.803   4.005 -0.7776 -0.4860 -1.2478
33885SOL    HW2 7492   6.105   6.684   4.062  1.3256  0.0788  3.0984
33886SOL     OW 7493   5.900   9.195   5.801 -0.6813  0.0777 -0.7642
33886SOL    HW1 7494   5.959   9.152   5.739  0.0008  0.7513 -0.5984
33886SOL    HW2 7495   5.889   9.132   5.872  0.6668  0.3226 -0.3101
33887SOL     OW 7496   9.140   4.082   9.948 -0.5268 -0.2778 -0.2622
33887SOL    HW1 7497   9.107   4.034   9.872 -0.3068  0.8050 -1.0661
33887SOL    HW2 7498   9.069   4.075  10.013 -0.8576 -0.9257 -0.6814
33888SOL     OW 7499   6.265   0.399   8.670  0.0412 -0.0005  0.1569
33888SOL    HW1 7500   6.325   0.448   8.726  1.7872 -1.2942 -0.4912
33888SOL    HW2 7501   6.223   0.466   8.616 -0.0681  1.0518  1.4665
33889SOL     OW 7502  10.130   9.332   2.775  0.4682 -0.1063  0.2543
33889SOL    HW1 7503  10.122   9.344   2.870  1.1678  1.2472  0.1549
33889SOL    HW2 7504  10.159   9.241   2.765 -2.2507 -1.1648  1.1821
33890SOL     OW 7505   3.877   9.140   8.191 -0.2471 -0.0787 -0.0324
33890SOL    HW1 7506   3.845   9.230   8.188 -2.8192 -0.9222 -0.9570
33890SOL    HW2 7507   3.914   9.125   8.104 -0.9216 -0.2516 -0.2965
33891SOL     OW 7508   9.728   7.272   0.108  0.2779  0.2184 -0.4657
33891SOL    HW1 7509   9.678   7.299   0.185 -0.7745 -0.7679 -0.7563
33891SOL    HW2 7510   9.721   7.346   0.048  0.1007  0.5306 -0.0656
33892SOL     OW 7511   9.920   7.002   1.835  0.9469  0.1107 -0.3565
33892SOL    HW1 7512   9.829   6.980   1.857  1.3510 -0.6197  0.6231
33892SOL    HW2 7513   9.973   6.939   1.883  1.9520 -0.4151 -2.0703
33893SOL     OW 7514   0.609   9.365  10.297 -0.7078 -0.5479 -0.2460
33893SOL    HW1 7515   0.564   9.448  10.314  0.3854  0.3957 -1.7400
33893SOL    HW2 7516   0.646   9.341  10.382  1.3831  2.0247 -0.2834
33894SOL     OW 7517   2.184   8.286   4.773 -0.3018 -0.2011  0.1842
33894SOL    HW1 7518   2.160   8.368   4.817  0.8876 -0.4134  1.2938
33894SOL    HW2 7519   2.269   8.304   4.732  0.0035 -0.8816  0.4913
33895SOL     OW 7520   0.172   2.307   7.251  0.1025  0.1536 -0.1607
33895SOL    HW1 7521   0.244   2.368   7.237 -0.6011  0.7601 -1.2670
33895SOL    HW2 7522   0.095   2.363   7.265 -0.3014 -0.4807  0.2326
33896SOL     OW 7523   7.127   4.681   5.440  0.2133  0.6497 -0.6159
33896SOL    HW1 7524   7.113   4.678   5.345 -1.6397  1.0210 -0.3825
33896SOL    HW2 7525   7.116   4.590   5.468  1.3338  0.4370 -0.7940
33897SOL     OW 7526   5.284   5.158   2.308 -0.8037  0.0375 -0.1025
33897SOL    HW1 7527   5.356   5.213   2.339 -1.1493 -0.4487  1.7150
33897SOL    HW2 7528   5.326   5.092   2.253  0.2313 -0.4529  1.2105
33898SOL     OW 7529   6.080   3.394   2.395  0.1031 -0.3588  0.4847
33898SOL    HW1 7530   6.067   3.464   2.331  0.2856  1.1848  2.0587
33898SOL    HW2 7531   6.173   3.372   2.387  0.6581  1.3752  1.6678
33899SOL     OW 7532   9.534   3.677   0.241  0.0630  0.8214  0.0545
33899SOL    HW1 7533   9.579   3.711   0.318  1.6991  0.3089 -0.6154
33899SOL    HW2 7534   9.447   3.651   0.272 -0.1757  2.8215  1.1776
33900SOL     OW 7535   8.825   5.216   6.733 -0.1578 -0.3349  0.0213
33900SOL    HW1 7536   8.743   5.260   6.709 -0.5629 -1.1887 -0.1919
33900SOL    HW2 7537   8.837   5.237   6.825 -1.8123 -2.0045  0.6899
33901SOL     OW 7538   8.866   2.646   4.055  0.1670 -0.2314  0.0675
33901SOL    HW1 7539   8.850   2.649   3.961  1.7206  0.9530 -0.2006
33901SOL    HW2 7540   8.838   2.732   4.086  3.0052  0.8133  0.0314
33902SOL     OW 7541   2.450   1.130   1.026  0.2917 -0.1242 -0.4977
33902SOL    HW1 7542   2.431   1.207   0.972 -0.6896 -1.3570 -2.0069
33902SOL    HW2 7543   2.501   1.164   1.099  0.6382  1.8271 -1.5709
33903SOL     OW 7544   0.159  10.514   5.300 -0.0564 -0.5364 -0.1730
33903SOL    HW1 7545   0.240  10.490   5.346 -1.5741 -1.4970  2.1423
33903SOL    HW2 7546   0.106  10.434   5.301 -2.5874  1.0194  1.8470
33904SOL     OW 7547   3.536   6.814   7.637  0.1176  0.3567 -0.4875
33904SOL    HW1 7548   3.558   6.871   7.710  0.1303 -1.9988  1.5039
33904SOL    HW2 7549   3.617   6.808   7.585  1.0607 -0.1703  0.9846
33905SOL     OW 7550   1.484  10.313   4.111 -0.3782  0.1858  0.5371
33905SOL    HW1 7551   1.553  10.296   4.176 -0.2421 -2.2927 -0.1482
33905SOL    HW2 7552   1.403  10.309   4.160 -0.2011 -0.3439  0.7977
33906SOL     OW 7553   6.601   8.309   9.771 -0.0125  0.5416  0.0441
33906SOL    HW1 7554   6.549   8.271   9.842 -0.1037  1.8977  0.7198
33906SOL    HW2 7555   6.684   8.334   9.813  0.3598  0.3461 -0.5677
33907SOL     OW 7556   9.286   4.936   3.657  0.0023  0.4279 -0.1430
33907SOL    HW1 7557   9.302   5.003   3.591  3.3503  0.1603  0.2078
33907SOL    HW2 7558   9.306   4.979   3.740  2.2508 -0.8948  0.0838
33908SOL     OW 7559   4.606   3.395   1.178  0.4436 -0.4388  0.6720
33908SOL    HW1 7560   4.683   3.396   1.122 -0.0439  0.7143 -0.0166
33908SOL    HW2 7561   4.593   3.303   1.200  0.5918 -0.9486 -1.2231
33909SOL     OW 7562   1.069   2.191   5.513 -0.0115  0.0047 -0.1607
33909SOL    HW1 7563   0.974   2.192   5.504  0.0963 -0.6405 -1.5927
33909SOL    HW2 7564   1.096   2.280   5.488 -0.3036  0.6029  1.5161
33910SOL     OW 7565   6.071   3.978   0.036 -0.9250 -0.1075  0.2398
33910SOL    HW1 7566   6.051   4.043   0.104  0.1821  0.2789  0.2119
33910SOL    HW2 7567   6.118   4.027  -0.031 -0.9918 -0.7355 -0.2762
33911SOL     OW 7568   7.558   0.643   4.874  0.2180  0.4783  0.3892
33911SOL    HW1 7569   7.500   0.599   4.812  0.4958  2.6672 -1.5537
33911SOL    HW2 7570   7.516   0.727   4.891  1.5648  1.0752  0.9201
33912SOL     OW 7571   3.600   3.453   2.923  0.0611 -0.1918 -0.0386
33912SOL    HW1 7572   3.524   3.497   2.959 -0.0647  0.0255 -0.5548
33912SOL    HW2 7573   3.655   3.523   2.889 -0.4351 -0.4388 -1.4415
33913SOL     OW 7574   6.359   4.033   7.186  0.1020  0.3539  0.0654
33913SOL    HW1 7575   6.290   4.061   7.246  0.5170 -0.7371  1.1006
33913SOL    HW2 7576   6.349   4.090   7.109 -2.0232  0.1278  0.1193
33914SOL     OW 7577   1.530   1.256   1.618  0.8540 -0.0089  0.0933
33914SOL    HW1 7578   1.438   1.250   1.643  1.8269 -3.3731  3.7781
33914SOL    HW2 7579   1.538   1.196   1.543  0.4088 -1.6736  1.3313
33915SOL     OW 7580   5.146   4.833   4.800 -0.6467  0.0154 -0.1032
33915SOL    HW1 7581   5.152   4.927   4.786  0.0177 -0.1584 -1.1112
33915SOL    HW2 7582   5.054   4.811   4.783 -0.3352  0.1546 -2.2169
33916SOL     OW 7583   3.454   5.685   2.318 -0.1905  0.1152  0.6864
33916SOL    HW1 7584   3.431   5.678   2.411  0.7071  0.5681  0.9570
33916SOL    HW2 7585   3.508   5.607   2.301 -1.3517 -0.6123  0.2173
33917SOL     OW 7586   2.447   7.795   0.566 -0.0504 -0.1814  0.5817
33917SOL    HW1 7587   2.388   7.863   0.596  0.8796  1.4324 -1.0656
33917SOL    HW2 7588   2.398   7.747   0.499  0.4004  1.0885 -0.7078
33918SOL     OW 7589   8.249   8.292   0.369 -0.0594  0.0398  0.1775
33918SOL    HW1 7590   8.310   8.299   0.443 -0.2174 -1.3809  0.4631
33918SOL    HW2 7591   8.277   8.362   0.310  1.3079 -0.0177  0.6978
33919SOL     OW 7592   0.841   6.337   0.347 -0.1747 -0.3682  0.1275
33919SOL    HW1 7593   0.844   6.280   0.270 -0.2521  0.7821 -0.7554
33919SOL    HW2 7594   0.882   6.286   0.416  0.1009 -1.3443 -0.7316
33920SOL     OW 7595   0.152   9.541   6.532  0.5926 -0.3758 -0.5096
33920SOL    HW1 7596   0.132   9.630   6.560 -0.3147 -0.6945 -0.1028
33920SOL    HW2 7597   0.247   9.538   6.528  0.6495  0.4654 -0.0326
33921SOL     OW 7598   6.639   1.453   6.280 -0.3398  0.7360  0.2629
33921SOL    HW1 7599   6.645   1.372   6.331 -0.9054 -0.0820 -0.9214
33921SOL    HW2 7600   6.720   1.500   6.299  1.2384 -1.2964 -0.9883
33922SOL     OW 7601   7.040   3.329   1.582  0.0990 -0.2387  0.3127
33922SOL    HW1 7602   6.955   3.290   1.602  0.2050 -0.3218  0.6136
33922SOL    HW2 7603   7.020   3.420   1.558 -0.2079 -0.6462 -1.0437
33923SOL     OW 7604   8.561   9.368   2.497  0.8389  0.5979 -0.4436
33923SOL    HW1 7605   8.651   9.381   2.528  0.3839  0.9195  0.7803
33923SOL    HW2 7606   8.537   9.280   2.527 -0.1506  1.4987  1.6116
33924SOL     OW 7607   2.466   9.907   1.162  0.5113 -0.3579 -0.8921
33924SOL    HW1 7608   2.535   9.902   1.096  1.5696 -0.4478  0.1772
33924SOL    HW2 7609   2.504   9.866   1.239 -0.8502 -0.6331 -0.3463
33925SOL     OW 7610  10.201  10.132   2.405  0.4239  0.1002  0.2864
33925SOL    HW1 7611  10.130  10.182   2.365  2.1025  2.3227 -0.1588
33925SOL    HW2 7612  10.185  10.138   2.499  0.9918  2.2849  0.3011
33926SOL     OW 7613   5.862   5.747   5.101 -0.1740 -0.1345 -0.0867
33926SOL    HW1 7614   5.843   5.812   5.032  1.1440 -1.6734 -2.0028
33926SOL    HW2 7615   5.949   5.770   5.132 -0.3657 -0.0435  0.3921
33927SOL     OW 7616   4.531   7.778   1.478  0.2604  0.1402 -0.2088
33927SOL    HW1 7617   4.488   7.800   1.561 -0.2829 -0.6124 -0.2808
33927SOL    HW2 7618   4.460   7.775   1.414  0.4603 -0.7218 -0.4095
33928SOL     OW 7619   7.462   7.852   0.817  0.4632  0.0114 -0.2099
33928SOL    HW1 7620   7.527   7.783   0.833 -0.9316 -1.3863 -0.3978
33928SOL    HW2 7621   7.429   7.834   0.729 -1.1309 -0.1367  0.3857
33929SOL     OW 7622   8.417   3.536   3.644  0.6636 -0.6466  0.0795
33929SOL    HW1 7623   8.334   3.510   3.605  1.0425 -1.8160  0.0211
33929SOL    HW2 7624   8.479   3.535   3.571  0.4733  1.7011 -0.2051
33930SOL     OW 7625   4.302   9.611   9.525  0.8580  0.0117  0.0227
33930SOL    HW1 7626   4.350   9.669   9.584  2.2720 -0.0694 -0.9955
33930SOL    HW2 7627   4.277   9.667   9.452 -0.6063  0.0381  0.5182
33931SOL     OW 7628   7.041   9.602   0.348  0.2576  0.1887 -0.5050
33931SOL    HW1 7629   6.948   9.583   0.334  0.4085 -1.0686  0.1136
33931SOL    HW2 7630   7.087   9.547   0.284  0.5628  1.8658 -1.8256
33932SOL     OW 7631   0.250   1.223  10.151  0.2412 -0.0852 -0.2742
33932SOL    HW1 7632   0.196   1.145  10.165 -0.5219  0.6717  1.2604
33932SOL    HW2 7633   0.338   1.196  10.178 -0.1133 -0.2860  0.7186
33933SOL     OW 7634   3.018  10.283   9.772  0.4318 -0.0343  0.1170
33933SOL    HW1 7635   2.961  10.350   9.733  0.5497  0.7957  1.3145
33933SOL    HW2 7636   2.972  10.201   9.757  0.4908  0.2301 -1.7735
33934SOL     OW 7637   4.074   0.588   9.843 -0.1297  0.2064  0.3754
33934SOL    HW1 7638   4.030   0.635   9.914 -0.9400 -0.0053  0.0143
33934SOL    HW2 7639   4.071   0.648   9.769 -1.7288 -0.6204 -0.2754
33935SOL     OW 7640  10.498   3.100   3.076  0.0119 -0.0931  0.4703
33935SOL    HW1 7641  10.459   3.182   3.046  1.8576  0.5341 -0.3821
33935SOL    HW2 7642  10.532   3.119   3.163 -2.6437 -1.0367  1.8234
33936SOL     OW 7643   3.894   5.611   1.482  0.1865  0.6383  0.0341
33936SOL    HW1 7644   3.828   5.549   1.513  0.6321 -0.2715 -0.7666
33936SOL    HW2 7645   3.860   5.642   1.398 -0.7005  2.5752  1.0552
33937SOL     OW 7646   9.695   9.985   5.675  0.0376 -0.6859 -0.0718
33937SOL    HW1 7647   9.744   9.968   5.594  0.4785 -0.6174  0.1730
33937SOL    HW2 7648   9.673  10.078   5.670  0.0412 -0.6875 -0.1241
33938SOL     OW 7649   5.997   6.197   6.732 -0.0952  0.0737 -0.0677
33938SOL    HW1 7650   5.979   6.197   6.826  1.8221  0.0733  0.3506
33938SOL    HW2 7651   5.977   6.286   6.703 -1.6901 -0.2066  0.0968
33939SOL     OW 7652   7.857   3.158   9.098 -0.4716 -0.1132 -0.2714
33939SOL    HW1 7653   7.839   3.178   9.190 -0.0348  3.2836 -0.8008
33939SOL    HW2 7654   7.942   3.116   9.099 -1.6248 -2.6357  1.0179
33940SOL     OW 7655   0.745   7.313   2.585  0.3969 -0.3901  0.3970
33940SOL    HW1 7656   0.805   7.367   2.634 -0.0341 -1.9674  2.8338
33940SOL    HW2 7657   0.755   7.341   2.494  1.3895  2.5134  1.3197
33941SOL     OW 7658   6.697   6.760   0.046 -0.0071 -0.7147  0.6545
33941SOL    HW1 7659   6.729   6.753  -0.044  0.9281 -0.5317  0.9606
33941SOL    HW2 7660   6.663   6.674   0.067  1.5602 -1.3314  0.7765
33942SOL     OW 7661   0.494   3.772  10.703  0.0497  0.2604  0.1039
33942SOL    HW1 7662   0.409   3.799  10.667 -0.4048  1.3542  1.8933
33942SOL    HW2 7663   0.482   3.679  10.725 -0.3355  0.1403 -0.5655
33943SOL     OW 7664   8.711   8.743   7.833  0.4307 -0.2232 -0.1983
33943SOL    HW1 7665   8.668   8.815   7.785  0.8033  0.4293  0.4206
33943SOL    HW2 7666   8.649   8.721   7.903  2.2619  2.8458  2.6730
33944SOL     OW 7667   7.240   4.582   2.309 -0.3344  0.1637 -1.0741
33944SOL    HW1 7668   7.173   4.635   2.266 -1.1035 -1.4121 -1.8799
33944SOL    HW2 7669   7.245   4.502   2.257  0.8098 -0.5605  0.0931
33945SOL     OW 7670   5.197  10.272  10.577  0.1678  0.3222 -0.0139
33945SOL    HW1 7671   5.283  10.283  10.536 -0.0657  1.8781 -0.1473
33945SOL    HW2 7672   5.204  10.189  10.625  1.4956  0.0650 -0.6084
33946SOL     OW 7673   7.536  10.459   5.201 -0.3809 -0.8252  0.2661
33946SOL    HW1 7674   7.566  10.518   5.132  0.3775 -1.1885  0.2688
33946SOL    HW2 7675   7.589  10.379   5.189 -1.2274 -1.4185  0.4038
33947SOL     OW 7676  10.040   1.554   6.023 -0.4647 -0.2132  0.1802
33947SOL    HW1 7677   9.987   1.486   5.982  0.5615 -1.5981  1.0386
33947SOL    HW2 7678  10.108   1.505   6.070  1.2528  1.4579 -0.4541
33948SOL     OW 7679   6.276   2.484   3.089  0.2912  0.3097 -0.4979
33948SOL    HW1 7680   6.353   2.533   3.118 -0.6200  1.7673 -0.4845
33948SOL    HW2 7681   6.280   2.402   3.139  0.7617  1.1953  0.9648
33949SOL     OW 7682   0.989   3.559   2.041  0.3208  0.4014  0.0380
33949SOL    HW1 7683   1.074   3.602   2.029  0.0871  0.6820 -0.6967
33949SOL    HW2 7684   0.925   3.630   2.028 -0.0660 -0.1115 -0.9990
33950SOL     OW 7685   7.437   5.253   9.474 -0.2268  0.1496 -0.3042
33950SOL    HW1 7686   7.448   5.239   9.380  0.1722 -1.9552  0.0031
33950SOL    HW2 7687   7.463   5.170   9.514  0.5745  1.3123  1.7567
33951SOL     OW 7688   7.760   7.598   1.715  0.4006 -0.1080  0.3223
33951SOL    HW1 7689   7.839   7.651   1.707 -0.0580  0.3184 -2.2478
33951SOL    HW2 7690   7.688   7.659   1.697 -0.6266 -0.3700  3.0783
33952SOL     OW 7691   4.254   3.919   5.797 -0.1740 -0.5432 -0.0924
33952SOL    HW1 7692   4.196   3.929   5.722  0.1967 -0.1832 -0.3387
33952SOL    HW2 7693   4.336   3.961   5.769  2.0250 -5.2330 -1.6911
33953SOL     OW 7694   2.801   8.113   0.459 -0.0872  0.0069 -1.0059
33953SOL    HW1 7695   2.892   8.104   0.433  0.7556  0.7531  1.4375
33953SOL    HW2 7696   2.788   8.047   0.527 -0.6735  1.3396  0.2475
33954SOL     OW 7697   6.975   6.711   4.243 -0.2513  0.5147 -0.3892
33954SOL    HW1 7698   6.988   6.616   4.249 -0.1142  0.6456  3.0465
33954SOL    HW2 7699   6.882   6.724   4.262  0.1684  1.1398  1.4140
33955SOL     OW 7700   7.921   3.443   9.172 -0.2518 -0.1619  0.3709
33955SOL    HW1 7701   7.951   3.386   9.101  0.1465  0.2464  0.2068
33955SOL    HW2 7702   7.880   3.383   9.235  0.1521 -0.6264  0.1973
33956SOL     OW 7703   4.306   3.646   6.440 -0.4259  0.0387 -0.1960
33956SOL    HW1 7704   4.234   3.661   6.378 -0.6973 -1.5591 -0.2921
33956SOL    HW2 7705   4.383   3.683   6.397 -0.4532 -1.7191 -1.8878
33957SOL     OW 7706   8.021   8.057   4.593  0.8363 -0.2174  0.4856
33957SOL    HW1 7707   8.027   8.150   4.613 -1.2707  0.2949 -0.9282
33957SOL    HW2 7708   8.035   8.052   4.499  1.5562 -1.4300  0.6380
33958SOL     OW 7709   4.894   1.471   5.470 -0.2030 -0.0936  0.2981
33958SOL    HW1 7710   4.888   1.428   5.556 -2.2100  0.0282  0.2664
33958SOL    HW2 7711   4.958   1.419   5.422  1.3685  0.1334  2.0042
33959SOL     OW 7712   0.709   0.480   7.783  0.6455 -0.0592 -0.2037
33959SOL    HW1 7713   0.653   0.422   7.834 -3.7221  2.8223 -1.1432
33959SOL    HW2 7714   0.718   0.559   7.836  2.8743  0.0372 -0.6412
33960SOL     OW 7715   9.522   5.587   8.597 -0.0189 -0.2853  0.2753
33960SOL    HW1 7716   9.459   5.531   8.552  0.4189  0.0353 -0.7622
33960SOL    HW2 7717   9.568   5.528   8.658 -0.6673 -0.7062  0.3632
33961SOL     OW 7718   6.244   5.794   4.165 -0.3261 -0.2288  0.3253
33961SOL    HW1 7719   6.188   5.719   4.186  0.1009 -0.8447 -0.6524
33961SOL    HW2 7720   6.269   5.830   4.250  0.4195 -1.9206  0.8575
33962SOL     OW 7721   4.467   1.229   5.597 -0.5116  0.2885 -0.3218
33962SOL    HW1 7722   4.531   1.165   5.629 -1.1344  0.0398  0.4647
33962SOL    HW2 7723   4.520   1.298   5.558  0.3524  0.8913  1.7390
33963SOL     OW 7724   2.705   4.245   5.657 -0.2399  0.4359 -0.1863
33963SOL    HW1 7725   2.710   4.319   5.596  0.4521  0.7554  0.2431
33963SOL    HW2 7726   2.664   4.282   5.735  1.0424  0.6392  0.4086
33964SOL     OW 7727   6.324   4.485   1.388 -0.3304  0.1745 -0.1229
33964SOL    HW1 7728   6.243   4.535   1.378 -0.7503  0.1533  2.5040
33964SOL    HW2 7729   6.378   4.539   1.446  0.4674 -1.0052  0.2570
33965SOL     OW 7730  10.146   2.340   5.684 -0.0898  0.6850  0.1165
33965SOL    HW1 7731  10.132   2.346   5.590  0.2678  1.3263  0.0925
33965SOL    HW2 7732  10.220   2.399   5.701 -1.3323  2.0672  1.0381
33966SOL     OW 7733   8.670   8.179   7.105  0.4639  0.4648 -0.2144
33966SOL    HW1 7734   8.765   8.188   7.117  0.3467  1.8174 -0.1442
33966SOL    HW2 7735   8.635   8.264   7.129 -0.6675  0.3652 -1.4369
33967SOL     OW 7736   8.097  10.398   9.358 -0.1718  0.5089  0.0412
33967SOL    HW1 7737   8.084  10.322   9.414 -2.6424  0.3987 -0.5757
33967SOL    HW2 7738   8.020  10.452   9.372  0.5737  1.9398 -1.0490
33968SOL     OW 7739   1.393   3.541   0.088  0.3077 -0.4484  0.1075
33968SOL    HW1 7740   1.402   3.512   0.178 -0.6650 -0.4257  0.2207
33968SOL    HW2 7741   1.304   3.576   0.082  0.5261  0.0030 -0.7302
33969SOL     OW 7742   4.198   8.178   6.360 -0.3771  0.0198 -0.0583
33969SOL    HW1 7743   4.239   8.131   6.287  1.1053 -1.3729  1.5931
33969SOL    HW2 7744   4.104   8.162   6.350 -0.1750 -0.3928 -1.4793
33970SOL     OW 7745   6.229   6.022   7.849  0.3190 -0.4068  0.0270
33970SOL    HW1 7746   6.298   6.029   7.783  1.6090 -0.1930  1.3641
33970SOL    HW2 7747   6.224   5.929   7.869  0.8739 -0.3251  0.5818
33971SOL     OW 7748   4.807   5.125   9.079  0.1224  0.1510 -0.0186
33971SOL    HW1 7749   4.790   5.060   9.011  0.7341 -0.6886  0.6021
33971SOL    HW2 7750   4.765   5.205   9.048 -1.8279 -0.8857 -0.1584
33972SOL     OW 7751   6.164   0.718   2.287  0.2956 -0.0336 -0.2422
33972SOL    HW1 7752   6.162   0.801   2.239  0.3554  0.1594  0.0885
33972SOL    HW2 7753   6.114   0.734   2.366  0.4416 -0.2665 -0.1013
33973SOL     OW 7754   4.154   4.533   4.114 -0.2475  0.0593 -0.0788
33973SOL    HW1 7755   4.158   4.460   4.176  1.9311 -0.4231 -0.7109
33973SOL    HW2 7756   4.176   4.610   4.166 -1.4467  0.1365  0.3494
33974SOL     OW 7757   9.021   2.251   7.670  1.0916 -0.5235 -0.3053
33974SOL    HW1 7758   9.095   2.254   7.731  1.5214 -1.4091 -0.7632
33974SOL    HW2 7759   8.952   2.205   7.718 -0.2628  2.8049  1.2187
33975SOL     OW 7760   7.553   7.454   6.120  0.5548 -0.5615  0.5542
33975SOL    HW1 7761   7.606   7.375   6.128  2.5854  0.4702 -1.5385
33975SOL    HW2 7762   7.562   7.497   6.204 -0.0829 -2.2080  1.5149
33976SOL     OW 7763   9.372   3.911   4.977  0.4274 -0.3226 -0.2344
33976SOL    HW1 7764   9.418   3.842   4.929  0.7221 -0.8579  0.7718
33976SOL    HW2 7765   9.329   3.866   5.049 -2.0679  0.1174 -1.3646
33977SOL     OW 7766   5.479   6.164   0.540 -0.1909 -0.0978 -0.1582
33977SOL    HW1 7767   5.418   6.094   0.520 -0.8476  0.8201 -1.5294
33977SOL    HW2 7768   5.566   6.124   0.533 -0.5598 -0.7904 -0.8212
33978SOL     OW 7769   9.337   1.181   7.222 -0.4898  0.0706  0.5448
33978SOL    HW1 7770   9.377   1.184   7.135  0.0352  3.1522  0.7877
33978SOL    HW2 7771   9.329   1.273   7.248 -1.4207 -0.7242  3.4111
33979SOL     OW 7772   1.770   3.787  10.251  0.6914 -0.3741 -0.1589
33979SOL    HW1 7773   1.717   3.750  10.182 -1.2954 -0.3707  1.2803
33979SOL    HW2 7774   1.759   3.728  10.325 -0.4883  1.6388  1.3813
33980SOL     OW 7775   6.185   1.288   8.992  0.0255 -0.5319 -0.4541
33980SOL    HW1 7776   6.097   1.307   8.959 -0.0449  1.0221  0.5634
33980SOL    HW2 7777   6.192   1.338   9.073  0.6880 -3.1329  1.2429
33981SOL     OW 7778   1.840   4.084   2.803 -0.0588  0.3821  0.6945
33981SOL    HW1 7779   1.882   4.152   2.854 -0.4337  0.8189  0.4241
33981SOL    HW2 7780   1.858   4.107   2.712  0.2818 -0.1826  0.6099
33982SOL     OW 7781   7.696  10.447   3.834 -0.2913  0.5839 -0.1444
33982SOL    HW1 7782   7.759  10.517   3.818  1.3291 -0.6483  0.6580
33982SOL    HW2 7783   7.682  10.408   3.747 -0.0052  0.9051 -0.3395
33983SOL     OW 7784   2.755   8.535   7.235  0.4561 -0.4224 -0.3346
33983SOL    HW1 7785   2.838   8.489   7.240  0.5187 -0.2090  1.4359
33983SOL    HW2 7786   2.778   8.625   7.211  0.6175 -0.6273 -0.9479
33984SOL     OW 7787   1.238   3.470   0.747  0.4624  0.1930 -0.2638
33984SOL    HW1 7788   1.169   3.536   0.749  0.1213  0.0586 -2.9566
33984SOL    HW2 7789   1.255   3.449   0.838 -1.5203  1.8245  0.5499
33985SOL     OW 7790   4.248   5.770   3.065  0.0288  0.0233 -0.1313
33985SOL    HW1 7791   4.283   5.684   3.090 -1.1184 -0.2106  0.7717
33985SOL    HW2 7792   4.155   5.765   3.088 -0.4845  0.8348 -1.8879
33986SOL     OW 7793   7.277   5.745   3.708  0.8097  0.3292 -0.0423
33986SOL    HW1 7794   7.246   5.748   3.799  0.3097 -2.8003  0.0043
33986SOL    HW2 7795   7.199   5.762   3.655  1.0756  2.0250  0.0713
33987SOL     OW 7796   0.976   3.712   4.561 -0.5782  0.0402 -0.3588
33987SOL    HW1 7797   0.886   3.724   4.530 -0.1240  0.1033 -1.7151
33987SOL    HW2 7798   0.983   3.618   4.576 -1.4659  0.2610  1.7444
33988SOL     OW 7799   4.538   1.575   6.744 -0.1455  0.4429  0.5260
33988SOL    HW1 7800   4.537   1.589   6.839 -0.4549 -0.5121  0.6750
33988SOL    HW2 7801   4.607   1.633   6.712  1.6465 -0.9622  1.6260
33989SOL     OW 7802   0.011   0.912   8.340  0.0484  0.1058 -0.1464
33989SOL    HW1 7803  -0.078   0.934   8.367 -0.5019 -2.4383  0.3643
33989SOL    HW2 7804   0.005   0.902   8.244  0.0111  0.8303 -0.2225
33990SOL     OW 7805   8.546   4.031   5.357  0.6952  0.1266 -0.2629
33990SOL    HW1 7806   8.501   4.082   5.290 -0.1124  0.3477  0.4287
33990SOL    HW2 7807   8.478   4.007   5.419  1.3679 -0.3528  0.3148
33991SOL     OW 7808  10.134   1.205   9.803 -0.1166 -0.1014 -0.3166
33991SOL    HW1 7809  10.197   1.214   9.732 -0.0859 -0.1593 -0.2969
33991SOL    HW2 7810  10.139   1.112   9.827 -0.3557 -0.1521 -0.4499
33992SOL     OW 7811   2.956   1.420  10.026  0.3395 -0.1510 -0.4404
33992SOL    HW1 7812   3.009   1.449   9.952  1.5843 -0.4247  0.2994
33992SOL    HW2 7813   2.875   1.386   9.987  0.0781  1.6087 -1.5095
33993SOL     OW 7814   4.191   8.447   1.580  0.3442  0.3245  0.1317
33993SOL    HW1 7815   4.200   8.396   1.661 -0.7596  0.5864  0.4368
33993SOL    HW2 7816   4.110   8.497   1.592  0.8931  1.4240 -0.5608
33994SOL     OW 7817   9.386   8.634   9.021 -0.0728 -0.0457 -0.0075
33994SOL    HW1 7818   9.397   8.686   8.941  0.0708 -0.4403 -0.2455
33994SOL    HW2 7819   9.440   8.556   9.006 -1.8990 -1.2744 -0.5264
33995SOL     OW 7820   9.271   1.900   9.463 -0.4967 -0.4390 -0.1996
33995SOL    HW1 7821   9.197   1.960   9.455  1.5828  2.2754 -0.6224
33995SOL    HW2 7822   9.292   1.900   9.556 -1.5631 -2.0301  0.0860
33996SOL     OW 7823   2.994   4.260   8.279  0.3970 -0.1492  0.8841
33996SOL    HW1 7824   3.023   4.262   8.370  1.7034  2.1378  0.4800
33996SOL    HW2 7825   3.074   4.255   8.227 -0.2096  0.3853 -0.1626
33997SOL     OW 7826   5.602   2.136   8.199 -0.2216  0.4332  0.4354
33997SOL    HW1 7827   5.616   2.052   8.243  3.4040  0.7212  0.1263
33997SOL    HW2 7828   5.609   2.201   8.269  0.2776  0.6152  0.2240
33998SOL     OW 7829   1.146   0.789   5.196 -0.4054  0.1323 -0.2371
33998SOL    HW1 7830   1.086   0.714   5.184 -2.7665  2.0112 -0.9674
33998SOL    HW2 7831   1.126   0.822   5.284 -0.2237  0.6019 -0.3700
33999SOL     OW 7832   3.322   4.490  10.220 -0.4597 -0.0986 -0.4234
33999SOL    HW1 7833   3.257   4.529  10.277  0.5540  0.2859  0.5005
33999SOL    HW2 7834   3.344   4.407  10.262  0.3930  0.2517 -0.1526
34000SOL     OW 7835   6.586   6.845   0.808  0.2958  0.5038 -0.1281
34000SOL    HW1 7836   6.549   6.848   0.720  0.8056  0.7543 -0.3406
34000SOL    HW2 7837   6.662   6.904   0.804  1.3657 -0.8189 -0.0113
34001SOL     OW 7838   3.182   2.577   8.885  0.1809 -0.4835 -0.0598
34001SOL    HW1 7839   3.150   2.487   8.886  1.0167 -0.7964  1.1575
34001SOL    HW2 7840   3.247   2.579   8.815 -1.3381 -0.2410 -1.5118
34002SOL     OW 7841   2.678   7.352   3.657  0.0676  0.4092 -0.0693
34002SOL    HW1 7842   2.730   7.431   3.671  0.7954 -0.3624  2.0123
34002SOL    HW2 7843   2.681   7.306   3.741 -0.6995 -1.6230 -1.0783
34003SOL     OW 7844   3.675   0.058   1.795  0.2173  0.4410 -0.4828
34003SOL    HW1 7845   3.757   0.009   1.801 -1.0842 -1.8467 -0.5378
34003SOL    HW2 7846   3.695   0.141   1.838  2.7844  0.3093 -1.1982
34004SOL     OW 7847   5.321   8.850   0.733  0.7176  0.4662 -0.0389
34004SOL    HW1 7848   5.382   8.777   0.738  0.7894  0.5517  0.3240
34004SOL    HW2 7849   5.314   8.882   0.823  1.8033  1.8210 -0.4126
34005SOL     OW 7850   2.854   8.774   1.379  0.5312  0.5519  0.3523
34005SOL    HW1 7851   2.893   8.861   1.372  0.2809  1.0528  3.6544
34005SOL    HW2 7852   2.765   8.786   1.345  0.0052  2.0429  2.0661
34006SOL     OW 7853   9.466   1.419   7.385  0.5993 -0.0935 -0.0002
34006SOL    HW1 7854   9.381   1.405   7.427  1.1584 -0.4143  1.0577
34006SOL    HW2 7855   9.466   1.511   7.361  1.0809  0.6707  2.6524
34007SOL     OW 7856   1.631   1.927   8.826  0.5497  0.1789 -0.2153
34007SOL    HW1 7857   1.579   1.961   8.899  0.3060 -0.0935 -0.2574
34007SOL    HW2 7858   1.665   1.844   8.859  0.6265  0.1645 -0.3322
34008SOL     OW 7859   7.901   8.426   0.917  0.3330  0.0749  0.0278
34008SOL    HW1 7860   7.916   8.518   0.895 -0.1482  0.5919  1.7265
34008SOL    HW2 7861   7.988   8.393   0.940  0.5654 -0.0026 -0.9458
34009SOL     OW 7862   9.144   2.888   0.834 -0.3223 -0.7523  0.0261
34009SOL    HW1 7863   9.170   2.899   0.925 -2.0391  3.4262  0.2465
34009SOL    HW2 7864   9.188   2.808   0.806  1.4741 -1.4245  4.0481
34010SOL     OW 7865   3.229   7.606   2.527 -0.1888 -0.7120  0.2686
34010SOL    HW1 7866   3.173   7.582   2.600 -1.7507  0.4214 -0.4982
34010SOL    HW2 7867   3.254   7.523   2.486 -0.0613 -1.3021  1.4994
34011SOL     OW 7868   3.005   1.802   9.703  0.2113  0.4225 -0.2562
34011SOL    HW1 7869   3.056   1.873   9.663  0.5511  1.6180  2.1715
34011SOL    HW2 7870   2.914   1.833   9.700 -0.1332 -0.6172 -2.3069
34012SOL     OW 7871   5.648   5.726   2.461  0.1960  0.2149 -0.1782
34012SOL    HW1 7872   5.605   5.753   2.380 -0.2454 -0.3052 -0.1247
34012SOL    HW2 7873   5.590   5.659   2.497  1.8064 -1.6640 -0.8908
34013SOL     OW 7874   0.577   7.598   1.197 -0.2215 -0.0666  0.0658
34013SOL    HW1 7875   0.499   7.545   1.211 -1.9769  1.8321 -1.8641
34013SOL    HW2 7876   0.569   7.630   1.107  2.3211  0.9792  0.1139
34014SOL     OW 7877   2.293   3.542   1.196  0.6247 -0.0414 -0.4192
34014SOL    HW1 7878   2.282   3.592   1.277 -1.4953 -0.0812 -0.6135
34014SOL    HW2 7879   2.236   3.466   1.207 -0.2262  0.2717 -2.1584
34015SOL     OW 7880   8.653   4.016   8.388 -0.6222 -0.6681  0.1284
34015SOL    HW1 7881   8.625   4.058   8.469  1.6888 -1.0846  1.2353
34015SOL    HW2 7882   8.572   3.991   8.344 -2.0221  2.1063  0.9031
34016SOL     OW 7883   4.142   8.461   4.647 -0.0652 -0.0274  0.0537
34016SOL    HW1 7884   4.059   8.413   4.655 -0.4902  0.4939 -0.9627
34016SOL    HW2 7885   4.121   8.549   4.680  0.3564 -0.1706  0.7102
34017SOL     OW 7886   3.351   6.555   1.516  0.7330  0.2788  0.6794
34017SOL    HW1 7887   3.421   6.605   1.558  1.1026  0.4072 -0.0768
34017SOL    HW2 7888   3.305   6.619   1.463  0.9512 -0.0953  0.0315
34018SOL     OW 7889  10.313   9.775   2.679 -0.0298  0.1044 -0.2615
34018SOL    HW1 7890  10.277   9.815   2.600  1.8482 -1.7761 -2.2157
34018SOL    HW2 7891  10.304   9.681   2.663 -1.3731 -0.3859  2.7070
34019SOL     OW 7892   8.072   1.315   9.311 -0.1294  0.0314 -0.0062
34019SOL    HW1 7893   7.995   1.258   9.318  0.2847 -0.5882 -0.3564
34019SOL    HW2 7894   8.063   1.377   9.383  0.2317 -1.5088  1.4528
34020SOL     OW 7895   4.347   2.741   8.539 -0.2209 -0.4575 -0.3808
34020SOL    HW1 7896   4.352   2.732   8.634  2.3737 -0.0877 -0.4199
34020SOL    HW2 7897   4.354   2.651   8.506  1.9593 -0.3742 -0.2493
34021SOL     OW 7898   6.966   5.495   5.397 -0.6307 -0.5157  0.3596
34021SOL    HW1 7899   7.056   5.484   5.365 -0.5920 -0.7187  0.5366
34021SOL    HW2 7900   6.918   5.421   5.360 -1.5613  1.3982 -2.6675
34022SOL     OW 7901   8.109   4.578   5.170 -0.0432  0.2487  0.5114
34022SOL    HW1 7902   8.148   4.661   5.143 -0.2668  0.3553  0.5197
34022SOL    HW2 7903   8.149   4.513   5.112  0.8487  0.2258  1.1270
34023SOL     OW 7904   6.706   6.745   8.880  0.3775 -0.0926  0.0237
34023SOL    HW1 7905   6.800   6.729   8.883  0.3806 -0.1218 -0.1831
34023SOL    HW2 7906   6.667   6.657   8.881  0.3027 -0.0632  1.4177
34024SOL     OW 7907   9.494   0.554  10.700  0.4956 -1.1183  0.8467
34024SOL    HW1 7908   9.532   0.600  10.625 -0.6346 -2.8833 -0.9308
34024SOL    HW2 7909   9.429   0.495  10.661  0.0755 -2.3424  3.2142
34025SOL     OW 7910   7.187   0.209   2.168  0.0903  0.2256 -0.2265
34025SOL    HW1 7911   7.225   0.141   2.223  0.1157  0.3033 -0.1481
34025SOL    HW2 7912   7.245   0.213   2.091 -0.3421 -0.3726 -0.5938
34026SOL     OW 7913   1.813   8.293   5.806 -0.6607  0.8171 -0.0734
34026SOL    HW1 7914   1.740   8.262   5.752  0.2922 -0.9041 -0.4561
34026SOL    HW2 7915   1.793   8.264   5.894 -1.2070  1.7931  0.1377
34027SOL     OW 7916   5.046   9.315   2.081 -0.0304 -0.4726  0.0530
34027SOL    HW1 7917   5.068   9.282   2.168  0.6262  3.2713  1.4942
34027SOL    HW2 7918   4.962   9.361   2.093  1.6500  2.9891 -0.2960
34028SOL     OW 7919   6.344  10.088   5.253  0.7433  0.1080  0.2071
34028SOL    HW1 7920   6.437  10.077   5.233  0.6947  0.1368 -0.0402
34028SOL    HW2 7921   6.336  10.062   5.345  1.0327  0.3000  0.2901
34029SOL     OW 7922   3.915   1.329   7.217 -0.4713  0.2801 -0.0033
34029SOL    HW1 7923   3.983   1.387   7.183 -0.2595  1.2858  1.9907
34029SOL    HW2 7924   3.895   1.270   7.144  1.6802  0.7109 -1.0300
34030SOL     OW 7925   6.456   1.440  10.518  0.3225  0.6986 -0.2695
34030SOL    HW1 7926   6.498   1.487  10.590  1.3442  1.7469 -1.4980
34030SOL    HW2 7927   6.469   1.347  10.539  0.8508  0.9908  0.7455
34031SOL     OW 7928   5.684  10.263   4.248 -0.2035  0.0653 -0.1685
34031SOL    HW1 7929   5.744  10.337   4.261  1.1191 -1.0146  0.0272
34031SOL    HW2 7930   5.718  10.217   4.171 -1.6767  0.2553 -0.9826
34032SOL     OW 7931   7.504   1.238   6.481 -0.6532 -0.4193  0.1769
34032SOL    HW1 7932   7.521   1.145   6.473  1.5998 -0.1532  1.2239
34032SOL    HW2 7933   7.500   1.270   6.391 -2.5215 -1.6483 -0.2250
34033SOL     OW 7934   6.968   8.075   8.700  0.0030 -0.1572  0.0074
34033SOL    HW1 7935   7.014   8.107   8.623 -2.0732  0.6586 -0.9709
34033SOL    HW2 7936   6.911   8.005   8.667  1.1840 -1.8423  1.3471
34034SOL     OW 7937   7.356   9.658   8.992  0.0700  0.1257 -0.3643
34034SOL    HW1 7938   7.385   9.618   8.910 -2.8410 -2.5991 -0.2686
34034SOL    HW2 7939   7.266   9.686   8.974 -0.2023  0.6011  1.5420
34035SOL     OW 7940   6.459   1.391   2.865  0.1046 -0.1483  0.4305
34035SOL    HW1 7941   6.406   1.384   2.945 -2.5648 -0.8589 -1.2913
34035SOL    HW2 7942   6.433   1.474   2.827 -1.2490 -1.3357 -1.3731
34036SOL     OW 7943   4.785   7.726   1.376 -0.0798 -0.1635 -0.0268
34036SOL    HW1 7944   4.699   7.757   1.405  0.8446  1.1658  1.4584
34036SOL    HW2 7945   4.822   7.684   1.454  0.6344 -0.7065 -0.6481
34037SOL     OW 7946   3.806   7.022   4.976 -0.4397  0.1489 -0.2570
34037SOL    HW1 7947   3.770   7.091   5.032 -2.4396  0.8210 -2.2476
34037SOL    HW2 7948   3.792   6.942   5.025 -0.0154  0.8981  1.1712
34038SOL     OW 7949   4.714   9.084   5.661  0.1814 -0.3325 -0.0756
34038SOL    HW1 7950   4.634   9.128   5.690  0.0026 -0.0044 -1.0150
34038SOL    HW2 7951   4.781   9.152   5.665  0.4606 -0.6521  0.8758
34039SOL     OW 7952   1.774   1.597   1.909  0.6346 -0.1522 -0.5588
34039SOL    HW1 7953   1.830   1.525   1.938 -0.4159 -1.2472 -1.1862
34039SOL    HW2 7954   1.790   1.604   1.815  2.0525  1.6460 -0.2438
34040SOL     OW 7955   2.810   0.328  10.162  0.2713 -0.1161  0.7201
34040SOL    HW1 7956   2.900   0.342  10.191  0.0596  0.2949  1.1814
34040SOL    HW2 7957   2.812   0.348  10.069  0.3588  1.2711  1.0078
34041SOL     OW 7958   8.286   7.101   7.049 -0.2920  0.7646  0.6076
34041SOL    HW1 7959   8.314   7.047   6.976  1.4393  0.4144  1.4597
34041SOL    HW2 7960   8.242   7.176   7.009 -1.4823 -0.5627 -0.6446
34042SOL     OW 7961   5.456   5.573   3.889 -0.2353  0.3433  0.0954
34042SOL    HW1 7962   5.485   5.623   3.965 -1.1771  0.2022  0.5599
34042SOL    HW2 7963   5.451   5.483   3.920 -0.5989  0.2795 -0.1480
34043SOL     OW 7964   9.826   4.278   6.359  0.2902 -0.3668 -0.2019
34043SOL    HW1 7965   9.833   4.195   6.312  0.7963 -0.7507  0.5247
34043SOL    HW2 7966   9.892   4.272   6.428 -0.9325 -0.1458  1.0395
34044SOL     OW 7967   0.860   7.557   9.181 -0.0450  0.4593  0.0825
34044SOL    HW1 7968   0.924   7.608   9.230  0.1602 -0.8579  1.2661
34044SOL    HW2 7969   0.775   7.585   9.217 -0.0778  1.3624 -0.6657
34045SOL     OW 7970   2.800   2.172   0.738 -0.0848 -0.3727  0.1333
34045SOL    HW1 7971   2.838   2.255   0.708 -1.9374  0.8846  1.0478
34045SOL    HW2 7972   2.768   2.130   0.658  1.4127 -0.5182 -0.4087
34046SOL     OW 7973   8.938   0.132   6.405 -0.0489 -0.2312  0.5108
34046SOL    HW1 7974   8.978   0.072   6.468 -1.1450 -1.2208  0.3087
34046SOL    HW2 7975   8.938   0.083   6.322 -3.1292 -1.0119  0.8384
34047SOL     OW 7976   1.789   7.049   0.999  0.4861  0.6773 -0.4938
34047SOL    HW1 7977   1.844   6.972   1.014  1.1963  1.0347 -1.2330
34047SOL    HW2 7978   1.777   7.087   1.086  1.4107  0.6043 -0.3282
34048SOL     OW 7979   0.939   8.960   9.547 -0.5155  0.3027 -0.0634
34048SOL    HW1 7980   0.844   8.971   9.547 -0.3548  2.0829 -0.8570
34048SOL    HW2 7981   0.961   8.952   9.454  0.1151 -0.0460  0.1162
34049SOL     OW 7982   5.592   6.053   3.150  0.4580 -0.2917  0.1153
34049SOL    HW1 7983   5.567   6.016   3.235  1.1581 -0.0467  0.4443
34049SOL    HW2 7984   5.649   5.988   3.111 -2.2108 -1.7761 -1.5491
34050SOL     OW 7985   5.083   8.825   0.616 -0.3570 -0.3061 -0.4657
34050SOL    HW1 7986   5.171   8.834   0.651 -0.8926 -0.2121  0.9423
34050SOL    HW2 7987   5.087   8.866   0.529  1.1925 -1.1405 -0.8213
34051SOL     OW 7988   5.108   0.476   5.427  0.0648 -0.4330  0.3483
34051SOL    HW1 7989   5.031   0.465   5.482 -0.4222 -0.1943 -0.2810
34051SOL    HW2 7990   5.130   0.387   5.398  1.0069 -0.7150  1.8220
34052SOL     OW 7991   7.346   5.374   3.976  0.3205 -0.1071 -0.7780
34052SOL    HW1 7992   7.397   5.294   3.966  0.5884  0.0758 -0.8994
34052SOL    HW2 7993   7.330   5.403   3.886  3.0438  1.7455 -0.8209
34053SOL     OW 7994   3.124   4.496   0.070  0.0578 -0.0371  0.1758
34053SOL    HW1 7995   3.083   4.582   0.055 -1.7634 -0.6482  1.3455
34053SOL    HW2 7996   3.148   4.465  -0.017  0.0490  1.3132 -0.3311
34054SOL     OW 7997   3.107   9.438   3.460 -0.1250  0.0038 -0.1241
34054SOL    HW1 7998   3.100   9.466   3.551 -0.4994  0.7062 -0.3611
34054SOL    HW2 7999   3.142   9.515   3.415 -2.0114  0.4152 -0.9500
34055SOL     OW 8000   9.365  10.148   7.015 -0.0726  0.4093  0.2868
34055SOL    HW1 8001   9.379  10.243   7.019 -2.1541  0.7077  2.0955
34055SOL    HW2 8002   9.419  10.113   7.086  1.1204  0.1314 -0.7217
34056SOL     OW 8003   1.694   1.435   3.756  0.2440  0.1134  0.6194
34056SOL    HW1 8004   1.638   1.435   3.834  1.1521  0.9433  1.2952
34056SOL    HW2 8005   1.736   1.349   3.757  0.1183  0.0523  0.9483
34057SOL     OW 8006   1.770   5.630  10.486 -0.3220 -0.0699  0.6103
34057SOL    HW1 8007   1.806   5.686  10.418 -1.1589 -2.2310 -1.7554
34057SOL    HW2 8008   1.836   5.631  10.555  1.3485  0.9314 -0.9071
34058SOL     OW 8009   4.332   9.641   2.461 -0.3163 -0.0170 -0.0025
34058SOL    HW1 8010   4.273   9.700   2.508 -0.2972 -0.4844  0.6235
34058SOL    HW2 8011   4.275   9.572   2.427 -0.3499  0.3962 -0.7995
34059SOL     OW 8012   6.531   0.470   9.381 -0.1624 -0.3394  0.5678
34059SOL    HW1 8013   6.540   0.530   9.455 -0.0382 -0.9765  1.0741
34059SOL    HW2 8014   6.582   0.393   9.406  3.4500  0.9633 -1.8774
34060SOL     OW 8015   3.144   5.157   8.842  1.0663 -0.1685  0.5850
34060SOL    HW1 8016   3.178   5.133   8.756 -1.4653 -0.8988 -0.2991
34060SOL    HW2 8017   3.080   5.226   8.824  1.6923  0.8621  2.1059
34061SOL     OW 8018   9.910   7.821   0.962  0.0519  0.5516 -0.3044
34061SOL    HW1 8019   9.995   7.858   0.988  0.2010 -0.7312  1.1548
34061SOL    HW2 8020   9.847   7.861   1.020  0.3709 -2.2463  2.2158
34062SOL     OW 8021   5.938   7.740   3.441  0.1006  0.0944 -0.1584
34062SOL    HW1 8022   5.875   7.688   3.391 -1.0316  1.6965 -0.4679
34062SOL    HW2 8023   5.889   7.816   3.470  1.6286  0.8582  0.5419
34063SOL     OW 8024   8.883   2.293   1.791 -0.4631  0.1519  0.3545
34063SOL    HW1 8025   8.879   2.304   1.886 -1.5811 -0.6232  0.4195
34063SOL    HW2 8026   8.826   2.362   1.756  0.0307  0.5040  0.2325
34064SOL     OW 8027   1.382   2.520   5.661 -0.7700  0.7479  0.1688
34064SOL    HW1 8028   1.464   2.531   5.614 -1.0010  1.1992 -0.1303
34064SOL    HW2 8029   1.401   2.550   5.750 -0.8560  1.7047 -0.1313
34065SOL     OW 8030   3.405   0.439   5.498 -0.0940  0.1550 -0.3751
34065SOL    HW1 8031   3.405   0.489   5.579  2.0869 -1.0609  0.4447
34065SOL    HW2 8032   3.425   0.503   5.430  3.1845  0.4599  0.7064
34066SOL     OW 8033   7.733   5.922   7.612 -0.5867  0.2099 -0.1806
34066SOL    HW1 8034   7.697   5.833   7.625  0.0481  0.2646  2.5192
34066SOL    HW2 8035   7.683   5.976   7.673  2.3712  0.7105  2.0172
34067SOL     OW 8036   3.546  10.670   7.130 -0.6401 -0.2139  0.4881
34067SOL    HW1 8037   3.452  10.655   7.118 -0.6006 -0.0715 -0.0538
34067SOL    HW2 8038   3.588  10.599   7.080 -0.4559  1.0804 -1.2863
34068SOL     OW 8039   2.202   8.276   3.018  0.3343  0.4165 -0.6734
34068SOL    HW1 8040   2.191   8.347   3.081  1.0101  0.3468 -0.4680
34068SOL    HW2 8041   2.294   8.252   3.025  0.0550 -0.6642 -0.5412
34069SOL     OW 8042   6.924  10.672   3.274  0.3868 -0.3583  0.4284
34069SOL    HW1 8043   6.919  10.720   3.191  0.4640 -1.9935 -0.5794
34069SOL    HW2 8044   6.935  10.740   3.341  2.2328  0.9260 -1.0615
34070SOL     OW 8045   9.711   4.500   0.572 -0.0734 -0.2437 -0.0878
34070SOL    HW1 8046   9.643   4.439   0.544  0.0206 -0.9305  1.0965
34070SOL    HW2 8047   9.783   4.486   0.511  0.5408 -2.4609  1.0660
34071SOL     OW 8048   8.036   5.525   5.883 -0.0542  0.1135  0.1526
34071SOL    HW1 8049   8.034   5.429   5.890  1.4163  0.1142  0.9973
34071SOL    HW2 8050   8.044   5.555   5.974  0.7228  0.9785 -0.1885
34072SOL     OW 8051   6.746   7.358   8.253 -0.3216  0.0341  0.1212
34072SOL    HW1 8052   6.713   7.401   8.332 -0.3145 -0.1806  0.2425
34072SOL    HW2 8053   6.685   7.286   8.237  0.3194 -0.6287  0.5928
34073SOL     OW 8054  10.711  10.030   4.070 -0.4310 -0.6114 -0.0945
34073SOL    HW1 8055  10.790  10.082   4.057 -0.3148 -0.9953 -1.0114
34073SOL    HW2 8056  10.645  10.071   4.014 -0.1151 -1.9032 -1.4613
34074SOL     OW 8057   9.775   4.765  10.370 -0.4887 -0.2006  0.7066
34074SOL    HW1 8058   9.810   4.681  10.400 -0.6952 -0.7439 -0.5380
34074SOL    HW2 8059   9.719   4.794  10.443  0.4516 -0.5933  1.6105
34075SOL     OW 8060   9.976   1.472   1.076 -0.1213  0.0758  0.1945
34075SOL    HW1 8061   9.908   1.481   1.142 -0.1683 -1.3232  0.3701
34075SOL    HW2 8062   9.933   1.494   0.994 -0.1364  1.5561  0.5785
34076SOL     OW 8063   5.888   9.088   0.793  0.7768  0.0165  0.3083
34076SOL    HW1 8064   5.827   9.071   0.722  0.7397  0.0907  0.3229
34076SOL    HW2 8065   5.937   9.006   0.803  0.8234  0.0261  0.1594
34077SOL     OW 8066  10.485   5.320   3.933  0.0534  0.4728 -0.5006
34077SOL    HW1 8067  10.577   5.301   3.951  0.3745  1.3869 -1.1071
34077SOL    HW2 8068  10.477   5.311   3.838 -0.5169  0.2853 -0.4421
34078SOL     OW 8069   9.217   8.483   2.546  0.2165 -0.4511  0.4085
34078SOL    HW1 8070   9.262   8.464   2.629  1.6909 -3.3837 -0.8949
34078SOL    HW2 8071   9.164   8.405   2.529 -1.9823  1.1087 -0.3056
34079SOL     OW 8072   4.610   7.861   4.476  0.2289  0.4232  0.4132
34079SOL    HW1 8073   4.640   7.833   4.562 -1.3189  0.0361  0.8650
34079SOL    HW2 8074   4.616   7.783   4.421 -0.3989  0.2093  0.6389
34080SOL     OW 8075   3.680   4.090   1.766 -0.0984  0.2090 -0.5595
34080SOL    HW1 8076   3.590   4.088   1.732 -0.7550 -1.5882  1.0555
34080SOL    HW2 8077   3.735   4.090   1.688 -1.4513  2.3224 -1.6157
34081SOL     OW 8078   8.069   9.146   1.676  0.0536  0.3543 -0.2367
34081SOL    HW1 8079   8.116   9.074   1.718 -1.3391  0.0738  0.9247
34081SOL    HW2 8080   8.126   9.173   1.604  1.4751 -0.6632  0.4495
34082SOL     OW 8081  10.290   3.101  10.279 -0.6256 -0.4284  0.2056
34082SOL    HW1 8082  10.220   3.127  10.218  1.3553  1.4845 -1.4179
34082SOL    HW2 8083  10.363   3.075  10.222  0.0811 -2.2076  1.8446
34083SOL     OW 8084   0.685   8.576   0.957 -0.5106  0.3729  0.0390
34083SOL    HW1 8085   0.656   8.651   0.906  0.9689  0.6677 -0.4228
34083SOL    HW2 8086   0.752   8.611   1.016 -0.4481 -0.4160  0.4512
34084SOL     OW 8087   7.557   9.431  10.192  0.3358  0.3062  0.0362
34084SOL    HW1 8088   7.533   9.410  10.102 -1.4449 -0.3282  0.6119
34084SOL    HW2 8089   7.624   9.499  10.184  1.1958 -0.6818 -1.7670
34085SOL     OW 8090   9.242   0.215  10.124  0.3787  0.1035 -0.0182
34085SOL    HW1 8091   9.212   0.124  10.116 -0.7149  0.4504  0.0371
34085SOL    HW2 8092   9.225   0.253  10.038 -1.4379  0.8981  0.6359
34086SOL     OW 8093   9.312   3.873  10.491  0.1068  0.6682  0.1544
34086SOL    HW1 8094   9.347   3.831  10.570  1.4717  1.8842  0.2497
34086SOL    HW2 8095   9.222   3.896  10.514 -0.9849 -2.7400 -0.1527
34087SOL     OW 8096   3.374   5.069   3.742 -0.2764 -0.2105 -0.3333
34087SOL    HW1 8097   3.310   5.118   3.793  0.5812 -0.7575  1.3494
34087SOL    HW2 8098   3.325   4.995   3.706 -0.6629 -0.4759  0.7052
34088SOL     OW 8099   1.495   3.226   4.375 -0.8615 -0.4103 -0.3414
34088SOL    HW1 8100   1.473   3.142   4.415 -0.9852 -0.2700 -0.1150
34088SOL    HW2 8101   1.453   3.223   4.289 -0.6337 -0.6929 -0.4472
34089SOL     OW 8102   8.851   9.533   2.957 -0.5383 -0.2166  0.3042
34089SOL    HW1 8103   8.767   9.564   2.989 -0.0852  1.1610  0.1914
34089SOL    HW2 8104   8.878   9.598   2.892  0.4613 -0.8125  0.0974
34090SOL     OW 8105   3.962   7.273   6.870  0.8909  0.2307  0.3921
34090SOL    HW1 8106   3.949   7.365   6.893 -0.2664  0.1843 -0.0098
34090SOL    HW2 8107   4.010   7.276   6.786 -1.0014  0.5420 -0.7360
34091SOL     OW 8108   6.578   2.795   2.202  0.2491  0.7219 -0.3224
34091SOL    HW1 8109   6.519   2.771   2.273 -0.5228  1.7109 -0.6134
34091SOL    HW2 8110   6.565   2.727   2.136  1.6476 -0.7352  0.8084
34092SOL     OW 8111   2.077  10.290   5.546 -0.3778  0.0560 -0.1441
34092SOL    HW1 8112   2.011  10.225   5.567  0.0291 -1.1551 -2.2656
34092SOL    HW2 8113   2.043  10.334   5.468  0.7658  0.2152 -0.5722
34093SOL     OW 8114   1.879   7.974   1.106 -0.0503 -0.2499 -0.1623
34093SOL    HW1 8115   1.924   7.982   1.022 -0.8281  0.0084 -0.5618
34093SOL    HW2 8116   1.862   7.880   1.115 -0.4131 -0.2203 -0.5341
34094SOL     OW 8117   0.790   2.941   4.646  0.1997  0.6420  0.3118
34094SOL    HW1 8118   0.845   2.957   4.723 -0.2455 -0.4445  0.8818
34094SOL    HW2 8119   0.768   2.848   4.652 -1.8473  1.0806  0.2019
34095SOL     OW 8120   9.464   7.959   9.500 -0.2439  0.1498 -0.0735
34095SOL    HW1 8121   9.501   8.037   9.458  0.9291  0.0638  0.7389
34095SOL    HW2 8122   9.384   7.990   9.542 -0.9100  0.4457 -1.4894
34096SOL     OW 8123   2.202   9.619   6.537 -0.4386 -0.4724 -0.4600
34096SOL    HW1 8124   2.263   9.693   6.541 -1.4741  0.3405  1.5652
34096SOL    HW2 8125   2.249   9.548   6.580 -1.2668  0.4906  2.2067
34097SOL     OW 8126   8.227  10.478   4.340 -0.5639  0.2045  0.4308
34097SOL    HW1 8127   8.288  10.516   4.402  0.8185 -0.7465 -0.2986
34097SOL    HW2 8128   8.182  10.553   4.301  0.7744  0.9859  0.3546
34098SOL     OW 8129  10.231   4.885   2.952  0.4559 -0.2900  0.7121
34098SOL    HW1 8130  10.178   4.810   2.926  1.2179 -1.0545  1.2860
34098SOL    HW2 8131  10.219   4.891   3.047  1.2142 -0.3439  0.8184
34099SOL     OW 8132   9.934   6.687   8.713 -0.7149  0.4193 -0.3063
34099SOL    HW1 8133   9.910   6.752   8.779 -1.0477 -0.0175  0.0148
34099SOL    HW2 8134  10.027   6.702   8.696 -1.1565  2.0728 -1.4893
34100SOL     OW 8135   2.835   9.946   2.424 -0.1197 -0.0548  0.2286
34100SOL    HW1 8136   2.760  10.003   2.442  0.2993  0.1272  1.4787
34100SOL    HW2 8137   2.909   9.990   2.464  0.1543 -1.6567  1.6073
34101SOL     OW 8138   6.131   8.969   5.102  0.2211 -0.4544  0.3592
34101SOL    HW1 8139   6.173   8.939   5.183  1.7891  1.1241  0.1852
34101SOL    HW2 8140   6.111   8.888   5.055  0.2573 -1.3663  1.8304
34102SOL     OW 8141   2.760  10.402   9.635 -0.2520 -0.0002 -0.0816
34102SOL    HW1 8142   2.800  10.406   9.548  1.1948  1.7219  0.6077
34102SOL    HW2 8143   2.700  10.477   9.638  0.9117  0.9385  0.9158
34103SOL     OW 8144   8.123   5.394   7.785 -0.2140  0.5190  0.4111
34103SOL    HW1 8145   8.031   5.393   7.758  0.2891  2.1636 -1.5920
34103SOL    HW2 8146   8.155   5.306   7.762 -1.2675 -0.1331  1.2870
34104SOL     OW 8147   8.216   7.944   4.018 -0.3169  1.0807  0.4819
34104SOL    HW1 8148   8.126   7.912   4.012 -0.9255  2.9187 -1.4064
34104SOL    HW2 8149   8.266   7.868   4.049 -1.9446 -1.1182 -1.8613
34105SOL     OW 8150   6.124   2.773   9.825  0.3743  0.0001  0.4645
34105SOL    HW1 8151   6.038   2.812   9.817  0.8566  1.1461  0.6387
34105SOL    HW2 8152   6.122   2.727   9.909  0.0473  0.3319  0.6384
34106SOL     OW 8153   5.648   5.379   6.860 -0.0549 -0.0281  0.3206
34106SOL    HW1 8154   5.700   5.401   6.783  0.1003 -0.0839  0.4084
34106SOL    HW2 8155   5.577   5.444   6.861  0.1055  0.1482  0.2893
34107SOL     OW 8156   5.895   3.837   7.491  0.1755 -0.2416 -0.4209
34107SOL    HW1 8157   5.969   3.802   7.540  0.1286 -0.4015 -0.4647
34107SOL    HW2 8158   5.924   3.837   7.399  1.7914  3.6938 -0.1167
34108SOL     OW 8159   1.265   5.254   3.062 -0.1800 -0.0915  0.1513
34108SOL    HW1 8160   1.186   5.255   3.007 -0.3128 -0.5593  0.3295
34108SOL    HW2 8161   1.247   5.188   3.129  0.7152 -0.8456 -0.3265
34109SOL     OW 8162   2.399   3.467   3.369  0.1269 -0.1358 -0.3495
34109SOL    HW1 8163   2.426   3.538   3.428 -0.7568 -0.2715  0.2329
34109SOL    HW2 8164   2.465   3.399   3.382 -0.6612 -0.6359  1.3693
34110SOL     OW 8165   2.104   8.860   2.808  0.2238  0.1649  0.3821
34110SOL    HW1 8166   2.011   8.866   2.786  0.3549  0.0668 -0.2144
34110SOL    HW2 8167   2.149   8.901   2.734  0.6537  0.3078  0.7160
34111SOL     OW 8168   3.466   2.232   9.248 -0.4096 -0.0145  0.2807
34111SOL    HW1 8169   3.554   2.214   9.216 -0.7470 -0.7770 -0.2693
34111SOL    HW2 8170   3.441   2.152   9.294 -0.6618  0.3472  0.7774
34112SOL     OW 8171   9.171   8.685   2.758 -0.5038  0.3391 -0.2109
34112SOL    HW1 8172   9.204   8.596   2.773  1.3435  1.1471  0.8969
34112SOL    HW2 8173   9.177   8.728   2.843  0.3091  2.0264 -1.0554
34113SOL     OW 8174   2.875   9.697   2.323 -0.1646 -0.1054  0.5882
34113SOL    HW1 8175   2.946   9.669   2.265 -1.0563  0.5375 -0.8775
34113SOL    HW2 8176   2.880   9.793   2.323 -1.8667  0.0330 -0.7183
34114SOL     OW 8177   7.587   7.301   2.199 -0.3005 -0.1476  0.0658
34114SOL    HW1 8178   7.572   7.237   2.130 -0.3713  0.4349 -0.4674
34114SOL    HW2 8179   7.518   7.283   2.264  0.4846 -1.4663  0.5731
34115SOL     OW 8180   6.464   2.358   6.910 -0.0028 -0.3016  0.2437
34115SOL    HW1 8181   6.457   2.438   6.962 -0.5015  0.1405 -0.4827
34115SOL    HW2 8182   6.527   2.304   6.957 -2.3236 -1.0322  2.7376
34116SOL     OW 8183   1.044   3.619   2.343  0.6275 -0.2458 -0.7220
34116SOL    HW1 8184   0.998   3.556   2.398  1.0000  0.5088  0.4735
34116SOL    HW2 8185   0.985   3.694   2.337  1.0241  0.0857 -0.5025
34117SOL     OW 8186   9.205   0.275   7.376 -0.4877  0.2200  0.3012
34117SOL    HW1 8187   9.191   0.185   7.405 -0.6200  0.3283  0.5804
34117SOL    HW2 8188   9.136   0.291   7.312 -0.8781  0.3395  0.7470
34118SOL     OW 8189   9.222   0.581   4.825 -0.8036  0.1447  0.2914
34118SOL    HW1 8190   9.184   0.640   4.760 -1.6192  0.1744  0.7745
34118SOL    HW2 8191   9.238   0.638   4.901 -3.0370 -0.4825  1.3282
34119SOL     OW 8192   4.428   5.899   4.634  0.0061  0.5086 -0.5162
34119SOL    HW1 8193   4.375   5.966   4.591 -0.5641  0.0337 -0.5650
34119SOL    HW2 8194   4.378   5.818   4.624 -0.8712  0.5994  2.2901
34120SOL     OW 8195   2.176   2.324   2.240 -0.3649 -0.4914  0.2377
34120SOL    HW1 8196   2.130   2.345   2.321 -1.3115 -1.3272 -0.0504
34120SOL    HW2 8197   2.155   2.396   2.181  0.0646 -0.0408  0.6347
34121SOL     OW 8198   9.221   6.419   1.683 -0.0439  0.3194 -0.0515
34121SOL    HW1 8199   9.198   6.509   1.660 -0.6160 -0.0762 -1.0760
34121SOL    HW2 8200   9.138   6.379   1.708  0.2039  0.0628  0.3745
34122SOL     OW 8201   2.773   5.879   9.932 -0.1110 -0.5061 -0.1798
34122SOL    HW1 8202   2.811   5.805   9.980  0.2884 -0.8691 -1.0296
34122SOL    HW2 8203   2.733   5.839   9.855 -1.7820 -0.0758  0.4184
34123SOL     OW 8204   7.155   4.888   5.660 -0.2259  0.3785  0.3964
34123SOL    HW1 8205   7.151   4.816   5.597  1.2594  0.4108  0.2256
34123SOL    HW2 8206   7.083   4.946   5.636 -2.1087 -1.5120  1.1580
34124SOL     OW 8207   2.079   3.407   6.900 -0.1433 -0.3143  0.1742
34124SOL    HW1 8208   2.108   3.319   6.876  2.0242  0.0469  1.2249
34124SOL    HW2 8209   2.091   3.411   6.995  0.2690  1.2418  0.0882
34125SOL     OW 8210  10.034   8.652   5.865  0.4014 -0.0650 -0.3959
34125SOL    HW1 8211   9.987   8.576   5.901 -0.0456 -0.8496 -2.4845
34125SOL    HW2 8212   9.969   8.722   5.865  0.5559  0.1065  0.7138
34126SOL     OW 8213   4.157   2.915   2.958 -0.6511 -0.5730  0.0663
34126SOL    HW1 8214   4.091   2.983   2.971 -1.4414 -1.6144  1.7751
34126SOL    HW2 8215   4.127   2.866   2.881 -1.2348 -0.3239  0.1333
34127SOL     OW 8216   7.595   4.017   1.161  0.1151 -0.3467 -0.0821
34127SOL    HW1 8217   7.538   4.094   1.158  0.0708 -0.3716  0.1022
34127SOL    HW2 8218   7.568   3.964   1.085  0.3138 -0.0646 -0.3513
34128SOL     OW 8219   4.190   7.892   6.138  0.0034  0.3056  0.1266
34128SOL    HW1 8220   4.245   7.952   6.087  0.5110  0.8385  1.2691
34128SOL    HW2 8221   4.101   7.909   6.106  0.5413 -1.5076 -2.6933
34129SOL     OW 8222   5.754   0.487   7.272 -0.2088  0.4027 -0.4738
34129SOL    HW1 8223   5.682   0.504   7.211 -0.3815 -1.9267 -1.0380
34129SOL    HW2 8224   5.714   0.491   7.358 -0.6824  0.6098 -0.6996
34130SOL     OW 8225   8.923   7.002   8.017  0.2999 -0.3084  0.0235
34130SOL    HW1 8226   9.005   6.956   8.035  0.0622 -1.3942 -1.4723
34130SOL    HW2 8227   8.922   7.075   8.079  3.4746  1.1181 -1.3404
34131SOL     OW 8228   8.369   5.172   3.548  0.4345 -0.3549  0.1230
34131SOL    HW1 8229   8.315   5.250   3.538 -1.1766 -1.2422  1.3903
34131SOL    HW2 8230   8.448   5.203   3.591  0.2901  0.7241 -0.3387
34132SOL     OW 8231   8.103   9.388   7.633  0.3463 -0.1348 -0.1524
34132SOL    HW1 8232   8.191   9.354   7.651  0.2488  0.5053  1.7911
34132SOL    HW2 8233   8.108   9.480   7.659 -1.2054 -0.3756  1.1629
34133SOL     OW 8234   3.564   8.383   3.170  0.1182  0.6338  0.0485
34133SOL    HW1 8235   3.560   8.289   3.183  3.0848  0.5265  0.8038
34133SOL    HW2 8236   3.523   8.398   3.085  0.3041 -1.4348 -0.4487
34134SOL     OW 8237   4.016   2.888   4.559  0.4832 -0.1211 -0.2888
34134SOL    HW1 8238   3.985   2.857   4.644 -2.0481 -0.3072 -1.2043
34134SOL    HW2 8239   3.957   2.960   4.536  2.3704  1.2956 -1.0286
34135SOL     OW 8240   8.289   9.797   6.478  0.0443  0.0493 -0.3394
34135SOL    HW1 8241   8.287   9.715   6.429  1.6414 -0.6805  0.7121
34135SOL    HW2 8242   8.361   9.846   6.438  1.2064 -0.4542  1.0396
34136SOL     OW 8243   0.258   5.481   6.496  0.0238  0.4788  0.1997
34136SOL    HW1 8244   0.322   5.498   6.426  0.5249  0.3473  0.6158
34136SOL    HW2 8245   0.234   5.567   6.528 -1.4340  0.6297 -1.1988
34137SOL     OW 8246   3.796   7.929   8.690  0.0448  0.0268 -0.3069
34137SOL    HW1 8247   3.839   7.954   8.608  0.0949  1.3483  0.0925
34137SOL    HW2 8248   3.866   7.932   8.756 -0.2940  0.4396  0.0395
34138SOL     OW 8249   1.680   7.954   9.865  0.2464 -0.1668  0.3156
34138SOL    HW1 8250   1.620   7.942   9.791 -0.5420  0.7031  0.7954
34138SOL    HW2 8251   1.736   8.027   9.839  0.1774 -0.0684  0.4389
34139SOL     OW 8252   4.462   1.751   5.309  0.3785  0.0889 -0.4658
34139SOL    HW1 8253   4.371   1.777   5.328  0.2052 -0.8154  0.0474
34139SOL    HW2 8254   4.513   1.831   5.321 -0.4108  0.7274 -1.2544
34140SOL     OW 8255   1.975   7.889   4.647  0.6305  0.2456 -0.3617
34140SOL    HW1 8256   1.993   7.979   4.619 -0.6920  0.4384 -0.6547
34140SOL    HW2 8257   1.887   7.893   4.684 -0.7100 -1.4852 -3.0922
34141SOL     OW 8258  10.041   4.542   4.937 -0.6881  0.3651  0.6374
34141SOL    HW1 8259  10.013   4.450   4.947  0.1857  0.2527  2.5650
34141SOL    HW2 8260   9.999   4.587   5.011  2.3022  0.6067  2.3368
34142SOL     OW 8261   1.109   9.031   0.848  0.0964  0.0449 -0.0438
34142SOL    HW1 8262   1.059   9.075   0.916  1.1249  1.4092 -0.1246
34142SOL    HW2 8263   1.061   9.051   0.767  0.0543  0.2521  0.0311
34143SOL     OW 8264   3.569   4.995   6.907 -0.0985 -0.1206  0.1154
34143SOL    HW1 8265   3.508   5.029   6.842  0.6527  0.6187 -0.2290
34143SOL    HW2 8266   3.654   4.996   6.863  0.0858 -1.7795  0.3397
34144SOL     OW 8267   7.860   8.507   1.633  0.5920 -0.2560  0.0465
34144SOL    HW1 8268   7.811   8.586   1.609  0.5040 -0.1844  0.4640
34144SOL    HW2 8269   7.796   8.436   1.626  1.1703 -0.6480 -2.4705
34145SOL     OW 8270   9.600   9.620   0.860 -0.3408  0.6749 -0.2347
34145SOL    HW1 8271   9.534   9.562   0.823  0.8284 -0.4968 -0.5777
34145SOL    HW2 8272   9.599   9.601   0.954  0.0311  0.0886 -0.3455
34146SOL     OW 8273   1.140   4.731   4.896  0.0378  0.0979 -0.1674
34146SOL    HW1 8274   1.213   4.758   4.841  0.1891  1.1044  0.4931
34146SOL    HW2 8275   1.072   4.702   4.834  0.0661  1.5337 -0.9097
34147SOL     OW 8276   3.322   9.701   0.037  0.1922  0.0672  0.0457
34147SOL    HW1 8277   3.386   9.711  -0.034 -0.0118 -2.0040 -0.5096
34147SOL    HW2 8278   3.338   9.775   0.095  1.6508  0.7734 -1.1919
34148SOL     OW 8279   9.506  10.101   7.272 -0.2658 -0.2051 -0.6118
34148SOL    HW1 8280   9.600  10.118   7.273 -0.6732  2.4539 -1.2684
34148SOL    HW2 8281   9.494  10.032   7.337  2.0718 -0.2968 -0.1880
34149SOL     OW 8282   7.325   8.635   8.698  0.4311 -0.3976  0.2185
34149SOL    HW1 8283   7.275   8.559   8.668 -0.1521  0.3906 -0.8795
34149SOL    HW2 8284   7.318   8.632   8.794 -3.2426  0.6101  0.1497
34150SOL     OW 8285   8.586   1.114   4.361  0.0425 -0.7171 -0.2043
34150SOL    HW1 8286   8.538   1.083   4.438  0.7199  0.8731  0.9352
34150SOL    HW2 8287   8.676   1.085   4.376  0.6024  1.2574  0.6796
34151SOL     OW 8288  10.443   5.282   7.022 -0.5426  0.2914 -0.3410
34151SOL    HW1 8289  10.521   5.247   7.066 -0.1142  0.5297 -0.8897
34151SOL    HW2 8290  10.452   5.377   7.032 -1.7188  0.2779  1.1840
34152SOL     OW 8291  10.154   5.301   9.944 -0.0415 -0.0047 -0.4298
34152SOL    HW1 8292  10.179   5.223   9.993  0.5718  0.5754  0.1999
34152SOL    HW2 8293  10.058   5.296   9.938 -0.0140 -0.7432 -0.3092
34153SOL     OW 8294   3.392  10.310   0.796 -0.3758 -0.0907  0.3514
34153SOL    HW1 8295   3.485  10.300   0.777 -0.4852 -1.6152  0.4608
34153SOL    HW2 8296   3.347  10.261   0.727 -1.1732  1.5257 -0.3272
34154SOL     OW 8297   5.178   8.541   1.302 -0.2834 -0.1143  0.1298
34154SOL    HW1 8298   5.198   8.527   1.209  0.7768  0.3830  0.2787
34154SOL    HW2 8299   5.082   8.549   1.304 -0.3831 -0.8264 -0.8189
34155SOL     OW 8300   2.544   4.667   6.643 -0.1134  0.0051  0.5157
34155SOL    HW1 8301   2.585   4.668   6.557  0.7812  0.4444  0.9286
34155SOL    HW2 8302   2.450   4.656   6.626  0.2873 -2.7107 -0.3860
34156SOL     OW 8303   3.997   8.786   3.886 -0.1832  0.9839  0.9338
34156SOL    HW1 8304   3.973   8.701   3.924 -1.9051  0.4403 -1.1886
34156SOL    HW2 8305   4.070   8.767   3.828  0.3175  1.2190  1.4803
34157SOL     OW 8306   0.380   5.084   1.216  0.4058  0.2283  0.7794
34157SOL    HW1 8307   0.379   5.132   1.299 -0.3033  0.0836  0.8522
34157SOL    HW2 8308   0.341   5.145   1.153 -0.2078 -0.1351  0.8070
34158SOL     OW 8309   4.682   7.568   2.145  0.4895  0.4818  0.3875
34158SOL    HW1 8310   4.614   7.631   2.170 -2.2536 -1.8478 -0.7242
34158SOL    HW2 8311   4.741   7.618   2.088  0.0275  2.6903  1.7299
34159SOL     OW 8312   0.750   0.875   2.222 -0.0500  0.0917  0.2230
34159SOL    HW1 8313   0.678   0.841   2.277  0.9739 -0.8485  1.0242
34159SOL    HW2 8314   0.820   0.812   2.233  0.6837  0.6399 -1.0980
34160SOL     OW 8315   9.120   3.570   0.134  0.1010 -0.4423  0.6467
34160SOL    HW1 8316   9.180   3.502   0.163  0.8501  0.0658  0.3391
34160SOL    HW2 8317   9.035   3.526   0.124  0.2346 -0.9947  1.8494
34161SOL     OW 8318   1.337   1.350   0.872  0.2222  0.1586 -0.4319
34161SOL    HW1 8319   1.382   1.418   0.921 -0.1028  1.5933 -2.0304
34161SOL    HW2 8320   1.366   1.268   0.912  1.5663  1.1794  0.7684
34162SOL     OW 8321   7.602   2.108   8.297 -0.3409 -0.1814  0.2140
34162SOL    HW1 8322   7.657   2.044   8.343 -2.6685 -1.4416  1.4144
34162SOL    HW2 8323   7.663   2.155   8.240  1.7386 -2.4753  0.3654
34163SOL     OW 8324   3.806   2.762   8.872  0.1163  0.2425 -0.0924
34163SOL    HW1 8325   3.756   2.833   8.912 -0.9918 -0.2284 -0.5771
34163SOL    HW2 8326   3.809   2.784   8.779  1.0212  0.3715 -0.0413
34164SOL     OW 8327   2.502   5.888   8.221  0.3991  0.1447 -0.3992
34164SOL    HW1 8328   2.430   5.907   8.160 -0.4519 -1.3045  0.1018
34164SOL    HW2 8329   2.458   5.855   8.299  1.5489  0.8374  0.5654
34165SOL     OW 8330   4.734   3.757   2.812  0.1018 -0.2211 -0.3103
34165SOL    HW1 8331   4.748   3.778   2.905  1.1933  2.2649 -0.9471
34165SOL    HW2 8332   4.764   3.667   2.803  1.2009 -0.0925  1.4980
34166SOL     OW 8333   8.315   4.399   7.571  0.6022 -0.0392  0.0460
34166SOL    HW1 8334   8.371   4.463   7.614 -0.3065  0.5770  0.3488
34166SOL    HW2 8335   8.226   4.433   7.582  0.3286  0.2971 -2.5595
34167SOL     OW 8336  10.193  10.687   2.324 -0.0012 -0.0293  0.3859
34167SOL    HW1 8337  10.287  10.702   2.335  0.4358 -1.3046 -1.2674
34167SOL    HW2 8338  10.176  10.604   2.368 -0.6020  0.6964  1.5887
34168SOL     OW 8339   4.232   7.445   2.039  0.1663  0.1050 -0.0575
34168SOL    HW1 8340   4.178   7.369   2.061  0.7869 -0.2886  0.0930
34168SOL    HW2 8341   4.268   7.475   2.122  0.7323 -0.0496 -0.2430
34169SOL     OW 8342   8.225   5.916   6.070 -0.5622  0.3487  0.2932
34169SOL    HW1 8343   8.260   5.983   6.129  0.8921  0.1213 -0.2627
34169SOL    HW2 8344   8.130   5.923   6.080 -0.4419 -0.9067  4.0645
34170SOL     OW 8345   5.497   6.303   5.575 -0.0440 -0.1173 -0.0933
34170SOL    HW1 8346   5.437   6.332   5.644  0.5189 -0.8253  0.7056
34170SOL    HW2 8347   5.574   6.271   5.621  0.7383  0.2842 -1.0951
34171SOL     OW 8348   5.609   7.844   4.825  0.1779 -0.2253 -0.1599
34171SOL    HW1 8349   5.539   7.893   4.782 -1.6605 -0.8511  1.9218
34171SOL    HW2 8350   5.601   7.869   4.918  1.6154 -1.6387  0.3792
34172SOL     OW 8351   3.750   4.368   6.726 -0.2267  0.5004  0.3267
34172SOL    HW1 8352   3.769   4.448   6.677  0.3829  0.3978  0.3933
34172SOL    HW2 8353   3.656   4.353   6.712  0.1796 -0.3238 -2.0253
34173SOL     OW 8354   4.907   1.662   9.355  0.5581 -0.0005 -0.1866
34173SOL    HW1 8355   4.971   1.620   9.412 -0.2584 -0.4114  0.4523
34173SOL    HW2 8356   4.902   1.604   9.279  0.6809 -0.1568 -0.0768
34174SOL     OW 8357   5.986   3.398   8.980  0.0459  0.0588  0.1182
34174SOL    HW1 8358   5.952   3.483   9.009 -0.2149 -0.3309  0.9864
34174SOL    HW2 8359   5.910   3.339   8.985  0.1544 -0.1693 -0.7564
34175SOL     OW 8360   1.916  10.690   0.339  0.2608 -0.3158  0.4163
34175SOL    HW1 8361   1.826  10.698   0.307  0.4890  1.9131  0.1754
34175SOL    HW2 8362   1.970  10.700   0.261  0.7350  0.4863  0.8328
34176SOL     OW 8363  10.534   3.595   0.476  0.5203 -0.3482  0.3244
34176SOL    HW1 8364  10.528   3.669   0.415 -2.1490  0.2719  1.1908
34176SOL    HW2 8365  10.628   3.580   0.487  1.2023  3.1230  0.3258
34177SOL     OW 8366   0.096   3.882   1.018 -0.7445  0.4522 -0.1032
34177SOL    HW1 8367   0.126   3.906   0.930 -3.1913 -0.1658 -1.2014
34177SOL    HW2 8368   0.016   3.934   1.030 -1.1718 -0.4743  1.1851
34178SOL     OW 8369   8.797   4.935   6.569 -0.7567  0.1059  0.2301
34178SOL    HW1 8370   8.873   4.985   6.597 -0.0221 -1.0017  0.2828
34178SOL    HW2 8371   8.724   4.970   6.621 -0.4274  1.5889 -0.2607
34179SOL     OW 8372   2.135   8.132   6.748  0.3331  0.4824 -0.1059
34179SOL    HW1 8373   2.216   8.167   6.712  0.9927  1.2505  2.0211
34179SOL    HW2 8374   2.154   8.114   6.840 -2.0158  1.1292  0.5883
34180SOL     OW 8375   3.033   2.709   0.883  0.4508 -0.0224  0.3352
34180SOL    HW1 8376   3.097   2.645   0.914  1.9141  2.1220  2.0444
34180SOL    HW2 8377   3.046   2.712   0.788  1.1771 -1.3560  0.3720
34181SOL     OW 8378   8.379   1.286   7.160  0.0683 -0.1458 -0.2070
34181SOL    HW1 8379   8.316   1.318   7.095  0.7359 -2.8699 -2.3706
34181SOL    HW2 8380   8.328   1.277   7.240 -0.7630  3.4358 -0.1683
34182SOL     OW 8381   6.844   2.376   9.250 -0.0819 -0.6433 -0.3654
34182SOL    HW1 8382   6.854   2.358   9.156 -0.8881  0.8621 -0.7803
34182SOL    HW2 8383   6.932   2.397   9.280  0.0914 -0.5663 -0.9216
34183SOL     OW 8384   4.363   4.387   8.595 -0.0485 -0.5626 -0.3822
34183SOL    HW1 8385   4.420   4.313   8.614 -0.0157 -1.0253 -2.1540
34183SOL    HW2 8386   4.308   4.358   8.523  0.8699  1.5333 -2.0579
34184SOL     OW 8387   4.616   1.290   6.903  0.1406 -0.0665 -0.3656
34184SOL    HW1 8388   4.584   1.281   6.813 -0.8252 -0.0858 -0.0411
34184SOL    HW2 8389   4.675   1.216   6.916  1.7009  0.9157 -1.5326
34185SOL     OW 8390  10.253   3.670   1.151 -0.0811 -0.2941  0.0277
34185SOL    HW1 8391  10.326   3.616   1.180  0.4536  1.0139  1.2545
34185SOL    HW2 8392  10.220   3.626   1.072  1.2823 -1.5323  0.1043
34186SOL     OW 8393   6.762   8.237   5.092 -0.2208 -0.8359  0.2204
34186SOL    HW1 8394   6.792   8.196   5.010  1.1054  1.0310 -0.2756
34186SOL    HW2 8395   6.834   8.223   5.154 -1.2712 -2.3561  1.1829
34187SOL     OW 8396   2.335   5.356   0.383  0.2964  0.2726 -0.2243
34187SOL    HW1 8397   2.397   5.383   0.451 -0.5984  2.3461 -0.1545
34187SOL    HW2 8398   2.380   5.286   0.335  1.4021 -0.4374  1.7535
34188SOL     OW 8399   0.780   6.080   5.593 -0.4234  0.1028 -0.3030
34188SOL    HW1 8400   0.834   6.141   5.643  0.1001 -1.3951  1.0315
34188SOL    HW2 8401   0.808   6.093   5.502 -0.9424  2.4190 -0.2052
34189SOL     OW 8402  10.574   0.508   3.577 -0.1477 -0.2244 -0.7060
34189SOL    HW1 8403  10.582   0.594   3.536  0.8884  0.3674  0.6783
34189SOL    HW2 8404  10.486   0.508   3.615 -0.7204 -0.3821 -1.9723
34190SOL     OW 8405   3.579   9.134   1.751  0.8457 -0.0760  0.2536
34190SOL    HW1 8406   3.624   9.177   1.824  0.3683  0.6813  0.1197
34190SOL    HW2 8407   3.501   9.096   1.790 -0.6065  2.2294 -0.1557
34191SOL     OW 8408   6.731  10.336   5.783  0.5149  0.4579  0.3017
34191SOL    HW1 8409   6.690  10.359   5.866  1.6847  1.1581  0.7072
34191SOL    HW2 8410   6.745  10.241   5.789 -0.2300  0.3583  0.5186
34192SOL     OW 8411   1.295   7.347   5.709 -0.0671 -0.3816  0.3976
34192SOL    HW1 8412   1.372   7.321   5.660 -0.7864 -2.5232  0.2774
34192SOL    HW2 8413   1.314   7.322   5.799 -0.7564 -1.2979  0.2987
34193SOL     OW 8414   7.807   6.229   6.553 -0.1370  0.9216  0.7033
34193SOL    HW1 8415   7.883   6.242   6.610 -0.2316 -0.4217  1.1757
34193SOL    HW2 8416   7.732   6.232   6.612 -0.2578 -0.1675  0.6356
34194SOL     OW 8417   8.042   2.608   0.493  0.3162 -0.1150  0.3510
34194SOL    HW1 8418   7.978   2.586   0.560 -0.2025  0.2569 -0.0091
34194SOL    HW2 8419   8.098   2.674   0.534  1.5251 -1.6428  1.2372
34195SOL     OW 8420   0.085   2.011   2.580 -0.5647  0.0441 -0.2465
34195SOL    HW1 8421   0.155   2.029   2.517 -1.0977  1.4706 -0.4769
34195SOL    HW2 8422   0.119   1.940   2.635  0.4699 -0.2733 -1.2538
34196SOL     OW 8423   3.407   7.755   9.947 -0.2319 -0.5387  0.2776
34196SOL    HW1 8424   3.349   7.774   9.874  0.0731 -0.1541  0.1253
34196SOL    HW2 8425   3.483   7.812   9.932  0.1864 -1.0334  0.4657
34197SOL     OW 8426   7.808   5.085   9.563 -0.2485 -0.1944 -0.2369
34197SOL    HW1 8427   7.885   5.034   9.590  1.1473  1.9397  0.0679
34197SOL    HW2 8428   7.840   5.138   9.490  0.0202  3.9100  2.4816
34198SOL     OW 8429   1.983   1.874   4.170  0.1606  0.3635  0.3826
34198SOL    HW1 8430   1.903   1.875   4.117  0.9196  0.7977 -0.7910
34198SOL    HW2 8431   2.027   1.792   4.146  0.5772  0.6300  0.2291
34199SOL     OW 8432   0.302   7.999  10.112 -0.4253 -0.5582 -0.0489
34199SOL    HW1 8433   0.210   7.972  10.117 -0.8784  0.9434  0.1242
34199SOL    HW2 8434   0.328   8.010  10.204 -0.9577  1.7969 -0.1345
34200SOL     OW 8435   0.602   6.569   9.419  0.9045  0.4717  0.1038
34200SOL    HW1 8436   0.619   6.652   9.375  0.4190  0.9767  0.8469
34200SOL    HW2 8437   0.685   6.521   9.413  1.2378  1.0761 -0.1799
34201SOL     OW 8438   2.247   7.807   5.576 -0.9526  0.0013 -0.8355
34201SOL    HW1 8439   2.303   7.855   5.514 -0.3654 -0.2898 -0.5470
34201SOL    HW2 8440   2.209   7.736   5.525 -1.5695  0.5821 -1.1881
34202SOL     OW 8441   7.690   7.150   8.128  0.2644 -0.0356 -0.5784
34202SOL    HW1 8442   7.777   7.111   8.118 -0.8552 -3.0099  0.2062
34202SOL    HW2 8443   7.694   7.230   8.077  2.9431 -0.9302 -1.9704
34203SOL     OW 8444   9.805   2.756   2.293 -0.0571 -0.1422 -0.4958
34203SOL    HW1 8445   9.835   2.842   2.263 -0.4523  1.2534  2.7573
34203SOL    HW2 8446   9.711   2.757   2.279 -0.3575  0.8300  1.3640
34204SOL     OW 8447   4.655   1.896   8.454  0.8365 -0.0641 -0.0952
34204SOL    HW1 8448   4.568   1.913   8.418  0.6212 -2.1866 -0.7571
34204SOL    HW2 8449   4.713   1.952   8.403  0.0929 -0.3389 -1.3044
34205SOL     OW 8450   0.821  10.701   3.968 -0.1391 -0.5266  0.2234
34205SOL    HW1 8451   0.815  10.640   3.894  0.2363  0.4415 -0.6264
34205SOL    HW2 8452   0.913  10.727   3.970 -0.5178  0.9643 -0.2407
34206SOL     OW 8453  10.229   5.000   3.239 -0.0128  0.3334 -0.3060
34206SOL    HW1 8454  10.193   5.078   3.282 -0.0054  0.2004 -0.0531
34206SOL    HW2 8455  10.226   4.933   3.307 -0.7385 -0.0952 -0.7558
34207SOL     OW 8456   4.220   4.381   4.894  0.4964 -0.3315  0.5273
34207SOL    HW1 8457   4.229   4.320   4.821  1.2962 -0.2118  0.5151
34207SOL    HW2 8458   4.135   4.424   4.879  1.7422  1.5902 -1.8298
34208SOL     OW 8459   6.719   6.089   9.761  1.0535 -0.0665  0.1698
34208SOL    HW1 8460   6.740   6.081   9.669 -1.0163  0.7969 -0.4495
34208SOL    HW2 8461   6.706   5.999   9.791 -0.3388 -0.2899 -0.9708
34209SOL     OW 8462   2.540   0.566   5.559  0.1088  0.0312  0.5548
34209SOL    HW1 8463   2.556   0.476   5.587 -0.2694  0.1576  1.2015
34209SOL    HW2 8464   2.601   0.580   5.487  0.0202 -0.8111  0.3051
34210SOL     OW 8465   9.588   0.941   8.540 -0.6513  0.6859  0.1703
34210SOL    HW1 8466   9.580   0.861   8.593 -1.1975  0.0431 -0.8466
34210SOL    HW2 8467   9.636   1.002   8.596  1.3998 -0.9386  0.3316
34211SOL     OW 8468   8.693   6.008   9.062  0.1083 -0.1053 -0.2587
34211SOL    HW1 8469   8.635   5.934   9.080 -0.2675  0.3742  0.5608
34211SOL    HW2 8470   8.717   6.041   9.148  0.6249  0.4624 -0.6119
34212SOL     OW 8471   0.775   7.290   8.061  0.4792  0.6062 -0.3490
34212SOL    HW1 8472   0.830   7.319   8.134 -0.3331 -1.0456  0.9860
34212SOL    HW2 8473   0.691   7.333   8.076  0.1239 -0.2081  0.0713
34213SOL     OW 8474   0.225   8.782  10.209 -0.2487 -0.0577  0.1730
34213SOL    HW1 8475   0.311   8.753  10.178 -0.2473 -0.0207  0.1417
34213SOL    HW2 8476   0.226   8.877  10.195 -0.8770 -0.2405 -1.2692
34214SOL     OW 8477   4.668   2.458   7.258 -0.0826 -0.0648 -0.1350
34214SOL    HW1 8478   4.589   2.503   7.285 -1.4197 -1.2141 -1.9185
34214SOL    HW2 8479   4.693   2.405   7.334 -2.0056 -0.9650 -0.0879
34215SOL     OW 8480   6.840   6.218  10.335  0.0989  0.1366 -0.6946
34215SOL    HW1 8481   6.791   6.231  10.254  0.7608 -0.7419 -1.2536
34215SOL    HW2 8482   6.932   6.220  10.308  0.3404  0.3328  0.1136
34216SOL     OW 8483   2.687   2.206   0.030  0.1789 -0.1931  0.1044
34216SOL    HW1 8484   2.770   2.203  -0.017  0.5824 -1.1671  0.8545
34216SOL    HW2 8485   2.631   2.263  -0.024  1.8311  1.8307  0.4229
34217SOL     OW 8486   5.646   3.371   3.626  0.6827 -0.2483  0.3001
34217SOL    HW1 8487   5.722   3.420   3.592  0.4957 -0.0203  0.2084
34217SOL    HW2 8488   5.596   3.347   3.549  0.7804 -0.6030  0.3436
34218SOL     OW 8489   9.034   2.191   2.439 -0.3944 -0.2512 -0.2444
34218SOL    HW1 8490   8.945   2.156   2.448 -1.2324  1.6292 -0.8277
34218SOL    HW2 8491   9.046   2.203   2.344  0.8378 -1.2908 -0.2537
34219SOL     OW 8492   5.957   9.090   0.315 -0.3165 -0.1406 -0.4760
34219SOL    HW1 8493   6.011   9.058   0.387 -1.2628 -0.7426 -0.0197
34219SOL    HW2 8494   5.875   9.116   0.355  0.1766  2.3705 -0.9131
34220SOL     OW 8495   1.466   0.387   6.137 -0.0749 -0.0296 -0.3613
34220SOL    HW1 8496   1.408   0.322   6.176 -0.7426  0.8716  0.1741
34220SOL    HW2 8497   1.547   0.379   6.187  1.2497 -2.9851 -2.6485
34221SOL     OW 8498  10.067   0.494   0.599  0.1640  0.8190  0.0372
34221SOL    HW1 8499  10.131   0.511   0.530  2.4880  2.2298  2.3608
34221SOL    HW2 8500  10.104   0.421   0.649 -1.3301  0.0089  0.0229
34222SOL     OW 8501   1.245   2.536   8.840  0.0610  0.1703  0.4271
34222SOL    HW1 8502   1.263   2.589   8.918 -1.4171  2.6255 -0.7977
34222SOL    HW2 8503   1.305   2.570   8.774 -1.7136  1.2050 -0.7137
34223SOL     OW 8504  10.491   9.833   3.865 -0.3214 -0.0197  0.2929
34223SOL    HW1 8505  10.471   9.925   3.846 -0.8602  0.1948  1.7442
34223SOL    HW2 8506  10.524   9.834   3.955  1.2137 -1.0690 -0.2304
34224SOL     OW 8507   9.348   7.627   2.993  0.0931 -0.6844  0.2521
34224SOL    HW1 8508   9.317   7.638   2.903 -1.8188  4.2439  1.1691
34224SOL    HW2 8509   9.438   7.657   2.991  0.2126 -1.0485 -0.0593
34225SOL     OW 8510   0.801   1.955   7.831  0.0919  0.9621 -0.1891
34225SOL    HW1 8511   0.885   1.909   7.826 -0.8179 -1.3435  2.6644
34225SOL    HW2 8512   0.803   1.999   7.916 -1.8177  0.1715  0.3225
34226SOL     OW 8513   4.750   0.519   3.408 -0.1942 -0.2474  0.3551
34226SOL    HW1 8514   4.667   0.559   3.382  1.0852  1.1130 -1.9407
34226SOL    HW2 8515   4.759   0.442   3.351  1.2161  1.0237 -1.2292
34227SOL     OW 8516   3.910   4.283   9.159  0.1412  0.7253 -0.0539
34227SOL    HW1 8517   3.886   4.325   9.076  0.4701 -0.8994 -1.0325
34227SOL    HW2 8518   3.990   4.328   9.186  1.1290  0.0483 -1.6626
34228SOL     OW 8519   0.380   3.480   6.891 -0.4306  0.4322 -0.1800
34228SOL    HW1 8520   0.324   3.431   6.831 -0.8384  0.4551  0.1780
34228SOL    HW2 8521   0.445   3.523   6.835  0.1115 -0.7456 -0.4735
34229SOL     OW 8522   1.724   8.570   5.961 -0.2770  0.0307  0.2200
34229SOL    HW1 8523   1.746   8.569   5.868 -1.7876  0.3942 -0.1698
34229SOL    HW2 8524   1.665   8.496   5.973  0.7477 -0.6790  1.1436
34230SOL     OW 8525   2.962   4.191   3.688  0.0925 -0.1407 -0.4303
34230SOL    HW1 8526   2.913   4.201   3.607  0.4942  0.7219 -0.5825
34230SOL    HW2 8527   3.037   4.136   3.665 -0.0624 -0.3105 -0.5258
34231SOL     OW 8528   0.554   5.688   1.117 -0.3213 -0.5171  0.1867
34231SOL    HW1 8529   0.580   5.757   1.056  0.0860  0.1563  1.0954
34231SOL    HW2 8530   0.459   5.679   1.104 -0.7734  1.7052  1.5019
34232SOL     OW 8531   0.671   5.412   6.563  0.4837 -0.2719 -0.0089
34232SOL    HW1 8532   0.680   5.507   6.574 -0.7009 -0.3643  2.2476
34232SOL    HW2 8533   0.750   5.376   6.603 -0.5702 -0.3048  2.1999
34233SOL     OW 8534   8.544   8.809   3.652  0.0923  0.0128 -0.0465
34233SOL    HW1 8535   8.467   8.756   3.669  0.2317  0.1980  1.2444
34233SOL    HW2 8536   8.526   8.851   3.568 -2.1401  1.6271  1.1133
34234SOL     OW 8537   8.713   0.948   9.241  0.1835 -0.8344 -0.3195
34234SOL    HW1 8538   8.632   0.914   9.202  0.6259 -0.1169 -1.9504
34234SOL    HW2 8539   8.767   0.871   9.255  0.1194 -1.1005 -1.4338
34235SOL     OW 8540   2.589   1.197   4.962  0.5785  0.2358 -0.2347
34235SOL    HW1 8541   2.614   1.126   4.903  2.5568  0.9380 -0.2941
34235SOL    HW2 8542   2.558   1.267   4.904  0.7728  0.2449 -0.3288
34236SOL     OW 8543   1.345   5.259   0.209  0.1015 -0.1111 -0.1464
34236SOL    HW1 8544   1.289   5.335   0.226  2.5647  2.0460 -0.9940
34236SOL    HW2 8545   1.335   5.243   0.116 -0.8528 -1.2742  0.1330
34237SOL     OW 8546   4.099   8.038   4.008 -0.0594  0.4138  0.3346
34237SOL    HW1 8547   4.138   7.952   3.988 -1.0434  0.1963 -0.6972
34237SOL    HW2 8548   4.014   8.017   4.045 -0.6233  0.9526 -0.6236
34238SOL     OW 8549   9.615   7.473   2.765  0.3206 -0.3553  0.3310
34238SOL    HW1 8550   9.556   7.398   2.756 -0.5370  0.2212  0.9652
34238SOL    HW2 8551   9.622   7.486   2.859 -1.2406  1.6398  0.2363
34239SOL     OW 8552   8.727   6.290   3.022 -0.7263 -0.5040 -0.5003
34239SOL    HW1 8553   8.717   6.198   2.996 -0.9923 -0.2401 -1.3671
34239SOL    HW2 8554   8.637   6.320   3.036 -0.7022 -0.1532 -1.0509
34240SOL     OW 8555   7.207  10.359  10.513  0.9177 -0.0264  0.6604
34240SOL    HW1 8556   7.226  10.434  10.456  1.1135  0.3724  1.2378
34240SOL    HW2 8557   7.148  10.394  10.579  1.3660 -0.2713  1.1932
34241SOL     OW 8558   2.533   1.388   3.173 -0.1088  0.1354 -0.7051
34241SOL    HW1 8559   2.524   1.478   3.205 -0.7126  0.2485 -1.1801
34241SOL    HW2 8560   2.518   1.394   3.079  1.6821 -0.1805 -1.0643
34242SOL     OW 8561   2.413   2.495   0.189 -0.6194  0.4047  0.0533
34242SOL    HW1 8562   2.371   2.579   0.208 -2.0547 -0.0457 -0.9611
34242SOL    HW2 8563   2.363   2.431   0.239  0.6387  0.1519  1.0378
34243SOL     OW 8564   8.858   3.529   5.003 -0.5481  0.2230 -0.6471
34243SOL    HW1 8565   8.796   3.582   5.053 -0.1352  1.4590 -1.3793
34243SOL    HW2 8566   8.804   3.469   4.953 -1.2193  1.5227 -1.5493
34244SOL     OW 8567   4.163   0.728   7.056 -0.1400  0.5860 -0.0073
34244SOL    HW1 8568   4.143   0.715   6.964  1.1098  3.2852 -0.7443
34244SOL    HW2 8569   4.093   0.683   7.103 -1.0001 -0.5239 -2.2532
34245SOL     OW 8570  10.227   9.055  10.068 -0.0254  0.2325  0.5671
34245SOL    HW1 8571  10.222   9.044  10.163 -0.5110 -0.6044  0.4514
34245SOL    HW2 8572  10.225   8.966  10.033  0.0012  0.5375 -0.2417
34246SOL     OW 8573   1.427   2.056   8.942  0.6153 -1.0499  0.3499
34246SOL    HW1 8574   1.371   2.085   8.871  0.7372 -0.4955  0.4809
34246SOL    HW2 8575   1.472   2.135   8.972  0.1454 -1.1664  1.4208
34247SOL     OW 8576   8.972   1.514   0.533  0.0744  0.1353 -0.3103
34247SOL    HW1 8577   8.976   1.476   0.445 -0.4838  0.6181 -0.5557
34247SOL    HW2 8578   8.888   1.560   0.534  0.4390  0.7910  0.2076
34248SOL     OW 8579   3.042   7.599   5.275  0.1351  0.2733  0.5022
34248SOL    HW1 8580   3.067   7.542   5.348 -0.9459 -2.2078 -0.9378
34248SOL    HW2 8581   3.107   7.580   5.207 -0.0538  1.0226  0.1010
34249SOL     OW 8582   4.737   8.462  10.288  0.5611  0.1397 -0.4027
34249SOL    HW1 8583   4.667   8.419  10.338 -1.7431  3.2566 -0.6627
34249SOL    HW2 8584   4.807   8.477  10.352 -0.9587  1.0662  1.1146
34250SOL     OW 8585   1.631   6.324   3.500 -0.5349 -0.1096  0.4239
34250SOL    HW1 8586   1.696   6.277   3.448  0.8632  1.1279  0.9458
34250SOL    HW2 8587   1.553   6.328   3.445  0.4227 -0.0915 -0.9682
34251SOL     OW 8588   2.646   3.936   3.807  0.9622  0.3535 -0.7422
34251SOL    HW1 8589   2.611   3.955   3.720 -0.3329  0.3513 -0.2385
34251SOL    HW2 8590   2.601   3.997   3.865  1.9963  0.5236 -0.0936
34252SOL     OW 8591   7.060   5.570   0.429  0.8028 -0.0085  0.5970
34252SOL    HW1 8592   7.091   5.605   0.513  1.6651 -1.5065  0.9305
34252SOL    HW2 8593   7.132   5.516   0.397 -0.0089 -0.4751 -0.4887
34253SOL     OW 8594   4.891   6.741   0.728 -0.0605  0.1487 -0.0546
34253SOL    HW1 8595   4.933   6.656   0.715  0.8522  0.1069  2.5649
34253SOL    HW2 8596   4.804   6.719   0.762  0.1176  0.2428  0.4700
34254SOL     OW 8597   1.392   8.951   4.135 -0.0915 -0.0669  0.4396
34254SOL    HW1 8598   1.445   8.979   4.209  0.8727 -1.3313  0.2789
34254SOL    HW2 8599   1.433   8.869   4.106 -0.7244  0.1494 -1.1894
34255SOL     OW 8600   7.499   2.635   1.893 -0.5067 -0.2249 -0.3863
34255SOL    HW1 8601   7.521   2.569   1.958  1.2303  1.3398  0.7298
34255SOL    HW2 8602   7.407   2.656   1.909  0.3639  1.6672  3.1618
34256SOL     OW 8603   9.762   5.040   3.079  0.1745 -0.1974 -0.1724
34256SOL    HW1 8604   9.796   5.005   3.162  1.1640 -0.1661 -0.5613
34256SOL    HW2 8605   9.700   4.974   3.049  0.2713 -0.5024  0.2879
34257SOL     OW 8606   6.022   3.638   2.624  0.3680  0.4061 -0.3934
34257SOL    HW1 8607   6.047   3.549   2.602 -0.5791  0.1195 -0.3353
34257SOL    HW2 8608   6.066   3.692   2.558  0.4318 -0.1502 -0.8102
34258SOL     OW 8609   7.090   6.036  10.471  0.1257 -0.4485  0.0256
34258SOL    HW1 8610   7.103   6.131  10.468  1.3750 -0.5457  1.0464
34258SOL    HW2 8611   7.035   6.021  10.548  0.1931 -0.5684  0.0512
34259SOL     OW 8612   4.181   4.933   2.091 -0.4531 -0.2778  0.0083
34259SOL    HW1 8613   4.268   4.894   2.097 -0.5556 -0.4066  0.7329
34259SOL    HW2 8614   4.174   4.963   2.000  0.9862  1.2010  0.3442
34260SOL     OW 8615   3.407   3.274   4.167 -0.3446 -0.0641 -0.7724
34260SOL    HW1 8616   3.407   3.351   4.111 -1.4082 -0.0830 -0.8233
34260SOL    HW2 8617   3.348   3.296   4.239 -0.1006 -0.5722 -0.4050
34261SOL     OW 8618   7.052   0.734   2.841  0.0005 -0.5876  0.5175
34261SOL    HW1 8619   7.139   0.694   2.837  0.0105 -0.6468  1.1623
34261SOL    HW2 8620   7.069   0.827   2.849 -0.0135 -0.5110 -0.2556
34262SOL     OW 8621   7.884   6.711   3.143 -0.6067 -0.0649  0.0238
34262SOL    HW1 8622   7.945   6.670   3.082  1.5366  2.8406 -0.0125
34262SOL    HW2 8623   7.818   6.752   3.088 -0.2119  0.2517 -0.2251
34263SOL     OW 8624   7.559   0.204   4.360  0.4488 -0.1716 -0.0998
34263SOL    HW1 8625   7.643   0.193   4.405 -0.2168 -0.3341  1.1398
34263SOL    HW2 8626   7.502   0.138   4.400 -0.9734  1.5598  0.8588
34264SOL     OW 8627   1.970   8.608   5.204  0.3127 -0.1817 -0.0478
34264SOL    HW1 8628   1.987   8.528   5.155 -1.1221 -0.3332 -0.3430
34264SOL    HW2 8629   1.935   8.669   5.139  1.5688  0.7779  0.1308
34265SOL     OW 8630   7.813  10.203   5.567  0.1453 -0.3951 -0.1411
34265SOL    HW1 8631   7.768  10.137   5.515 -1.1788  0.7648 -0.5387
34265SOL    HW2 8632   7.763  10.207   5.649 -0.3229  0.6746 -0.4553
34266SOL     OW 8633   4.154   4.011   7.688 -0.1619 -0.1454  0.2142
34266SOL    HW1 8634   4.201   4.062   7.622  0.5180 -1.7954 -0.6336
34266SOL    HW2 8635   4.066   4.000   7.652 -0.2629  0.2670  0.3266
34267SOL     OW 8636   5.325   7.882   7.226 -0.3753  0.2638 -0.3514
34267SOL    HW1 8637   5.324   7.977   7.212  0.7863 -0.0204 -2.9467
34267SOL    HW2 8638   5.416   7.863   7.251 -0.2340 -0.2874 -1.2380
34268SOL     OW 8639   1.331   7.817   2.924  0.2836  0.5769 -0.2229
34268SOL    HW1 8640   1.247   7.772   2.929  0.2599  0.5420 -0.8277
34268SOL    HW2 8641   1.350   7.821   2.830  0.2571  1.8691 -0.1959
34269SOL     OW 8642   4.471   1.753   0.343  0.7116 -0.2435  0.3767
34269SOL    HW1 8643   4.512   1.668   0.360  0.0213 -0.2869  1.9575
34269SOL    HW2 8644   4.383   1.732   0.313 -0.2188 -0.1021  2.8651
34270SOL     OW 8645   4.286   4.263   0.074  0.1595 -0.0783 -0.5178
34270SOL    HW1 8646   4.197   4.230   0.061 -0.0912  0.4836 -0.2542
34270SOL    HW2 8647   4.341   4.184   0.074 -0.5314 -0.5975  0.9818
34271SOL     OW 8648   5.158   5.639   5.305 -0.3390  0.4542  0.0465
34271SOL    HW1 8649   5.148   5.558   5.355 -0.1055  0.2495 -0.2341
34271SOL    HW2 8650   5.094   5.699   5.343 -1.8442 -0.4417 -0.9275
34272SOL     OW 8651   4.977   9.912   2.377  0.1528 -0.3938  0.4938
34272SOL    HW1 8652   4.910   9.844   2.368 -1.4056  0.9395  1.2867
34272SOL    HW2 8653   4.988   9.946   2.288  0.2752 -1.0744  0.2430
34273SOL     OW 8654   9.124   1.831   9.976 -0.3417  0.4523 -0.0027
34273SOL    HW1 8655   9.056   1.894  10.000 -1.4788 -0.6916 -0.1346
34273SOL    HW2 8656   9.125   1.768  10.048  1.2805  0.9674  0.4746
34274SOL     OW 8657   9.712   8.247   9.629  0.0325 -0.5076 -0.6165
34274SOL    HW1 8658   9.634   8.258   9.574 -0.8808 -1.6873  0.3865
34274SOL    HW2 8659   9.687   8.180   9.692  1.0321  0.8233  1.2842
34275SOL     OW 8660   9.107   8.016   8.020  0.1713 -0.6007 -0.2329
34275SOL    HW1 8661   9.083   7.949   7.955  0.0148 -0.0064 -0.7931
34275SOL    HW2 8662   9.024   8.037   8.063 -0.2232  0.8585 -1.6092
34276SOL     OW 8663   6.554   7.288   4.914  0.3242  0.0124  0.4827
34276SOL    HW1 8664   6.646   7.263   4.916  0.5746  0.9069  0.5850
34276SOL    HW2 8665   6.520   7.262   5.000  0.5953  0.0838  0.6142
34277SOL     OW 8666   0.345   2.633   1.088  0.0462  0.6747  0.0682
34277SOL    HW1 8667   0.346   2.725   1.115  0.4445 -0.1318  3.3121
34277SOL    HW2 8668   0.302   2.588   1.161 -1.5736 -1.5707 -2.1097
34278SOL     OW 8669   8.083   5.724   9.755  0.0057 -0.0820  0.2408
34278SOL    HW1 8670   8.138   5.796   9.722  0.4958  0.1328  1.4674
34278SOL    HW2 8671   8.113   5.647   9.706 -0.7218  0.5612 -1.3012
34279SOL     OW 8672   8.530   2.489   3.660  0.4545 -0.5897 -0.0207
34279SOL    HW1 8673   8.560   2.402   3.688  0.0352 -1.6641 -2.5418
34279SOL    HW2 8674   8.611   2.536   3.638  0.7404  0.0475  2.2217
34280SOL     OW 8675   2.213   1.705   7.966 -0.1875  0.0232 -0.6932
34280SOL    HW1 8676   2.183   1.618   7.995  0.8277 -0.4651 -1.0442
34280SOL    HW2 8677   2.308   1.696   7.961 -0.1335  0.9419 -1.4593
34281SOL     OW 8678   5.289  10.210   2.509 -0.0449 -0.3634  0.0311
34281SOL    HW1 8679   5.358  10.184   2.570  0.1193  1.1091  0.5150
34281SOL    HW2 8680   5.278  10.304   2.524 -2.3718 -0.6075  0.1536
34282SOL     OW 8681   5.383   6.480   0.402  0.3618 -0.2331  0.2965
34282SOL    HW1 8682   5.332   6.499   0.480 -0.7055 -0.0192 -0.4318
34282SOL    HW2 8683   5.460   6.537   0.409 -0.7447  1.3412  0.1805
34283SOL     OW 8684   6.256   0.020   4.766 -0.2043  0.6833 -0.3726
34283SOL    HW1 8685   6.282   0.067   4.687  1.0332  0.2602 -0.2428
34283SOL    HW2 8686   6.194  -0.046   4.736  0.9994 -0.1244 -1.1596
34284SOL     OW 8687   5.456   6.046   9.635  0.7549  1.0504  0.1444
34284SOL    HW1 8688   5.453   6.000   9.551  1.6099 -0.2264  0.7844
34284SOL    HW2 8689   5.549   6.061   9.651  0.5692  1.6568  0.6779
34285SOL     OW 8690   5.700   0.166   6.515  0.7798 -0.6098  0.3384
34285SOL    HW1 8691   5.666   0.195   6.600 -0.0895 -1.0933  0.1633
34285SOL    HW2 8692   5.624   0.132   6.469  1.5202 -1.8534 -0.0113
34286SOL     OW 8693   6.329   0.728   7.585  0.2574 -0.1704 -0.0040
34286SOL    HW1 8694   6.405   0.703   7.533  0.2046 -0.1876 -0.0728
34286SOL    HW2 8695   6.262   0.750   7.521 -0.1501 -1.2189  0.0404
34287SOL     OW 8696  10.021  10.252  10.515  0.0349  0.4121 -0.2976
34287SOL    HW1 8697   9.952  10.243  10.581 -0.1372 -1.4239 -0.6758
34287SOL    HW2 8698  10.007  10.339  10.477 -1.5494  0.4067  0.2037
34288SOL     OW 8699   5.957   7.573   1.227 -0.1506  0.0935  0.2033
34288SOL    HW1 8700   6.041   7.579   1.182 -1.0217  0.8333 -1.4202
34288SOL    HW2 8701   5.975   7.603   1.316  1.1623  0.9462 -0.3240
34289SOL     OW 8702   4.714   9.560   4.631  0.0861  0.0939 -0.0491
34289SOL    HW1 8703   4.799   9.555   4.589  0.8752  0.7973  1.4143
34289SOL    HW2 8704   4.728   9.612   4.710 -1.7740  0.5582  0.0383
34290SOL     OW 8705   0.277   8.952   7.152  0.5121  0.0362 -0.0086
34290SOL    HW1 8706   0.228   9.027   7.118  0.7994  0.6096  0.7996
34290SOL    HW2 8707   0.214   8.880   7.152  0.1623  0.3408 -0.5665
34291SOL     OW 8708   4.992   6.214   8.330 -0.6229 -0.2228  0.0472
34291SOL    HW1 8709   5.050   6.153   8.283 -1.7728 -1.3070 -0.0298
34291SOL    HW2 8710   5.051   6.269   8.381  0.5272 -0.5913 -0.8331
34292SOL     OW 8711   2.852   8.039   6.761 -0.5589  1.0557 -0.6581
34292SOL    HW1 8712   2.845   8.029   6.666  0.2213  0.8104 -0.6995
34292SOL    HW2 8713   2.785   8.103   6.783 -1.1329  0.6865 -1.2951
34293SOL     OW 8714   6.894   1.229   5.522  0.2019 -0.0359 -0.6671
34293SOL    HW1 8715   6.799   1.226   5.535  0.2957 -0.2619 -0.0182
34293SOL    HW2 8716   6.908   1.309   5.471 -0.3005  0.2185 -0.4168
34294SOL     OW 8717   2.700   8.021   3.315 -0.5362  0.1162 -0.2996
34294SOL    HW1 8718   2.641   7.946   3.326 -1.8501  1.0926 -0.4735
34294SOL    HW2 8719   2.660   8.091   3.367  0.0170  1.0441 -1.0913
34295SOL     OW 8720   5.414   4.441   2.091 -0.5453  0.0340  0.2062
34295SOL    HW1 8721   5.509   4.430   2.097 -0.7782 -1.4750  2.4828
34295SOL    HW2 8722   5.398   4.529   2.125  0.0038  0.0771  0.3625
34296SOL     OW 8723   8.016   4.355   1.414  0.1300 -0.0443  0.3916
34296SOL    HW1 8724   8.082   4.423   1.400  1.7746 -1.8215 -0.9981
34296SOL    HW2 8725   7.984   4.334   1.326 -0.1530 -1.2487  0.7631
34297SOL     OW 8726   3.495   4.723   6.276 -0.4354 -0.0106 -0.1319
34297SOL    HW1 8727   3.510   4.643   6.225  0.2766 -0.9361  1.4515
34297SOL    HW2 8728   3.578   4.768   6.276 -0.6663  0.4142 -0.5011
34298SOL     OW 8729   0.452   3.086   9.142  0.2788  0.0057 -0.8206
34298SOL    HW1 8730   0.399   3.022   9.095  0.7714 -0.4130 -0.8236
34298SOL    HW2 8731   0.482   3.038   9.220  2.2812 -0.4436 -1.8003
34299SOL     OW 8732   8.556   6.624   8.958 -0.1588  0.0993 -0.3226
34299SOL    HW1 8733   8.530   6.561   8.891  1.1240  0.8521 -1.6001
34299SOL    HW2 8734   8.652   6.626   8.952 -0.0883  0.9749  0.8101
34300SOL     OW 8735   3.847   8.498   6.138 -0.5862 -0.2120 -0.0112
34300SOL    HW1 8736   3.889   8.535   6.061  0.7925 -0.6975  0.4763
34300SOL    HW2 8737   3.916   8.496   6.204 -2.3440  2.9410  2.2471
34301SOL     OW 8738   7.896   6.344   1.668  0.2420  0.4065  0.6671
34301SOL    HW1 8739   7.846   6.396   1.606 -0.8338 -2.2464 -0.8529
34301SOL    HW2 8740   7.866   6.374   1.754 -2.4788  0.3415 -0.1650
34302SOL     OW 8741   3.883   7.494  10.686  0.1193 -0.2184  0.7352
34302SOL    HW1 8742   3.807   7.437  10.677 -0.6512  0.9184 -0.3259
34302SOL    HW2 8743   3.951   7.453  10.633 -0.6556  0.1911 -0.6304
34303SOL     OW 8744   4.194   5.335   8.967  0.2573  0.1880  0.2037
34303SOL    HW1 8745   4.208   5.428   8.947  3.5425  0.4177  2.8012
34303SOL    HW2 8746   4.263   5.290   8.919 -0.1472 -0.7109  0.4609
34304SOL     OW 8747   0.760   6.757   2.164  0.2522 -0.4539 -0.0460
34304SOL    HW1 8748   0.822   6.702   2.212 -0.7896 -0.7332  1.0448
34304SOL    HW2 8749   0.698   6.695   2.126 -0.3031 -0.1145  0.2811
34305SOL     OW 8750   2.921   3.244   8.813  0.4809 -0.1243  0.1548
34305SOL    HW1 8751   2.913   3.149   8.805 -0.2588  0.0974 -2.8708
34305SOL    HW2 8752   2.832   3.277   8.804  0.6823  0.8769  1.5183
34306SOL     OW 8753  10.444  10.694   2.967  0.2216  0.3393  0.4179
34306SOL    HW1 8754  10.519  10.668   2.913 -0.7102 -2.5642  0.3522
34306SOL    HW2 8755  10.483  10.745   3.038  2.2926 -1.1620  0.4538
34307SOL     OW 8756   9.908  10.119   8.874  0.6585  0.0444  0.3719
34307SOL    HW1 8757   9.968  10.045   8.866  1.2697  0.4745  0.8949
34307SOL    HW2 8758   9.927  10.173   8.797  0.8230  0.0940  0.4471
34308SOL     OW 8759   5.628   6.227   9.464  0.2714 -0.4252 -0.4519
34308SOL    HW1 8760   5.584   6.161   9.410 -0.2260 -1.4882  1.1811
34308SOL    HW2 8761   5.563   6.253   9.528  0.3961  1.8609 -1.1553
34309SOL     OW 8762   8.098   3.844   2.239 -0.0754  0.0583 -0.7047
34309SOL    HW1 8763   8.176   3.820   2.189 -0.9997 -3.1752 -0.8217
34309SOL    HW2 8764   8.111   3.806   2.325 -0.4855  1.6420  0.0914
34310SOL     OW 8765   0.162   5.314   4.962  0.2748  0.4678 -0.0273
34310SOL    HW1 8766   0.253   5.341   4.958  0.7106 -1.0624 -1.5971
34310SOL    HW2 8767   0.121   5.357   4.886 -0.0106  0.1316 -0.0670
34311SOL     OW 8768   9.788   5.168   1.231 -0.3232  0.4758  0.5589
34311SOL    HW1 8769   9.870   5.210   1.204  0.1691  0.0217  1.3194
34311SOL    HW2 8770   9.787   5.086   1.181  0.6178 -0.3927  1.9085
34312SOL     OW 8771   7.999   0.434   3.895 -0.2139  0.0759  0.4395
34312SOL    HW1 8772   8.001   0.460   3.987 -1.2797 -0.1399  0.5259
34312SOL    HW2 8773   7.915   0.390   3.884 -0.0633  0.0405 -0.6223
34313SOL     OW 8774   0.271   9.265   4.514 -0.4206 -0.4982 -0.3282
34313SOL    HW1 8775   0.273   9.296   4.605 -0.5319  1.2396 -0.8932
34313SOL    HW2 8776   0.353   9.298   4.476 -0.6975 -0.6255 -1.0418
34314SOL     OW 8777   4.505   9.946   3.902  0.3341 -0.8272  0.0761
34314SOL    HW1 8778   4.533   9.855   3.893  2.8477 -0.2291  1.1057
34314SOL    HW2 8779   4.532   9.971   3.990  1.2826  1.3926 -0.7678
34315SOL     OW 8780   6.376   6.699   3.400 -0.5863  0.3044  0.6299
34315SOL    HW1 8781   6.396   6.658   3.316  0.6229  1.9641  0.0421
34315SOL    HW2 8782   6.383   6.793   3.382  1.2436  0.6928  2.9186
34316SOL     OW 8783   0.461   3.233   3.790 -0.0211  0.3770 -0.1080
34316SOL    HW1 8784   0.508   3.225   3.706  1.3384 -0.1130  0.6604
34316SOL    HW2 8785   0.503   3.169   3.847 -0.0547  1.5703  1.3250
34317SOL     OW 8786   1.471   4.228   7.187 -0.0277 -0.0661 -0.1578
34317SOL    HW1 8787   1.492   4.320   7.206  0.3420  0.0767 -1.1976
34317SOL    HW2 8788   1.497   4.182   7.267 -1.4552  0.8760  0.8937
34318SOL     OW 8789   7.305   4.367   4.413 -0.4157  0.4363 -0.1719
34318SOL    HW1 8790   7.351   4.408   4.340 -0.5588  1.5588  0.3413
34318SOL    HW2 8791   7.229   4.424   4.429  1.6676  2.6419  3.3574
34319SOL     OW 8792   9.944   4.523   2.212 -0.3287  0.2895  0.6254
34319SOL    HW1 8793  10.013   4.506   2.276 -2.1383 -0.7214  2.4256
34319SOL    HW2 8794   9.976   4.483   2.131  0.8333 -0.9058  1.6198
34320SOL     OW 8795   6.954   4.241   3.725  0.4488 -0.7918 -0.1844
34320SOL    HW1 8796   6.917   4.157   3.697  0.3774 -2.0875  3.3436
34320SOL    HW2 8797   6.877   4.298   3.734  0.0966 -1.3253  0.3237
34321SOL     OW 8798   8.055   8.126  10.232  0.1956  0.7560  0.7525
34321SOL    HW1 8799   8.090   8.214  10.216  0.6355  0.3012 -1.0297
34321SOL    HW2 8800   8.126   8.079  10.276  0.7978  0.6679 -0.2912
34322SOL     OW 8801   6.902   7.727   1.987  0.2571 -0.2015  0.2322
34322SOL    HW1 8802   6.987   7.764   2.011  0.7028 -1.4868  0.7042
34322SOL    HW2 8803   6.859   7.710   2.071  0.0423 -0.6969  0.0239
34323SOL     OW 8804   6.668   9.923   2.407 -0.2191  0.7744 -0.2040
34323SOL    HW1 8805   6.634  10.011   2.396 -0.0060  0.5505 -3.5597
34323SOL    HW2 8806   6.669   9.886   2.319  1.8695 -1.7837  0.7527
34324SOL     OW 8807   4.231   0.591   8.717 -0.4162 -0.1113  0.4483
34324SOL    HW1 8808   4.293   0.549   8.657 -0.9391 -0.8170  0.3919
34324SOL    HW2 8809   4.190   0.660   8.664  0.6503  0.6959  0.6250
34325SOL     OW 8810   7.165   4.987   3.134 -0.5778 -0.6761  0.1052
34325SOL    HW1 8811   7.155   4.929   3.059 -0.3175 -0.5006 -0.0698
34325SOL    HW2 8812   7.116   4.945   3.204  1.7907 -2.5328  0.7980
34326SOL     OW 8813   8.739   0.654   8.899  0.3455 -0.4284  0.3591
34326SOL    HW1 8814   8.745   0.559   8.907  1.3275 -0.4070  0.0363
34326SOL    HW2 8815   8.813   0.678   8.843 -0.5949  0.3974 -0.5695
34327SOL     OW 8816   4.356   2.244   7.071 -0.2603 -0.0457  0.2037
34327SOL    HW1 8817   4.349   2.295   7.151 -1.1562 -0.5724  0.4715
34327SOL    HW2 8818   4.400   2.163   7.098  1.3710  0.6298 -0.2616
34328SOL     OW 8819   2.006  10.363   8.051  0.4433  0.3593  0.2238
34328SOL    HW1 8820   2.041  10.446   8.021 -0.7937  0.7166 -0.2793
34328SOL    HW2 8821   1.914  10.381   8.073 -1.0384 -1.5877 -3.4382
34329SOL     OW 8822   9.768   3.830   2.772 -0.3071 -0.4385 -0.9571
34329SOL    HW1 8823   9.763   3.808   2.679 -0.4134  0.0402 -1.0698
34329SOL    HW2 8824   9.677   3.828   2.802 -0.4596  0.9287 -1.2395
34330SOL     OW 8825   1.617   5.218   9.874  0.7611 -0.5633  0.3311
34330SOL    HW1 8826   1.656   5.226   9.787 -0.1149  3.4458  0.1145
34330SOL    HW2 8827   1.691   5.229   9.934  0.6568  3.4797 -0.0646
34331SOL     OW 8828   1.447   4.322   7.653  0.4927 -0.0510  0.2826
34331SOL    HW1 8829   1.451   4.402   7.600  1.0841 -0.4051 -0.2244
34331SOL    HW2 8830   1.396   4.346   7.730  0.1014  0.6327 -0.1845
34332SOL     OW 8831   2.815   0.008   9.912 -0.4854 -0.6614 -0.5294
34332SOL    HW1 8832   2.887   0.069   9.926 -0.0713 -0.8434 -1.6791
34332SOL    HW2 8833   2.767   0.007   9.994 -1.6126  2.6160 -1.0253
34333SOL     OW 8834   1.404   0.807   1.286 -0.0709 -0.1387 -0.2051
34333SOL    HW1 8835   1.468   0.785   1.219 -0.0936 -1.3359  0.1425
34333SOL    HW2 8836   1.333   0.744   1.274 -0.4060  0.0931  0.4758
34334SOL     OW 8837   5.250   2.323   0.741  0.4735  0.1752 -0.1698
34334SOL    HW1 8838   5.272   2.373   0.662  0.7110  0.7391  0.2431
34334SOL    HW2 8839   5.298   2.241   0.732  0.4539  0.2135 -0.6377
34335SOL     OW 8840   1.222   3.804   6.744 -0.3249  0.0536  0.0832
34335SOL    HW1 8841   1.227   3.818   6.838 -1.2286  1.0736  0.0010
34335SOL    HW2 8842   1.212   3.710   6.734 -0.8792 -0.0059  1.0519
34336SOL     OW 8843   4.820   3.773   7.799  0.4541  0.3394  0.1889
34336SOL    HW1 8844   4.875   3.724   7.859 -2.3480 -1.2035  1.6628
34336SOL    HW2 8845   4.768   3.830   7.855 -2.3947 -1.2961 -0.6163
34337SOL     OW 8846   6.322   7.574   1.781 -0.2624  0.3927 -0.1501
34337SOL    HW1 8847   6.412   7.549   1.800 -0.1369 -0.2952 -1.5269
34337SOL    HW2 8848   6.284   7.496   1.740 -0.9410  1.2666 -1.2195
34338SOL     OW 8849   9.708   4.763   0.656  0.7596 -0.0954 -0.1448
34338SOL    HW1 8850   9.692   4.671   0.635  0.3503  0.1175 -0.7830
34338SOL    HW2 8851   9.621   4.801   0.667  0.9314 -0.1113  1.6558
34339SOL     OW 8852   6.372   6.255   9.204 -0.1276 -0.4330  0.2403
34339SOL    HW1 8853   6.447   6.277   9.260  0.1941 -0.0539 -0.3234
34339SOL    HW2 8854   6.318   6.198   9.258 -0.1546  0.4326  1.1738
34340SOL     OW 8855   5.642   9.269   5.526 -0.0264  0.4727 -0.1534
34340SOL    HW1 8856   5.663   9.304   5.613 -0.4385  1.2779 -0.3696
34340SOL    HW2 8857   5.550   9.293   5.512 -0.3653 -0.8224 -0.2586
34341SOL     OW 8858   4.815   4.621   6.370  0.6422 -0.0433  0.3731
34341SOL    HW1 8859   4.736   4.673   6.355  0.5938  0.4234  1.9977
34341SOL    HW2 8860   4.859   4.618   6.285 -1.4284 -0.8758 -0.7395
34342SOL     OW 8861   2.554  10.519   3.269  0.2542  0.9267 -0.0731
34342SOL    HW1 8862   2.589  10.598   3.311  0.8170  2.0557 -2.4818
34342SOL    HW2 8863   2.484  10.551   3.212 -0.7666 -0.5933  0.2622
34343SOL     OW 8864   9.522   2.624   6.811  0.1390  0.1282 -0.8636
34343SOL    HW1 8865   9.503   2.714   6.835 -4.4605 -0.8819  0.1826
34343SOL    HW2 8866   9.616   2.615   6.825  0.4764  4.1718  0.8331
34344SOL     OW 8867   4.094   2.692   0.450  0.2535  0.1736 -0.0019
34344SOL    HW1 8868   4.068   2.623   0.390  0.6425  0.2538 -0.2662
34344SOL    HW2 8869   4.169   2.656   0.497 -0.9782 -0.4900  1.5492
34345SOL     OW 8870   1.688   2.562   1.253 -0.2314  0.1627  0.0828
34345SOL    HW1 8871   1.753   2.623   1.220 -0.9792  0.3941 -1.0184
34345SOL    HW2 8872   1.718   2.540   1.341  1.9836 -0.6992 -0.8146
34346SOL     OW 8873   4.363   7.600   5.481 -0.3423  0.5646  0.2876
34346SOL    HW1 8874   4.435   7.632   5.427 -1.1236  0.2940 -0.9769
34346SOL    HW2 8875   4.299   7.671   5.479 -0.9553  0.0148 -0.3203
34347SOL     OW 8876   1.851   7.552   4.367  0.1402 -0.0324  0.1474
34347SOL    HW1 8877   1.806   7.498   4.432 -0.5758  2.0052  1.4603
34347SOL    HW2 8878   1.933   7.578   4.410 -0.4443  1.5183  0.3807
34348SOL     OW 8879   6.218   8.718   7.943  0.2495 -0.4660 -0.5164
34348SOL    HW1 8880   6.270   8.772   7.883  1.8965  0.2161  1.3926
34348SOL    HW2 8881   6.283   8.667   7.991 -0.9069 -0.3561  1.2516
34349SOL     OW 8882   4.017   7.779   1.452  0.3890  0.0078  0.2825
34349SOL    HW1 8883   4.098   7.773   1.501  2.4607  3.2274 -2.3293
34349SOL    HW2 8884   3.986   7.868   1.467 -1.1607 -0.2767 -0.9531
34350SOL     OW 8885   8.454   7.350   2.617  0.1720  0.0427 -0.1975
34350SOL    HW1 8886   8.479   7.328   2.707 -1.3937  1.4203  0.6166
34350SOL    HW2 8887   8.364   7.316   2.609  0.0888  0.4551 -1.0429
34351SOL     OW 8888   9.344  10.290   0.326 -0.2433  0.4301 -0.3902
34351SOL    HW1 8889   9.339  10.211   0.379 -0.0467 -0.4223 -1.6059
34351SOL    HW2 8890   9.323  10.361   0.387 -1.1356 -0.6079  0.5531
34352SOL     OW 8891   7.980   1.220   8.610 -0.1415 -0.3989 -0.3928
34352SOL    HW1 8892   7.940   1.143   8.649  1.3530 -0.5479  0.8974
34352SOL    HW2 8893   8.062   1.189   8.572  0.9422  0.6864  0.9622
34353SOL     OW 8894   4.656   9.218   3.839 -0.0670  0.1034  0.0418
34353SOL    HW1 8895   4.575   9.198   3.792  0.1369  0.2286 -0.3642
34353SOL    HW2 8896   4.722   9.162   3.799  1.0227  2.9590 -2.6202
34354SOL     OW 8897   2.045   8.385   7.165  0.8396 -0.3899  0.1391
34354SOL    HW1 8898   2.058   8.342   7.250  0.0709 -2.0625 -0.5438
34354SOL    HW2 8899   1.986   8.327   7.118  0.2494  1.1469 -1.0949
34355SOL     OW 8900   8.926  10.035   7.032 -0.0109 -0.8722 -0.2155
34355SOL    HW1 8901   8.985   9.976   6.986  0.9770  0.5379 -0.8396
34355SOL    HW2 8902   8.900  10.099   6.966 -0.3039 -0.0621  0.6561
34356SOL     OW 8903   4.283   8.023   0.746  0.1204  0.1641  0.1667
34356SOL    HW1 8904   4.192   8.047   0.763  0.1180  0.6966 -0.5862
34356SOL    HW2 8905   4.278   7.951   0.683  0.1185 -2.0271  2.4843
34357SOL     OW 8906   5.303   4.983   8.056 -0.0045  0.4837 -0.2794
34357SOL    HW1 8907   5.312   4.901   8.009  0.1237  0.8343 -0.8701
34357SOL    HW2 8908   5.208   4.993   8.068 -0.0722  0.6599 -0.9379
34358SOL     OW 8909   6.916   8.552  10.583  0.1138  0.1395 -0.1637
34358SOL    HW1 8910   6.995   8.500  10.601 -0.4458 -1.2003 -1.3572
34358SOL    HW2 8911   6.942   8.642  10.601  1.6410 -0.3698  0.3502
34359SOL     OW 8912   4.266   3.883   5.061 -0.6371  0.3208 -0.1190
34359SOL    HW1 8913   4.303   3.856   4.977 -1.4900  1.1387 -0.7783
34359SOL    HW2 8914   4.172   3.885   5.046 -0.7476  1.3075  0.5891
34360SOL     OW 8915   5.494   8.453   3.759 -0.1213  0.1761 -0.1579
34360SOL    HW1 8916   5.468   8.361   3.754  0.7396 -0.0941  0.1691
34360SOL    HW2 8917   5.416   8.498   3.792 -0.0247 -0.6965  1.3563
34361SOL     OW 8918   2.962   7.266   2.288  0.0405 -0.4743 -0.7664
34361SOL    HW1 8919   2.979   7.286   2.196  0.8127  0.5527 -0.4103
34361SOL    HW2 8920   2.922   7.345   2.323  0.7241 -0.4787  0.0380
34362SOL     OW 8921   4.104   4.155   6.554  0.5840 -0.1129 -0.0070
34362SOL    HW1 8922   4.056   4.177   6.634  2.3819 -2.0359  1.7460
34362SOL    HW2 8923   4.153   4.076   6.577  1.4972 -0.5048 -2.9241
34363SOL     OW 8924   4.733   8.362   3.656  0.2181 -0.1068 -0.2654
34363SOL    HW1 8925   4.807   8.331   3.707  0.9574  2.6244  0.4908
34363SOL    HW2 8926   4.657   8.318   3.694  1.1681 -0.9878  0.6521
34364SOL     OW 8927   6.393   4.621   4.164 -0.0083 -0.7108  0.1882
34364SOL    HW1 8928   6.434   4.668   4.091  1.5752 -0.9975  0.8504
34364SOL    HW2 8929   6.390   4.530   4.135  0.3905 -0.7851  0.3750
34365SOL     OW 8930   0.186   2.554   1.303 -0.0415  0.2497 -0.0250
34365SOL    HW1 8931   0.235   2.523   1.380 -0.6816  0.0912  0.3198
34365SOL    HW2 8932   0.122   2.486   1.286  1.0716 -0.4684 -1.6532
34366SOL     OW 8933   5.603   3.703   0.427 -0.0744  0.4045  0.4532
34366SOL    HW1 8934   5.613   3.790   0.466  0.2690  0.7081 -0.2872
34366SOL    HW2 8935   5.606   3.719   0.332 -0.9581 -0.3051  0.2911
34367SOL     OW 8936   1.694   8.576   5.694  0.1930  0.0533 -0.4986
34367SOL    HW1 8937   1.620   8.634   5.675  1.0241  0.9530 -1.0244
34367SOL    HW2 8938   1.662   8.489   5.667  0.3709  0.8539 -3.7682
34368SOL     OW 8939   1.284   6.440   0.010 -0.7332 -0.4421 -0.3688
34368SOL    HW1 8940   1.367   6.425   0.055  0.0192  0.3798 -1.4452
34368SOL    HW2 8941   1.218   6.403   0.069  0.3739 -0.9711  0.5716
34369SOL     OW 8942   5.543   9.631   6.941 -0.2578  0.1933 -0.5660
34369SOL    HW1 8943   5.616   9.600   6.995 -0.6611  0.0094 -0.1207
34369SOL    HW2 8944   5.522   9.558   6.884 -0.6963 -0.0866 -0.0548
34370SOL     OW 8945   3.449   5.016   5.530  0.4184 -0.8397  0.0132
34370SOL    HW1 8946   3.519   5.037   5.592  1.0328  1.4477 -1.3231
34370SOL    HW2 8947   3.372   5.062   5.565 -0.0900 -2.1383  0.6871
34371SOL     OW 8948   3.150   0.952  10.266 -0.0817 -0.2269  0.7643
34371SOL    HW1 8949   3.190   1.026  10.221 -0.0793 -0.9949 -0.5294
34371SOL    HW2 8950   3.196   0.875  10.232  0.0276 -0.8379  2.1990
34372SOL     OW 8951   7.368   6.610   3.269  0.4203 -0.0943  0.0975
34372SOL    HW1 8952   7.281   6.590   3.236  0.0095 -1.5529  1.9247
34372SOL    HW2 8953   7.409   6.525   3.285  1.9466  0.5613 -0.1190
34373SOL     OW 8954   7.542   7.130   0.113 -0.4924 -0.1921 -0.2129
34373SOL    HW1 8955   7.633   7.137   0.142 -0.7988 -1.3691  1.1775
34373SOL    HW2 8956   7.525   7.036   0.108 -1.2211  0.0005 -1.8937
34374SOL     OW 8957   2.375   5.988   7.718  0.5460 -0.5073  0.7663
34374SOL    HW1 8958   2.421   5.954   7.641  2.8998 -1.1142  2.3379
34374SOL    HW2 8959   2.357   6.079   7.697 -0.2273 -1.0272 -1.0603
34375SOL     OW 8960   3.837   3.012   9.322 -0.2550 -0.4404  0.2446
34375SOL    HW1 8961   3.771   2.950   9.290 -2.2604  0.9859  1.4398
34375SOL    HW2 8962   3.864   2.976   9.406 -2.2919  0.8171  1.5034
34376SOL     OW 8963  10.226   2.217   3.044  0.0083 -0.4161 -0.8044
34376SOL    HW1 8964  10.261   2.128   3.045 -0.3010 -0.5668 -2.0320
34376SOL    HW2 8965  10.299   2.272   3.071 -0.2012 -1.1415  1.4629
34377SOL     OW 8966   1.793   2.349   8.429  0.6652 -0.6327  0.2883
34377SOL    HW1 8967   1.710   2.396   8.422  1.5862  0.7763 -1.8366
34377SOL    HW2 8968   1.817   2.358   8.521 -2.0097 -2.0457  1.2582
34378SOL     OW 8969   5.325  10.262   1.202 -0.0068  0.1593 -0.1379
34378SOL    HW1 8970   5.259  10.278   1.135  0.4554  0.2013 -0.5871
34378SOL    HW2 8971   5.337  10.167   1.201 -0.9670  0.0006  0.8263
34379SOL     OW 8972   0.746   9.677   5.323 -0.6367 -0.1531 -0.2387
34379SOL    HW1 8973   0.817   9.713   5.271 -1.6315  1.2550 -0.6663
34379SOL    HW2 8974   0.739   9.586   5.294  1.3256 -0.4951  0.2297
34380SOL     OW 8975   2.470   4.220   7.740  0.4710 -0.3530 -0.2021
34380SOL    HW1 8976   2.431   4.306   7.753  3.1046  0.8947  0.2550
34380SOL    HW2 8977   2.438   4.167   7.813 -0.8921  0.3270 -0.2824
34381SOL     OW 8978   2.334   7.145   3.259 -0.0413  0.0910  0.3089
34381SOL    HW1 8979   2.391   7.181   3.327  2.0234 -1.8278 -0.3187
34381SOL    HW2 8980   2.346   7.203   3.184 -0.3330  0.7142  0.7322
34382SOL     OW 8981  10.300  10.027   4.109 -0.4827  0.4433  0.2754
34382SOL    HW1 8982  10.323  10.029   4.202 -0.5799 -0.0537  0.3132
34382SOL    HW2 8983  10.298   9.934   4.086 -1.0270  0.5322 -0.0779
34383SOL     OW 8984   2.779   9.156   5.690  0.0207 -0.2575 -0.2079
34383SOL    HW1 8985   2.749   9.247   5.698 -0.4910 -0.4052 -0.3950
34383SOL    HW2 8986   2.873   9.163   5.676  0.0118  0.2389 -0.0475
34384SOL     OW 8987   7.811   6.093   5.995  0.2530 -0.1828  0.5008
34384SOL    HW1 8988   7.837   6.185   5.999  1.8158 -0.6410  1.5683
34384SOL    HW2 8989   7.717   6.094   6.015 -0.0200  1.2689 -0.6875
34385SOL     OW 8990   7.001   5.986   1.987  0.1874  0.5253 -0.4014
34385SOL    HW1 8991   6.920   6.013   2.029  0.8430  2.5360 -0.2911
34385SOL    HW2 8992   6.983   5.899   1.952 -1.9462  0.8629 -0.2492
34386SOL     OW 8993   8.250   5.827   2.020 -0.4722  0.2279 -0.4598
34386SOL    HW1 8994   8.156   5.815   2.009 -0.1675 -1.4574 -1.5584
34386SOL    HW2 8995   8.261   5.847   2.113 -1.9749  1.4254 -0.5082
34387SOL     OW 8996   5.135   0.448   8.992  0.1357  0.0193 -1.0412
34387SOL    HW1 8997   5.146   0.492   9.076 -1.3556 -0.5306 -0.5252
34387SOL    HW2 8998   5.077   0.374   9.011  1.0121 -1.0326 -2.2579
34388SOL     OW 8999   5.172  10.196   7.766  0.2848 -0.5258  0.0703
34388SOL    HW1 9000   5.254  10.218   7.809 -0.4509  0.4122  1.0807
34388SOL    HW2 9001   5.140  10.280   7.733 -0.2374 -0.8863 -0.3515
34389SOL     OW 9002   9.926   3.758   8.404  0.1954 -0.3331 -0.0272
34389SOL    HW1 9003   9.933   3.853   8.414 -1.0835 -0.2752  0.4875
34389SOL    HW2 9004   9.919   3.744   8.309 -0.9339  0.2184 -0.0478
34390SOL     OW 9005   9.654   6.753   8.029  0.3441  0.4602 -0.5507
34390SOL    HW1 9006   9.563   6.737   8.002  0.0202  0.2157  0.6336
34390SOL    HW2 9007   9.700   6.672   8.008  0.1689  0.3901 -0.6610
34391SOL     OW 9008  10.025   4.178   6.902  0.0043  0.1693 -0.0943
34391SOL    HW1 9009  10.006   4.268   6.873  2.0576  0.3321 -1.1204
34391SOL    HW2 9010  10.079   4.142   6.831  1.7474 -0.8464  1.6624
34392SOL     OW 9011   3.910   5.928   2.995  0.5241 -0.1029 -0.0672
34392SOL    HW1 9012   3.925   5.854   3.054  1.4968 -0.4831 -0.7582
34392SOL    HW2 9013   3.880   5.887   2.914 -1.3792  0.4518  0.3040
34393SOL     OW 9014   6.202   0.004   1.346  0.1353 -0.6313 -0.1761
34393SOL    HW1 9015   6.151  -0.077   1.345 -0.5821 -0.3421  2.6899
34393SOL    HW2 9016   6.289  -0.023   1.374  0.1165 -0.5222 -0.0093
34394SOL     OW 9017   9.244   4.211   2.617 -0.7552  0.3887 -0.1111
34394SOL    HW1 9018   9.315   4.273   2.605  0.6995 -0.7821  1.8871
34394SOL    HW2 9019   9.174   4.262   2.658  0.6662  0.6506  2.1360
34395SOL     OW 9020   3.963   1.741   8.552  0.0854 -0.2243 -0.4066
34395SOL    HW1 9021   4.007   1.676   8.607  1.5403  0.7898 -0.3119
34395SOL    HW2 9022   3.879   1.701   8.531  1.6562 -3.0006 -1.9670
34396SOL     OW 9023   9.170   9.072   5.186 -0.4131  0.1097  0.8956
34396SOL    HW1 9024   9.230   9.004   5.216 -1.0462 -0.8724  0.0437
34396SOL    HW2 9025   9.091   9.024   5.160 -0.4154  1.0079 -0.9609
34397SOL     OW 9026   8.299   0.896   6.093 -0.8771 -0.3571  0.0811
34397SOL    HW1 9027   8.354   0.821   6.118 -2.7082 -2.2979 -1.2953
34397SOL    HW2 9028   8.214   0.878   6.131 -0.8893  2.1558  1.4468
34398SOL     OW 9029   3.502   8.982   0.951 -0.0697 -0.1030 -0.0013
34398SOL    HW1 9030   3.447   8.970   0.874 -0.5045 -2.0577  0.5578
34398SOL    HW2 9031   3.587   8.947   0.926  0.3868  1.1210 -0.2242
34399SOL     OW 9032   4.715   8.610   1.932  0.1134  0.0341  0.3032
34399SOL    HW1 9033   4.727   8.703   1.912  1.0167 -0.2959 -0.7632
34399SOL    HW2 9034   4.647   8.582   1.870 -0.5615  0.1044  1.0045
34400SOL     OW 9035   9.126   0.407  10.283  0.0617  0.3289  0.6265
34400SOL    HW1 9036   9.046   0.414  10.230  0.0931  2.1575  0.7422
34400SOL    HW2 9037   9.186   0.354  10.230 -1.0771 -0.7639  0.3783
34401SOL     OW 9038   3.784   3.554   3.470  0.4676  0.3223 -0.4322
34401SOL    HW1 9039   3.801   3.470   3.513 -1.0030 -1.1070 -2.4372
34401SOL    HW2 9040   3.860   3.608   3.490  0.9974 -1.1369  1.7454
34402SOL     OW 9041   2.853   6.777  10.472 -0.2475  0.4010 -0.8372
34402SOL    HW1 9042   2.776   6.767  10.416 -0.7202  0.3037 -0.1825
34402SOL    HW2 9043   2.926   6.786  10.411 -0.6618 -0.3872 -1.4622
34403SOL     OW 9044   1.253   6.572   1.193 -0.0960 -0.0311 -0.6752
34403SOL    HW1 9045   1.175   6.517   1.196 -1.1163  1.2170 -2.5121
34403SOL    HW2 9046   1.291   6.564   1.280 -0.2422 -3.4883 -0.8034
34404SOL     OW 9047   7.283   1.164   8.131 -0.1519 -0.0359 -0.0726
34404SOL    HW1 9048   7.278   1.228   8.202 -0.1553 -2.3928  2.1759
34404SOL    HW2 9049   7.193   1.151   8.104 -0.1894  0.5835 -0.2655
34405SOL     OW 9050   5.113   3.548   7.888 -0.2288 -0.1225  0.0681
34405SOL    HW1 9051   5.167   3.489   7.836 -0.4512 -0.4650  0.2248
34405SOL    HW2 9052   5.144   3.635   7.864  0.0022 -0.2944 -0.2740
34406SOL     OW 9053   9.081   5.709   3.460 -0.0760  0.8918  0.1188
34406SOL    HW1 9054   9.058   5.799   3.482 -1.1874  0.4712  0.7075
34406SOL    HW2 9055   9.052   5.657   3.535  1.8482  0.1894  0.4469
34407SOL     OW 9056   4.553   3.715   2.252 -0.5512  0.5298  0.8122
34407SOL    HW1 9057   4.593   3.653   2.190  2.0880  0.3101  2.5683
34407SOL    HW2 9058   4.564   3.800   2.211 -0.1033  0.2492  0.3347
34408SOL     OW 9059  10.408   9.038   7.777  0.0737  0.6398 -0.4465
34408SOL    HW1 9060  10.377   9.037   7.868 -1.2962  2.9051 -0.8203
34408SOL    HW2 9061  10.329   9.023   7.725  0.3721  1.9218 -1.3069
34409SOL     OW 9062   1.467   2.694   8.168 -0.1250 -0.3690 -0.3364
34409SOL    HW1 9063   1.525   2.746   8.112  1.7004  1.0373  2.6091
34409SOL    HW2 9064   1.425   2.758   8.226 -2.0356 -1.7273 -0.0992
34410SOL     OW 9065   2.488   9.562   0.603  0.4206 -0.2277  0.0273
34410SOL    HW1 9066   2.514   9.480   0.560  0.0124 -0.0361 -0.5868
34410SOL    HW2 9067   2.421   9.535   0.666  0.5339 -0.4130  0.0703
34411SOL     OW 9068   1.348   5.891   9.465  0.4325 -0.0361 -0.3622
34411SOL    HW1 9069   1.341   5.823   9.531 -2.8465  0.7699  0.3105
34411SOL    HW2 9070   1.375   5.969   9.513 -0.3759  0.1744 -0.2308
34412SOL     OW 9071   4.788   9.472  10.565 -0.9619  0.2299  0.0370
34412SOL    HW1 9072   4.751   9.384  10.572 -0.1557 -0.3155 -1.9079
34412SOL    HW2 9073   4.837   9.484  10.646 -0.4858 -1.4082  0.0233
34413SOL     OW 9074   5.526   3.882   9.616  0.1675  0.0794 -0.5019
34413SOL    HW1 9075   5.546   3.811   9.676 -0.2392 -0.2149 -0.7068
34413SOL    HW2 9076   5.603   3.887   9.559 -0.1361 -0.7479 -1.0068
34414SOL     OW 9077   1.851  10.359   5.829 -0.2738  0.1398  0.5322
34414SOL    HW1 9078   1.776  10.410   5.858 -2.2520 -0.2440 -3.2460
34414SOL    HW2 9079   1.903  10.419   5.776 -0.7418 -0.8267 -1.0856
34415SOL     OW 9080   6.511   4.185   6.560 -0.2434  0.2420 -0.4440
34415SOL    HW1 9081   6.554   4.137   6.631 -1.2049  0.7761  0.5141
34415SOL    HW2 9082   6.428   4.139   6.546 -0.7793  1.0862 -0.1164
34416SOL     OW 9083   8.284  10.354   3.778  0.5898 -0.0234 -0.2637
34416SOL    HW1 9084   8.262  10.400   3.859 -0.3752 -1.2420  0.1938
34416SOL    HW2 9085   8.342  10.414   3.732 -1.5835  2.1875 -0.2952
34417SOL     OW 9086  10.081   2.134   6.452  0.1442 -0.0337  0.3279
34417SOL    HW1 9087  10.131   2.214   6.436 -0.7918  0.6193  0.5791
34417SOL    HW2 9088   9.991   2.156   6.427  0.2863 -1.8286 -2.1085
34418SOL     OW 9089   0.815   1.526   1.875  0.2202 -0.3815 -0.7468
34418SOL    HW1 9090   0.780   1.586   1.808  0.5960 -1.3169 -1.8077
34418SOL    HW2 9091   0.737   1.485   1.912  0.0098  0.0964 -0.6460
34419SOL     OW 9092   2.622   5.143   6.267  0.4624  0.1944 -0.2639
34419SOL    HW1 9093   2.678   5.079   6.224 -0.0332 -1.9094  1.9486
34419SOL    HW2 9094   2.549   5.091   6.302 -0.7314  2.2124  0.4226
34420SOL     OW 9095   6.862   0.009   2.630 -0.2396  0.1874 -0.6540
34420SOL    HW1 9096   6.931  -0.018   2.690 -1.3348 -1.0411  0.1118
34420SOL    HW2 9097   6.901   0.001   2.543 -0.1124 -2.8727 -0.4075
34421SOL     OW 9098   4.229   6.240   4.772 -0.4660  0.2129 -0.1928
34421SOL    HW1 9099   4.148   6.194   4.749 -1.1869  0.2560  2.0142
34421SOL    HW2 9100   4.203   6.331   4.782  0.2276  0.5250 -1.0968
34422SOL     OW 9101   7.411   2.754   4.933  0.4179 -0.1962  0.3234
34422SOL    HW1 9102   7.326   2.787   4.904  0.4882 -0.4999 -0.2378
34422SOL    HW2 9103   7.451   2.828   4.978  0.3960  0.3613 -0.5535
34423SOL     OW 9104   2.937   4.638   5.150  0.2024 -0.3072  0.7153
34423SOL    HW1 9105   2.875   4.711   5.143 -1.0833 -1.4093  0.3736
34423SOL    HW2 9106   2.936   4.614   5.243  1.2507  0.6034  0.9889
34424SOL     OW 9107   8.925   6.918   1.199  0.6272  0.5674  0.2356
34424SOL    HW1 9108   8.997   6.878   1.248 -0.3969 -0.1074  1.2031
34424SOL    HW2 9109   8.873   6.964   1.265 -0.2196  0.4852 -0.3622
34425SOL     OW 9110   6.549   1.511   9.183  0.2215 -0.1683  0.5537
34425SOL    HW1 9111   6.551   1.475   9.094 -0.0375  0.1292  0.4238
34425SOL    HW2 9112   6.639   1.535   9.202  0.1515  0.5225  0.0516
34426SOL     OW 9113   3.787   0.591   4.613  0.1298 -0.2504 -0.2624
34426SOL    HW1 9114   3.780   0.683   4.586  0.5747 -0.1955 -0.1982
34426SOL    HW2 9115   3.851   0.553   4.552  0.9291 -0.1947  0.5150
34427SOL     OW 9116   6.826   7.746   0.169 -0.2006  0.5225  0.0342
34427SOL    HW1 9117   6.847   7.837   0.146  0.7216  0.2473 -0.2347
34427SOL    HW2 9118   6.757   7.721   0.106 -1.1478  1.3248  0.7172
34428SOL     OW 9119   0.210   6.519   3.472 -0.7468  0.5458  0.3192
34428SOL    HW1 9120   0.248   6.606   3.459 -1.0417  0.7250  0.6188
34428SOL    HW2 9121   0.219   6.476   3.388 -2.3679  1.5752 -0.4229
34429SOL     OW 9122   9.155   0.925   3.330  0.7524  0.0809 -0.1879
34429SOL    HW1 9123   9.139   1.018   3.312  0.8534  0.2683  0.6184
34429SOL    HW2 9124   9.068   0.887   3.336  0.6648  0.3680  0.6033
34430SOL     OW 9125   7.816   9.068   2.885  0.4138  0.0666  0.2873
34430SOL    HW1 9126   7.830   8.985   2.841 -0.3736 -0.1060  0.3439
34430SOL    HW2 9127   7.724   9.089   2.869  1.1797  2.2490 -1.9833
34431SOL     OW 9128   2.220   3.645   6.181  0.2095 -0.1859 -0.0132
34431SOL    HW1 9129   2.161   3.718   6.160  0.7007 -0.0366 -0.9517
34431SOL    HW2 9130   2.206   3.629   6.274 -0.7586  0.3393 -0.0508
34432SOL     OW 9131   3.868   9.508   3.184  0.1919  0.0014 -0.3285
34432SOL    HW1 9132   3.837   9.596   3.205  0.2056  0.0188 -0.3819
34432SOL    HW2 9133   3.903   9.515   3.095  1.0058  0.1540 -0.0019
34433SOL     OW 9134   3.990   6.867   1.428 -0.6031 -0.4582 -0.3768
34433SOL    HW1 9135   4.049   6.818   1.372  0.0906 -0.3659  0.2584
34433SOL    HW2 9136   3.905   6.862   1.384 -0.2078 -0.9151 -1.1004
34434SOL     OW 9137   3.679   5.954   3.663 -0.1729  0.0495 -0.0604
34434SOL    HW1 9138   3.652   5.915   3.581  0.0884 -0.1992 -0.0285
34434SOL    HW2 9139   3.699   6.045   3.641 -2.9717  0.8422  0.2779
34435SOL     OW 9140   7.999  10.284   3.720  0.0805 -0.0178  0.1493
34435SOL    HW1 9141   8.059  10.213   3.697 -1.1468 -0.9501 -0.2721
34435SOL    HW2 9142   7.916  10.240   3.739 -0.3134  1.1892  1.3460
34436SOL     OW 9143   8.915   1.672   5.860  0.0668  0.2422 -0.2522
34436SOL    HW1 9144   9.010   1.670   5.859  0.1533  2.1418  0.4299
34436SOL    HW2 9145   8.889   1.597   5.914  1.0599 -1.3896 -1.9245
34437SOL     OW 9146   8.977   0.057   4.848 -0.4583 -0.1155  0.6172
34437SOL    HW1 9147   8.968  -0.038   4.847 -1.1485 -0.0549 -0.2341
34437SOL    HW2 9148   8.903   0.089   4.797  0.3358  0.8291  0.0013
34438SOL     OW 9149   4.431   4.277   8.180  0.3087  0.2309  0.2037
34438SOL    HW1 9150   4.486   4.320   8.246  0.8736 -0.5802  0.2725
34438SOL    HW2 9151   4.449   4.184   8.190  1.1355  0.1320 -1.7327
34439SOL     OW 9152   4.635   0.826   1.387  0.4022  0.4068  0.0688
34439SOL    HW1 9153   4.697   0.754   1.399  0.6552  0.8568  1.7595
34439SOL    HW2 9154   4.559   0.786   1.345 -0.3600 -1.4159  2.8792
34440SOL     OW 9155   2.961   7.307   8.657  0.1945  0.8299 -0.1659
34440SOL    HW1 9156   2.865   7.297   8.654  0.1580  1.3444 -1.1403
34440SOL    HW2 9157   2.987   7.313   8.565  1.3905 -1.2046 -0.0200
34441SOL     OW 9158   3.400   7.490   9.258 -0.2321  0.2442  0.1457
34441SOL    HW1 9159   3.419   7.516   9.168  0.1129  0.3572  0.2491
34441SOL    HW2 9160   3.470   7.530   9.310  0.7323 -1.4638  0.2297
34442SOL     OW 9161   9.983  10.211   0.662  0.5900 -0.3530 -0.2350
34442SOL    HW1 9162   9.922  10.228   0.590 -0.9353 -1.5787  0.6986
34442SOL    HW2 9163  10.023  10.127   0.640 -2.0642 -2.2741  1.6220
34443SOL     OW 9164   3.608   4.456   1.957  0.3659 -0.6745 -0.4062
34443SOL    HW1 9165   3.568   4.531   1.912 -1.2996 -0.3580  1.4306
34443SOL    HW2 9166   3.543   4.386   1.948 -0.0847 -0.5612  1.5293
34444SOL     OW 9167   8.958   2.982   1.427 -0.3834 -0.4626  0.0759
34444SOL    HW1 9168   8.943   2.988   1.333 -3.1748 -1.9960  0.3108
34444SOL    HW2 9169   8.891   3.037   1.466 -0.5749 -1.4339  1.1873
34445SOL     OW 9170   6.823   7.640   9.837  0.4927  0.2147  0.2829
34445SOL    HW1 9171   6.749   7.695   9.866  1.2962  0.8088  1.3008
34445SOL    HW2 9172   6.834   7.661   9.745  0.6066  1.5975  0.5854
34446SOL     OW 9173   5.862   7.122   1.371 -0.3703 -0.1309 -0.0642
34446SOL    HW1 9174   5.824   7.200   1.331  0.0551 -0.7289 -1.7074
34446SOL    HW2 9175   5.956   7.129   1.352  0.0883  0.2691  2.1050
34447SOL     OW 9176   5.322   3.818   2.612 -0.1185 -0.1618 -0.0411
34447SOL    HW1 9177   5.378   3.871   2.555  0.2921 -1.7861 -1.2252
34447SOL    HW2 9178   5.266   3.881   2.656 -0.8082  1.1719 -2.6332
34448SOL     OW 9179   5.824   6.062   3.347  0.0565 -0.0641  0.1363
34448SOL    HW1 9180   5.756   6.012   3.302 -1.2379  0.1482  1.7724
34448SOL    HW2 9181   5.871   5.996   3.398  1.0613 -0.1904 -0.8933
34449SOL     OW 9182   5.388   0.265   4.645  0.0560  0.3651 -0.1414
34449SOL    HW1 9183   5.448   0.197   4.614  1.5245  1.7108 -0.3509
34449SOL    HW2 9184   5.370   0.241   4.736 -0.9465 -1.3012 -0.7262
34450SOL     OW 9185   3.662   6.368   2.995 -0.0245 -0.3035 -0.4645
34450SOL    HW1 9186   3.587   6.374   3.054  0.6816  0.6810  0.3641
34450SOL    HW2 9187   3.703   6.284   3.017  0.4361  0.2121  0.7136
34451SOL     OW 9188   4.572   3.201   0.813 -0.5664 -0.4181  0.1480
34451SOL    HW1 9189   4.629   3.252   0.871 -1.6860  1.2486 -0.1467
34451SOL    HW2 9190   4.630   3.169   0.744 -0.2253  2.9331 -1.2893
34452SOL     OW 9191   6.799   3.711   8.371 -0.3931  0.0191  0.8105
34452SOL    HW1 9192   6.845   3.759   8.439  0.9580  0.6644 -0.5079
34452SOL    HW2 9193   6.860   3.642   8.344 -0.2619  0.6908 -0.7474
34453SOL     OW 9194   6.644   6.067   3.636  0.3521 -0.0698 -0.6048
34453SOL    HW1 9195   6.705   5.995   3.655 -0.9278 -1.2557 -0.8963
34453SOL    HW2 9196   6.676   6.139   3.690  0.5700 -1.4204  1.1518
34454SOL     OW 9197   3.892   8.109   0.204 -0.0247 -0.1031  0.0832
34454SOL    HW1 9198   3.843   8.176   0.252  0.5660  0.0318  0.5077
34454SOL    HW2 9199   3.885   8.136   0.112  0.0018  0.4159  0.2256
34455SOL     OW 9200   0.126   4.270   4.521 -0.3077 -0.0548 -0.1465
34455SOL    HW1 9201   0.162   4.242   4.436  2.2799 -1.2840  1.2462
34455SOL    HW2 9202   0.126   4.190   4.574 -0.9453  0.8971  1.3249
34456SOL     OW 9203   8.920   4.102   8.580  0.0350  0.2255 -0.4826
34456SOL    HW1 9204   8.980   4.068   8.514 -0.4485 -1.7106  0.0076
34456SOL    HW2 9205   8.975   4.123   8.655  0.3251  0.2672 -0.7099
34457SOL     OW 9206   2.912   3.779   2.231  0.7832  0.2217 -0.0025
34457SOL    HW1 9207   2.853   3.750   2.301  0.7354 -0.8552 -0.4781
34457SOL    HW2 9208   2.985   3.717   2.234  1.7524  1.3281  0.3448
34458SOL     OW 9209   6.396   2.409   5.033  0.4751 -0.0648  0.4009
34458SOL    HW1 9210   6.404   2.350   5.108  1.9382  0.8382  0.9998
34458SOL    HW2 9211   6.304   2.436   5.034  0.3965 -0.2762  1.7337
34459SOL     OW 9212   9.095   7.994   6.045 -0.1565  0.5750 -0.0289
34459SOL    HW1 9213   9.051   7.914   6.074 -0.2514  0.7440  0.2987
34459SOL    HW2 9214   9.186   7.968   6.031 -0.2594  0.3327 -0.2480
34460SOL     OW 9215   7.880   3.137   9.895 -0.8378  0.2207 -0.1796
34460SOL    HW1 9216   7.871   3.150   9.801 -1.1685 -3.4455 -0.7803
34460SOL    HW2 9217   7.807   3.080   9.919 -0.6578  0.8905  2.3169
34461SOL     OW 9218   5.725   0.892   8.884 -1.0030  0.1035  0.3252
34461SOL    HW1 9219   5.745   0.815   8.937  0.8393 -0.1492 -0.6659
34461SOL    HW2 9220   5.793   0.956   8.908 -2.3829  1.3930  1.0014
34462SOL     OW 9221   3.832   3.546  10.063 -0.4442 -1.0252 -0.4034
34462SOL    HW1 9222   3.821   3.635  10.031 -1.3013 -0.9063  0.1656
34462SOL    HW2 9223   3.794   3.491   9.994 -1.8755 -0.7996  0.1689
34463SOL     OW 9224   9.879   8.851   0.747 -0.5327 -0.1504  0.2308
34463SOL    HW1 9225   9.912   8.761   0.747 -3.2302 -1.2879 -1.6083
34463SOL    HW2 9226   9.957   8.905   0.742  1.1734 -2.3828  0.7524
34464SOL     OW 9227   4.542   9.784  10.154  0.4745 -0.2228 -0.2698
34464SOL    HW1 9228   4.550   9.877  10.178  0.2635  0.0040 -1.0665
34464SOL    HW2 9229   4.507   9.743  10.233  2.2603  0.0482  0.7135
34465SOL     OW 9230   7.706   3.594   0.783  0.5487  0.3488 -0.1486
34465SOL    HW1 9231   7.747   3.520   0.739  0.9234 -0.1525  0.9930
34465SOL    HW2 9232   7.624   3.559   0.820  1.7567 -0.1592  2.2876
34466SOL     OW 9233   4.493   4.264   4.939 -0.3620 -0.0671  0.0281
34466SOL    HW1 9234   4.486   4.216   4.856  0.8032  0.6645 -0.5261
34466SOL    HW2 9235   4.449   4.347   4.922 -0.5319 -0.1051  0.2890
34467SOL     OW 9236  10.572   9.129   7.102 -0.0532  0.0823  0.1141
34467SOL    HW1 9237  10.595   9.074   7.027 -0.7081 -1.5523  1.0632
34467SOL    HW2 9238  10.476   9.129   7.102 -0.0603  1.0224  0.2946
34468SOL     OW 9239   8.159   0.921   0.849 -0.7188  0.1758 -0.8932
34468SOL    HW1 9240   8.079   0.873   0.827 -1.0996 -0.3747  1.3792
34468SOL    HW2 9241   8.222   0.897   0.781 -1.8749 -1.0400 -1.5716
34469SOL     OW 9242   5.690   5.750   1.697 -0.5927 -0.0063  0.1931
34469SOL    HW1 9243   5.595   5.754   1.713 -0.7499 -2.7095  0.4010
34469SOL    HW2 9244   5.698   5.732   1.604 -0.2493  0.5112  0.1197
34470SOL     OW 9245   6.334   9.984   5.495 -0.1835 -0.1175  0.0118
34470SOL    HW1 9246   6.427   9.968   5.509  0.2054  1.4728 -0.6199
34470SOL    HW2 9247   6.292   9.904   5.527  1.4046 -1.0514 -0.1001
34471SOL     OW 9248   9.477   9.802   3.594  0.6221 -0.0659 -0.2070
34471SOL    HW1 9249   9.387   9.787   3.620  0.9851 -2.9749 -0.2620
34471SOL    HW2 9250   9.495   9.733   3.530  2.3643  1.5416 -1.5394
34472SOL     OW 9251   8.409   2.565   1.286  0.0329 -0.2166 -0.2848
34472SOL    HW1 9252   8.363   2.484   1.308 -1.4931  0.9881  1.2006
34472SOL    HW2 9253   8.346   2.635   1.305  1.5462  1.3821 -0.8308
34473SOL     OW 9254   3.544   1.825   5.933 -0.0437  0.7690 -0.2960
34473SOL    HW1 9255   3.533   1.885   6.007  0.6935 -0.9016  1.2397
34473SOL    HW2 9256   3.637   1.833   5.910  0.4647 -0.9439  1.0133
34474SOL     OW 9257   3.610   1.804   4.953  0.2815  0.5183 -0.1875
34474SOL    HW1 9258   3.583   1.894   4.967  0.8223  0.4956  1.0890
34474SOL    HW2 9259   3.549   1.752   5.005 -1.2202 -0.0455 -2.3520
34475SOL     OW 9260   5.261   5.078   6.170 -0.2563 -0.2426  0.2824
34475SOL    HW1 9261   5.303   4.997   6.143  1.8653  0.7391  0.4705
34475SOL    HW2 9262   5.305   5.103   6.252  0.3440  1.9173 -0.6138
34476SOL     OW 9263   8.110   8.024   8.669 -0.3358 -0.3462 -0.4678
34476SOL    HW1 9264   8.030   7.971   8.676 -1.5581  1.4706 -0.2242
34476SOL    HW2 9265   8.113   8.073   8.751 -0.4773  1.6170 -1.5864
34477SOL     OW 9266   7.982   1.142   5.306 -0.2225  0.1366  0.7494
34477SOL    HW1 9267   8.015   1.081   5.372  2.0031 -0.4213 -0.7664
34477SOL    HW2 9268   7.897   1.106   5.280  0.1395 -1.1691  1.3074
34478SOL     OW 9269   3.610   8.305   6.143  0.3333 -0.5359 -0.0700
34478SOL    HW1 9270   3.544   8.299   6.074 -0.3942  0.7949  0.4805
34478SOL    HW2 9271   3.693   8.316   6.096 -0.2548  1.3160 -0.7730
34479SOL     OW 9272   3.129   3.832   7.405 -0.3149 -0.2127  0.4311
34479SOL    HW1 9273   3.147   3.904   7.345  0.0063 -0.4615  0.2268
34479SOL    HW2 9274   3.042   3.801   7.380 -0.6647  0.4072  0.8340
34480SOL     OW 9275   2.623  10.631   7.649 -0.1542  0.0559  0.1154
34480SOL    HW1 9276   2.617  10.690   7.724  0.3346 -1.3778  1.3294
34480SOL    HW2 9277   2.568  10.556   7.671 -0.2842 -0.2442 -1.1179
34481SOL     OW 9278   1.114   8.847   2.073 -0.4303 -0.8364 -0.2030
34481SOL    HW1 9279   1.099   8.820   1.983  0.7136  0.5936 -0.8520
34481SOL    HW2 9280   1.089   8.939   2.075 -0.8386 -0.9555  1.0617
34482SOL     OW 9281   5.966   2.294   1.188  0.0478 -0.2272  0.8751
34482SOL    HW1 9282   6.050   2.315   1.148 -0.8147 -0.4465 -1.1814
34482SOL    HW2 9283   5.988   2.233   1.259  1.6095 -0.3958  0.2864
34483SOL     OW 9284  10.044   1.679   0.117 -0.3953 -0.5589  0.1623
34483SOL    HW1 9285   9.987   1.700   0.043  0.5616 -0.0063 -0.4374
34483SOL    HW2 9286   9.985   1.641   0.183 -1.3665 -0.4467 -0.6203
34484SOL     OW 9287   6.344   2.718   0.201  0.1023 -0.7446  0.4136
34484SOL    HW1 9288   6.359   2.812   0.214 -0.5281 -0.7941  1.7745
34484SOL    HW2 9289   6.387   2.677   0.276  0.0896 -1.5139  0.0076
34485SOL     OW 9290  10.371   1.618   1.711  0.4466 -0.3353 -0.1148
34485SOL    HW1 9291  10.363   1.540   1.657 -1.2977 -0.2087 -0.1186
34485SOL    HW2 9292  10.280   1.643   1.730  0.9427  1.6743 -0.1126
34486SOL     OW 9293   8.380   6.119   0.572 -0.6659  0.2671 -0.4121
34486SOL    HW1 9294   8.345   6.168   0.497  1.9444  0.7681 -1.4218
34486SOL    HW2 9295   8.422   6.186   0.626 -1.9920 -0.1740  1.2491
34487SOL     OW 9296   5.628   4.091   5.222  0.4481 -0.5442 -0.0014
34487SOL    HW1 9297   5.720   4.100   5.196  0.5888  0.5614  0.8173
34487SOL    HW2 9298   5.632   4.054   5.311  0.0440 -2.0116 -0.5673
34488SOL     OW 9299   3.151   5.920   4.468 -0.1407  0.9874  0.1467
34488SOL    HW1 9300   3.165   5.894   4.559  1.1547 -0.8793 -0.5365
34488SOL    HW2 9301   3.235   5.957   4.440  0.1765 -0.3999 -0.8633
34489SOL     OW 9302   7.165   1.373   3.935 -0.6224 -0.2382  0.4603
34489SOL    HW1 9303   7.168   1.333   3.848 -0.4844 -2.5764  1.4525
34489SOL    HW2 9304   7.231   1.442   3.933 -0.2757 -0.5868 -1.1223
34490SOL     OW 9305   3.516  10.186  10.002  0.3437 -0.4313  0.5867
34490SOL    HW1 9306   3.507  10.229  10.087 -3.3777 -1.2528  0.7539
34490SOL    HW2 9307   3.596  10.133  10.012  1.1549  1.0416  2.8045
34491SOL     OW 9308   1.446   8.180   2.365  0.6838  0.1871 -0.5622
34491SOL    HW1 9309   1.408   8.247   2.422 -1.1080  0.1361 -1.5983
34491SOL    HW2 9310   1.387   8.178   2.289  3.3503  0.7426 -2.7771
34492SOL     OW 9311   6.831   1.886   2.206 -0.0417  0.2312  0.0403
34492SOL    HW1 9312   6.753   1.854   2.161  0.7284  0.9356 -1.9000
34492SOL    HW2 9313   6.809   1.975   2.233  0.0323  0.3851 -0.3975
34493SOL     OW 9314   5.923   8.174   0.667  0.3450 -0.0783  0.2404
34493SOL    HW1 9315   5.846   8.131   0.632  1.5224 -1.4099 -0.8623
34493SOL    HW2 9316   5.894   8.213   0.749 -1.0434 -2.1581  0.8232
34494SOL     OW 9317   5.889   9.396   1.582 -0.0400  0.0380  0.0172
34494SOL    HW1 9318   5.981   9.391   1.606  0.8059  0.0485 -2.8593
34494SOL    HW2 9319   5.869   9.489   1.582  0.2950  0.1153 -0.3939
34495SOL     OW 9320   7.312   1.772   7.349 -0.1837 -0.1612 -0.2474
34495SOL    HW1 9321   7.223   1.809   7.355  0.2471  0.8436  0.1345
34495SOL    HW2 9322   7.298   1.677   7.346 -1.2592 -0.0308  0.1333
34496SOL     OW 9323   0.152   1.725   8.723  0.4796  0.0267  0.1860
34496SOL    HW1 9324   0.194   1.738   8.807  0.9189 -1.0702  0.1496
34496SOL    HW2 9325   0.076   1.783   8.725 -0.0313 -0.6407  1.7083
34497SOL     OW 9326   9.768   7.336   1.162  0.2870  0.5114  0.3912
34497SOL    HW1 9327   9.849   7.387   1.154  0.3864  0.3229  0.1782
34497SOL    HW2 9328   9.794   7.246   1.144 -0.1946  0.6194 -1.0590
34498SOL     OW 9329   5.695   0.098   1.160 -0.7883  0.4809  0.4198
34498SOL    HW1 9330   5.617   0.055   1.195 -1.2047  0.0175 -1.0265
34498SOL    HW2 9331   5.768   0.052   1.203 -1.2846  0.4616  1.2638
34499SOL     OW 9332   3.560   6.855   9.766 -0.2783 -0.0093 -0.1332
34499SOL    HW1 9333   3.553   6.766   9.733  0.4906 -0.7569  1.6121
34499SOL    HW2 9334   3.472   6.891   9.755 -0.8897 -1.3558  0.0981
34500SOL     OW 9335   3.839   1.391   7.923 -0.1954 -0.3723 -0.2189
34500SOL    HW1 9336   3.814   1.465   7.869  1.4848 -0.1845 -0.8032
34500SOL    HW2 9337   3.782   1.396   8.000  1.0826  2.6462  0.6718
34501SOL     OW 9338   6.720   9.377   4.733  0.1039  0.2268 -0.0268
34501SOL    HW1 9339   6.768   9.460   4.736  1.6763 -0.4568 -2.6958
34501SOL    HW2 9340   6.640   9.398   4.685  1.1022  0.0442 -1.8821
34502SOL     OW 9341   5.527  10.618   3.089  0.1721  0.3093  0.1311
34502SOL    HW1 9342   5.513  10.701   3.135 -0.4305  0.5416 -0.4590
34502SOL    HW2 9343   5.440  10.589   3.064  0.5037  0.5293 -1.4333
34503SOL     OW 9344   4.853   1.891   6.919 -0.3223  0.1766  0.2210
34503SOL    HW1 9345   4.852   1.960   6.986  2.1236  0.1442  0.3772
34503SOL    HW2 9346   4.877   1.812   6.966 -1.3715 -0.4554 -0.2646
34504SOL     OW 9347   1.286   8.375   4.446 -0.1272  0.6448  0.1056
34504SOL    HW1 9348   1.366   8.326   4.462  0.3733  0.7510 -1.8059
34504SOL    HW2 9349   1.273   8.426   4.526  1.1776 -0.0802  0.8227
34505SOL     OW 9350   4.207   6.783   6.357 -0.5621  0.3622  0.8624
34505SOL    HW1 9351   4.127   6.791   6.408 -0.4229 -0.6111  1.2450
34505SOL    HW2 9352   4.189   6.830   6.275 -1.3690  0.4910  1.1134
34506SOL     OW 9353   3.689   0.808  10.247 -0.4389 -0.1309 -0.1094
34506SOL    HW1 9354   3.726   0.725  10.278 -0.0937  0.2506  0.5068
34506SOL    HW2 9355   3.692   0.800  10.151  1.0509 -0.2133 -0.0921
34507SOL     OW 9356   0.630  10.484   2.296  0.1217  0.3413  0.1536
34507SOL    HW1 9357   0.608  10.430   2.220 -0.1083  0.2922  0.2554
34507SOL    HW2 9358   0.572  10.453   2.366 -0.1420  0.8458  0.1629
34508SOL     OW 9359   7.778   2.669  10.717 -0.0062 -0.3488  0.4123
34508SOL    HW1 9360   7.831   2.621  10.653 -1.7495  1.3313 -2.5174
34508SOL    HW2 9361   7.731   2.600  10.764  2.4175 -1.7110  0.9721
34509SOL     OW 9362   3.668   6.981  10.686 -0.2568 -0.0180  0.2989
34509SOL    HW1 9363   3.661   6.910  10.750 -0.3513 -1.1402 -0.9282
34509SOL    HW2 9364   3.671   6.937  10.601  0.8332  1.3827 -0.4338
34510SOL     OW 9365   1.605  10.251   2.304  0.5951 -0.0211  0.5560
34510SOL    HW1 9366   1.654  10.232   2.384  1.2683 -1.8447 -0.2289
34510SOL    HW2 9367   1.537  10.184   2.300  0.4322  0.1764 -0.2721
34511SOL     OW 9368   4.966   8.874   2.923  0.6320  0.2480  0.3139
34511SOL    HW1 9369   4.914   8.821   2.862  2.7278  0.3130 -1.6608
34511SOL    HW2 9370   5.033   8.813   2.955  1.3860  0.9914  0.1709
34512SOL     OW 9371   5.578   3.779  10.236  0.0030  0.0842 -0.3253
34512SOL    HW1 9372   5.575   3.699  10.289  0.1038 -0.4399 -1.0987
34512SOL    HW2 9373   5.644   3.761  10.170 -1.2713  0.0683 -1.6545
34513SOL     OW 9374   4.871   6.716   9.587  0.3481  0.2655  0.1364
34513SOL    HW1 9375   4.937   6.648   9.600  0.3247  0.3117  0.5107
34513SOL    HW2 9376   4.789   6.667   9.576  0.4432  0.2074 -0.3544
34514SOL     OW 9377   6.243   5.357   6.262 -0.8383 -0.6377 -0.0095
34514SOL    HW1 9378   6.172   5.399   6.309 -0.9425 -0.4561 -0.3284
34514SOL    HW2 9379   6.222   5.369   6.170 -1.2682 -2.0385 -0.1173
34515SOL     OW 9380  10.242   2.374   9.107  0.4616  0.0079 -0.4440
34515SOL    HW1 9381  10.248   2.326   9.024  0.5082 -0.0712 -0.3959
34515SOL    HW2 9382  10.158   2.419   9.103  1.5369  2.0590 -1.6366
34516SOL     OW 9383   1.975   3.690   9.250 -0.4545  0.0769  0.0867
34516SOL    HW1 9384   1.970   3.765   9.310  0.4272 -0.0563  0.3410
34516SOL    HW2 9385   1.911   3.709   9.183  0.6730  1.7315 -0.5923
34517SOL     OW 9386   1.092   3.226   1.981 -0.5070  1.2727 -0.1706
34517SOL    HW1 9387   1.134   3.273   2.053  0.7814  0.8387 -0.6101
34517SOL    HW2 9388   1.067   3.295   1.919 -2.5055  1.7511  1.0653
34518SOL     OW 9389   6.316   6.964  10.072  0.4174 -0.3987 -0.4849
34518SOL    HW1 9390   6.392   7.022  10.076 -0.8395  1.3680 -1.1334
34518SOL    HW2 9391   6.243   7.020  10.046 -1.3562 -1.8114  1.0635
34519SOL     OW 9392   1.920   8.232   9.359  0.3374 -0.4764 -0.1270
34519SOL    HW1 9393   1.974   8.177   9.415  0.9674 -0.0961 -0.3530
34519SOL    HW2 9394   1.928   8.320   9.395 -0.2216 -0.4359 -0.0960
34520SOL     OW 9395   5.355   4.895   1.316 -0.1418 -0.1517  0.3223
34520SOL    HW1 9396   5.386   4.952   1.245  0.8646 -0.9877  0.0559
34520SOL    HW2 9397   5.270   4.930   1.340 -0.7819 -0.2038 -1.7248
34521SOL     OW 9398   8.385   3.225  10.255  0.7221 -0.1031  0.2763
34521SOL    HW1 9399   8.440   3.168  10.308 -0.5693 -0.3971  1.3535
34521SOL    HW2 9400   8.297   3.215  10.292  0.2516  1.7053 -0.2458
34522SOL     OW 9401   3.651   4.522   7.727  0.4402 -0.2720 -0.4517
34522SOL    HW1 9402   3.632   4.596   7.669  2.8492  0.0805 -0.9062
34522SOL    HW2 9403   3.745   4.507   7.717  0.8250 -0.7403  2.7422
34523SOL     OW 9404   2.192   3.367  10.431  0.4044  0.0733 -0.0862
34523SOL    HW1 9405   2.102   3.396  10.445 -0.1994 -1.2162 -1.0966
34523SOL    HW2 9406   2.191   3.326  10.345  1.7737 -0.6532  0.2167
34524SOL     OW 9407   3.029   7.217   5.382 -0.0970  0.1500 -0.3034
34524SOL    HW1 9408   3.084   7.279   5.429 -0.8861  0.7597 -0.1686
34524SOL    HW2 9409   2.949   7.212   5.435  0.7626 -2.6594  0.9345
34525SOL     OW 9410   7.038   6.596   1.646 -0.2880  0.2791  0.1434
34525SOL    HW1 9411   7.068   6.627   1.561 -1.3701 -0.3206 -0.4661
34525SOL    HW2 9412   7.082   6.653   1.709  0.6241  0.6437 -0.7966
34526SOL     OW 9413   8.939   1.988   4.969  0.1945 -0.4502 -0.1143
34526SOL    HW1 9414   8.890   1.988   5.052 -0.0754  1.8629 -0.2197
34526SOL    HW2 9415   9.014   2.045   4.986  0.0492  0.1812 -1.5173
34527SOL     OW 9416   3.658   1.975  10.144  0.5608  0.9032  0.6851
34527SOL    HW1 9417   3.689   2.065  10.152  0.9765  0.7953  0.2938
34527SOL    HW2 9418   3.691   1.946  10.059  0.1445  0.4921  0.6627
34528SOL     OW 9419   7.316   0.955   6.895 -0.2978 -0.3889 -0.3078
34528SOL    HW1 9420   7.375   1.000   6.835  0.7452  0.3326  1.2179
34528SOL    HW2 9421   7.359   0.960   6.980 -2.1964 -0.5464  0.7074
34529SOL     OW 9422   2.743   7.803   1.110  0.3567  0.2430  0.0582
34529SOL    HW1 9423   2.812   7.751   1.152  0.2659 -0.1294 -0.2464
34529SOL    HW2 9424   2.679   7.818   1.179 -0.3032 -1.2629 -0.1848
34530SOL     OW 9425   6.415   1.159  10.194  0.1481  0.0682 -0.1217
34530SOL    HW1 9426   6.357   1.234  10.183 -0.0105  0.1910  1.3454
34530SOL    HW2 9427   6.390   1.121  10.279  1.9548 -0.0724  0.4023
34531SOL     OW 9428   0.444   1.817   3.076  0.5663 -0.2353  0.2584
34531SOL    HW1 9429   0.468   1.733   3.115 -0.3390  0.4374  2.4107
34531SOL    HW2 9430   0.519   1.874   3.095  1.2658 -0.5535 -1.3711
34532SOL     OW 9431   8.326   3.392   6.343 -0.9356 -0.1623 -0.5646
34532SOL    HW1 9432   8.240   3.370   6.381  0.0913 -1.3309  1.2506
34532SOL    HW2 9433   8.333   3.334   6.267 -1.0863 -1.3302  0.2676
34533SOL     OW 9434   5.796   1.492   6.670  0.0468 -0.0463 -0.4219
34533SOL    HW1 9435   5.865   1.524   6.611  2.4739 -0.9947  1.7122
34533SOL    HW2 9436   5.755   1.572   6.704 -0.9789  0.5231 -2.7828
34534SOL     OW 9437   1.962   2.637   8.573  0.2038 -0.0022  0.2996
34534SOL    HW1 9438   1.902   2.580   8.623 -0.4587 -0.8133 -1.3397
34534SOL    HW2 9439   1.927   2.725   8.587  0.2809 -0.1460  1.5764
34535SOL     OW 9440   1.246   2.223   8.819 -0.0943 -0.0158 -0.5539
34535SOL    HW1 9441   1.170   2.255   8.770 -1.2215  2.9227  2.6512
34535SOL    HW2 9442   1.320   2.274   8.784 -0.2183 -0.4224 -1.4307
34536SOL     OW 9443  10.529  10.595   3.567  0.4405  0.2559 -0.1881
34536SOL    HW1 9444  10.503  10.533   3.635  0.2358 -0.2339 -0.6970
34536SOL    HW2 9445  10.516  10.546   3.485  2.2621  0.2528 -0.5064
34537SOL     OW 9446   4.155   4.726   4.852 -0.2568 -0.2449 -0.1378
34537SOL    HW1 9447   4.068   4.735   4.891 -0.5953 -0.1953 -0.8907
34537SOL    HW2 9448   4.202   4.804   4.879 -0.0301 -0.8395  1.2937
34538SOL     OW 9449   5.035   3.834   0.681 -0.1805 -0.0565  0.1884
34538SOL    HW1 9450   4.978   3.894   0.729  0.0336 -0.2227  0.6548
34538SOL    HW2 9451   5.091   3.892   0.629  0.0557  0.1523  0.6716
34539SOL     OW 9452   0.551  10.126   7.253 -0.1383 -0.5497 -0.5305
34539SOL    HW1 9453   0.613  10.101   7.322 -0.3750  1.3452  0.4327
34539SOL    HW2 9454   0.570  10.219   7.237 -0.7101 -0.7156 -2.3922
34540SOL     OW 9455   6.914   6.926   0.246  0.3197 -0.1250  0.0530
34540SOL    HW1 9456   6.890   6.896   0.334 -1.0559  0.1966 -0.1754
34540SOL    HW2 9457   6.854   6.880   0.188  0.0127  0.9772 -0.5428
34541SOL     OW 9458   3.524   8.031   5.144  0.3449 -0.3353  0.0775
34541SOL    HW1 9459   3.531   8.101   5.080 -0.5776  1.7059  2.0527
34541SOL    HW2 9460   3.451   7.978   5.114 -1.7503  2.0363  0.6115
34542SOL     OW 9461   7.751   7.414   7.992 -0.4656 -0.7278 -0.5145
34542SOL    HW1 9462   7.839   7.446   7.971  0.2590 -3.1832 -1.6089
34542SOL    HW2 9463   7.704   7.415   7.909 -1.2983 -0.0187 -0.0481
34543SOL     OW 9464   1.575   6.303   9.877 -0.3841 -0.1652 -0.0850
34543SOL    HW1 9465   1.605   6.361   9.806  0.7557 -1.6935 -0.9006
34543SOL    HW2 9466   1.655   6.283   9.926 -0.6577 -1.5062 -0.1721
34544SOL     OW 9467   2.599   9.933   3.382 -0.1421 -0.2715  0.4308
34544SOL    HW1 9468   2.579   9.963   3.293  0.5500  2.5421  1.1156
34544SOL    HW2 9469   2.534   9.865   3.399 -0.1356 -1.0871 -2.2767
34545SOL     OW 9470  10.516   3.488   1.163  0.7318 -0.1128  0.6934
34545SOL    HW1 9471  10.548   3.547   1.095  1.3875  1.3554  2.2026
34545SOL    HW2 9472  10.502   3.405   1.118 -1.5464  1.4929 -1.8237
34546SOL     OW 9473   5.919   2.172   7.286  0.4408  0.1085 -0.0898
34546SOL    HW1 9474   5.902   2.179   7.192  1.0614 -0.9119 -0.2973
34546SOL    HW2 9475   5.869   2.095   7.313  0.5939  0.1557  0.3333
34547SOL     OW 9476   5.691   8.838   9.651 -0.3881  0.6888  0.2938
34547SOL    HW1 9477   5.699   8.933   9.640 -0.6316  0.5717 -1.1080
34547SOL    HW2 9478   5.597   8.824   9.667 -0.4434  0.6439 -0.0605
34548SOL     OW 9479   9.077   0.012   6.611 -0.0796 -0.4928 -0.3410
34548SOL    HW1 9480   9.123  -0.064   6.575 -0.3814 -0.9402  0.1916
34548SOL    HW2 9481   9.143   0.080   6.616 -0.1410 -0.2660 -2.1600
34549SOL     OW 9482   0.214  10.381   4.453  0.1225  0.1013  0.0814
34549SOL    HW1 9483   0.200  10.290   4.426 -0.6908  0.5897 -1.2671
34549SOL    HW2 9484   0.185  10.384   4.544 -0.0587 -0.9310  0.0730
34550SOL     OW 9485   9.716   2.794   1.984 -0.1944  0.2738 -0.3908
34550SOL    HW1 9486   9.720   2.889   1.973  3.1234  0.3715  0.6271
34550SOL    HW2 9487   9.668   2.781   2.066  1.8051  1.3053  1.0181
34551SOL     OW 9488   4.371   9.256   0.637 -0.2704  0.5929  0.2771
34551SOL    HW1 9489   4.337   9.172   0.604 -1.6317  1.1735  0.1133
34551SOL    HW2 9490   4.465   9.242   0.647 -0.0999 -0.2607 -1.9346
34552SOL     OW 9491   7.578   7.993   2.559 -0.6018  0.1906  0.3465
34552SOL    HW1 9492   7.539   7.921   2.509 -0.4811  0.6148 -0.3752
34552SOL    HW2 9493   7.583   8.065   2.496 -1.8536  1.2246  1.3805
34553SOL     OW 9494   6.871   2.542   6.824  0.3887  0.3556 -0.2515
34553SOL    HW1 9495   6.889   2.471   6.762  0.1582  1.4785 -1.6269
34553SOL    HW2 9496   6.830   2.497   6.899 -1.9490 -0.7263 -2.0520
34554SOL     OW 9497   6.994   7.405   0.491 -0.7943  0.0748 -0.3087
34554SOL    HW1 9498   6.918   7.349   0.479 -2.5224  2.1762  0.2447
34554SOL    HW2 9499   6.971   7.461   0.566  1.9651 -0.2711  0.9125
34555SOL     OW 9500   1.905   2.599   9.444 -0.0622  0.5053 -0.8956
34555SOL    HW1 9501   1.862   2.524   9.402  2.6155 -1.2469 -0.7645
34555SOL    HW2 9502   1.938   2.652   9.372  1.8083 -0.8500 -1.1271
34556SOL     OW 9503   8.231   8.822   0.606 -0.2967 -0.1915 -0.2557
34556SOL    HW1 9504   8.153   8.867   0.575 -0.8271  1.0147  2.4694
34556SOL    HW2 9505   8.237   8.743   0.553 -1.7287  1.0489 -2.4198
34557SOL     OW 9506   3.712   1.156   0.784 -0.0341 -0.3266  0.3206
34557SOL    HW1 9507   3.633   1.105   0.764  0.9348 -1.7877  0.0377
34557SOL    HW2 9508   3.681   1.230   0.836 -1.4960 -1.2936  0.8812
34558SOL     OW 9509   4.129   3.066   4.954  0.0104  0.7800 -0.4469
34558SOL    HW1 9510   4.047   3.101   4.987 -0.1437  0.4761 -0.5049
34558SOL    HW2 9511   4.175   3.141   4.917 -0.1601  0.9806 -0.2477
34559SOL     OW 9512   7.438   2.822   3.933  0.4378  0.1190 -0.2550
34559SOL    HW1 9513   7.460   2.748   3.876 -1.1717 -0.0202 -0.7425
34559SOL    HW2 9514   7.511   2.883   3.922  1.0022 -0.6745 -1.1166
34560SOL     OW 9515   7.105   9.810   1.439 -0.6561 -0.1741 -0.5923
34560SOL    HW1 9516   7.144   9.798   1.525  1.2333 -0.0064 -1.3762
34560SOL    HW2 9517   7.019   9.848   1.456 -0.2273  0.0501  1.1998
34561SOL     OW 9518   0.478   1.416   0.070 -0.1164 -0.0819  0.2599
34561SOL    HW1 9519   0.520   1.383  -0.010 -2.0422 -1.2858 -0.3073
34561SOL    HW2 9520   0.550   1.456   0.119  1.3164 -0.2544 -1.5695
34562SOL     OW 9521   1.335   3.587   5.303  0.5230  0.3786  0.2315
34562SOL    HW1 9522   1.325   3.516   5.241  0.9653  0.7784 -0.3096
34562SOL    HW2 9523   1.369   3.545   5.382 -2.0966 -0.4818  1.0007
34563SOL     OW 9524   2.799   7.813   7.918  0.4204  0.5526 -0.1977
34563SOL    HW1 9525   2.775   7.721   7.928  1.2260  0.3207 -0.3191
34563SOL    HW2 9526   2.895   7.813   7.925  0.6031  1.1096 -2.1714
34564SOL     OW 9527   7.873   4.309   3.335  0.0027  0.4646 -0.5400
34564SOL    HW1 9528   7.903   4.332   3.423  3.3173  2.6789 -2.0391
34564SOL    HW2 9529   7.930   4.359   3.277 -1.1492 -1.9163 -4.0207
34565SOL     OW 9530   3.687   9.773   9.081  0.1535 -0.5848 -0.0977
34565SOL    HW1 9531   3.611   9.738   9.128  0.1996 -1.8008 -0.8797
34565SOL    HW2 9532   3.650   9.806   8.999  0.1210  1.2208  0.6008
34566SOL     OW 9533   7.390   1.701   1.209  0.0027  0.1592 -0.2811
34566SOL    HW1 9534   7.349   1.768   1.263 -0.6784 -0.2369 -0.3072
34566SOL    HW2 9535   7.445   1.652   1.270 -0.6715 -0.2121  0.0361
34567SOL     OW 9536   1.090   3.383   3.397 -0.2013 -0.5146  0.0943
34567SOL    HW1 9537   1.070   3.298   3.438  2.8703 -0.7905  1.3039
34567SOL    HW2 9538   1.178   3.372   3.362  0.1947  2.1101  0.0846
34568SOL     OW 9539   0.811   5.138   6.943  0.1746  0.2601 -0.6222
34568SOL    HW1 9540   0.766   5.107   6.864 -1.7462 -0.2413  0.5926
34568SOL    HW2 9541   0.763   5.216   6.970 -0.6716 -0.8541  1.2768
34569SOL     OW 9542   8.557   4.101   4.181  0.1468  0.3260 -0.1288
34569SOL    HW1 9543   8.513   4.022   4.151 -1.8106  1.1504  0.4174
34569SOL    HW2 9544   8.623   4.069   4.244 -1.0125 -0.8408  0.5362
34570SOL     OW 9545   9.756   8.719   4.083  0.1197 -0.2883  0.6529
34570SOL    HW1 9546   9.846   8.713   4.051 -0.1939 -0.6526 -0.1957
34570SOL    HW2 9547   9.722   8.629   4.076 -0.6454  0.0399 -0.0831
34571SOL     OW 9548   0.801   0.644   3.518  0.8880  0.3324  0.6055
34571SOL    HW1 9549   0.765   0.584   3.453 -1.1108  0.5679  1.4297
34571SOL    HW2 9550   0.837   0.716   3.466 -1.1449  0.7833 -0.2770
34572SOL     OW 9551   8.558   9.914   8.101  0.3879 -0.5153 -0.0434
34572SOL    HW1 9552   8.628   9.944   8.044  1.9744 -1.9886  1.0415
34572SOL    HW2 9553   8.527   9.994   8.145  1.6044  0.1149 -0.2869
34573SOL     OW 9554   6.018   8.203   0.989  0.0813  0.3867  0.2557
34573SOL    HW1 9555   5.934   8.249   0.992 -0.9360 -1.4186  0.8885
34573SOL    HW2 9556   6.070   8.245   1.058 -0.4452  1.2120  0.1748
34574SOL     OW 9557   4.994   1.380   3.984 -0.4031  0.7301 -0.0562
34574SOL    HW1 9558   4.982   1.372   3.889 -0.0608  2.0167 -0.2196
34574SOL    HW2 9559   4.942   1.457   4.008  0.2020  0.9183  0.6633
34575SOL     OW 9560   0.962   9.398   9.054  0.2670 -0.0378  0.1906
34575SOL    HW1 9561   0.876   9.368   9.023  1.2260 -2.3134 -0.4549
34575SOL    HW2 9562   0.974   9.353   9.137  1.0265 -0.0911  0.0539
34576SOL     OW 9563   2.469   4.104   5.571 -0.2843  0.3117  0.4690
34576SOL    HW1 9564   2.509   4.152   5.643 -0.1587 -0.5122  0.9638
34576SOL    HW2 9565   2.540   4.053   5.533 -0.4899  0.2263  0.1947
34577SOL     OW 9566   3.411   2.836   9.077  0.1893  0.2964 -0.4465
34577SOL    HW1 9567   3.358   2.849   8.998 -0.5719  0.7336  0.1208
34577SOL    HW2 9568   3.362   2.771   9.127  0.7029 -0.0249 -0.3556
34578SOL     OW 9569   0.574   7.722   0.291 -0.0056  0.4592  0.2748
34578SOL    HW1 9570   0.669   7.717   0.284  0.0021  0.9098  0.0226
34578SOL    HW2 9571   0.557   7.721   0.386  0.3025  1.1627  0.3454
34579SOL     OW 9572   9.617   0.497   2.363 -0.9732  1.0465 -0.3927
34579SOL    HW1 9573   9.638   0.403   2.364 -1.1501  1.0068 -0.3276
34579SOL    HW2 9574   9.557   0.507   2.289 -1.0290  1.0913 -0.3418
34580SOL     OW 9575   3.293   7.391   6.509  0.3318  0.6764  0.2927
34580SOL    HW1 9576   3.275   7.455   6.440 -0.1775  1.1960  0.8902
34580SOL    HW2 9577   3.270   7.436   6.590  2.7884  0.8176  1.0091
34581SOL     OW 9578  10.436   4.406   5.197  0.0315  0.1102  0.3681
34581SOL    HW1 9579  10.340   4.410   5.199  0.0161  1.5595 -0.9748
34581SOL    HW2 9580  10.459   4.428   5.107  1.5915 -2.7339 -0.0474
34582SOL     OW 9581   3.658   7.406   4.968  0.5273 -0.0371 -0.3275
34582SOL    HW1 9582   3.683   7.411   4.876  1.2785  3.1902 -0.0377
34582SOL    HW2 9583   3.740   7.411   5.017 -0.0297  2.0867  0.5122
34583SOL     OW 9584   8.311   4.878   9.933 -0.3249  0.3580  0.2171
34583SOL    HW1 9585   8.395   4.904   9.969 -0.4153 -1.1308  1.5999
34583SOL    HW2 9586   8.262   4.842  10.007 -1.0305 -1.5866 -1.0856
34584SOL     OW 9587   0.748   8.090   9.756  0.9377 -0.6690  0.3013
34584SOL    HW1 9588   0.802   8.165   9.780 -0.0573  0.8368 -1.8413
34584SOL    HW2 9589   0.658   8.119   9.773  0.6054 -2.0858  1.1407
34585SOL     OW 9590   1.660   3.416   5.799 -0.4422 -0.4587  0.2274
34585SOL    HW1 9591   1.592   3.380   5.856 -1.0021  0.4502  0.1513
34585SOL    HW2 9592   1.613   3.475   5.740  0.3010 -0.4609 -0.3806
34586SOL     OW 9593   3.476   4.312   0.074 -0.1071  0.3442 -0.7438
34586SOL    HW1 9594   3.571   4.306   0.058  0.1850  0.7126  0.7134
34586SOL    HW2 9595   3.440   4.233   0.034  0.7037  0.5990 -2.0286
34587SOL     OW 9596   1.487  10.637   3.916 -0.0205 -0.4742  0.1816
34587SOL    HW1 9597   1.407  10.583   3.916  0.7649 -1.6775  1.1661
34587SOL    HW2 9598   1.488  10.678   4.002 -0.0813  0.3640 -0.2017
34588SOL     OW 9599   7.101   3.531   3.680 -0.0877 -0.3792 -0.5941
34588SOL    HW1 9600   7.118   3.549   3.772 -2.7551 -1.8057  0.2884
34588SOL    HW2 9601   7.178   3.483   3.650  0.7893  0.0286  0.8926
34589SOL     OW 9602  10.314   1.607   8.700 -0.2090 -0.0688  0.0119
34589SOL    HW1 9603  10.387   1.596   8.762  0.5906 -0.1295 -0.9156
34589SOL    HW2 9604  10.354   1.649   8.624 -0.9264 -1.0239 -0.9250
34590SOL     OW 9605   3.585   6.507   2.383 -0.1984 -0.0601  0.4043
34590SOL    HW1 9606   3.605   6.599   2.364 -0.2895  0.1190  1.1261
34590SOL    HW2 9607   3.500   6.511   2.427  0.0277 -0.4456  0.8802
34591SOL     OW 9608   3.003   7.650   1.595  0.3295  0.1965  0.0661
34591SOL    HW1 9609   2.933   7.595   1.631  0.9744 -0.1976  0.7332
34591SOL    HW2 9610   3.084   7.609   1.624  0.8434  2.0753  1.5457
34592SOL     OW 9611   6.995   2.789   5.204 -0.2062 -0.6866 -0.0419
34592SOL    HW1 9612   6.987   2.854   5.134 -0.7663 -0.0604  0.5999
34592SOL    HW2 9613   6.970   2.706   5.162 -0.8538 -0.2686 -0.5044
34593SOL     OW 9614   4.124  10.151   7.852 -0.0422 -0.1511 -0.5161
34593SOL    HW1 9615   4.214  10.180   7.863 -0.2976  0.1642  0.9027
34593SOL    HW2 9616   4.082  10.223   7.803  0.3129 -0.0117 -0.6231
34594SOL     OW 9617  10.591   3.888   7.785 -0.6104 -0.2967  0.0822
34594SOL    HW1 9618  10.582   3.981   7.805 -2.6375 -0.0748 -1.5490
34594SOL    HW2 9619  10.607   3.885   7.691 -0.4138 -1.5946  0.1373
34595SOL     OW 9620   1.418   7.308   3.911  0.4548 -0.5082 -0.1065
34595SOL    HW1 9621   1.368   7.287   3.832 -1.2497  2.1843  0.1334
34595SOL    HW2 9622   1.461   7.391   3.891  3.6198 -1.8825  0.3358
34596SOL     OW 9623   7.751   1.512   1.203 -0.0570 -0.0487  0.4493
34596SOL    HW1 9624   7.702   1.432   1.222 -1.1697  0.4564 -0.1947
34596SOL    HW2 9625   7.830   1.505   1.256 -1.6110 -0.0909  2.8968
34597SOL     OW 9626   4.327   3.058   1.130  0.4295 -0.2026 -0.0273
34597SOL    HW1 9627   4.260   3.118   1.162  1.1754  0.6479 -0.0317
34597SOL    HW2 9628   4.361   3.099   1.051 -0.7124 -1.8048 -1.4194
34598SOL     OW 9629   4.598  10.367   3.960  0.3417  0.5862  0.2837
34598SOL    HW1 9630   4.505  10.378   3.979 -0.0276  0.4635 -1.2806
34598SOL    HW2 9631   4.620  10.282   3.999 -0.0049  0.9468  1.2932
34599SOL     OW 9632  10.456   8.402  10.564  0.4498 -0.0778 -0.0559
34599SOL    HW1 9633  10.490   8.475  10.512 -1.3742  0.1088 -1.0755
34599SOL    HW2 9634  10.514   8.329  10.543  1.2749  0.6394 -0.3452
34600SOL     OW 9635   8.774   3.063   6.294  0.0481  0.5009  0.0749
34600SOL    HW1 9636   8.686   3.088   6.322  0.7309  2.1667  0.8576
34600SOL    HW2 9637   8.799   2.991   6.353  0.2307  1.8498  1.7144
34601SOL     OW 9638   3.246   9.178   1.601  0.2799 -0.2061 -0.3651
34601SOL    HW1 9639   3.305   9.149   1.671 -1.0561 -0.4157  0.7217
34601SOL    HW2 9640   3.300   9.177   1.522  1.6139 -0.7798  0.5173
34602SOL     OW 9641   6.520   8.646   1.581  0.1812  0.1913  0.0651
34602SOL    HW1 9642   6.526   8.739   1.561  0.5201  0.5035  1.5274
34602SOL    HW2 9643   6.440   8.617   1.538 -0.9366  1.5889  1.1282
34603SOL     OW 9644   4.006   0.662   4.890 -0.5432 -0.2407 -0.1655
34603SOL    HW1 9645   3.912   0.679   4.904 -0.3242  0.8351  0.1190
34603SOL    HW2 9646   4.045   0.749   4.887  0.5628 -0.6994  0.5366
34604SOL     OW 9647   9.212   4.140   6.637 -0.0945 -0.1724 -0.3274
34604SOL    HW1 9648   9.202   4.118   6.730  0.6182  1.7517  0.2546
34604SOL    HW2 9649   9.278   4.079   6.605  0.4632 -0.1567  0.7388
34605SOL     OW 9650   9.315   6.206   9.918  0.1060  0.1880 -0.4937
34605SOL    HW1 9651   9.254   6.279   9.931 -0.6664 -0.2450 -1.4891
34605SOL    HW2 9652   9.338   6.177  10.006 -1.5094  0.0652 -0.0706
34606SOL     OW 9653   3.803   9.645   1.949  0.0875 -0.1402 -0.2803
34606SOL    HW1 9654   3.766   9.688   2.025 -0.7955 -1.3077 -0.0292
34606SOL    HW2 9655   3.897   9.642   1.967  0.0908  1.0272  0.0017
34607SOL     OW 9656   4.809   7.147   2.360  0.3528  0.2921 -0.4473
34607SOL    HW1 9657   4.755   7.093   2.302  0.8686  0.7624 -1.3925
34607SOL    HW2 9658   4.784   7.237   2.339  1.9576  0.5614 -1.4206
34608SOL     OW 9659   7.028   7.426   3.804  0.2171 -0.3682  0.7645
34608SOL    HW1 9660   7.017   7.354   3.866 -0.6333 -0.0455  1.0021
34608SOL    HW2 9661   6.983   7.500   3.844  0.3168  0.0573  0.1140
34609SOL     OW 9662   3.105   0.762   4.417 -0.0629  0.3434 -0.2799
34609SOL    HW1 9663   3.142   0.841   4.457  0.6754  0.7474 -1.7004
34609SOL    HW2 9664   3.057   0.794   4.340 -0.3102 -0.5284 -0.5000
34610SOL     OW 9665   9.982   4.045   5.087  0.3258  0.6869 -0.4553
34610SOL    HW1 9666  10.048   4.010   5.146 -1.1684 -1.3232  0.1483
34610SOL    HW2 9667  10.003   4.006   5.002 -0.6711 -0.9089 -0.0223
34611SOL     OW 9668   6.733   8.346   6.609  0.6397 -0.2409 -0.3029
34611SOL    HW1 9669   6.800   8.349   6.677  1.9884  1.4549 -1.5903
34611SOL    HW2 9670   6.781   8.327   6.529 -0.2738  1.6083 -1.3679
34612SOL     OW 9671   2.080   9.225   5.789 -0.0992  0.2136  0.3456
34612SOL    HW1 9672   2.122   9.202   5.872  1.7033 -1.2729 -0.9086
34612SOL    HW2 9673   2.151   9.233   5.727 -1.5630 -0.9957 -1.5915
34613SOL     OW 9674   1.304   1.237   5.930  0.4718 -0.0472 -0.2418
34613SOL    HW1 9675   1.224   1.250   5.879 -0.0947  0.9593  0.8543
34613SOL    HW2 9676   1.360   1.185   5.873  0.2299  1.7707 -2.2683
34614SOL     OW 9677   7.299   0.527   6.975 -0.2395 -0.1472  0.0686
34614SOL    HW1 9678   7.385   0.569   6.984 -0.4683  0.2438  0.4405
34614SOL    HW2 9679   7.312   0.439   7.011 -0.8230  0.9695  3.2457
34615SOL     OW 9680   7.120   4.867   9.672  0.3344 -0.2675 -0.0506
34615SOL    HW1 9681   7.049   4.829   9.724  0.1064  0.9215  0.5480
34615SOL    HW2 9682   7.076   4.912   9.600  0.4982  0.0435  0.0377
34616SOL     OW 9683   6.062   5.266   2.085  0.5224  0.3059 -0.3300
34616SOL    HW1 9684   5.995   5.335   2.080 -0.9718 -1.0360  0.2201
34616SOL    HW2 9685   6.053   5.232   2.174  0.3462 -1.4135 -0.9713
34617SOL     OW 9686   7.761   4.008   6.871  0.2446 -0.4071  0.3392
34617SOL    HW1 9687   7.696   3.938   6.882  0.5014 -0.7575 -0.3039
34617SOL    HW2 9688   7.709   4.088   6.868 -0.2535 -0.7458 -0.9146
34618SOL     OW 9689   4.296   7.728   8.338  0.2325 -0.0093  0.1362
34618SOL    HW1 9690   4.276   7.798   8.276 -0.2304 -2.2145 -2.4140
34618SOL    HW2 9691   4.216   7.676   8.342  0.2777  0.0039  2.6370
34619SOL     OW 9692   3.258   2.555   1.288 -0.5240 -0.2246 -0.2034
34619SOL    HW1 9693   3.188   2.621   1.281 -0.0149  0.2863 -0.5989
34619SOL    HW2 9694   3.331   2.593   1.240 -0.0911 -0.9195 -0.1059
34620SOL     OW 9695   9.909   0.603   5.611 -0.3885  0.3432 -0.0948
34620SOL    HW1 9696   9.874   0.527   5.563  1.0254 -0.4369  0.0601
34620SOL    HW2 9697   9.934   0.567   5.696  3.0555  0.2242 -0.9968
34621SOL     OW 9698   4.912   4.552   4.432  0.2169 -0.1908 -0.0220
34621SOL    HW1 9699   4.895   4.516   4.345 -2.8729  1.8735 -0.4361
34621SOL    HW2 9700   4.898   4.478   4.492  0.3150 -1.1424 -1.1472
34622SOL     OW 9701   7.618   1.537   7.126  0.4833  0.1213  0.5045
34622SOL    HW1 9702   7.703   1.539   7.082  0.7760  1.8479  1.0631
34622SOL    HW2 9703   7.628   1.471   7.194  0.8182 -0.8483 -0.4496
34623SOL     OW 9704   6.754   8.372   6.150  0.0127  0.7263  0.0488
34623SOL    HW1 9705   6.757   8.445   6.088 -0.6639  1.2780  0.6590
34623SOL    HW2 9706   6.669   8.331   6.135  0.0481  0.5655  0.2825
34624SOL     OW 9707   6.386   1.650   7.872 -0.0804 -0.4337 -0.7047
34624SOL    HW1 9708   6.371   1.577   7.931 -0.3141  0.4109  0.3116
34624SOL    HW2 9709   6.471   1.686   7.899 -1.1235  1.2402  0.5712
34625SOL     OW 9710   2.588   1.102   9.395  0.0093 -0.4206  0.5428
34625SOL    HW1 9711   2.520   1.092   9.329 -0.1764 -0.2991  0.7138
34625SOL    HW2 9712   2.541   1.094   9.479  0.1291  0.1587  0.6686
34626SOL     OW 9713   6.442   1.936   4.219 -0.2094  0.4693 -0.0907
34626SOL    HW1 9714   6.531   1.923   4.250 -0.4719  0.2468  0.5690
34626SOL    HW2 9715   6.420   1.855   4.173 -0.1202  0.4779 -0.1490
34627SOL     OW 9716   4.911  10.469   9.548  0.1032 -0.3869  0.0684
34627SOL    HW1 9717   4.886  10.404   9.614  0.2999 -0.8178 -0.2786
34627SOL    HW2 9718   4.971  10.423   9.490  0.3762  0.1559 -0.0883
34628SOL     OW 9719   1.596   1.969   6.562  0.5350 -0.3215  0.0257
34628SOL    HW1 9720   1.650   1.934   6.492  0.6430  0.5126 -0.3172
34628SOL    HW2 9721   1.659   2.011   6.621  0.2695  0.6883 -0.3957
34629SOL     OW 9722   0.470   3.563   6.111  0.0988 -0.3385  0.6345
34629SOL    HW1 9723   0.524   3.604   6.043  0.5198 -0.0914  1.1148
34629SOL    HW2 9724   0.460   3.472   6.081 -2.4197  0.5144 -1.3994
34630SOL     OW 9725   5.488   2.029   0.660 -0.3243  0.3263  0.2071
34630SOL    HW1 9726   5.446   2.067   0.583  0.6437 -1.8547 -1.5191
34630SOL    HW2 9727   5.416   2.009   0.720 -1.2756  0.5820 -0.8263
34631SOL     OW 9728  10.679   3.298   3.532  0.6658 -0.2306  0.8964
34631SOL    HW1 9729  10.715   3.246   3.604  1.0023 -0.2075  0.7440
34631SOL    HW2 9730  10.748   3.360   3.509 -0.0053  0.7972  1.5679
34632SOL     OW 9731   4.475   2.632   3.760  0.0695 -0.4459  0.1280
34632SOL    HW1 9732   4.392   2.630   3.807  0.3868 -1.6124  0.6476
34632SOL    HW2 9733   4.475   2.718   3.716 -1.2823 -0.3253  0.3256
34633SOL     OW 9734   5.692   6.421   7.163 -0.3145 -0.7694  0.1056
34633SOL    HW1 9735   5.603   6.416   7.127 -0.2312  0.0375 -0.2341
34633SOL    HW2 9736   5.718   6.330   7.174 -1.4204 -1.0242  0.8050
34634SOL     OW 9737   2.716   2.828   2.229  0.6694 -0.3681  0.3231
34634SOL    HW1 9738   2.749   2.836   2.318  0.2576 -0.4259  0.4842
34634SOL    HW2 9739   2.671   2.911   2.213  0.4256 -0.5020  0.3050
34635SOL     OW 9740   5.312   5.791   7.166 -0.1647 -0.1033 -0.5150
34635SOL    HW1 9741   5.317   5.715   7.107  0.5466  0.0209 -0.6250
34635SOL    HW2 9742   5.395   5.789   7.214  1.2388  2.3145 -2.6361
34636SOL     OW 9743   4.960   6.662   4.066 -0.3015  0.4375 -1.3553
34636SOL    HW1 9744   4.892   6.602   4.036  0.5192 -0.7091 -0.9797
34636SOL    HW2 9745   5.041   6.627   4.030  0.5789 -0.3493  1.1623
34637SOL     OW 9746  10.459   7.058   0.797  0.0590  0.0537  0.5983
34637SOL    HW1 9747  10.414   6.991   0.746  0.4275  0.0994  0.2103
34637SOL    HW2 9748  10.453   7.028   0.888  3.0032 -2.2136  0.2023
34638SOL     OW 9749   3.676   1.720   9.456  0.0251 -0.3733 -0.4186
34638SOL    HW1 9750   3.707   1.646   9.509 -0.1983 -0.5330 -0.5066
34638SOL    HW2 9751   3.755   1.754   9.414  0.2752  0.0583  0.3852
34639SOL     OW 9752   7.987   5.553   0.238  0.4145  0.7427 -0.0056
34639SOL    HW1 9753   7.997   5.604   0.157 -0.6886  1.5189  0.3148
34639SOL    HW2 9754   7.926   5.483   0.215  2.7249 -1.1718 -0.7303
34640SOL     OW 9755   4.106   1.575   9.015  0.4089  0.0978 -0.7545
34640SOL    HW1 9756   4.176   1.509   9.020  0.5121  0.1142 -1.7225
34640SOL    HW2 9757   4.147   1.650   8.973 -0.7944 -0.8355 -3.9291
34641SOL     OW 9758   7.856   7.892   9.237  0.1395 -0.3277 -0.2348
34641SOL    HW1 9759   7.835   7.804   9.268 -0.3476  0.0580  0.5828
34641SOL    HW2 9760   7.942   7.911   9.274 -0.1803 -0.0977  0.4069
34642SOL     OW 9761   9.765   5.272   0.563  0.2283 -0.1966 -0.4863
34642SOL    HW1 9762   9.785   5.363   0.545  2.7587 -1.1307 -3.2209
34642SOL    HW2 9763   9.739   5.236   0.478  1.3283 -2.4481  0.0563
34643SOL     OW 9764   8.456   6.363   4.486  0.0795 -0.6129 -0.3366
34643SOL    HW1 9765   8.537   6.357   4.537  0.4992  0.6646 -0.8149
34643SOL    HW2 9766   8.485   6.365   4.395 -0.4350  0.4159 -0.4984
34644SOL     OW 9767   2.716   7.273  10.321  0.3605  0.0395 -0.0705
34644SOL    HW1 9768   2.684   7.359  10.349 -1.5318 -0.7601  0.3646
34644SOL    HW2 9769   2.708   7.218  10.399  0.7570 -0.7568 -0.5739
34645SOL     OW 9770   5.678   4.189   9.095 -0.5159 -0.3535 -0.1095
34645SOL    HW1 9771   5.637   4.111   9.132 -0.0972 -1.0026 -0.9798
34645SOL    HW2 9772   5.608   4.233   9.047 -0.7990 -0.0835  0.5424
34646SOL     OW 9773   1.289   3.149   4.072 -0.2046  0.1071  0.0753
34646SOL    HW1 9774   1.208   3.192   4.042  0.1116  1.2636  0.8251
34646SOL    HW2 9775   1.356   3.216   4.064  0.1698  0.0172  1.9915
34647SOL     OW 9776   8.823   3.344   9.397  0.0442 -0.0964 -0.2117
34647SOL    HW1 9777   8.893   3.298   9.443 -0.1571 -2.1705 -1.8088
34647SOL    HW2 9778   8.840   3.436   9.412  2.4888 -0.5724  0.3561
34648SOL     OW 9779   4.598   4.782   6.337  0.1180 -0.1839  0.3498
34648SOL    HW1 9780   4.554   4.827   6.265  0.3004  1.2183  1.0808
34648SOL    HW2 9781   4.526   4.745   6.389 -0.1161  0.5045  0.5263
34649SOL     OW 9782   7.967   5.064   1.032 -0.1240 -0.6160  0.2532
34649SOL    HW1 9783   8.033   5.132   1.025 -0.3246 -0.5940 -2.5022
34649SOL    HW2 9784   7.910   5.092   1.103 -0.0630  1.9944 -0.6488
34650SOL     OW 9785   8.016   5.435   3.824  0.1334 -0.0099  0.1880
34650SOL    HW1 9786   8.048   5.525   3.832  0.4847  0.0220 -1.4207
34650SOL    HW2 9787   8.083   5.382   3.867 -0.0821  0.4752  1.1624
34651SOL     OW 9788   5.301   7.842   3.008  0.2183  0.2102  0.2114
34651SOL    HW1 9789   5.349   7.923   2.987 -0.6300  1.1086  1.5828
34651SOL    HW2 9790   5.209   7.867   3.002 -0.1011 -1.1064 -0.9032
34652SOL     OW 9791   3.144   0.075   8.271 -0.2439  0.2043  0.5314
34652SOL    HW1 9792   3.130   0.072   8.176  0.6432 -1.9767  0.4051
34652SOL    HW2 9793   3.089   0.006   8.306  0.7896 -0.2133  1.3945
34653SOL     OW 9794   8.503  10.095   8.357 -0.2246 -0.5776  0.1198
34653SOL    HW1 9795   8.492  10.154   8.431 -1.2004 -1.2347  0.5174
34653SOL    HW2 9796   8.534  10.013   8.396  1.4283 -0.2726 -0.4558
34654SOL     OW 9797   8.103   4.047   3.402 -0.3985 -0.1148 -0.0869
34654SOL    HW1 9798   8.158   4.120   3.373  0.0194 -0.5915 -0.5198
34654SOL    HW2 9799   8.165   3.985   3.439 -0.8983  0.4076  1.7160
34655SOL     OW 9800   4.409   9.754   2.138  0.5312 -0.1835 -0.6793
34655SOL    HW1 9801   4.404   9.660   2.150  2.8540 -0.4356 -1.3782
34655SOL    HW2 9802   4.404   9.790   2.227 -2.8377 -0.7039 -0.5006
34656SOL     OW 9803   5.546   5.549  10.496 -0.4570 -0.6102 -0.4186
34656SOL    HW1 9804   5.626   5.595  10.520 -1.6922  1.0798  0.7518
34656SOL    HW2 9805   5.575   5.463  10.465  1.8422  0.3581 -1.0959
34657SOL     OW 9806   4.233  10.234   9.187  0.2087  0.0591 -0.8046
34657SOL    HW1 9807   4.295  10.307   9.190  0.3345 -0.0869  0.7665
34657SOL    HW2 9808   4.191  10.234   9.273 -0.5271 -1.0942 -1.1378
34658SOL     OW 9809   6.122   3.874   2.155 -0.2225 -0.6257  0.2925
34658SOL    HW1 9810   6.173   3.906   2.080 -2.0958  0.1810 -0.7093
34658SOL    HW2 9811   6.083   3.952   2.193 -0.6020 -1.2012  1.1224
34659SOL     OW 9812   3.078   3.612   6.330 -0.6584  0.3696 -0.2167
34659SOL    HW1 9813   3.030   3.585   6.252 -1.8583  2.0630 -0.1242
34659SOL    HW2 9814   3.010   3.638   6.392  0.3084 -0.0788  1.0815
34660SOL     OW 9815   3.838   6.860   9.784 -0.1271 -0.4502  0.1114
34660SOL    HW1 9816   3.752   6.826   9.761 -0.3148  0.9092 -1.4341
34660SOL    HW2 9817   3.850   6.935   9.725  1.1204  0.8316  1.8843
34661SOL     OW 9818   0.848   9.312   9.359 -0.1005  0.7965 -0.3858
34661SOL    HW1 9819   0.918   9.254   9.332 -1.0573  0.4298 -2.2964
34661SOL    HW2 9820   0.770   9.256   9.362 -0.4226  1.2826  1.2430
34662SOL     OW 9821   6.582  10.595   1.736  1.0450  0.4897  0.7932
34662SOL    HW1 9822   6.505  10.561   1.782  0.8118  1.8461  1.4740
34662SOL    HW2 9823   6.599  10.531   1.667 -0.3539 -0.1360  0.9827
34663SOL     OW 9824   2.850   6.999   4.055 -0.5406 -0.0233  0.3908
34663SOL    HW1 9825   2.777   7.058   4.033  1.3394  1.9224 -1.0180
34663SOL    HW2 9826   2.893   7.041   4.129 -0.3126 -0.6865  0.6383
34664SOL     OW 9827   9.660   8.144  10.592  0.2613  0.5320 -0.1621
34664SOL    HW1 9828   9.753   8.166  10.584  0.5970 -0.0600  1.5944
34664SOL    HW2 9829   9.615   8.218  10.552  1.4777  0.6457 -1.4197
34665SOL     OW 9830   7.137   8.105   0.064 -0.2407 -0.5080 -0.1029
34665SOL    HW1 9831   7.153   8.197   0.084 -2.3599  0.4333 -2.2195
34665SOL    HW2 9832   7.218   8.075   0.022  0.1955  0.6174 -0.0965
34666SOL     OW 9833  10.533   9.888   6.541  0.4499 -0.2980 -0.2113
34666SOL    HW1 9834  10.443   9.858   6.538 -0.3076  1.8495 -1.4582
34666SOL    HW2 9835  10.549   9.923   6.453  2.6093 -0.8911 -0.1096
34667SOL     OW 9836   5.347   9.899   4.336 -0.2580  0.6795 -0.3858
34667SOL    HW1 9837   5.309   9.948   4.264 -0.6027  2.0079  0.6567
34667SOL    HW2 9838   5.422   9.853   4.298 -0.8978  0.7245 -1.7350
34668SOL     OW 9839   6.335   1.154   5.534  0.0821 -0.6906 -0.4858
34668SOL    HW1 9840   6.251   1.200   5.537 -0.5003 -1.6981 -0.9005
34668SOL    HW2 9841   6.341   1.108   5.617  0.9310  0.5441  0.1724
34669SOL     OW 9842   6.384  10.390   3.418  0.0255  0.1614  0.4270
34669SOL    HW1 9843   6.329  10.426   3.487  1.3522 -0.5907  1.9164
34669SOL    HW2 9844   6.331  10.320   3.379 -0.8498  0.7956  0.4424
34670SOL     OW 9845   8.879   2.350   5.594 -0.3874  0.0269  0.1059
34670SOL    HW1 9846   8.905   2.313   5.510  0.0650  0.9693 -0.1830
34670SOL    HW2 9847   8.849   2.275   5.645 -0.5589 -0.5717 -0.8511
34671SOL     OW 9848   3.149   8.871   8.724 -0.0062 -0.2752 -0.2407
34671SOL    HW1 9849   3.179   8.900   8.638  1.6239  1.9774  0.9811
34671SOL    HW2 9850   3.218   8.813   8.755  0.9533  1.3052  0.7136
34672SOL     OW 9851   2.863   3.682  10.680  0.0177  0.0925  0.0124
34672SOL    HW1 9852   2.937   3.650  10.730  0.2706  1.3965  0.5244
34672SOL    HW2 9853   2.852   3.620  10.609  0.8120 -0.7879  0.6457
34673SOL     OW 9854   8.061   1.873   2.617  0.3153 -0.4238 -0.2706
34673SOL    HW1 9855   7.974   1.907   2.636 -0.1545 -1.5032 -0.4174
34673SOL    HW2 9856   8.090   1.924   2.541 -0.4753 -0.5296 -0.6578
34674SOL     OW 9857   3.913   6.187   2.862  0.7364  0.5505  0.2446
34674SOL    HW1 9858   3.986   6.247   2.877  2.6103 -1.5377 -0.0290
34674SOL    HW2 9859   3.932   6.112   2.918 -0.4527 -0.6678 -0.9113
34675SOL     OW 9860   0.019  10.473   0.742  0.6581  0.2017 -0.0427
34675SOL    HW1 9861   0.065  10.519   0.672  0.6799  0.4493  0.1329
34675SOL    HW2 9862  -0.002  10.388   0.705  3.0642 -0.7397  0.5256
34676SOL     OW 9863   5.889   1.690   9.427 -0.7080 -0.0533 -0.1814
34676SOL    HW1 9864   5.865   1.604   9.463 -1.4279 -0.1269 -0.8053
34676SOL    HW2 9865   5.871   1.752   9.497  0.0411 -0.4319  0.3577
34677SOL     OW 9866   8.318   7.927   8.345 -0.0435 -0.1347  0.1369
34677SOL    HW1 9867   8.239   7.874   8.352 -0.8617  1.0702  0.2720
34677SOL    HW2 9868   8.360   7.918   8.430  0.1361 -1.0127 -0.0300
34678SOL     OW 9869   5.515   6.045   5.184  0.9259  0.3254 -0.2281
34678SOL    HW1 9870   5.508   6.044   5.089  1.3588  1.4285 -0.2916
34678SOL    HW2 9871   5.457   5.975   5.214  1.6516 -0.7807 -1.3341
34679SOL     OW 9872   9.389   6.951   1.457 -0.3660 -0.2695 -0.3670
34679SOL    HW1 9873   9.361   7.015   1.392 -1.8766 -3.5149 -3.2270
34679SOL    HW2 9874   9.484   6.955   1.455 -0.4119  1.1062 -1.2531
34680SOL     OW 9875   7.819   5.739   0.459  0.3380 -0.0710 -0.1196
34680SOL    HW1 9876   7.748   5.678   0.443 -0.2764  0.4293  0.6143
34680SOL    HW2 9877   7.896   5.684   0.476 -0.1631 -0.6331  0.3452
34681SOL     OW 9878   5.820   2.412   7.391  0.6576 -0.5375  0.1684
34681SOL    HW1 9879   5.902   2.460   7.382  0.8721 -1.0028 -0.3788
34681SOL    HW2 9880   5.837   2.326   7.352  0.3464 -1.1454  1.3135
34682SOL     OW 9881   2.094   3.020   5.219 -0.3236  0.0407 -0.6866
34682SOL    HW1 9882   2.022   2.957   5.209  0.0658 -0.3494 -1.0660
34682SOL    HW2 9883   2.057   3.089   5.274 -0.4298 -1.0257  0.6435
34683SOL     OW 9884   8.626   7.424   1.615 -0.1205  0.1128  0.3420
34683SOL    HW1 9885   8.556   7.424   1.680 -0.0024 -0.2280  0.4694
34683SOL    HW2 9886   8.592   7.477   1.543  0.5603  2.2990  1.5368
34684SOL     OW 9887   4.025   2.960   2.457  0.2526 -0.8285 -0.0559
34684SOL    HW1 9888   3.996   3.017   2.528 -0.0732  0.0929 -0.9045
34684SOL    HW2 9889   3.965   2.979   2.385  1.4448 -0.6697 -1.0573
34685SOL     OW 9890   9.102  10.716   5.708 -0.2179 -0.7278 -0.0654
34685SOL    HW1 9891   9.057  10.688   5.628 -3.8807  1.0021  1.1475
34685SOL    HW2 9892   9.137  10.802   5.687 -1.5696 -0.0766  0.2303
34686SOL     OW 9893   0.734   8.821   0.802  0.3270 -0.5470 -0.4768
34686SOL    HW1 9894   0.826   8.839   0.823  0.4892  0.9286 -2.2669
34686SOL    HW2 9895   0.737   8.769   0.722 -0.3967 -2.6012  0.7329
34687SOL     OW 9896   1.874   4.632   1.674 -0.0965 -0.1361  0.0472
34687SOL    HW1 9897   1.883   4.719   1.635  0.2752 -0.4946 -0.6739
34687SOL    HW2 9898   1.894   4.571   1.603 -0.9861 -0.8292  0.3670
34688SOL     OW 9899   2.839   7.608   7.231 -0.0485  0.3019  0.0611
34688SOL    HW1 9900   2.934   7.597   7.242  0.0675  0.7011 -0.4485
34688SOL    HW2 9901   2.817   7.554   7.155  0.1975  1.9930 -1.2717
34689SOL     OW 9902  10.182   3.217   5.642 -0.5658 -0.3141  0.8822
34689SOL    HW1 9903  10.180   3.299   5.594 -0.2740 -0.6570  0.2735
34689SOL    HW2 9904  10.275   3.196   5.651 -0.6507 -0.8506  0.5509
34690SOL     OW 9905   2.184  10.530   0.671 -0.0740 -0.4483 -0.5902
34690SOL    HW1 9906   2.164  10.611   0.624 -0.7187 -0.6058 -0.5995
34690SOL    HW2 9907   2.191  10.557   0.763 -1.4976 -0.5592 -0.4265
34691SOL     OW 9908   6.073   8.684   3.391  0.2247 -0.0607  0.0679
34691SOL    HW1 9909   6.101   8.615   3.452  0.0934 -0.4148 -0.2655
34691SOL    HW2 9910   5.989   8.713   3.426 -0.0303 -0.5230 -0.1429
34692SOL     OW 9911   3.012   0.250   9.044 -0.6671  0.4058 -0.1758
34692SOL    HW1 9912   3.039   0.340   9.024 -2.1242  0.9542  0.1865
34692SOL    HW2 9913   3.002   0.248   9.139  1.5828 -0.8307  0.1039
34693SOL     OW 9914   1.952   2.246   4.550 -0.0298 -0.1439 -0.1719
34693SOL    HW1 9915   1.937   2.184   4.479  1.2235  0.0630 -0.6548
34693SOL    HW2 9916   1.950   2.193   4.630 -0.6130 -0.5214 -0.4367
34694SOL     OW 9917   3.666  10.648   2.957  0.6588  0.5057 -0.0296
34694SOL    HW1 9918   3.743  10.704   2.964  0.1064  1.3983 -0.8680
34694SOL    HW2 9919   3.646  10.622   3.047  1.1757  1.3160  0.3236
34695SOL     OW 9920   9.499   8.265   1.247  0.3222  0.0696 -0.1184
34695SOL    HW1 9921   9.429   8.201   1.235  0.6676 -0.3326 -0.0166
34695SOL    HW2 9922   9.492   8.290   1.339 -0.0508  0.4629 -0.2512
34696SOL     OW 9923   0.435   1.591   5.404 -0.5419  0.2548 -0.0419
34696SOL    HW1 9924   0.478   1.505   5.408  1.7656  1.3589  0.5897
34696SOL    HW2 9925   0.342   1.572   5.415 -0.0416 -2.1044  0.6462
34697SOL     OW 9926   9.969   7.240   3.768 -0.2807  0.2666 -0.4224
34697SOL    HW1 9927   9.919   7.318   3.742  1.9596  1.0891 -2.7140
34697SOL    HW2 9928   9.935   7.170   3.712  0.7443  0.7306 -1.6833
34698SOL     OW 9929   7.209   8.132   9.057 -0.2101 -0.0053 -0.4289
34698SOL    HW1 9930   7.143   8.148   8.989  1.3055  1.0935 -1.7093
34698SOL    HW2 9931   7.288   8.176   9.026  0.9383 -0.5992  1.4317
34699SOL     OW 9932   4.884   2.696   5.656  0.0292 -0.0747 -0.3779
34699SOL    HW1 9933   4.799   2.653   5.667  0.3612 -0.2173  1.9841
34699SOL    HW2 9934   4.938   2.631   5.611 -0.3947 -0.9474  0.3435
34700SOL     OW 9935   5.203   6.437   2.104 -0.3657 -0.0996 -0.1041
34700SOL    HW1 9936   5.226   6.508   2.044 -0.3492  0.7681  0.9033
34700SOL    HW2 9937   5.288   6.404   2.136 -0.2044 -2.3598 -2.4914
34701SOL     OW 9938   8.063   5.940   3.698  0.2115  0.0756  0.0454
34701SOL    HW1 9939   7.975   5.950   3.662 -0.6788 -0.6476  1.8841
34701SOL    HW2 9940   8.121   5.974   3.630 -1.4320 -0.0916 -1.5063
34702SOL     OW 9941   0.579   3.210   8.703  0.0374 -0.1472 -0.3770
34702SOL    HW1 9942   0.525   3.193   8.780  0.5481  0.8544  0.2106
34702SOL    HW2 9943   0.524   3.264   8.646 -0.3353 -0.8781 -0.7257
34703SOL     OW 9944   1.183   3.993  10.274 -0.4266 -0.4556 -0.0588
34703SOL    HW1 9945   1.250   3.958  10.333  0.1681 -1.1124 -1.1073
34703SOL    HW2 9946   1.102   3.954  10.305  0.2887 -3.3365 -1.5631
34704SOL     OW 9947   2.496   5.432   3.245 -0.5142  0.2714 -0.0024
34704SOL    HW1 9948   2.510   5.343   3.213 -1.7811  0.6045 -1.6404
34704SOL    HW2 9949   2.403   5.435   3.269 -0.0637  0.6310  1.9406
34705SOL     OW 9950   6.042   2.982   3.785  0.1278 -0.2859 -0.5722
34705SOL    HW1 9951   5.947   2.971   3.789  0.2968 -1.7631  0.4424
34705SOL    HW2 9952   6.071   2.966   3.875  1.1980  1.9802 -0.4427
34706SOL     OW 9953   4.932   1.977   3.213 -0.3016 -0.1549 -0.3648
34706SOL    HW1 9954   5.009   1.954   3.162  0.3402  0.1053  0.4539
34706SOL    HW2 9955   4.917   1.901   3.270 -1.5008 -0.7871 -1.4715
34707SOL     OW 9956   3.826   4.652   3.193  0.1701 -1.1148 -0.1241
34707SOL    HW1 9957   3.866   4.724   3.144  1.4328 -2.6856 -1.5576
34707SOL    HW2 9958   3.819   4.684   3.283 -2.4596  1.9910 -1.2618
34708SOL     OW 9959   4.020   3.260   8.523 -0.3362  0.4834 -0.0890
34708SOL    HW1 9960   3.956   3.266   8.453 -1.1374  0.6385  0.6385
34708SOL    HW2 9961   3.979   3.303   8.598  0.6505  0.6568  0.3759
34709SOL     OW 9962   9.375   2.873   8.355 -0.9559 -0.2916 -0.6121
34709SOL    HW1 9963   9.419   2.956   8.373 -1.3837  0.1185 -1.4036
34709SOL    HW2 9964   9.395   2.855   8.263 -2.1901 -0.2356 -0.9092
34710SOL     OW 9965   6.468   3.754   0.792 -0.7741  0.6704 -0.0886
34710SOL    HW1 9966   6.438   3.706   0.715  0.2087 -0.1947  0.0484
34710SOL    HW2 9967   6.399   3.742   0.857 -0.3081 -1.0473  0.1268
34711SOL     OW 9968   4.709   0.933   7.768  0.0797 -0.1040  0.2866
34711SOL    HW1 9969   4.733   1.016   7.809  2.6819 -0.5893 -0.0974
34711SOL    HW2 9970   4.662   0.959   7.689 -0.7130  0.9429  1.0681
34712SOL     OW 9971   9.570   5.142   2.829 -0.1073 -0.6291 -0.1157
34712SOL    HW1 9972   9.604   5.081   2.763  0.8508  0.2082 -0.4127
34712SOL    HW2 9973   9.630   5.216   2.827 -2.9749  1.8953 -2.1318
34713SOL     OW 9974   4.811   0.008   0.482 -0.1177 -0.0097  0.1462
34713SOL    HW1 9975   4.791   0.045   0.568 -0.1418  2.7741 -0.9441
34713SOL    HW2 9976   4.726  -0.005   0.441 -0.2500 -3.4086  1.1962
34714SOL     OW 9977   3.076   2.021   7.395 -0.4780  0.6416 -0.0470
34714SOL    HW1 9978   3.004   2.080   7.372  0.0662  1.2135 -0.3394
34714SOL    HW2 9979   3.133   2.022   7.318 -0.0757  0.3287  0.2411
34715SOL     OW 9980  10.508   5.580  10.505  0.2312  0.1644 -0.2275
34715SOL    HW1 9981  10.528   5.540  10.590 -1.0972 -0.9790 -0.4168
34715SOL    HW2 9982  10.492   5.673  10.525 -0.4865 -0.1749  0.8553
34716SOL     OW 9983   2.052   1.920   1.569  0.1026  0.1489  0.3970
34716SOL    HW1 9984   2.133   1.960   1.539  0.7261 -1.3117  0.0505
34716SOL    HW2 9985   2.067   1.826   1.561 -1.2956 -0.1754  1.1959
34717SOL     OW 9986   5.940   0.871  10.456 -0.2946  0.3842  0.5187
34717SOL    HW1 9987   5.983   0.951  10.426 -0.2423  1.3423  2.9799
34717SOL    HW2 9988   5.861   0.901  10.500 -0.0357 -0.8761  1.8978
34718SOL     OW 9989   7.099   8.999   7.730 -0.4507 -0.1334  0.2900
34718SOL    HW1 9990   7.094   8.904   7.718  0.2599 -0.1017 -0.3129
34718SOL    HW2 9991   7.192   9.020   7.718 -0.5671  0.6146  0.6353
34719SOL     OW 9992   6.171   8.065   2.329 -0.1298  0.4458 -0.3256
34719SOL    HW1 9993   6.159   8.076   2.235 -2.6191  2.1665  0.0867
34719SOL    HW2 9994   6.181   7.971   2.342 -0.7456  0.0938 -2.2240
34720SOL     OW 9995   4.712   0.090  10.055 -0.0072  0.5537 -0.2325
34720SOL    HW1 9996   4.634   0.034  10.059  0.2208  0.3145  2.0247
34720SOL    HW2 9997   4.717   0.117   9.963 -2.0480 -0.4044 -0.6901
34721SOL     OW 9998   7.580   7.922   8.665 -0.1284 -0.0893 -0.0469
34721SOL    HW1 9999   7.556   8.002   8.618 -0.3803  0.8149  1.5685
34721SOL    HW210000   7.671   7.935   8.691 -0.7417  0.5788  1.9240
34722SOL     OW10001   3.229   9.129   0.144  0.1322  0.3656  0.4177
34722SOL    HW110002   3.161   9.068   0.118  0.8473 -0.1183 -0.3720
34722SOL    HW210003   3.303   9.109   0.086  1.2240  0.3335  1.7546
34723SOL     OW10004   8.208   3.409   9.352  0.6922  0.0181 -0.3286
34723SOL    HW110005   8.175   3.353   9.282 -0.9213 -1.3888  1.4738
34723SOL    HW210006   8.288   3.367   9.381  1.5653  0.8000 -1.4907
34724SOL     OW10007  10.203  10.053   2.674  0.4891 -0.5706  0.0662
34724SOL    HW110008  10.179   9.987   2.739 -0.2549  1.1695  1.6664
34724SOL    HW210009  10.287  10.088   2.705  0.2445  0.1070 -0.0113
34725SOL     OW10010   3.102   8.279   9.523  0.1866  0.5496 -0.0972
34725SOL    HW110011   3.030   8.239   9.571  0.2275  1.4198  0.7185
34725SOL    HW210012   3.164   8.308   9.590  0.4794  1.3474 -0.6851
34726SOL     OW10013   9.740   4.262   0.020  0.1381 -0.4038  0.5760
34726SOL    HW110014   9.789   4.321   0.077  0.4823 -0.2277  0.1061
34726SOL    HW210015   9.760   4.175   0.054  0.9442 -0.3477  0.2742
34727SOL     OW10016   5.390   5.192   3.805  1.2502 -0.0171 -0.0220
34727SOL    HW110017   5.307   5.216   3.765  1.6416  0.1289 -0.7685
34727SOL    HW210018   5.424   5.121   3.750  1.1242 -0.8121  0.8976
34728SOL     OW10019   3.534   2.051   1.877 -0.1044 -0.7114  0.1890
34728SOL    HW110020   3.582   2.125   1.840 -0.6270 -0.1537  0.6092
34728SOL    HW210021   3.505   2.081   1.963 -0.2067 -1.4561  0.4237
34729SOL     OW10022   3.982   3.845   9.709 -0.0887  0.0308  0.2031
34729SOL    HW110023   3.941   3.924   9.742  1.4605  0.2908  1.6478
34729SOL    HW210024   4.072   3.871   9.689 -0.2276 -0.7914 -1.7226
34730SOL     OW10025  10.130   9.747   0.731 -0.7897  0.2388  1.1522
34730SOL    HW110026  10.198   9.771   0.794 -0.9322  1.6765  0.7902
34730SOL    HW210027  10.164   9.670   0.687  1.0798  1.4825  0.3052
34731SOL     OW10028   5.497   8.429   8.695  0.6010  0.5168  0.2790
34731SOL    HW110029   5.470   8.343   8.727 -0.3538 -1.0332 -3.9623
34731SOL    HW210030   5.499   8.485   8.773 -0.5809 -2.8443  2.9658
34732SOL     OW10031   0.662   8.030   2.806 -0.0559 -0.2386  0.0077
34732SOL    HW110032   0.598   7.959   2.811 -0.8113  0.5202  1.8920
34732SOL    HW210033   0.625   8.092   2.742 -1.0471  0.0232  0.8220
34733SOL     OW10034  10.280  10.429   4.304  0.5728  0.1882 -0.7555
34733SOL    HW110035  10.301  10.504   4.249  0.4756  0.1759 -0.8091
34733SOL    HW210036  10.240  10.366   4.245 -2.1467  1.2619 -0.2204
34734SOL     OW10037   9.146  10.251   5.699  0.1042 -0.0226  0.2667
34734SOL    HW110038   9.077  10.309   5.666 -0.2289 -0.7607 -0.3632
34734SOL    HW210039   9.226  10.302   5.690 -0.4378  1.2612  1.9862
34735SOL     OW10040   9.086   6.496   7.510  0.3523 -0.1866 -0.0571
34735SOL    HW110041   9.159   6.521   7.454  0.8826  2.5633  1.6560
34735SOL    HW210042   9.027   6.571   7.508 -0.4924 -0.7398  1.6046
34736SOL     OW10043   9.583  10.298   8.088  0.7413  0.0370 -0.2111
34736SOL    HW110044   9.561  10.306   7.995  0.5579  0.7745 -0.1160
34736SOL    HW210045   9.498  10.306   8.133  0.8284 -0.3245  0.0191
34737SOL     OW10046   1.050  10.365   1.569 -0.1162 -0.0392  0.4954
34737SOL    HW110047   1.110  10.345   1.642  1.0648 -2.3004 -0.9577
34737SOL    HW210048   1.085  10.445   1.530  2.0952 -1.2879 -0.3058
34738SOL     OW10049   6.045  10.325   5.241  0.6214  0.0242 -0.5887
34738SOL    HW110050   6.116  10.349   5.301 -0.3765  1.5652  0.0417
34738SOL    HW210051   5.967  10.327   5.296 -0.3825  1.8542 -2.0113
34739SOL     OW10052   8.033   6.754  10.252  0.3742 -0.0439 -0.0271
34739SOL    HW110053   8.017   6.773  10.159 -0.8007 -0.9127 -0.0233
34739SOL    HW210054   8.125   6.727  10.256  0.7846  1.1592 -0.7333
34740SOL     OW10055   0.434   6.462   6.964 -0.3694 -0.5585  0.0465
34740SOL    HW110056   0.413   6.410   7.041 -2.7630  0.0905 -0.0663
34740SOL    HW210057   0.491   6.532   6.996 -1.1801 -0.4102  1.2148
34741SOL     OW10058   2.015   2.774   1.692 -0.1157  0.4487  0.3971
34741SOL    HW110059   1.948   2.719   1.733  0.6517  0.2118  1.3781
34741SOL    HW210060   2.028   2.736   1.606  0.7725 -1.2816  1.2441
34742SOL     OW10061   4.754   4.304   0.133 -0.1034  0.0548  0.5816
34742SOL    HW110062   4.792   4.296   0.045 -0.2233 -0.8695  0.6060
34742SOL    HW210063   4.696   4.228   0.141 -1.6541  1.2088  0.7092
34743SOL     OW10064  10.100   3.081   0.975  0.7493  0.4404  0.0157
34743SOL    HW110065  10.160   3.074   1.049 -0.7812  1.4930  1.3924
34743SOL    HW210066  10.015   3.100   1.014 -0.2268  0.3959 -1.9807
34744SOL     OW10067   6.900   0.271   2.505  0.6871 -0.2282  0.3585
34744SOL    HW110068   6.984   0.314   2.523  0.6908 -0.9923  2.4889
34744SOL    HW210069   6.911   0.182   2.538 -1.3045 -0.0142  1.7671
34745SOL     OW10070   6.253   0.532   0.399 -0.2204  0.0443  0.2817
34745SOL    HW110071   6.249   0.502   0.308  0.9530 -0.2575  0.3172
34745SOL    HW210072   6.320   0.601   0.398 -0.6421  0.4737  0.8087
34746SOL     OW10073   9.616   9.362   7.516  0.4114  0.7710  0.2101
34746SOL    HW110074   9.575   9.293   7.569 -0.9092  0.3410 -1.2814
34746SOL    HW210075   9.642   9.318   7.436  0.0755  1.8797 -0.5329
34747SOL     OW10076   5.693   0.852   4.457 -0.4384  0.3818 -0.0670
34747SOL    HW110077   5.698   0.833   4.551 -2.3630 -0.5165 -0.1039
34747SOL    HW210078   5.727   0.941   4.449  2.0945 -0.3687  1.1094
34748SOL     OW10079   3.522   0.664  10.649  0.0326  0.5966 -0.2432
34748SOL    HW110080   3.508   0.674  10.744  0.4303  2.4783 -0.3443
34748SOL    HW210081   3.439   0.629  10.617  0.5102 -1.9548  1.0025
34749SOL     OW10082   7.947  10.265   4.738  0.1274 -0.4493  0.0991
34749SOL    HW110083   7.864  10.309   4.754  1.1577  0.9467  2.0561
34749SOL    HW210084   7.989  10.262   4.824  0.8441 -3.8634 -0.2248
34750SOL     OW10085   8.386  10.674   7.852  0.0336 -0.0121  0.0496
34750SOL    HW110086   8.307  10.652   7.802  1.6916  1.0073 -3.3170
34750SOL    HW210087   8.455  10.622   7.811  1.3949  0.1374  2.0074
34751SOL     OW10088   5.252   0.093   2.166 -0.0687  0.2033 -0.0388
34751SOL    HW110089   5.269   0.024   2.229 -3.0267  1.3790  2.2978
34751SOL    HW210090   5.201   0.051   2.097 -0.4838 -0.2847  0.5572
34752SOL     OW10091   1.246   7.996   9.450 -0.7872  0.2132  0.3492
34752SOL    HW110092   1.300   8.050   9.508 -1.5154  1.6834 -0.3048
34752SOL    HW210093   1.179   7.959   9.507 -0.9473  0.8937  0.6064
34753SOL     OW10094   0.847   3.962   6.579  0.0154  0.2470  0.2811
34753SOL    HW110095   0.934   3.977   6.615  0.1205 -0.5911  0.4016
34753SOL    HW210096   0.812   4.050   6.561  1.7961  0.5801 -1.9849
34754SOL     OW10097   6.295   8.708   2.549  0.4020  0.3451  0.0007
34754SOL    HW110098   6.211   8.695   2.592  1.6670 -0.3351  2.4834
34754SOL    HW210099   6.289   8.794   2.508 -1.1236  0.8032  1.1033
34755SOL     OW10100   9.898   0.759   0.469  0.1315  0.3755 -0.4006
34755SOL    HW110101   9.974   0.722   0.425  0.9596  1.8468 -0.2647
34755SOL    HW210102   9.828   0.757   0.403  0.8079  0.7171 -1.1439
34756SOL     OW10103   2.343   4.747   8.710 -0.3383  0.3174 -0.1780
34756SOL    HW110104   2.278   4.817   8.697 -1.5165 -0.7571 -0.2856
34756SOL    HW210105   2.388   4.741   8.626  1.3965  2.4637  0.5035
34757SOL     OW10106   7.184   9.704   8.506 -0.0949 -0.3654 -0.0546
34757SOL    HW110107   7.147   9.681   8.591 -0.0820 -2.2403 -0.5229
34757SOL    HW210108   7.265   9.653   8.500  0.1074  0.0383 -1.0196
34758SOL     OW10109   3.612   0.844   7.474 -0.0065 -0.3121  0.0922
34758SOL    HW110110   3.541   0.848   7.538 -0.4865 -0.0491 -0.4456
34758SOL    HW210111   3.675   0.783   7.512 -0.0998  0.1373  0.9993
34759SOL     OW10112  10.581   2.905   1.278 -0.2149 -0.2373 -0.3995
34759SOL    HW110113  10.508   2.849   1.251  0.0559 -0.6558 -0.2588
34759SOL    HW210114  10.626   2.855   1.345 -0.0814  0.2303 -0.1373
34760SOL     OW10115   2.233   0.311   6.539 -0.5259  0.2906 -0.3384
34760SOL    HW110116   2.240   0.339   6.448 -2.0157  0.4914 -0.4248
34760SOL    HW210117   2.151   0.350   6.570 -1.1184 -1.4447  0.4493
34761SOL     OW10118   7.835   2.400   1.430 -0.0718  0.2729 -0.1891
34761SOL    HW110119   7.748   2.362   1.447  0.7035 -1.5164 -0.0154
34761SOL    HW210120   7.828   2.490   1.462 -2.3386  0.7126 -1.6318
34762SOL     OW10121   0.286   7.997   2.558  0.4078  0.3268  0.0526
34762SOL    HW110122   0.248   7.949   2.484  1.0357 -1.4534  0.8465
34762SOL    HW210123   0.258   8.087   2.544 -0.6814 -0.2168 -1.5819
34763SOL     OW10124   1.104   2.569   4.368  0.1598 -0.0087  0.2474
34763SOL    HW110125   1.189   2.531   4.342 -0.4125  0.5406 -2.8681
34763SOL    HW210126   1.054   2.494   4.403  1.4750 -0.5795  0.9842
34764SOL     OW10127   5.319   9.186   7.005  0.1105 -0.0105 -0.4941
34764SOL    HW110128   5.277   9.108   6.968 -0.9304  1.0713 -1.6633
34764SOL    HW210129   5.412   9.166   7.003  0.0451 -0.3513 -2.9807
34765SOL     OW10130   9.775   6.692   7.611 -0.3526  0.2965 -0.2076
34765SOL    HW110131   9.782   6.638   7.533 -0.2892  0.9746 -0.6751
34765SOL    HW210132   9.841   6.760   7.600 -2.2318  2.1050 -0.9516
34766SOL     OW10133   6.067   8.241   4.607 -0.4428  0.4750 -0.1702
34766SOL    HW110134   6.153   8.282   4.597 -1.1928  1.9710 -0.9657
34766SOL    HW210135   6.085   8.147   4.609  1.1817  0.7374 -0.6405
34767SOL     OW10136   4.854   6.307  10.549 -0.1791  0.0426  0.4207
34767SOL    HW110137   4.792   6.354  10.604 -0.2861  1.3339 -0.7463
34767SOL    HW210138   4.919   6.271  10.610 -0.3292  1.3502  1.3942
34768SOL     OW10139   0.417   7.077   8.971 -0.0443 -0.1822  0.3101
34768SOL    HW110140   0.437   7.013   8.904  1.2183 -0.8628  1.2889
34768SOL    HW210141   0.487   7.142   8.965 -1.2616  1.1209 -0.6169
34769SOL     OW10142   4.660   0.299   1.311  0.4473 -0.0867  0.6893
34769SOL    HW110143   4.721   0.303   1.385  1.7672 -0.2798 -0.3663
34769SOL    HW210144   4.573   0.304   1.352  1.0200 -2.7207  2.4631
34770SOL     OW10145   7.814   8.909   3.275  0.5178 -0.0404 -0.3173
34770SOL    HW110146   7.731   8.900   3.227  0.6938 -1.0996 -0.4358
34770SOL    HW210147   7.846   8.996   3.249 -0.4148  0.2700 -0.4851
34771SOL     OW10148   8.097   4.877   0.018  0.3104 -0.2191  0.6955
34771SOL    HW110149   8.172   4.848   0.070  1.0351  0.5127  0.0763
34771SOL    HW210150   8.134   4.906  -0.065 -0.7882 -0.9474 -0.0820
34772SOL     OW10151   3.011   0.534   7.497 -0.3239 -0.6131 -0.0133
34772SOL    HW110152   3.075   0.481   7.449 -0.2837  0.5938 -1.3453
34772SOL    HW210153   2.933   0.479   7.503 -0.6744 -0.4697 -2.3672
34773SOL     OW10154  10.117   2.308   8.139  0.2203  0.3858 -0.6211
34773SOL    HW110155  10.066   2.333   8.216  1.9916  3.4248 -0.2513
34773SOL    HW210156  10.138   2.216   8.153 -0.9057  0.3982  1.6850
34774SOL     OW10157   3.714   4.238   1.138  0.8225  0.1852  0.0960
34774SOL    HW110158   3.677   4.204   1.220  1.7231  0.4122  0.6137
34774SOL    HW210159   3.802   4.201   1.134  0.1134 -1.4420 -1.8039
34775SOL     OW10160   1.307   7.299   3.304  0.1369 -0.0284 -0.7614
34775SOL    HW110161   1.284   7.326   3.215 -1.0894  1.8689  0.0561
34775SOL    HW210162   1.402   7.313   3.309  1.0838 -4.1673 -2.9551
34776SOL     OW10163   6.153   8.133   8.171 -0.4111 -0.5699  0.1884
34776SOL    HW110164   6.161   8.068   8.240  0.0690 -1.5854 -0.7984
34776SOL    HW210165   6.130   8.083   8.093  0.5097  0.3751 -0.7199
34777SOL     OW10166   8.493  10.296   5.114 -0.0737  0.4749 -0.0673
34777SOL    HW110167   8.431  10.235   5.075 -0.6782 -0.3225  1.9709
34777SOL    HW210168   8.454  10.382   5.103 -0.7501  0.1489 -0.2607
34778SOL     OW10169   2.693   7.089   6.187 -0.1835  0.0007 -0.8611
34778SOL    HW110170   2.627   7.028   6.153  0.4437 -1.8872  1.1244
34778SOL    HW210171   2.773   7.068   6.140  0.4581 -1.9859  0.9828
34779SOL     OW10172   2.866   3.526   1.458 -0.0429 -0.5695 -0.2599
34779SOL    HW110173   2.921   3.496   1.530 -0.2994 -0.5343 -0.0496
34779SOL    HW210174   2.800   3.458   1.447 -0.5161 -0.1707  0.0978
34780SOL     OW10175   7.364   8.432   7.837  0.2450  0.2711  0.0290
34780SOL    HW110176   7.382   8.440   7.931  1.3286  3.1029 -0.3316
34780SOL    HW210177   7.269   8.441   7.831  0.1353 -0.2223  0.8739
34781SOL     OW10178   8.937   6.046   1.070 -0.4364 -0.1536  0.4531
34781SOL    HW110179   8.866   6.079   1.125  0.5114  1.5900  0.6845
34781SOL    HW210180   8.929   5.950   1.076 -3.2630 -0.0616 -0.1884
34782SOL     OW10181   7.235   1.978   1.403 -0.0781 -0.1459  0.0277
34782SOL    HW110182   7.169   2.019   1.348  0.2271  1.7943  1.0014
34782SOL    HW210183   7.199   1.892   1.424 -0.7351 -0.4560 -2.1538
34783SOL     OW10184   9.825   2.328   6.454 -0.1407  0.2501 -0.9917
34783SOL    HW110185   9.780   2.409   6.478  0.3294 -0.0777  1.1889
34783SOL    HW210186   9.778   2.297   6.376 -2.7537  0.6898  0.2871
34784SOL     OW10187   7.038   4.158  10.700 -0.3100  0.0857  0.3658
34784SOL    HW110188   7.060   4.237  10.750 -3.0022  0.3982  1.2223
34784SOL    HW210189   7.100   4.092  10.731  1.3807  1.5709  0.3217
34785SOL     OW10190   0.697   9.327   8.403 -0.1765 -0.3407  0.0951
34785SOL    HW110191   0.787   9.294   8.402 -0.8114 -2.2026 -1.6493
34785SOL    HW210192   0.649   9.264   8.456 -0.4611  0.7521  1.1746
34786SOL     OW10193   0.164   2.209   9.964  0.0843 -0.4567  0.3957
34786SOL    HW110194   0.130   2.292   9.999  1.9570 -0.0541  1.3929
34786SOL    HW210195   0.179   2.156  10.042 -0.1266 -1.3573 -0.1736
34787SOL     OW10196   9.400   8.652   4.520  0.4421  0.0002 -0.3366
34787SOL    HW110197   9.374   8.743   4.504 -0.5335 -0.1968  0.0824
34787SOL    HW210198   9.330   8.616   4.575  1.1182 -0.8348 -0.0045
34788SOL     OW10199   1.794   1.197   4.836 -0.3564  0.2379 -0.1140
34788SOL    HW110200   1.761   1.244   4.913  0.8720  0.9278  0.0124
34788SOL    HW210201   1.889   1.199   4.845 -0.2263 -0.6932 -1.0654
34789SOL     OW10202   1.994   7.186   2.784 -0.6076 -0.0845 -0.4315
34789SOL    HW110203   2.021   7.118   2.845 -0.6128 -0.7839 -1.1828
34789SOL    HW210204   1.937   7.141   2.721 -2.5321  1.0797  0.3854
34790SOL     OW10205   6.150   9.021   0.481 -0.2273  0.5389 -0.7716
34790SOL    HW110206   6.226   9.009   0.424 -0.2385  0.3989 -0.7598
34790SOL    HW210207   6.182   8.999   0.568 -0.3078  0.3668 -0.7826
34791SOL     OW10208   1.438   2.049   3.751 -0.1394  0.0159 -0.4023
34791SOL    HW110209   1.376   2.076   3.818 -0.5141 -1.4884 -0.1198
34791SOL    HW210210   1.456   2.129   3.701 -0.2508  1.0477  1.1507
34792SOL     OW10211   0.063   3.715   3.034  0.5697 -0.8711  0.1320
34792SOL    HW110212   0.119   3.783   3.073 -0.5940 -0.6265  1.4417
34792SOL    HW210213   0.050   3.743   2.944  0.9098  0.1207  0.3819
34793SOL     OW10214   0.187   7.753   3.168 -0.6171  0.0732 -0.5358
34793SOL    HW110215   0.214   7.661   3.170 -0.1651  0.1997 -0.6956
34793SOL    HW210216   0.174   7.777   3.259 -1.2761 -0.3006 -0.5192
34794SOL     OW10217   7.995   8.276   2.221 -0.2979 -0.3107 -0.6573
34794SOL    HW110218   8.026   8.295   2.310 -0.0787 -1.3124 -0.5093
34794SOL    HW210219   7.973   8.183   2.223 -1.2175 -0.1112 -1.3923
34795SOL     OW10220   4.799   7.733   9.471 -0.4841  0.4076  0.0391
34795SOL    HW110221   4.795   7.805   9.535  1.5281  1.2486 -0.6762
34795SOL    HW210222   4.750   7.766   9.395 -0.4537  0.5967  0.1010
34796SOL     OW10223   8.893  10.440   1.280 -0.0489  0.7765 -0.2630
34796SOL    HW110224   8.808  10.435   1.323  0.0665  2.1729  0.1800
34796SOL    HW210225   8.953  10.398   1.341 -0.4811 -0.6968 -0.8176
34797SOL     OW10226   4.763   1.815  10.222  0.3805  0.1344 -1.0125
34797SOL    HW110227   4.677   1.846  10.192  0.0911  0.2337 -0.1230
34797SOL    HW210228   4.816   1.810  10.143 -0.1153  1.1394 -1.4261
34798SOL     OW10229   7.942   6.882   3.720  0.1522  0.0370 -0.2541
34798SOL    HW110230   7.982   6.861   3.635 -0.1841 -1.0967 -0.1466
34798SOL    HW210231   7.930   6.797   3.762  0.9374  0.6270  1.2319
34799SOL     OW10232   6.508   7.191   8.253 -0.2045  0.3801 -0.0055
34799SOL    HW110233   6.478   7.100   8.253  0.8788  0.0043  0.6901
34799SOL    HW210234   6.521   7.213   8.161 -1.7207  0.2779 -0.2734
34800SOL     OW10235   4.893   2.890   7.010 -0.0861 -0.2994 -0.3153
34800SOL    HW110236   4.871   2.953   6.942 -0.6687  0.3738  0.4639
34800SOL    HW210237   4.988   2.895   7.018 -0.2530  2.3925  1.4393
34801SOL     OW10238   2.617   1.982   5.537 -0.0591 -0.1745  0.3521
34801SOL    HW110239   2.682   1.917   5.563 -0.2401 -0.3592  0.3392
34801SOL    HW210240   2.535   1.933   5.531 -0.3763  0.2210  1.2183
34802SOL     OW10241   5.697   8.167   7.264 -0.1622  0.3383 -0.2718
34802SOL    HW110242   5.753   8.102   7.307  0.3598  0.1862 -1.1451
34802SOL    HW210243   5.647   8.206   7.335 -2.2713 -2.6517  0.0695
34803SOL     OW10244   5.996   9.663   5.236  0.3806  0.2629  0.1732
34803SOL    HW110245   6.017   9.724   5.306 -0.8793 -1.0006  1.7345
34803SOL    HW210246   5.901   9.670   5.226  0.3876 -0.4639 -0.5575
34804SOL     OW10247   6.927   0.270   6.572  0.0992 -0.2108 -0.2791
34804SOL    HW110248   7.012   0.275   6.528 -0.0572  0.1351 -0.5379
34804SOL    HW210249   6.935   0.193   6.629  1.6460  1.4622  1.9499
34805SOL     OW10250   6.502   6.033  10.012  0.0474 -0.1785 -0.4613
34805SOL    HW110251   6.433   5.982  10.055 -1.0353  1.3444 -0.2946
34805SOL    HW210252   6.475   6.036   9.920  0.3823 -0.3187 -0.5663
34806SOL     OW10253   2.805   7.127   1.770  0.1294  0.1325  0.4656
34806SOL    HW110254   2.718   7.158   1.794  0.6983  1.8525  0.4454
34806SOL    HW210255   2.837   7.081   1.847 -1.2712 -1.6653  0.0255
34807SOL     OW10256   1.122   1.242   6.838 -0.3389 -0.0935  0.9067
34807SOL    HW110257   1.078   1.156   6.837  0.4867 -0.5358 -0.5735
34807SOL    HW210258   1.211   1.223   6.809  0.2699  1.0957  1.8987
34808SOL     OW10259   3.940   2.090   4.611  0.0388 -0.1465  0.5943
34808SOL    HW110260   3.935   2.185   4.617  0.1501 -0.1484  0.6996
34808SOL    HW210261   4.023   2.067   4.651  0.7077 -0.1643 -0.7419
34809SOL     OW10262  10.448   2.683   4.700  0.5418 -0.2797 -0.0758
34809SOL    HW110263  10.358   2.669   4.672 -0.1261 -0.1898  1.8550
34809SOL    HW210264  10.495   2.605   4.668 -0.9714 -2.0800  1.7822
34810SOL     OW10265   7.486  10.537   9.219  0.2707  0.0211 -0.1593
34810SOL    HW110266   7.493  10.575   9.307 -1.0768 -0.8923  0.3672
34810SOL    HW210267   7.392  10.529   9.204  0.3841  1.9743 -2.5157
34811SOL     OW10268   2.213   8.561   6.619  0.2259  0.4335 -0.1949
34811SOL    HW110269   2.231   8.590   6.530 -0.4090  1.7843  0.0833
34811SOL    HW210270   2.117   8.564   6.626  0.2347 -0.2507  0.3481
34812SOL     OW10271   7.189   6.004   6.418 -0.1725  0.3511  0.2029
34812SOL    HW110272   7.228   6.077   6.368  1.3187  0.0094  0.8215
34812SOL    HW210273   7.148   6.046   6.493 -0.5052  0.6647 -0.1458
34813SOL     OW10274  10.094   3.400   6.805  0.3673  0.4404 -0.6856
34813SOL    HW110275  10.181   3.436   6.817 -0.1787  1.9983 -1.1621
34813SOL    HW210276  10.050   3.462   6.747 -1.1410 -0.1682 -0.2447
34814SOL     OW10277   4.676   0.675  10.252  0.0956  0.0228  0.5091
34814SOL    HW110278   4.605   0.723  10.293  0.9642 -0.1006  2.2397
34814SOL    HW210279   4.642   0.650  10.166 -1.7184  0.4618  1.0628
34815SOL     OW10280   3.610   2.564   4.122 -0.6237 -0.5073 -0.1164
34815SOL    HW110281   3.697   2.582   4.159 -0.5573  0.6358 -0.7674
34815SOL    HW210282   3.627   2.509   4.046  0.0308  2.6753 -2.5194
34816SOL     OW10283   6.340   5.096   6.539  0.2127 -0.0232 -0.0770
34816SOL    HW110284   6.397   5.083   6.615  0.0343 -0.6558 -0.0423
34816SOL    HW210285   6.333   5.009   6.500 -1.2954 -0.1175  0.3170
34817SOL     OW10286   7.091   9.767   2.926  0.3011  0.3922 -0.9552
34817SOL    HW110287   7.094   9.862   2.937  1.4245  0.2516  0.1249
34817SOL    HW210288   7.058   9.734   3.009  2.1828 -0.2758 -0.4242
34818SOL     OW10289   0.354   2.397  10.104 -0.8122  0.1756  0.4743
34818SOL    HW110290   0.261   2.409  10.119 -0.8813 -0.0343  0.2129
34818SOL    HW210291   0.370   2.439  10.019 -0.4218  1.3784  1.1218
34819SOL     OW10292  10.583   9.007   7.521 -0.7853 -0.0022 -0.0220
34819SOL    HW110293  10.530   9.042   7.592  0.2445  1.0362  0.2800
34819SOL    HW210294  10.524   8.952   7.471 -1.3244 -1.5036  2.1421
34820SOL     OW10295   1.742   6.361   0.894 -0.2969  0.4816  0.2136
34820SOL    HW110296   1.718   6.408   0.974 -2.7190 -0.0788 -0.0905
34820SOL    HW210297   1.731   6.426   0.824  1.0780  0.7593  0.2354
34821SOL     OW10298   0.913   2.739   0.471  0.2684 -0.3231  0.2477
34821SOL    HW110299   0.897   2.727   0.565 -0.5416  1.3370  0.3497
34821SOL    HW210300   0.943   2.829   0.462  1.4547 -0.8030 -0.9793
34822SOL     OW10301   7.859   6.689   4.166  0.0152 -0.4096 -0.1045
34822SOL    HW110302   7.873   6.733   4.250 -0.3211 -0.0506 -0.2355
34822SOL    HW210303   7.854   6.596   4.188 -2.1062 -0.1793  0.5317
34823SOL     OW10304   1.861   7.638   0.579  0.3675 -0.5131  0.0124
34823SOL    HW110305   1.934   7.583   0.608  0.2646  0.5067  2.4639
34823SOL    HW210306   1.792   7.576   0.555  0.0088 -1.5647  3.3317
34824SOL     OW10307   8.532   4.990   8.793  0.0709 -1.0376 -0.1379
34824SOL    HW110308   8.591   5.065   8.780 -0.6758 -0.3315  0.4474
34824SOL    HW210309   8.488   4.979   8.709 -1.2288  0.4406  0.3037
34825SOL     OW10310   7.338   5.768   2.147 -0.1314  0.6415  0.0021
34825SOL    HW110311   7.358   5.818   2.226  0.6767 -0.4764  0.5221
34825SOL    HW210312   7.258   5.721   2.168  1.2839 -1.4660  1.0821
34826SOL     OW10313   2.882   2.671  10.159  0.0653  0.0692 -0.8396
34826SOL    HW110314   2.841   2.755  10.138  0.2606  0.0145 -1.4545
34826SOL    HW210315   2.906   2.678  10.252 -1.1045  0.1987 -0.5352
34827SOL     OW10316   4.378   8.876   4.974 -0.0834 -0.5974  0.0500
34827SOL    HW110317   4.395   8.861   4.881  1.0009 -0.9105  0.2820
34827SOL    HW210318   4.379   8.971   4.984  0.3381 -0.5761 -0.1735
34828SOL     OW10319   9.212   3.844   5.200 -0.5723 -0.1766 -0.4305
34828SOL    HW110320   9.188   3.752   5.208  1.9421 -0.8995 -0.3919
34828SOL    HW210321   9.177   3.885   5.279 -0.6195 -1.3625  0.1805
34829SOL     OW10322   1.301  10.541   1.187 -0.2321 -0.2432 -0.4994
34829SOL    HW110323   1.232  10.605   1.169  1.5801  2.1218  0.3770
34829SOL    HW210324   1.354  10.539   1.108  1.3702  1.6556  0.4507
34830SOL     OW10325   0.448   8.411   6.138 -0.0423  0.0128  0.1813
34830SOL    HW110326   0.528   8.463   6.135  0.4030 -0.7265 -1.7057
34830SOL    HW210327   0.475   8.327   6.174  0.1843 -0.4559 -1.0492
34831SOL     OW10328   4.731   5.156   7.139 -0.4398  0.1278  0.2118
34831SOL    HW110329   4.679   5.216   7.193  0.2072  1.3348 -0.4522
34831SOL    HW210330   4.671   5.129   7.070 -0.3726  1.0967 -0.2511
34832SOL     OW10331   5.513   8.060   9.585 -0.1584 -0.2538  0.4953
34832SOL    HW110332   5.493   8.058   9.491 -1.3323 -0.4570  0.7348
34832SOL    HW210333   5.461   7.990   9.623  0.4583 -0.3091  1.2837
34833SOL     OW10334   7.421   9.856   3.595 -0.2320  0.3668  0.2641
34833SOL    HW110335   7.452   9.937   3.635 -1.6381  0.7221  0.6902
34833SOL    HW210336   7.342   9.881   3.547 -0.2667 -0.6149 -0.2363
34834SOL     OW10337   4.985   0.665   6.973 -0.1593  0.1514  0.3815
34834SOL    HW110338   5.041   0.677   6.896 -1.8137  1.2774 -0.7187
34834SOL    HW210339   4.940   0.581   6.958 -0.2882  0.2440  0.2526
34835SOL     OW10340   2.732   4.288   7.147 -0.0464  0.7679 -0.8213
34835SOL    HW110341   2.806   4.343   7.173  2.5356 -1.2585 -3.2378
34835SOL    HW210342   2.698   4.253   7.230  2.8501  0.4510  0.3565
34836SOL     OW10343   6.484   3.253   8.977  0.4596 -0.1839  0.4327
34836SOL    HW110344   6.415   3.319   8.991  0.5952  0.2033 -0.6182
34836SOL    HW210345   6.514   3.230   9.065 -2.0777 -1.5205  1.0413
34837SOL     OW10346   3.126   3.867   0.526 -0.1864  0.1617 -0.0496
34837SOL    HW110347   3.069   3.940   0.550  1.8102  1.4743  0.9394
34837SOL    HW210348   3.101   3.797   0.586 -0.3383  0.9144  0.7813
34838SOL     OW10349   5.780   1.087   8.187  0.1982 -0.0663 -0.1257
34838SOL    HW110350   5.836   1.029   8.135 -2.0882 -1.5477 -1.0803
34838SOL    HW210351   5.765   1.039   8.269  1.0545  0.7607  0.5400
34839SOL     OW10352   4.841   4.976   5.051  0.2450 -0.1688 -0.3092
34839SOL    HW110353   4.754   4.934   5.051  0.1030  0.0820  0.8263
34839SOL    HW210354   4.848   5.017   4.965 -0.4847 -0.7569 -0.6639
34840SOL     OW10355   9.827   2.521   3.575 -0.6908  0.1003  0.1746
34840SOL    HW110356   9.820   2.450   3.512 -0.2510 -0.5875  0.8833
34840SOL    HW210357   9.791   2.486   3.656  3.0721 -0.7970  1.6803
34841SOL     OW10358   1.900   5.442   3.973  0.4825 -0.7247 -0.5149
34841SOL    HW110359   1.828   5.486   3.927  1.3689  1.4929  0.0862
34841SOL    HW210360   1.979   5.471   3.927  1.1380 -1.5180  0.0737
34842SOL     OW10361   5.578   3.096   7.327  0.2476 -0.4206 -0.2564
34842SOL    HW110362   5.638   3.127   7.395 -0.7626 -0.8082  0.8483
34842SOL    HW210363   5.582   3.164   7.260  0.0903  0.7976  0.9122
34843SOL     OW10364   4.948   9.905   5.605  0.2025  0.3085 -0.5497
34843SOL    HW110365   4.952   9.987   5.555 -0.1229  0.5795 -0.1346
34843SOL    HW210366   4.901   9.928   5.685  2.0980  0.3008  0.6556
34844SOL     OW10367   5.110   2.091   1.791 -0.0377 -0.1399  0.0362
34844SOL    HW110368   5.022   2.056   1.804  0.7708 -2.4392 -0.1777
34844SOL    HW210369   5.143   2.044   1.715  0.7328  2.0565 -1.0499
34845SOL     OW10370   9.858   8.687   7.771  0.0896  0.4202  0.6759
34845SOL    HW110371   9.792   8.691   7.841 -0.3396 -0.4376  0.3268
34845SOL    HW210372   9.893   8.598   7.775  0.9619  0.7481  0.6001
34846SOL     OW10373   7.718   9.696   7.266  1.2592  0.4688  0.6049
34846SOL    HW110374   7.704   9.633   7.337 -2.3157 -0.9311 -1.0383
34846SOL    HW210375   7.661   9.770   7.288 -0.8349 -0.4899 -1.1564
34847SOL     OW10376   9.013   3.378   1.560  0.2614  0.5152 -0.3480
34847SOL    HW110377   9.094   3.343   1.595  1.0638  2.2440 -0.3584
34847SOL    HW210378   8.950   3.369   1.631  1.6175  3.1100  1.3651
34848SOL     OW10379   4.662   9.096   0.331 -0.5333  0.3749 -0.0859
34848SOL    HW110380   4.623   9.165   0.279  0.0477  1.1231  0.4539
34848SOL    HW210381   4.639   9.015   0.285 -1.5802  0.8898 -0.4875
34849SOL     OW10382   9.408   3.520   0.961 -0.0523  0.3820 -0.1576
34849SOL    HW110383   9.419   3.426   0.979  1.5240  0.6523  0.4367
34849SOL    HW210384   9.398   3.560   1.047  1.0842  0.9454 -0.2679
34850SOL     OW10385   5.376   2.700   9.115 -0.1153 -0.4380 -0.6965
34850SOL    HW110386   5.349   2.679   9.204 -0.6271  1.0842 -0.4570
34850SOL    HW210387   5.472   2.701   9.118 -0.1281  1.1798  0.2689
34851SOL     OW10388   1.107  10.288   3.938  0.3965 -0.3568  0.0680
34851SOL    HW110389   1.016  10.315   3.928  0.0232 -1.9761 -1.2745
34851SOL    HW210390   1.105  10.224   4.009  0.4335 -0.6494 -0.1959
34852SOL     OW10391   0.022   0.191   8.013  0.1825 -1.2369 -0.1216
34852SOL    HW110392  -0.007   0.272   8.054 -1.4556 -1.5728 -0.5782
34852SOL    HW210393   0.020   0.126   8.084  0.5146 -1.1172  0.0025
34853SOL     OW10394   3.999   8.098   5.294 -0.4153  0.2551  0.5062
34853SOL    HW110395   3.921   8.047   5.270 -1.2356  1.5480  0.3539
34853SOL    HW210396   3.999   8.098   5.389  0.2425 -0.9881  0.5201
34854SOL     OW10397   1.441   1.385   2.636  0.1621 -0.0780  0.5012
34854SOL    HW110398   1.480   1.298   2.637 -2.0643 -1.1661 -0.3411
34854SOL    HW210399   1.407   1.397   2.725  0.6861  0.0650  0.6882
34855SOL     OW10400   3.356   3.598   5.030 -0.1192  0.1967  0.2532
34855SOL    HW110401   3.431   3.601   5.090  0.0062  0.5720  0.0798
34855SOL    HW210402   3.339   3.690   5.008 -1.0152  0.1691  0.7643
34856SOL     OW10403   3.718  10.679   8.969 -0.2912 -0.0177 -0.4447
34856SOL    HW110404   3.697  10.768   8.942  0.1056  0.5753  1.0869
34856SOL    HW210405   3.811  10.669   8.951  0.0924  0.5566  1.0457
34857SOL     OW10406   4.112   8.220   1.719 -0.6347  0.0770  0.2528
34857SOL    HW110407   4.037   8.207   1.776 -1.0114 -1.2326 -0.5092
34857SOL    HW210408   4.170   8.278   1.768 -0.4124 -1.8785  2.4890
34858SOL     OW10409   4.293   3.908   3.964  0.5305  0.0132 -0.3522
34858SOL    HW110410   4.313   3.815   3.964 -2.8221 -0.8271 -0.4564
34858SOL    HW210411   4.226   3.919   3.896 -1.6785  1.7665  1.8661
34859SOL     OW10412   2.352   9.583   4.979  0.2939 -0.5435 -0.1790
34859SOL    HW110413   2.411   9.580   5.055  0.5967 -1.8216 -0.4459
34859SOL    HW210414   2.397   9.532   4.911 -0.5202 -0.4332 -0.8167
34860SOL     OW10415   7.866   5.558   0.976 -0.6502 -0.2130 -0.2606
34860SOL    HW110416   7.810   5.615   1.030 -0.7070  1.2593 -1.7966
34860SOL    HW210417   7.804   5.502   0.929 -0.6605 -0.6748  0.2948
34861SOL     OW10418   4.411  10.551   2.285 -0.6528 -0.4118  0.7324
34861SOL    HW110419   4.338  10.612   2.296 -0.1465  0.1417  1.1078
34861SOL    HW210420   4.397  10.512   2.199 -0.2380  1.2718 -0.1436
34862SOL     OW10421   1.590   9.519   3.334  0.0844 -0.1505  0.2101
34862SOL    HW110422   1.663   9.568   3.371  0.5017 -1.7050  1.5946
34862SOL    HW210423   1.570   9.563   3.252  0.0390  2.6753  1.6030
34863SOL     OW10424   8.546   2.614   8.726  0.2503 -0.1705 -0.6232
34863SOL    HW110425   8.580   2.636   8.813 -0.7294  0.0610 -0.2738
34863SOL    HW210426   8.603   2.660   8.665 -0.9668  2.4399  0.0365
34864SOL     OW10427   2.940   2.777   5.785 -0.2795  0.1862  0.1030
34864SOL    HW110428   3.004   2.785   5.856 -1.2841  1.3978  0.9169
34864SOL    HW210429   2.855   2.772   5.830 -0.7956 -1.2581 -0.9542
34865SOL     OW10430   3.487   4.261   9.419 -0.0042 -0.4369  0.2352
34865SOL    HW110431   3.473   4.166   9.418  1.1182 -0.6292  1.1744
34865SOL    HW210432   3.568   4.273   9.469 -1.4810  1.2038  2.3789
34866SOL     OW10433   1.883   1.552   1.579  0.6417 -0.1501  0.3126
34866SOL    HW110434   1.798   1.594   1.596  0.8636  1.1832 -1.5503
34866SOL    HW210435   1.861   1.470   1.536  0.2738  0.0108  0.1848
34867SOL     OW10436   3.870   7.637   9.106 -0.1845 -0.1121  0.0418
34867SOL    HW110437   3.860   7.639   9.201  1.6143  0.2797  0.2643
34867SOL    HW210438   3.961   7.664   9.091  0.1586 -1.9558 -1.6819
34868SOL     OW10439   4.778   2.316   2.601  0.1979  0.1551 -0.5356
34868SOL    HW110440   4.808   2.351   2.516 -0.2252 -0.1220 -0.8049
34868SOL    HW210441   4.708   2.376   2.627 -2.2089 -1.7310 -2.1494
34869SOL     OW10442   8.924   5.755   1.040  0.4455 -0.0365 -0.5515
34869SOL    HW110443   8.973   5.771   0.959  0.1146 -1.6360 -1.1056
34869SOL    HW210444   8.866   5.682   1.019 -0.2441  0.0641  0.8941
34870SOL     OW10445   1.777   1.846   0.606 -0.4232 -0.0535 -0.1088
34870SOL    HW110446   1.781   1.750   0.612  1.0206  0.0271  0.6384
34870SOL    HW210447   1.769   1.875   0.697  0.3754  0.5740 -0.2297
34871SOL     OW10448   5.883   1.297   9.945 -0.2040  0.0805 -0.2159
34871SOL    HW110449   5.851   1.387   9.942 -0.2170  0.0407 -1.7681
34871SOL    HW210450   5.918   1.280   9.858  1.9286 -0.6585  0.7008
34872SOL     OW10451   0.311   6.531   2.487  0.0373  0.4341  0.0454
34872SOL    HW110452   0.255   6.487   2.423  1.9904  0.2694 -1.6581
34872SOL    HW210453   0.279   6.501   2.572 -2.3051  0.2292 -0.8392
34873SOL     OW10454   8.333   9.376   6.177  0.3510  0.2195  0.0791
34873SOL    HW110455   8.350   9.281   6.181  1.5743  0.4415  1.1289
34873SOL    HW210456   8.295   9.390   6.091  1.7629 -1.0097 -0.8104
34874SOL     OW10457   3.977  10.126  10.425  0.0900  0.0456  0.3340
34874SOL    HW110458   3.986  10.032  10.440 -1.0597 -0.0201  0.6911
34874SOL    HW210459   3.931  10.159  10.502  2.1110  1.2525  1.1253
34875SOL     OW10460   4.779   6.525   3.930  0.1582  0.1023  1.0752
34875SOL    HW110461   4.763   6.571   3.848 -1.8448 -0.1302  1.2856
34875SOL    HW210462   4.826   6.445   3.904 -0.3331  0.1020  0.1625
34876SOL     OW10463  10.199   1.189   2.851 -0.3411  0.3680  0.0141
34876SOL    HW110464  10.277   1.205   2.904 -0.5940 -1.4046  0.9873
34876SOL    HW210465  10.146   1.268   2.864  0.5210  0.8600  0.7190
34877SOL     OW10466   7.594   1.711   3.094 -0.1944 -0.3961  0.4942
34877SOL    HW110467   7.603   1.721   2.999 -0.7815  0.6782  0.5410
34877SOL    HW210468   7.678   1.739   3.129 -0.1002 -0.4516  0.3143
34878SOL     OW10469   8.042   3.090   3.461 -0.5232  0.2895 -0.0398
34878SOL    HW110470   7.961   3.040   3.473 -0.3987  0.6183  2.7984
34878SOL    HW210471   8.112   3.030   3.486  0.1208  0.1666 -2.0035
34879SOL     OW10472   9.185   6.693   7.758  0.0378 -0.3851 -0.4842
34879SOL    HW110473   9.237   6.654   7.688  0.2152 -2.2216  0.5893
34879SOL    HW210474   9.131   6.621   7.791  0.3167  0.2665  1.5666
34880SOL     OW10475   7.922   7.617   0.652 -0.8207  0.6616  0.3050
34880SOL    HW110476   7.991   7.682   0.640 -0.1976 -0.0708 -0.1730
34880SOL    HW210477   7.916   7.606   0.747 -0.1293  0.5815  0.3440
34881SOL     OW10478   4.520   6.842   9.557 -0.4946 -0.9663 -0.3058
34881SOL    HW110479   4.531   6.749   9.577  0.3334 -0.6187  0.9682
34881SOL    HW210480   4.479   6.878   9.635 -1.2417 -0.3305 -0.9770
34882SOL     OW10481   8.061   2.841   8.175 -0.4237  0.0467 -0.3950
34882SOL    HW110482   8.055   2.931   8.143 -1.7878  0.0297 -0.2445
34882SOL    HW210483   7.987   2.796   8.134  0.5278 -1.1481 -0.8737
34883SOL     OW10484   5.572   7.224   7.819 -0.1480  0.2223  0.1398
34883SOL    HW110485   5.607   7.156   7.762  0.0597  0.3167  0.1540
34883SOL    HW210486   5.621   7.214   7.901 -0.4499  0.0813  0.3059
34884SOL     OW10487   2.801   5.525   8.008  0.7651  0.2694  0.0607
34884SOL    HW110488   2.727   5.582   8.031  0.0084 -0.3080 -0.8189
34884SOL    HW210489   2.878   5.572   8.038  0.0519  0.9672  0.8737
34885SOL     OW10490   8.551   3.450   1.985  0.1313 -0.3748  0.3745
34885SOL    HW110491   8.465   3.452   2.027 -0.4072 -0.1021 -0.7107
34885SOL    HW210492   8.587   3.365   2.010 -0.8704 -0.9164  0.0551
34886SOL     OW10493   9.472   9.588   3.419  0.4172  0.1833 -0.3036
34886SOL    HW110494   9.461   9.648   3.345 -2.1003  1.5613  1.0710
34886SOL    HW210495   9.441   9.504   3.385 -1.4820  0.9758 -0.6263
34887SOL     OW10496   8.090   9.943   7.822 -0.3219 -0.8235 -0.1718
34887SOL    HW110497   8.091  10.036   7.843 -0.3429 -0.4225 -1.7994
34887SOL    HW210498   8.142   9.902   7.892  0.5337  0.5333  0.0287
34888SOL     OW10499   4.710   0.634   2.501 -0.1838  0.5906 -0.0649
34888SOL    HW110500   4.615   0.624   2.496 -0.2387  1.4582 -1.4843
34888SOL    HW210501   4.724   0.700   2.568 -0.5101 -0.2133  0.8145
34889SOL     OW10502   6.306   7.442   9.242  0.4911 -0.1638  0.7816
34889SOL    HW110503   6.374   7.389   9.283  0.0686 -0.3509  1.2465
34889SOL    HW210504   6.321   7.530   9.277  0.8914 -0.0651  0.3801
34890SOL     OW10505   2.549   3.519   1.193  0.4935 -0.3217 -0.3018
34890SOL    HW110506   2.454   3.519   1.188  0.4332 -0.4539  0.5721
34890SOL    HW210507   2.570   3.592   1.252  1.0254  0.6720 -1.6591
34891SOL     OW10508   7.034   4.619   7.917  0.2148  0.1333 -0.2936
34891SOL    HW110509   7.060   4.659   7.833  0.3315  1.5957  0.4144
34891SOL    HW210510   6.978   4.545   7.891  0.0127  0.7224 -1.6642
34892SOL     OW10511   9.838   8.933   9.071 -0.0630  0.2894 -0.2798
34892SOL    HW110512   9.828   9.028   9.085  0.2183  0.4701 -1.2012
34892SOL    HW210513   9.749   8.900   9.067 -0.1770  0.2016  1.8421
34893SOL     OW10514   7.194   8.886  10.408  0.5922  0.0330  0.0776
34893SOL    HW110515   7.213   8.823  10.477 -0.0827 -0.0976  0.1433
34893SOL    HW210516   7.151   8.835  10.340 -0.7890  0.5911  0.5133
34894SOL     OW10517   4.493   7.804   3.735 -0.1842  0.2546  0.2834
34894SOL    HW110518   4.476   7.710   3.726  0.7419  0.1411 -0.4386
34894SOL    HW210519   4.467   7.841   3.650  1.2526  0.3555 -0.1408
34895SOL     OW10520   8.809   4.756   9.568 -0.0127 -0.0731 -0.0667
34895SOL    HW110521   8.793   4.789   9.656  1.7911 -0.2512  0.3781
34895SOL    HW210522   8.752   4.808   9.512 -0.1701  1.0232  1.0672
34896SOL     OW10523   6.053   7.162   6.282  0.2170  0.3490 -0.4084
34896SOL    HW110524   6.069   7.153   6.188  0.4088  1.1740 -0.4583
34896SOL    HW210525   6.098   7.243   6.307 -1.1260  0.9590  0.0997
34897SOL     OW10526   4.570   5.475   3.978 -1.1819 -0.2781  0.2262
34897SOL    HW110527   4.637   5.519   3.926 -0.0330  0.4086  2.1670
34897SOL    HW210528   4.495   5.534   3.975 -1.0580 -0.1503 -0.4636
34898SOL     OW10529   5.810   5.276   2.503  0.0322  0.2225  0.5629
34898SOL    HW110530   5.758   5.335   2.558 -1.8821 -0.7438 -0.1241
34898SOL    HW210531   5.819   5.323   2.420 -0.8334 -0.1143  0.2710
34899SOL     OW10532   8.158   9.724   0.410  0.1675 -0.6518 -0.4672
34899SOL    HW110533   8.244   9.683   0.400 -0.0257 -1.3961  0.7557
34899SOL    HW210534   8.145   9.772   0.328  1.4628 -1.0457 -0.9316
34900SOL     OW10535   6.584   3.812   8.229 -0.4881 -0.3880 -0.0304
34900SOL    HW110536   6.625   3.742   8.279  0.1100  0.2912  0.4640
34900SOL    HW210537   6.646   3.885   8.235 -0.0103 -0.5072 -2.4385
34901SOL     OW10538   6.526   6.897   1.884  0.2662 -0.3332 -0.3159
34901SOL    HW110539   6.473   6.933   1.813  0.4650 -0.4952 -0.5463
34901SOL    HW210540   6.547   6.972   1.939  2.2250  0.2501 -1.7693
34902SOL     OW10541   1.664   5.415   1.740 -0.0156  0.4129  0.1592
34902SOL    HW110542   1.573   5.446   1.740 -0.5964 -1.2025  0.2574
34902SOL    HW210543   1.699   5.441   1.655  0.0218  2.6165  0.7860
34903SOL     OW10544   5.169   0.973   1.123 -0.2610  0.1086  0.0196
34903SOL    HW110545   5.108   0.918   1.172 -0.0522 -1.3265 -1.2383
34903SOL    HW210546   5.255   0.949   1.156 -0.1805 -0.2390 -0.4218
34904SOL     OW10547   0.414   3.794   8.153 -0.3505 -0.4950  0.2399
34904SOL    HW110548   0.330   3.749   8.146 -0.6462  0.3063 -2.3205
34904SOL    HW210549   0.412   3.835   8.239 -2.7617 -0.2150  0.1303
34905SOL     OW10550   7.285   0.472  10.599  0.6026  0.5852 -0.4053
34905SOL    HW110551   7.313   0.563  10.610  1.6129  0.3169 -0.6402
34905SOL    HW210552   7.287   0.458  10.504 -1.8079  0.9822 -0.5867
34906SOL     OW10553   1.893   0.530   8.651  0.2115  0.1283 -0.0677
34906SOL    HW110554   1.983   0.557   8.631 -0.2450  0.3055 -2.1319
34906SOL    HW210555   1.840   0.606   8.628 -0.5824 -0.4319 -0.1058
34907SOL     OW10556   6.484   4.542   9.866 -0.0510 -0.0595  0.4767
34907SOL    HW110557   6.498   4.459   9.822 -3.2703  0.1069 -1.1856
34907SOL    HW210558   6.434   4.519   9.945 -0.2169  0.2105  0.4517
34908SOL     OW10559   9.461   8.744   8.758  0.3044  0.5411  0.8817
34908SOL    HW110560   9.557   8.741   8.756  0.2548 -1.4092 -1.6185
34908SOL    HW210561   9.433   8.654   8.744 -1.8860  1.4204 -1.0349
34909SOL     OW10562   5.656   7.174   3.871  0.0809 -0.0918 -0.3495
34909SOL    HW110563   5.626   7.103   3.927  1.8411 -0.1647  0.5843
34909SOL    HW210564   5.630   7.254   3.918 -1.3312 -0.0735 -1.0891
34910SOL     OW10565   2.616   5.417   8.292 -0.0627  0.4843  0.2684
34910SOL    HW110566   2.540   5.382   8.337  0.4922 -1.3619 -0.1556
34910SOL    HW210567   2.580   5.462   8.215 -0.7491 -0.3324  0.0986
34911SOL     OW10568   4.655   2.497   4.335 -0.2501 -0.0395 -0.0573
34911SOL    HW110569   4.579   2.462   4.287 -0.5967 -0.3961  0.7321
34911SOL    HW210570   4.616   2.540   4.412  0.3984 -1.1990  0.9552
34912SOL     OW10571   3.993   6.870  10.557 -0.0920 -0.8736 -0.4129
34912SOL    HW110572   3.917   6.916  10.521  0.1231  0.2275  0.4915
34912SOL    HW210573   4.067   6.927  10.536  0.3795 -1.5326 -0.5523
34913SOL     OW10574   2.019   3.632   2.602 -0.0088 -0.1614 -0.0370
34913SOL    HW110575   2.112   3.647   2.618  0.4036 -2.1246 -0.4074
34913SOL    HW210576   2.002   3.673   2.517  0.3996  0.5493  0.2149
34914SOL     OW10577   8.768   9.525   3.293  0.1503 -0.2413  0.6100
34914SOL    HW110578   8.709   9.540   3.219  2.4939  1.4170 -1.1023
34914SOL    HW210579   8.846   9.487   3.254  1.2605  0.1655  2.3231
34915SOL     OW10580   4.881   8.271   3.421 -0.1690  0.0822 -0.1158
34915SOL    HW110581   4.796   8.249   3.460 -0.6749 -0.1062 -1.2902
34915SOL    HW210582   4.932   8.190   3.429  0.4634  0.5989  1.9034
34916SOL     OW10583   8.100   4.420   5.905  0.0206 -0.3104  0.6225
34916SOL    HW110584   8.119   4.342   5.852 -4.0329 -0.7872 -0.4504
34916SOL    HW210585   8.062   4.482   5.843 -1.0146  0.7497  2.2527
34917SOL     OW10586   6.842   1.353   7.776  0.1573 -0.4173  0.3362
34917SOL    HW110587   6.872   1.265   7.752  2.2771  0.5494 -0.9342
34917SOL    HW210588   6.914   1.410   7.748  0.5732  1.4237  4.4095
34918SOL     OW10589   2.751   0.895   4.305 -0.0922 -0.0451 -0.1408
34918SOL    HW110590   2.679   0.922   4.247  0.8370  0.4388 -1.0960
34918SOL    HW210591   2.715   0.822   4.355 -0.7176 -0.9578 -1.8188
34919SOL     OW10592   6.070   3.666   7.546  0.0939  0.2510  0.0931
34919SOL    HW110593   6.009   3.606   7.503  0.3210  0.4511 -0.5183
34919SOL    HW210594   6.135   3.608   7.586 -0.1182  0.0613  0.1661
34920SOL     OW10595   6.547   5.054   3.359  0.0618 -0.2556 -0.0590
34920SOL    HW110596   6.477   5.091   3.413  0.6183  0.2447  0.3207
34920SOL    HW210597   6.585   4.985   3.413 -0.0499 -0.4391 -0.2140
34921SOL     OW10598   8.267   9.498   6.987  0.3585 -0.8407  0.2296
34921SOL    HW110599   8.263   9.546   7.070  1.2782  0.9964 -0.7125
34921SOL    HW210600   8.353   9.457   6.987  1.7434  1.7602 -1.0395
34922SOL     OW10601   3.134   0.247   1.312 -0.3270 -0.5427 -0.1425
34922SOL    HW110602   3.229   0.244   1.309 -0.3064 -0.3989  0.3337
34922SOL    HW210603   3.109   0.175   1.371 -0.4805 -0.2111  0.2063
34923SOL     OW10604   7.300   7.439  10.093 -0.1198  0.0713  0.1505
34923SOL    HW110605   7.273   7.357  10.052  0.2946 -0.3878  0.7765
34923SOL    HW210606   7.269   7.431  10.183  2.4577 -0.6846  1.0491
34924SOL     OW10607   5.551  10.309   1.646 -0.1888 -0.4358  0.1674
34924SOL    HW110608   5.537  10.375   1.714  0.3023  0.3209 -0.4591
34924SOL    HW210609   5.612  10.247   1.686 -0.8688 -0.6801  0.8601
34925SOL     OW10610   2.323   6.217   7.583  0.0765  0.0291  0.0655
34925SOL    HW110611   2.240   6.245   7.544  0.5899  0.3343 -0.8477
34925SOL    HW210612   2.388   6.277   7.546  0.6395  0.1300  1.1758
34926SOL     OW10613   4.993   1.112   2.818 -1.0091  0.2074  0.0610
34926SOL    HW110614   5.088   1.121   2.824 -0.1295 -0.2825 -6.2630
34926SOL    HW210615   4.974   1.023   2.848  1.6050 -1.6797 -3.1944
34927SOL     OW10616   5.097   7.197   7.948 -0.1922  0.3964  0.1991
34927SOL    HW110617   5.175   7.243   7.915 -0.9968 -0.0871 -2.6266
34927SOL    HW210618   5.132   7.121   7.994  1.0091  0.8336  0.0522
34928SOL     OW10619   3.740   2.194   4.203 -0.3136  0.1951  0.0139
34928SOL    HW110620   3.802   2.134   4.246  0.3331 -0.3848 -1.6554
34928SOL    HW210621   3.794   2.267   4.173 -0.9991  1.3617  1.4483
34929SOL     OW10622   4.960   6.212   6.469  0.4989  0.4868 -0.0604
34929SOL    HW110623   4.916   6.280   6.418 -0.3190 -0.0599 -0.1140
34929SOL    HW210624   4.975   6.142   6.407 -1.3041 -0.5496  0.5805
34930SOL     OW10625   2.846   2.722   3.356 -0.3663  0.4734 -0.2109
34930SOL    HW110626   2.841   2.703   3.450 -0.0747  0.2459 -0.2391
34930SOL    HW210627   2.768   2.775   3.338 -0.4243  0.5165  0.1586
34931SOL     OW10628   9.223   8.875   8.188 -0.2220 -0.4239 -0.2604
34931SOL    HW110629   9.187   8.891   8.275  0.0303 -0.5643 -0.1274
34931SOL    HW210630   9.205   8.955   8.139  1.1504  0.3517  0.4413
34932SOL     OW10631   9.724   0.256   0.336  0.2484 -0.2250 -0.5088
34932SOL    HW110632   9.759   0.342   0.358 -0.2154 -0.0715 -0.3485
34932SOL    HW210633   9.700   0.218   0.420  0.5223 -0.5404 -0.5744
34933SOL     OW10634   0.147   4.146   3.009 -0.5588  0.2437 -0.0332
34933SOL    HW110635   0.103   4.173   3.090 -1.2733 -1.5780  0.2229
34933SOL    HW210636   0.189   4.063   3.030 -0.8480 -0.3289 -1.5771
34934SOL     OW10637   5.598  10.569   5.489 -0.3460  0.5245  0.0773
34934SOL    HW110638   5.683  10.608   5.508 -0.3232  0.1584  0.7378
34934SOL    HW210639   5.607  10.536   5.399  0.1872  0.5363  0.1213
34935SOL     OW10640   7.149   7.272   9.271  0.0129  0.0472 -0.5967
34935SOL    HW110641   7.128   7.363   9.293 -1.2663  0.0551 -1.7299
34935SOL    HW210642   7.245   7.267   9.277  0.1050  1.4764 -0.6076
34936SOL     OW10643   0.371   2.206   1.165 -0.5309 -0.0392 -0.6374
34936SOL    HW110644   0.448   2.153   1.145 -0.1444 -0.0636  0.8139
34936SOL    HW210645   0.395   2.255   1.243 -1.9867 -0.0274 -0.1615
34937SOL     OW10646  10.194   3.030   1.604 -0.4165 -0.0371  0.9337
34937SOL    HW110647  10.179   3.032   1.698 -0.7387  1.3642  0.8688
34937SOL    HW210648  10.237   3.113   1.584  0.5145 -0.7230 -0.0219
34938SOL     OW10649   7.761  10.361   4.907  0.3866 -0.2721 -0.0223
34938SOL    HW110650   7.727  10.303   4.975 -0.8853  0.2753 -0.1703
34938SOL    HW210651   7.816  10.424   4.955  0.7288 -0.7985  0.2948
34939SOL     OW10652  10.386  10.572   0.051 -0.1364 -0.4742  0.7161
34939SOL    HW110653  10.293  10.551   0.043 -0.4595  1.3042 -0.8266
34939SOL    HW210654  10.421  10.505   0.111 -2.2664 -1.5186  0.8720
34940SOL     OW10655   1.282   0.764   0.200  0.2295  0.0638  0.8169
34940SOL    HW110656   1.304   0.835   0.261 -0.6689  1.7878 -0.7909
34940SOL    HW210657   1.245   0.807   0.124 -0.6348 -2.1721 -0.1334
34941SOL     OW10658   2.257   1.294   7.619 -0.1184  0.1551 -0.1776
34941SOL    HW110659   2.344   1.333   7.616  0.0140 -0.1225 -0.0434
34941SOL    HW210660   2.197   1.365   7.596  0.1838  0.2052 -0.8340
34942SOL     OW10661   6.707   9.844   3.011  0.0311 -0.7102 -0.4526
34942SOL    HW110662   6.741   9.786   3.079  2.0696 -1.5433 -2.0921
34942SOL    HW210663   6.615   9.819   3.002 -0.1404 -0.9522  1.5535
34943SOL     OW10664   1.595   0.303  10.298 -0.3934 -0.1731  0.0381
34943SOL    HW110665   1.643   0.300  10.381 -1.7244 -0.4681  0.8285
34943SOL    HW210666   1.504   0.288  10.322 -0.8828  0.2119 -1.4354
34944SOL     OW10667   7.804   6.506   1.981  0.0223 -0.2083  0.5841
34944SOL    HW110668   7.759   6.554   2.051 -0.2350 -1.7246  1.4822
34944SOL    HW210669   7.879   6.464   2.024 -0.3294 -1.4369  0.0313
34945SOL     OW10670   1.087   0.997   2.431  0.1243 -0.0667  0.3822
34945SOL    HW110671   1.028   1.023   2.361 -0.4647 -2.1648  0.0489
34945SOL    HW210672   1.172   0.983   2.388 -0.0679 -0.6917  0.2062
34946SOL     OW10673   7.754   5.366   6.924  0.3351  0.6547  0.4402
34946SOL    HW110674   7.799   5.377   6.840  0.7582 -0.7679  0.4611
34946SOL    HW210675   7.808   5.303   6.973 -1.1997 -0.4437  0.8007
34947SOL     OW10676   3.653   9.391   8.131 -0.0692 -0.1820  0.1956
34947SOL    HW110677   3.582   9.334   8.161  0.0340 -0.4781 -0.1223
34947SOL    HW210678   3.626   9.422   8.044 -0.3841  0.7062  0.5926
34948SOL     OW10679   2.048  10.064   8.807  0.5505  0.2351 -0.5810
34948SOL    HW110680   2.009  10.136   8.857  2.0736  1.0229 -0.4844
34948SOL    HW210681   2.089  10.106   8.732  0.9215 -0.6100 -0.8663
34949SOL     OW10682   2.649   2.123   2.038  0.0410  0.1635  0.7315
34949SOL    HW110683   2.739   2.155   2.031 -0.3464  1.0898 -0.3137
34949SOL    HW210684   2.601   2.196   2.078 -0.3117 -0.1891  0.9551
34950SOL     OW10685   9.867   2.100   3.481 -0.3577 -0.0350 -0.0842
34950SOL    HW110686   9.780   2.103   3.521 -0.3040 -3.2006  0.5000
34950SOL    HW210687   9.922   2.152   3.539 -1.7265  1.8521 -0.3451
34951SOL     OW10688   9.287   3.277   3.995  0.1033  0.5349  0.1115
34951SOL    HW110689   9.349   3.346   4.019  0.5304  0.5597 -0.9794
34951SOL    HW210690   9.205   3.302   4.036  0.0839  2.0498 -0.7997
34952SOL     OW10691   4.109   9.701   7.372 -0.1967 -0.3356  0.0640
34952SOL    HW110692   4.036   9.751   7.335 -0.6522 -0.8203  0.3047
34952SOL    HW210693   4.187   9.747   7.341 -0.6084  1.2190  1.2117
34953SOL     OW10694   6.834   9.653   8.513  0.0266 -0.0211  0.1413
34953SOL    HW110695   6.869   9.623   8.429  0.4266  1.0818 -0.1074
34953SOL    HW210696   6.909   9.650   8.573 -0.1321 -0.3121  0.3262
34954SOL     OW10697   1.827   6.005   4.301 -0.1950 -0.2363 -0.0934
34954SOL    HW110698   1.911   5.964   4.280 -0.8281 -0.5297 -2.3061
34954SOL    HW210699   1.802   5.967   4.386  0.7271 -2.0500 -0.5756
34955SOL     OW10700   7.851   2.433   1.076 -0.0252  0.3179  0.2898
34955SOL    HW110701   7.777   2.483   1.043 -0.1732  0.1988  0.4391
34955SOL    HW210702   7.865   2.465   1.165  0.0661  0.2986  0.2833
34956SOL     OW10703   0.648   1.348   8.790  0.3749 -0.4924 -0.0480
34956SOL    HW110704   0.723   1.289   8.799  1.3140  0.7873  0.8299
34956SOL    HW210705   0.610   1.351   8.877 -1.8682 -2.5440 -0.8582
34957SOL     OW10706   7.964   4.655   2.722  0.3014  0.2992  0.4009
34957SOL    HW110707   7.977   4.705   2.804  0.7700 -0.3951  0.7572
34957SOL    HW210708   7.916   4.716   2.665  2.3642  1.8290  0.1810
34958SOL     OW10709   3.035   1.521   5.605 -0.0213  0.7450 -0.3870
34958SOL    HW110710   3.099   1.522   5.675  0.6059  2.8207 -0.9030
34958SOL    HW210711   3.084   1.495   5.527 -0.7710 -1.8237 -0.0939
34959SOL     OW10712   7.723  10.245   9.357  0.4269 -0.3644 -0.1356
34959SOL    HW110713   7.727  10.221   9.449 -1.9611  0.0545  0.1220
34959SOL    HW210714   7.641  10.207   9.325  1.6096 -1.2613 -2.3421
34960SOL     OW10715   5.377   4.238   9.341 -0.6271 -0.4752 -0.0868
34960SOL    HW110716   5.316   4.254   9.269  0.7760 -0.6083 -1.3719
34960SOL    HW210717   5.357   4.306   9.405 -1.0773  0.4749 -1.1905
34961SOL     OW10718   4.449   5.834   7.916  0.4529 -0.3129  0.0555
34961SOL    HW110719   4.424   5.924   7.936 -0.0615 -0.4084 -0.1446
34961SOL    HW210720   4.373   5.782   7.941  0.4887 -0.6216 -0.4619
34962SOL     OW10721   3.495   6.789   0.795  0.2060 -0.1598  0.1230
34962SOL    HW110722   3.497   6.877   0.759 -1.3404  0.1567  0.7375
34962SOL    HW210723   3.557   6.739   0.740  1.5925  1.4188  0.1829
34963SOL     OW10724   3.930   5.017   7.792  0.5289 -0.4118  0.5921
34963SOL    HW110725   3.972   4.933   7.774 -0.1546 -1.0629  1.8654
34963SOL    HW210726   3.841   4.993   7.821 -0.2731  0.8489 -0.6818
34964SOL     OW10727   2.719   6.980   5.607  0.3966 -0.1435 -0.2625
34964SOL    HW110728   2.795   6.957   5.555 -0.2860  0.4220 -1.5469
34964SOL    HW210729   2.738   6.945   5.694  1.5675 -1.1024 -0.8755
34965SOL     OW10730   7.188   7.504   6.138 -0.0930 -0.4665 -0.2032
34965SOL    HW110731   7.228   7.517   6.052  3.7247 -2.5208  1.0123
34965SOL    HW210732   7.258   7.526   6.200 -3.1533  2.5525  2.6235
34966SOL     OW10733   3.271   6.310   4.572 -0.1819  0.2094  0.8278
34966SOL    HW110734   3.312   6.254   4.637 -0.4143 -0.4285  0.4389
34966SOL    HW210735   3.340   6.369   4.543  0.4179 -0.7101  0.3299
34967SOL     OW10736   8.436   4.888  10.276  0.1666  0.7969  0.3728
34967SOL    HW110737   8.386   4.954  10.229 -0.3301  1.1695  1.4134
34967SOL    HW210738   8.520   4.930  10.294 -0.5365  1.5716  1.9984
34968SOL     OW10739   1.884   9.386   8.851  0.1188 -0.0067  0.5352
34968SOL    HW110740   1.888   9.480   8.834  1.2722  0.0626  1.0946
34968SOL    HW210741   1.975   9.361   8.869  0.1460 -1.5600 -1.3442
34969SOL     OW10742   2.849   3.426   4.358 -0.2178  0.0114  0.8667
34969SOL    HW110743   2.903   3.462   4.429  0.9574 -0.1684  0.0774
34969SOL    HW210744   2.911   3.382   4.300 -1.4886 -2.6159  1.3574
34970SOL     OW10745   6.265  10.041   9.770 -0.0111  0.6338  0.7849
34970SOL    HW110746   6.249  10.013   9.680  2.9952  0.2096  0.2830
34970SOL    HW210747   6.209   9.984   9.823 -2.4391  1.3967 -0.7511
34971SOL     OW10748   9.886   4.536   4.689  0.3688  0.1521 -0.2466
34971SOL    HW110749   9.908   4.576   4.774  0.0954 -1.1411  0.4505
34971SOL    HW210750   9.792   4.552   4.680  0.1823 -0.6480  0.2139
34972SOL     OW10751   3.686   4.420   5.006 -0.4606  0.0699 -0.7656
34972SOL    HW110752   3.658   4.512   5.006 -0.0390  0.2105 -1.7677
34972SOL    HW210753   3.615   4.374   4.961  0.0041  0.1384 -1.5900
34973SOL     OW10754  10.395   9.415   7.835 -0.2785  0.3801 -0.2953
34973SOL    HW110755  10.353   9.461   7.762 -0.2764  0.0325 -0.5207
34973SOL    HW210756  10.466   9.365   7.794 -0.0257  0.4974  0.0026
34974SOL     OW10757   2.554  10.024   5.126 -0.6352 -0.3731  0.2263
34974SOL    HW110758   2.465   9.989   5.119 -2.0625  2.1344  3.2544
34974SOL    HW210759   2.546  10.097   5.188  3.6033 -0.1604  0.7953
34975SOL     OW10760   5.626   1.193   6.366 -0.3994  0.2143  0.0349
34975SOL    HW110761   5.608   1.245   6.287  0.2745  1.2097  0.5031
34975SOL    HW210762   5.607   1.103   6.341  0.3452  0.4366 -1.4575
34976SOL     OW10763   5.595   1.116  10.385  0.0131  0.1085 -0.0675
34976SOL    HW110764   5.622   1.082  10.470 -1.0264 -0.0357  0.2204
34976SOL    HW210765   5.677   1.128  10.336  0.4993 -1.4422  0.3245
34977SOL     OW10766   6.450   5.416   3.583 -0.1364  0.4430 -0.3422
34977SOL    HW110767   6.539   5.387   3.563 -0.4864 -0.4614 -0.6462
34977SOL    HW210768   6.442   5.406   3.677  0.3410  1.2951 -0.2012
34978SOL     OW10769   9.931  10.155  10.264  0.6704 -0.3859 -1.0499
34978SOL    HW110770   9.838  10.169  10.284  0.8618 -1.5230  0.8967
34978SOL    HW210771   9.978  10.193  10.339  1.5750 -2.7659 -0.3129
34979SOL     OW10772   8.915   8.817   8.035 -0.2766 -0.2150  0.2602
34979SOL    HW110773   8.971   8.752   8.078 -1.0831 -1.1019 -0.0161
34979SOL    HW210774   8.879   8.772   7.959 -2.3544 -0.0986  1.1115
34980SOL     OW10775   9.050   7.409   0.513 -0.2052 -0.0686  0.6331
34980SOL    HW110776   8.997   7.432   0.437  0.5686  0.2649  0.1815
34980SOL    HW210777   8.987   7.385   0.580 -0.9408  0.6600  0.2219
34981SOL     OW10778   0.448   3.762   9.727  0.0370  0.2166  0.1969
34981SOL    HW110779   0.513   3.693   9.737 -0.9297 -1.2098 -2.3105
34981SOL    HW210780   0.484   3.819   9.659 -0.7966  0.0472 -0.4020
34982SOL     OW10781  10.186   7.914   0.342  0.7375 -0.3246  0.0579
34982SOL    HW110782  10.214   7.856   0.413  1.7642  0.4727  0.3307
34982SOL    HW210783  10.099   7.884   0.320  0.3735 -0.5847  1.6874
34983SOL     OW10784   2.546   7.474   5.406  0.4578  0.5902  0.2563
34983SOL    HW110785   2.562   7.386   5.373 -0.6806  0.7891 -0.8849
34983SOL    HW210786   2.626   7.522   5.387  0.2806  0.3710 -1.1095
34984SOL     OW10787   7.512   6.922   7.278 -0.5587  0.0658 -0.0369
34984SOL    HW110788   7.591   6.879   7.244 -0.7458  0.3245 -0.8283
34984SOL    HW210789   7.471   6.856   7.334 -1.1378 -1.0360 -1.6767
34985SOL     OW10790   8.770   8.428   2.142  0.0879  0.3997  0.3359
34985SOL    HW110791   8.727   8.352   2.181  0.6234 -0.9618 -1.5616
34985SOL    HW210792   8.717   8.502   2.169 -2.6011 -1.0345 -0.6016
34986SOL     OW10793   3.257   6.760   9.291 -0.5664 -0.4494 -0.1061
34986SOL    HW110794   3.250   6.736   9.383 -1.5322 -1.2918 -0.3864
34986SOL    HW210795   3.351   6.761   9.274 -0.3160  0.8495  1.1610
34987SOL     OW10796   7.692   6.609  10.095 -0.0835 -0.6377 -0.2339
34987SOL    HW110797   7.774   6.575  10.059  0.1893 -0.2010 -0.0362
34987SOL    HW210798   7.694   6.702  10.075 -0.8188 -0.7253 -0.7556
34988SOL     OW10799   8.756   9.503   8.586  0.3654  0.1582 -0.2175
34988SOL    HW110800   8.761   9.589   8.628  1.1534 -0.2758  0.5834
34988SOL    HW210801   8.706   9.449   8.647  1.1475 -0.3556 -0.0217
34989SOL     OW10802   9.577   8.930   2.445 -0.3001  0.6174  0.9117
34989SOL    HW110803   9.513   9.001   2.437 -0.6613  0.1894 -0.3758
34989SOL    HW210804   9.524   8.850   2.449  0.1069  0.2321 -0.4832
34990SOL     OW10805   0.993   5.027   1.185 -0.3752  0.0040 -0.0986
34990SOL    HW110806   0.927   5.096   1.178 -1.3303 -0.6396  1.7638
34990SOL    HW210807   1.076   5.073   1.195 -0.5660  0.8335 -1.9645
34991SOL     OW10808   0.950   5.656   8.959 -0.4317  0.1596 -0.3772
34991SOL    HW110809   0.925   5.747   8.972  0.0944  0.2290  0.1408
34991SOL    HW210810   0.871   5.606   8.982 -0.6086  0.4639 -0.3258
34992SOL     OW10811   8.804   0.413   2.074  0.2858  0.2820  0.6442
34992SOL    HW110812   8.774   0.339   2.127 -0.8148 -0.0643 -0.4172
34992SOL    HW210813   8.900   0.408   2.078  0.3425 -2.5089 -1.0635
34993SOL     OW10814   1.847   6.362   2.309 -0.6794 -0.2964  0.4687
34993SOL    HW110815   1.754   6.362   2.334 -0.8693 -0.8813 -0.1792
34993SOL    HW210816   1.858   6.441   2.257 -1.3154 -1.1816 -1.1030
34994SOL     OW10817   1.282   3.224   1.295 -0.3840 -0.4043  0.0317
34994SOL    HW110818   1.206   3.255   1.344 -0.3467 -0.3262  0.0404
34994SOL    HW210819   1.290   3.285   1.222 -0.6568 -0.7285 -0.2774
34995SOL     OW10820   9.948   9.204   9.283  0.3032 -0.2686 -0.0621
34995SOL    HW110821  10.021   9.262   9.305  0.0393 -0.2743  0.8790
34995SOL    HW210822   9.949   9.137   9.352 -0.5265 -0.3271 -0.0958
34996SOL     OW10823   5.169   1.859  10.657  0.3694 -0.1970 -0.5544
34996SOL    HW110824   5.231   1.841  10.728  1.6517 -1.5534 -1.9340
34996SOL    HW210825   5.128   1.941  10.681 -0.4214 -1.3559  2.5398
34997SOL     OW10826   0.973   4.248   2.196 -0.3821  0.3540  0.7244
34997SOL    HW110827   0.899   4.187   2.194 -1.0916  1.1319 -2.4925
34997SOL    HW210828   0.939   4.328   2.155  2.0993  0.9201 -0.3874
34998SOL     OW10829   3.094   2.652   4.839  0.0071  0.6604 -0.0774
34998SOL    HW110830   3.040   2.618   4.911 -0.4880  1.8726  0.1508
34998SOL    HW210831   3.156   2.711   4.882  0.6808  0.2669 -0.4889
34999SOL     OW10832   5.088   2.123   7.622 -0.1033 -0.0271  0.1417
34999SOL    HW110833   5.031   2.078   7.685 -0.7937  0.4749 -0.1080
34999SOL    HW210834   5.175   2.120   7.662 -0.6486  0.9158  1.4733
35000SOL     OW10835  10.476   7.577   2.081 -0.1229  0.1209  0.7993
35000SOL    HW110836  10.426   7.644   2.035  0.3061  0.5699  0.9762
35000SOL    HW210837  10.551   7.624   2.117  0.2828 -0.4944  0.7619
35001SOL     OW10838   1.712   4.916   8.205 -0.4033  0.4942 -0.6020
35001SOL    HW110839   1.739   4.968   8.129  0.3222  1.2595  0.1545
35001SOL    HW210840   1.776   4.846   8.210  0.1320  1.0033 -0.1420
35002SOL     OW10841   9.938   2.216   0.156  0.1962  0.0042  0.0314
35002SOL    HW110842   9.974   2.304   0.143  0.6351  0.0397  1.3524
35002SOL    HW210843  10.015   2.160   0.167 -0.0948 -0.4337 -0.1539
35003SOL     OW10844   7.527   0.069   1.713  0.0227 -0.2730 -0.0426
35003SOL    HW110845   7.507   0.012   1.787 -1.8204 -0.9646 -1.0051
35003SOL    HW210846   7.498   0.020   1.636 -0.7970  1.5694 -0.9867
35004SOL     OW10847   8.413  10.507   4.597  0.4382  0.3936  0.2661
35004SOL    HW110848   8.323  10.492   4.623  0.8315 -0.6281  1.0932
35004SOL    HW210849   8.455  10.545   4.675  0.9531 -0.0570  0.2142
35005SOL     OW10850   3.351   4.058   3.269  0.3329  0.2415 -0.0763
35005SOL    HW110851   3.389   4.008   3.341  1.1480  2.0132  0.7800
35005SOL    HW210852   3.268   4.014   3.251 -0.2540  0.1641  2.4435
35006SOL     OW10853   3.395  10.459   6.145  0.3892  0.0876  0.3692
35006SOL    HW110854   3.333  10.515   6.099  0.8664  0.0491 -0.3365
35006SOL    HW210855   3.480  10.501   6.131  0.6228 -0.2754  0.6753
35007SOL     OW10856   3.777   8.906   0.889  0.1286  0.3992 -0.1242
35007SOL    HW110857   3.849   8.966   0.870  1.2373 -0.7057  0.4840
35007SOL    HW210858   3.817   8.819   0.891 -1.0735 -0.1744  0.9797
35008SOL     OW10859   2.835   5.144   4.194  0.6802  0.2967  0.2062
35008SOL    HW110860   2.861   5.161   4.104 -0.3006  0.5468 -0.0372
35008SOL    HW210861   2.829   5.049   4.201  1.3623  0.2483  0.1910
35009SOL     OW10862   5.742  10.028   8.154  0.5374 -0.3071  0.1099
35009SOL    HW110863   5.782   9.960   8.101  0.6825 -0.9599  1.0292
35009SOL    HW210864   5.809  10.051   8.219  0.9247  1.5303 -0.8634
35010SOL     OW10865   6.330   4.621   2.014 -0.1565 -0.2304 -0.7168
35010SOL    HW110866   6.350   4.668   1.933 -0.6143  1.2601 -0.0153
35010SOL    HW210867   6.383   4.542   2.010  0.1029 -0.0115 -2.2989
35011SOL     OW10868   0.425   4.181   8.611 -0.4281  0.3189  0.1557
35011SOL    HW110869   0.467   4.097   8.591  0.0995  0.3580  1.0143
35011SOL    HW210870   0.496   4.236   8.645 -0.5478  1.4956 -1.4061
35012SOL     OW10871   7.553   4.573   8.647  0.3522 -0.0146  0.0540
35012SOL    HW110872   7.516   4.502   8.594  0.6927  0.0947 -0.3431
35012SOL    HW210873   7.526   4.653   8.602  2.0499  0.0496 -0.9598
35013SOL     OW10874   5.731   9.517   3.111 -0.1635 -0.3696 -0.0036
35013SOL    HW110875   5.700   9.456   3.044 -0.3580  0.7933 -1.0092
35013SOL    HW210876   5.720   9.604   3.072  2.4939  0.2275  0.3565
35014SOL     OW10877   3.832  10.334   4.867  0.9416 -0.0326  0.6088
35014SOL    HW110878   3.808  10.348   4.958  1.6995 -1.2248  1.0156
35014SOL    HW210879   3.928  10.329   4.868  1.0388  1.0234 -0.4225
35015SOL     OW10880   3.782   7.747   1.702  0.1508  0.0103  0.2145
35015SOL    HW110881   3.739   7.833   1.700 -0.4024 -0.2627  0.3149
35015SOL    HW210882   3.710   7.684   1.706  0.5541 -0.4617  0.1256
35016SOL     OW10883   1.593   1.882   9.901  0.0136 -0.4055 -0.0884
35016SOL    HW110884   1.674   1.894   9.852 -0.0937  0.5463 -0.0374
35016SOL    HW210885   1.524   1.886   9.834 -0.2333  2.1690  0.2454
35017SOL     OW10886   6.408   4.785   4.354  0.3695  0.0610  0.4361
35017SOL    HW110887   6.392   4.710   4.296  0.3822 -0.4494  1.0737
35017SOL    HW210888   6.348   4.853   4.324 -0.0983 -0.4286  0.2497
35018SOL     OW10889   3.840  10.145   2.838 -0.5481 -0.1367 -0.0658
35018SOL    HW110890   3.841  10.207   2.912  0.4303 -1.0248  0.6982
35018SOL    HW210891   3.892  10.188   2.771  0.3458 -0.2276  0.5558
35019SOL     OW10892   1.567   3.873   7.810 -0.7117  0.0929 -0.0164
35019SOL    HW110893   1.551   3.936   7.739 -0.9220 -0.4416 -0.4510
35019SOL    HW210894   1.509   3.902   7.880  0.7749  1.6888  0.6312
35020SOL     OW10895   9.601   4.222   9.114  0.6745  0.1679  0.2436
35020SOL    HW110896   9.686   4.179   9.117  0.1412 -0.9599 -0.2951
35020SOL    HW210897   9.547   4.166   9.059 -0.5406  0.6450  0.8976
35021SOL     OW10898   4.510   1.780   3.935  0.1119  0.1767  0.2578
35021SOL    HW110899   4.500   1.756   3.843 -0.8024  0.2373  0.3389
35021SOL    HW210900   4.515   1.697   3.981  0.7570  0.1443  0.1435
35022SOL     OW10901  10.021   9.661   1.563  0.3704  0.2214  0.3219
35022SOL    HW110902  10.099   9.677   1.616 -0.5652 -1.1711  2.2619
35022SOL    HW210903  10.037   9.576   1.522 -0.4497 -0.5237  1.4787
35023SOL     OW10904   3.876   2.649   9.096 -0.0732  0.2525 -0.5344
35023SOL    HW110905   3.932   2.718   9.131  0.5163 -0.5846  0.2097
35023SOL    HW210906   3.834   2.689   9.020 -0.7710  1.8642  0.6327
35024SOL     OW10907   1.776   0.235   8.582  0.3162 -0.2779 -0.1987
35024SOL    HW110908   1.778   0.290   8.660 -1.4840  0.6180 -0.7378
35024SOL    HW210909   1.730   0.156   8.610  1.5081 -0.8633  0.1628
35025SOL     OW10910   8.275  10.620   8.094  0.5637  0.9034  0.0306
35025SOL    HW110911   8.310  10.633   8.006 -0.3494  0.9428 -0.3376
35025SOL    HW210912   8.189  10.662   8.092  0.8611  1.6218  1.1829
35026SOL     OW10913   1.617   8.401   3.132 -0.1607  0.0683 -0.3326
35026SOL    HW110914   1.633   8.496   3.128 -1.0757  0.2218 -0.5172
35026SOL    HW210915   1.688   8.363   3.080  0.9586  0.5436  0.7835
35027SOL     OW10916   4.660   1.294  10.531  0.0529 -0.1422 -0.1262
35027SOL    HW110917   4.583   1.320  10.480 -1.8995  0.7160  3.0433
35027SOL    HW210918   4.625   1.242  10.603  2.4783  0.1482  1.3532
35028SOL     OW10919   6.737   5.826   2.978  0.5177  0.4845  0.9232
35028SOL    HW110920   6.829   5.834   3.004  0.6367  0.4481  0.5199
35028SOL    HW210921   6.695   5.780   3.051  1.0089 -0.3346  0.6934
35029SOL     OW10922   2.323  10.432   2.007  0.1945 -0.1351  0.3600
35029SOL    HW110923   2.364  10.362   1.958 -0.9551 -0.5599 -0.0247
35029SOL    HW210924   2.342  10.411   2.099  0.0293 -0.8467  0.2393
35030SOL     OW10925   0.983   0.106   7.699  0.6056 -0.2914 -0.3440
35030SOL    HW110926   1.072   0.140   7.701  1.5154 -2.5275  0.7964
35030SOL    HW210927   0.952   0.124   7.610  1.7923  1.4194 -0.4506
35031SOL     OW10928   7.687   9.887   6.330  0.3226  0.0743  0.1848
35031SOL    HW110929   7.770   9.846   6.305  0.5394  0.1206  0.8127
35031SOL    HW210930   7.701   9.917   6.420 -0.3476  0.1563  0.2673
35032SOL     OW10931   4.255   5.547   1.417  0.0511 -0.4381 -0.6600
35032SOL    HW110932   4.201   5.474   1.387 -2.3047  1.1809 -0.6793
35032SOL    HW210933   4.247   5.547   1.512 -2.0414  1.1396 -0.7513
35033SOL     OW10934   6.477   5.454   6.745  0.3845 -0.2648  0.0364
35033SOL    HW110935   6.520   5.534   6.715 -1.0530  0.8254  0.7776
35033SOL    HW210936   6.453   5.408   6.665 -1.3637  1.4931 -0.5382
35034SOL     OW10937   9.524   9.348   0.400 -0.2751  0.4678 -0.4504
35034SOL    HW110938   9.469   9.419   0.365  1.2254  1.6100 -0.5662
35034SOL    HW210939   9.549   9.379   0.487 -0.2036 -0.2704 -0.2072
35035SOL     OW10940   8.031   5.206   1.712 -0.3580  0.2001  0.8614
35035SOL    HW110941   7.974   5.237   1.643  0.4226  1.2620  0.6682
35035SOL    HW210942   7.989   5.127   1.745 -1.7112  0.7342  0.4619
35036SOL     OW10943   9.254   1.292   6.729  0.3057 -0.2037 -0.0378
35036SOL    HW110944   9.172   1.326   6.765 -0.1035 -1.2319  0.0206
35036SOL    HW210945   9.306   1.269   6.806  0.2604 -0.4563 -0.0825
35037SOL     OW10946   8.871   8.739   8.355  0.3575  0.1635  0.4183
35037SOL    HW110947   8.834   8.651   8.353 -0.2758  0.4294  0.3369
35037SOL    HW210948   8.834   8.782   8.278  2.3155 -0.1541 -0.7617
35038SOL     OW10949   4.240  10.085   0.498  0.2734 -0.3272  0.5200
35038SOL    HW110950   4.173  10.118   0.558  0.9961 -0.6126  1.5173
35038SOL    HW210951   4.192  10.033   0.434 -0.5368  0.0986  0.7712
35039SOL     OW10952   3.973   1.741   5.472  0.3510  0.4973 -0.0025
35039SOL    HW110953   3.941   1.744   5.563 -0.4782 -0.3158 -0.2584
35039SOL    HW210954   3.894   1.730   5.419  1.0279 -1.4333 -0.6710
35040SOL     OW10955   3.006   9.313   6.294 -0.5320 -0.1014 -0.0664
35040SOL    HW110956   3.044   9.264   6.222 -1.2852 -0.3235 -0.3246
35040SOL    HW210957   2.942   9.254   6.333 -1.0446  0.4691 -0.0225
35041SOL     OW10958   2.352   9.971   0.323 -0.0372  0.1767  0.0309
35041SOL    HW110959   2.303   9.907   0.375  0.4954  1.1543  1.8541
35041SOL    HW210960   2.421   9.920   0.281 -0.8830 -0.7590 -0.2607
35042SOL     OW10961   5.564   9.579   2.703 -0.2292 -0.4843 -0.5715
35042SOL    HW110962   5.591   9.643   2.770 -4.0595  1.3998 -0.5511
35042SOL    HW210963   5.552   9.497   2.752 -0.8686  0.3058  0.6524
35043SOL     OW10964   6.377   4.913   0.577 -0.0301  0.0620 -0.5808
35043SOL    HW110965   6.413   4.907   0.489 -1.7593  0.5089 -1.3499
35043SOL    HW210966   6.304   4.852   0.578 -0.4204  0.5224  0.3421
35044SOL     OW10967  10.562   3.084   6.539  0.4713 -0.1395 -0.6336
35044SOL    HW110968  10.561   3.044   6.452 -3.0073  0.9659 -1.2668
35044SOL    HW210969  10.530   3.173   6.525  0.0953  0.1791  1.7613
35045SOL     OW10970   2.274   7.944   3.166  0.1373  0.5504 -0.0182
35045SOL    HW110971   2.301   7.873   3.107 -1.0351  0.7464 -0.8130
35045SOL    HW210972   2.328   8.019   3.139  0.2694  0.3831 -0.2231
35046SOL     OW10973   1.984   5.653   2.159  0.3550 -0.0177 -0.0099
35046SOL    HW110974   2.005   5.560   2.170 -1.2155 -0.3791  0.1955
35046SOL    HW210975   2.053   5.699   2.206  1.3150 -1.0717 -0.3537
35047SOL     OW10976   5.230   7.634   5.282 -0.0133  0.3907  0.1534
35047SOL    HW110977   5.252   7.563   5.222 -1.0837  1.2137 -1.2850
35047SOL    HW210978   5.262   7.605   5.367  1.1050 -1.0452 -0.7160
35048SOL     OW10979   9.240   0.118   9.129 -0.0672 -0.1003 -0.6150
35048SOL    HW110980   9.198   0.126   9.044  0.1387 -0.8305 -0.7939
35048SOL    HW210981   9.270   0.207   9.150 -0.6908  0.2040 -0.9995
35049SOL     OW10982   3.632   5.465  10.133  0.1202 -0.3394  0.0267
35049SOL    HW110983   3.701   5.494  10.193 -2.2159  0.3306  2.5900
35049SOL    HW210984   3.648   5.514  10.053  1.3834  1.4118  1.2807
35050SOL     OW10985   2.747   8.619   0.022  0.1898  0.0333 -0.1913
35050SOL    HW110986   2.744   8.556   0.094  0.3521 -0.3260 -0.4970
35050SOL    HW210987   2.830   8.602  -0.023  1.2221  1.8018  0.9056
35051SOL     OW10988   0.351   3.540   3.964 -0.1167 -0.0386  0.0513
35051SOL    HW110989   0.376   3.452   3.934 -0.1609 -0.4206  1.0792
35051SOL    HW210990   0.264   3.528   4.003  0.6603  0.0161  1.9498
35052SOL     OW10991   6.894   7.137   2.253  0.3554 -0.9186 -1.0970
35052SOL    HW110992   6.894   7.227   2.221  0.6999 -0.4762  0.0957
35052SOL    HW210993   6.934   7.086   2.182  0.4697 -0.0851 -1.6409
35053SOL     OW10994   2.611  10.209   3.612  0.1665 -0.4992 -0.0890
35053SOL    HW110995   2.539  10.176   3.665  0.4378 -0.6699  0.1798
35053SOL    HW210996   2.572  10.227   3.526 -0.0458 -1.2634 -0.1615
35054SOL     OW10997   8.879   5.459   8.671  0.3552 -0.3689 -0.0399
35054SOL    HW110998   8.880   5.366   8.691  1.6342  0.0889  2.4066
35054SOL    HW210999   8.891   5.502   8.756  0.7927  2.0066 -1.2232
35055SOL     OW11000   5.236   8.515   1.628  0.4903 -0.7744 -0.0041
35055SOL    HW111001   5.295   8.549   1.695 -1.5107  2.6331  0.2294
35055SOL    HW211002   5.154   8.496   1.674  0.0681 -1.4853 -0.9936
35056SOL     OW11003   0.659   5.272   3.092 -0.4598  0.1315 -0.0662
35056SOL    HW111004   0.699   5.241   3.011 -1.6601  0.6102 -0.8700
35056SOL    HW211005   0.701   5.357   3.109  0.7655 -0.5672  0.5874
35057SOL     OW11006   2.100   0.065   5.648  0.0241 -0.2301  0.1899
35057SOL    HW111007   2.099   0.121   5.725  1.0835 -0.9352  0.7413
35057SOL    HW211008   2.177   0.009   5.660  0.2415 -0.3242 -1.4020
35058SOL     OW11009   9.213   3.773   6.667 -0.3722 -0.5479 -0.4175
35058SOL    HW111010   9.129   3.758   6.710  0.1468 -0.8253  0.5198
35058SOL    HW211011   9.192   3.772   6.574 -1.2174 -1.8359 -0.2427
35059SOL     OW11012   7.702  10.714   3.686  0.2531 -0.0658 -0.2008
35059SOL    HW111013   7.637  10.757   3.631 -2.3082 -1.5063  1.5021
35059SOL    HW211014   7.697  10.758   3.770  0.0687 -1.3961  0.5188
35060SOL     OW11015   1.060   1.995   3.714 -0.2935 -0.3912  0.0991
35060SOL    HW111016   1.081   1.990   3.808  0.4222 -2.1789 -0.0998
35060SOL    HW211017   1.113   2.067   3.681 -0.5102  0.2227  1.0611
35061SOL     OW11018   0.383   9.118   2.462 -0.2769 -0.4303 -0.0490
35061SOL    HW111019   0.307   9.094   2.409  0.5602 -0.4636 -1.2774
35061SOL    HW211020   0.418   9.196   2.419 -0.9852  1.0702  1.9036
35062SOL     OW11021   2.349   3.345   5.943  0.1708 -0.6801 -0.6036
35062SOL    HW111022   2.390   3.432   5.953  0.5652 -0.8813 -0.4206
35062SOL    HW211023   2.264   3.354   5.985 -0.0192 -0.2241 -1.0690
35063SOL     OW11024   0.936   7.621   1.686  0.4825  0.4299 -0.3535
35063SOL    HW111025   1.020   7.654   1.718  1.1594 -1.1425 -0.4247
35063SOL    HW211026   0.959   7.554   1.622 -0.7805 -1.1806  0.7863
35064SOL     OW11027   2.869   1.377   3.178  0.3410 -0.0979  0.0985
35064SOL    HW111028   2.840   1.466   3.158  2.2780  0.2435 -1.5942
35064SOL    HW211029   2.828   1.323   3.111  1.4234  0.0051 -0.6833
35065SOL     OW11030   1.886   1.690   3.479 -0.1637 -0.4014  0.2558
35065SOL    HW111031   1.885   1.662   3.388 -1.3079 -0.1468  0.1787
35065SOL    HW211032   1.805   1.739   3.491 -0.0039 -0.3673  1.3931
35066SOL     OW11033   0.174   1.144   3.173  0.0991  0.1587 -0.3572
35066SOL    HW111034   0.200   1.223   3.126 -1.0793  0.8036  0.0271
35066SOL    HW211035   0.222   1.074   3.130  0.4569  0.9612 -1.3132
35067SOL     OW11036   8.499   1.023   5.316 -0.0402 -0.9408 -0.4506
35067SOL    HW111037   8.407   1.035   5.342  0.6188  1.8914  0.9414
35067SOL    HW211038   8.542   0.992   5.396  0.4432 -0.9520 -0.7126
35068SOL     OW11039   2.560   7.090   2.426 -0.1344 -0.7774  0.2416
35068SOL    HW111040   2.551   7.018   2.488  3.4985 -0.4990  1.2879
35068SOL    HW211041   2.600   7.051   2.348  1.9993  0.0091  0.8701
35069SOL     OW11042   2.846   6.935   5.293 -0.7224 -0.2873  0.2618
35069SOL    HW111043   2.918   6.946   5.356 -0.4274 -0.5156 -0.0305
35069SOL    HW211044   2.851   6.843   5.267 -1.7698 -0.5707  1.0066
35070SOL     OW11045   7.698   2.497   5.821  0.2236  0.6057 -0.4772
35070SOL    HW111046   7.786   2.484   5.856  0.7446  3.1423 -0.6895
35070SOL    HW211047   7.651   2.418   5.847  2.2371 -0.3120  0.6341
35071SOL     OW11048   3.713   2.091   2.379  0.1690  0.2519  0.2278
35071SOL    HW111049   3.774   2.017   2.375  0.3129  0.2578  1.7006
35071SOL    HW211050   3.635   2.062   2.332  0.3414 -0.7359  0.5405
35072SOL     OW11051   6.520   9.929   7.702 -0.2887 -0.2503  0.2721
35072SOL    HW111052   6.514   9.911   7.796  0.9868 -1.2492  0.1958
35072SOL    HW211053   6.429   9.943   7.674 -0.6665  0.2990  1.6838
35073SOL     OW11054   6.646   7.183   3.935  0.1295  0.0847  0.4963
35073SOL    HW111055   6.641   7.272   3.971 -1.4983  0.9508 -1.6442
35073SOL    HW211056   6.567   7.140   3.968 -0.4696  0.3315 -0.5685
35074SOL     OW11057   5.982   8.697   6.159 -0.5363 -0.6079  0.4372
35074SOL    HW111058   5.889   8.678   6.147  0.0949 -2.4906 -2.1800
35074SOL    HW211059   5.997   8.776   6.108 -0.3453 -1.4391 -0.8267
35075SOL     OW11060   8.931   4.026   7.443 -0.0946 -0.0031 -0.1087
35075SOL    HW111061   8.878   4.097   7.408  0.9944  0.6984 -0.3654
35075SOL    HW211062   8.996   4.068   7.498  0.5224 -0.8033 -0.2025
35076SOL     OW11063   1.896  10.612   9.729 -0.0759 -0.1169  0.2949
35076SOL    HW111064   1.913  10.633   9.821  1.4060  1.3880 -0.2669
35076SOL    HW211065   1.833  10.678   9.700  0.0993 -0.0648  0.0257
35077SOL     OW11066   0.761   6.358   8.453  0.7651 -0.0718  0.1834
35077SOL    HW111067   0.779   6.432   8.395 -0.5173 -0.9054 -1.3566
35077SOL    HW211068   0.828   6.293   8.431 -0.3818 -0.8284 -1.2428
35078SOL     OW11069  10.533  10.288   7.539  0.4038  0.0294  0.5578
35078SOL    HW111070  10.568  10.205   7.506 -0.4456 -0.1336  0.0226
35078SOL    HW211071  10.609  10.345   7.547  0.5967  0.3753 -2.5553
35079SOL     OW11072   4.412   3.483   7.035  0.6403 -0.0104  0.5662
35079SOL    HW111073   4.417   3.388   7.029 -1.6760 -0.1189 -0.3982
35079SOL    HW211074   4.356   3.509   6.963  0.1826  1.9784  1.5783
35080SOL     OW11075   1.250   8.082   1.837 -0.3451 -0.4926  0.4647
35080SOL    HW111076   1.175   8.034   1.870 -1.9288  1.3183 -0.2742
35080SOL    HW211077   1.229   8.098   1.745  0.1139  1.4598  0.6465
35081SOL     OW11078   4.446   0.795  10.371  0.5983 -0.5719 -0.1003
35081SOL    HW111079   4.471   0.812  10.461 -1.4908  1.8433  0.1580
35081SOL    HW211080   4.353   0.820  10.367  0.7106 -0.2394 -2.9667
35082SOL     OW11081   0.213   4.988   0.693 -0.0355  0.0120  0.0593
35082SOL    HW111082   0.298   5.013   0.658  0.0480 -1.1368 -0.6249
35082SOL    HW211083   0.232   4.914   0.751 -0.7306 -1.4469 -1.4917
35083SOL     OW11084   6.683   1.341   8.659 -0.2879  0.1596  0.3890
35083SOL    HW111085   6.626   1.404   8.615 -2.0591 -1.2758  0.5173
35083SOL    HW211086   6.748   1.318   8.592 -0.8907  0.5410 -0.3470
35084SOL     OW11087   0.639   9.198   5.136 -0.0615 -0.1397 -0.6436
35084SOL    HW111088   0.726   9.184   5.099 -1.1146 -3.2965 -2.3182
35084SOL    HW211089   0.643   9.158   5.223  0.0675 -0.6662 -0.8888
35085SOL     OW11090   1.205   7.288   8.555 -0.1240  0.5471 -0.1510
35085SOL    HW111091   1.262   7.248   8.489 -0.4115 -2.7904  1.3760
35085SOL    HW211092   1.257   7.359   8.593  1.0306  0.8190 -2.1396
35086SOL     OW11093   2.389   3.399   6.981  0.1144  0.2509 -0.2574
35086SOL    HW111094   2.385   3.312   7.020 -1.7515  1.1749  1.8694
35086SOL    HW211095   2.392   3.458   7.056  0.1753  2.0707 -1.6221
35087SOL     OW11096   2.692   7.213   8.693  0.6761  0.5490  0.6082
35087SOL    HW111097   2.647   7.297   8.682  0.8261  0.4409 -1.1152
35087SOL    HW211098   2.667   7.184   8.781 -1.7782  0.9899  0.1340
35088SOL     OW11099   7.953   5.152  10.098 -0.0533  0.5270  0.3387
35088SOL    HW111100   7.890   5.118  10.162  0.2035  0.5819  0.6230
35088SOL    HW211101   7.917   5.236  10.070 -0.0153  0.6457  0.6397
35089SOL     OW11102   7.154   5.347   2.877  0.2683  0.9572  0.3529
35089SOL    HW111103   7.149   5.315   2.967  1.3717 -0.7641 -0.1526
35089SOL    HW211104   7.111   5.433   2.879 -0.5272  0.5519  2.3139
35090SOL     OW11105   7.749   6.072   2.433 -0.4824  0.5757 -0.2031
35090SOL    HW111106   7.746   6.009   2.362  0.7211  0.3686 -0.0980
35090SOL    HW211107   7.660   6.105   2.441 -0.9247 -0.4346 -0.8684
35091SOL     OW11108   8.060   5.385   1.011  0.3070  0.1481  0.2442
35091SOL    HW111109   8.009   5.463   0.991  0.2929  0.8353  2.6884
35091SOL    HW211110   8.144   5.418   1.041  0.0817 -0.6953  1.9418
35092SOL     OW11111   8.567   4.158   0.599  0.3191  0.3886  0.4882
35092SOL    HW111112   8.533   4.223   0.537  0.3685  0.2522  0.3186
35092SOL    HW211113   8.495   4.096   0.611 -0.2432  1.2300  1.7306
35093SOL     OW11114   3.579   1.736   8.841  0.2389 -0.1699 -0.1059
35093SOL    HW111115   3.623   1.809   8.797  0.6517 -0.7536 -0.6722
35093SOL    HW211116   3.486   1.750   8.824  0.4091 -0.5925 -1.5108
35094SOL     OW11117   0.987   0.766   1.828  0.2583  0.3950 -0.1334
35094SOL    HW111118   0.974   0.819   1.907 -1.5288  0.5711 -0.5062
35094SOL    HW211119   0.905   0.718   1.817  0.3885  0.4970 -1.9671
35095SOL     OW11120  10.377   1.167   1.133 -0.7329 -0.1099 -0.6385
35095SOL    HW111121  10.316   1.227   1.175  0.0132  0.2399 -0.0161
35095SOL    HW211122  10.397   1.102   1.200  1.0827  0.8999 -0.1157
35096SOL     OW11123  10.206   8.326   1.760  0.5033  0.3285 -0.1093
35096SOL    HW111124  10.227   8.374   1.679  0.8116  1.8558  0.8434
35096SOL    HW211125  10.134   8.267   1.735  1.9970 -0.8076 -2.0110
35097SOL     OW11126   7.520   7.772  10.265  0.6238  0.2524 -0.4779
35097SOL    HW111127   7.475   7.850  10.297  0.0032  0.0153 -0.7533
35097SOL    HW211128   7.519   7.712  10.340 -0.2661 -0.0637 -0.7302
35098SOL     OW11129   3.693   0.856   0.494 -0.1443  0.0355  0.2000
35098SOL    HW111130   3.633   0.920   0.456  0.6411  1.2432  0.9131
35098SOL    HW211131   3.638   0.801   0.550 -0.9893 -0.5631 -1.1767
35099SOL     OW11132   9.201   1.564   6.012  0.6528  0.1660 -0.1763
35099SOL    HW111133   9.242   1.516   5.940 -0.4169 -0.4687 -0.3844
35099SOL    HW211134   9.203   1.503   6.086 -0.6853 -0.2225 -0.4316
35100SOL     OW11135   6.026   0.821   2.487  0.4712  0.7337 -0.0634
35100SOL    HW111136   6.056   0.905   2.522  0.7988  0.8650 -0.6515
35100SOL    HW211137   5.958   0.793   2.549 -0.0264  1.6883 -0.1571
35101SOL     OW11138   4.928   9.069   2.279  0.7158 -0.1156  0.2953
35101SOL    HW111139   4.898   8.979   2.283  0.7765 -0.0829  2.0749
35101SOL    HW211140   4.889   9.112   2.355  0.3379  1.4902 -0.7313
35102SOL     OW11141   6.884   5.052   0.037  0.1229 -0.0515  0.3857
35102SOL    HW111142   6.869   5.122  -0.027  1.3920 -0.0989  0.0054
35102SOL    HW211143   6.816   5.065   0.103  1.1309  2.4040  1.0500
35103SOL     OW11144   1.620   6.467   2.051  0.1777  0.0442 -0.1795
35103SOL    HW111145   1.662   6.542   2.009  1.0645  0.5725  1.5731
35103SOL    HW211146   1.686   6.398   2.048  0.3162  0.1453  0.5030
35104SOL     OW11147   7.728   0.113   8.702 -0.3668 -0.5132 -0.3383
35104SOL    HW111148   7.736   0.061   8.783 -0.8695 -0.1216 -0.0286
35104SOL    HW211149   7.723   0.203   8.733  1.3488 -0.1830 -0.9198
35105SOL     OW11150   9.896   3.021   6.198 -0.4427  0.1396  1.2474
35105SOL    HW111151   9.832   3.088   6.172 -0.8099  0.0467  1.8713
35105SOL    HW211152   9.957   3.068   6.255 -0.5092  0.0188  1.4187
35106SOL     OW11153   5.581   4.668   7.920  0.1202 -0.2713 -0.1881
35106SOL    HW111154   5.620   4.664   8.007  0.2281  1.2648 -0.1378
35106SOL    HW211155   5.548   4.580   7.904  0.0389 -0.5547  1.4262
35107SOL     OW11156   3.229   5.284   6.460  0.3426  0.3412 -0.1178
35107SOL    HW111157   3.140   5.249   6.468 -0.5961  2.3129 -1.3830
35107SOL    HW211158   3.257   5.297   6.551 -0.2037 -1.2755  0.3320
35108SOL     OW11159   1.323   4.354   8.505  0.5297  0.8537  0.0679
35108SOL    HW111160   1.297   4.269   8.469 -1.2018 -0.0610  3.1298
35108SOL    HW211161   1.385   4.334   8.574  0.1270  2.0500  0.8179
35109SOL     OW11162   1.226   3.696   1.097  0.3695 -0.0251  0.0466
35109SOL    HW111163   1.289   3.624   1.100 -0.0600 -0.4248 -0.2253
35109SOL    HW211164   1.141   3.653   1.082  0.3220  0.6438 -1.9396
35110SOL     OW11165   6.127  10.348  10.629  0.3759 -0.0278 -0.1806
35110SOL    HW111166   6.172  10.307  10.555  0.5302  1.1116 -0.7302
35110SOL    HW211167   6.035  10.345  10.606  0.4561  0.6870 -0.6123
35111SOL     OW11168   0.076   8.965   8.257  0.5842 -0.0279 -0.0263
35111SOL    HW111169   0.047   9.056   8.270  1.3845  0.1815  0.3572
35111SOL    HW211170   0.147   8.953   8.321  0.7480 -0.8023 -0.3413
35112SOL     OW11171   7.590   5.587  10.399  0.0842  0.4443  0.0646
35112SOL    HW111172   7.619   5.588  10.308 -0.1501 -0.7054 -0.0361
35112SOL    HW211173   7.494   5.590  10.393  0.0569 -0.0424  0.2590
35113SOL     OW11174   7.046   4.394   5.593 -0.3191 -0.2960 -0.0634
35113SOL    HW111175   7.024   4.321   5.535 -1.1392  1.3027 -1.9165
35113SOL    HW211176   7.138   4.379   5.616 -0.2494 -1.5178 -1.0127
35114SOL     OW11177   1.287   8.916   2.501 -0.1752 -0.2181 -0.1434
35114SOL    HW111178   1.232   8.928   2.423 -0.4814  1.1036  0.2424
35114SOL    HW211179   1.271   8.826   2.528 -0.4410 -0.5489 -1.3210
35115SOL     OW11180   7.677   9.916   8.120  0.4678 -0.0817 -0.1517
35115SOL    HW111181   7.735   9.973   8.071  0.8179  0.8557  1.2934
35115SOL    HW211182   7.674   9.954   8.208 -1.8133 -0.4726 -0.0051
35116SOL     OW11183   3.463   4.318   8.184  0.2380 -0.2242  0.1404
35116SOL    HW111184   3.466   4.342   8.277 -0.6996  0.6306 -0.0266
35116SOL    HW211185   3.532   4.253   8.174  0.4575 -0.2215  1.4055
35117SOL     OW11186  10.113  10.300   9.028  0.0241 -0.4185 -0.3241
35117SOL    HW111187  10.195  10.277   9.071 -0.0498 -0.5037 -0.2296
35117SOL    HW211188  10.137  10.310   8.936  0.1275 -0.5097 -0.3076
35118SOL     OW11189   4.890   8.047   1.558  0.4639 -0.0121  0.3050
35118SOL    HW111190   4.831   8.022   1.486  0.7261 -2.2739  0.8012
35118SOL    HW211191   4.834   8.093   1.620 -0.2475  0.0123 -0.3406
35119SOL     OW11192   7.694  10.432   1.139 -0.1759  0.1758  0.2926
35119SOL    HW111193   7.642  10.483   1.077 -0.3107 -0.2585  0.0434
35119SOL    HW211194   7.734  10.498   1.196  0.1890  0.6057 -0.4346
35120SOL     OW11195   0.299   3.497   4.698 -0.0929  0.4780 -0.5551
35120SOL    HW111196   0.246   3.454   4.765  0.5407  1.7731  0.8622
35120SOL    HW211197   0.241   3.507   4.623 -1.2794  0.2361  0.3091
35121SOL     OW11198   2.957   1.851   6.491  0.2335  0.1630 -0.3340
35121SOL    HW111199   3.028   1.913   6.507 -0.9989  1.4728  0.3485
35121SOL    HW211200   2.992   1.790   6.427  2.0753  0.5559  0.2488
35122SOL     OW11201   4.842   8.727   8.917 -0.0850  0.2401  0.0962
35122SOL    HW111202   4.801   8.667   8.854 -0.3141  0.1836  0.2987
35122SOL    HW211203   4.820   8.814   8.885 -0.2903  0.2104  0.1545
35123SOL     OW11204   2.726   2.095   3.106 -0.5900 -0.6360 -0.4491
35123SOL    HW111205   2.685   2.175   3.139 -0.8471 -1.1439  0.5102
35123SOL    HW211206   2.820   2.110   3.117 -0.5150  0.2740 -2.0496
35124SOL     OW11207   4.141   4.420   9.216 -0.4495  0.4309  0.0176
35124SOL    HW111208   4.211   4.355   9.225 -1.3092 -0.2875  2.3740
35124SOL    HW211209   4.164   4.489   9.278 -1.6008  0.3882  0.5187
35125SOL     OW11210   8.194   9.690   1.212 -0.4132 -0.1058 -0.2039
35125SOL    HW111211   8.146   9.762   1.172  1.5851 -0.8259 -4.3817
35125SOL    HW211212   8.127   9.623   1.230 -1.7182  1.1686 -0.1456
35126SOL     OW11213   7.961   7.108   8.157 -0.0950 -0.1403 -0.1863
35126SOL    HW111214   7.991   7.103   8.248  0.6125 -0.6420 -0.4353
35126SOL    HW211215   8.041   7.108   8.105 -0.4619  1.1475 -0.7852
35127SOL     OW11216   1.030   7.522   0.443  0.0219 -0.0986  0.6921
35127SOL    HW111217   1.079   7.603   0.431 -0.4460  0.3470  1.6722
35127SOL    HW211218   1.064   7.463   0.375 -0.0523  1.1015 -0.4205
35128SOL     OW11219   9.992   3.847   7.254 -0.2157 -0.2424 -0.1069
35128SOL    HW111220  10.023   3.925   7.208 -0.5797  0.0500  0.1299
35128SOL    HW211221   9.900   3.866   7.272  0.2560  0.2742  2.0013
35129SOL     OW11222   6.449   1.203   9.035  0.7585 -0.4956 -0.5928
35129SOL    HW111223   6.423   1.157   9.115  0.0957  2.7052  1.2432
35129SOL    HW211224   6.367   1.239   9.001  1.5006  1.9510 -0.0287
35130SOL     OW11225   0.786   7.924   3.533 -0.7459 -0.0351  0.5863
35130SOL    HW111226   0.755   8.006   3.570 -1.9424 -0.8118  1.3921
35130SOL    HW211227   0.828   7.948   3.451 -2.7786  1.1995 -0.1703
35131SOL     OW11228   8.194   2.696   3.039 -0.3497 -0.6549 -0.3812
35131SOL    HW111229   8.184   2.602   3.020  2.7132 -1.0869 -0.4839
35131SOL    HW211230   8.184   2.739   2.954  0.2390 -1.1286 -0.6970
35132SOL     OW11231   0.249   4.945   5.097  0.4292 -0.5962  0.0425
35132SOL    HW111232   0.161   4.908   5.092 -0.4389  0.8113  2.9306
35132SOL    HW211233   0.301   4.876   5.139  0.9428 -1.6481 -2.1628
35133SOL     OW11234   3.405   4.047   2.102 -0.0902  0.5684 -0.3603
35133SOL    HW111235   3.371   3.959   2.116  0.6695  0.0185 -1.8154
35133SOL    HW211236   3.407   4.086   2.190  1.1508 -1.4467  0.5762
35134SOL     OW11237   6.494   8.655   1.858 -0.0476  0.0814  0.0469
35134SOL    HW111238   6.469   8.747   1.872 -1.4970 -0.4662  1.3503
35134SOL    HW211239   6.523   8.652   1.766  0.0324  1.8202 -0.0297
35135SOL     OW11240   8.484   9.256   6.698 -0.5844  0.3217  0.0120
35135SOL    HW111241   8.411   9.263   6.759 -0.6960 -1.5335  0.1473
35135SOL    HW211242   8.444   9.224   6.616 -0.2103  1.2717 -0.5572
35136SOL     OW11243   5.209   8.673   8.959  0.1650  0.2641 -0.5008
35136SOL    HW111244   5.151   8.746   8.937 -1.3848 -0.4706  0.9287
35136SOL    HW211245   5.162   8.624   9.026  1.3355 -1.8555 -1.1443
35137SOL     OW11246   9.526  10.540   6.515  0.0204 -0.9607 -0.3658
35137SOL    HW111247   9.549  10.470   6.577  0.1331 -1.1027 -0.5679
35137SOL    HW211248   9.509  10.616   6.571  1.8587 -0.5945 -0.2283
35138SOL     OW11249   7.198   8.042   4.789 -0.3244  0.3938 -0.5059
35138SOL    HW111250   7.256   7.991   4.846  0.2256  1.2697 -0.2585
35138SOL    HW211251   7.112   8.035   4.830 -0.2649 -0.3778 -0.5100
35139SOL     OW11252   3.558   7.493  10.642  0.2820  0.1036 -0.2231
35139SOL    HW111253   3.506   7.413  10.650  0.7909 -0.2880 -0.7408
35139SOL    HW211254   3.526   7.550  10.712  0.4681 -0.8561  0.6645
35140SOL     OW11255   7.324   4.185   9.124 -0.0997 -0.3439  0.2796
35140SOL    HW111256   7.405   4.137   9.136  1.2007  1.5052 -0.5051
35140SOL    HW211257   7.324   4.252   9.193 -0.0047  0.8182 -0.7928
35141SOL     OW11258   7.565   8.238   8.170  0.0867 -0.3978 -0.0947
35141SOL    HW111259   7.657   8.265   8.169  0.3006 -1.0748 -1.7846
35141SOL    HW211260   7.558   8.182   8.247  1.1273 -0.4828 -0.0450
35142SOL     OW11261   6.706   4.363   9.130 -0.1821  0.2579 -0.4350
35142SOL    HW111262   6.624   4.406   9.154 -0.0421  0.1339  0.2973
35142SOL    HW211263   6.768   4.393   9.197  0.1637 -0.3020 -0.5032
35143SOL     OW11264   3.020   9.733   7.718  0.2120  0.2524 -0.3786
35143SOL    HW111265   3.060   9.726   7.804  0.4896 -0.5465 -0.5595
35143SOL    HW211266   2.948   9.794   7.729 -0.0269 -0.1777  0.5249
35144SOL     OW11267   8.489   1.044   5.965 -0.0896  0.3215 -0.0309
35144SOL    HW111268   8.561   1.044   6.029 -0.1358 -2.5229  0.1423
35144SOL    HW211269   8.422   0.989   6.005 -1.1985  0.6195 -1.4309
35145SOL     OW11270   9.647   4.806  10.628  0.4516 -0.1699 -0.2118
35145SOL    HW111271   9.593   4.874  10.668  1.1105  1.1887 -1.5559
35145SOL    HW211272   9.620   4.726  10.673  0.7460  1.1386  2.5371
35146SOL     OW11273   5.546   8.374   8.411 -0.7175  0.3835  0.4370
35146SOL    HW111274   5.517   8.386   8.502  0.4506  2.4791  0.5809
35146SOL    HW211275   5.512   8.450   8.365 -0.2633 -0.0465 -0.6349
35147SOL     OW11276   6.750   1.429   0.398  0.1809  0.0181 -0.4415
35147SOL    HW111277   6.828   1.425   0.453  0.6922  2.7834 -0.8230
35147SOL    HW211278   6.784   1.431   0.309 -0.1686  2.3043 -0.5858
35148SOL     OW11279   7.048   1.726   4.245  0.1595 -0.2743 -0.0177
35148SOL    HW111280   7.035   1.797   4.182  0.0101 -0.3503 -0.0739
35148SOL    HW211281   7.043   1.768   4.330 -1.6113 -0.4594  0.0049
35149SOL     OW11282   7.588   7.697   3.522 -0.0782  0.1615  0.3174
35149SOL    HW111283   7.632   7.650   3.451  1.3913  3.0947 -0.8792
35149SOL    HW211284   7.495   7.675   3.511  0.2267 -0.2647 -1.9379
35150SOL     OW11285   6.015   0.680   9.068  0.0075 -0.0654  0.0762
35150SOL    HW111286   6.067   0.694   9.147  0.8470 -2.2168 -0.0189
35150SOL    HW211287   5.924   0.684   9.098  0.2752  0.7536  0.8202
35151SOL     OW11288   9.862   8.711   3.666 -0.1133  0.1551 -0.0684
35151SOL    HW111289   9.806   8.634   3.677 -0.5159  0.3195 -0.8544
35151SOL    HW211290   9.826   8.775   3.728  0.4347 -0.3828  0.8346
35152SOL     OW11291   9.209   3.706  10.229  0.0040  0.0841 -0.0856
35152SOL    HW111292   9.219   3.778  10.290  1.4589  0.2627 -0.4913
35152SOL    HW211293   9.185   3.747  10.146 -0.5739 -0.0306  0.0226
35153SOL     OW11294   7.125   9.532   3.097  0.8436  0.1086 -0.4813
35153SOL    HW111295   7.046   9.529   3.151  1.1434 -0.9132 -0.0909
35153SOL    HW211296   7.197   9.519   3.158  1.2887  0.5160 -0.9095
35154SOL     OW11297   3.443   9.536   1.157 -0.4282  0.0806  0.8079
35154SOL    HW111298   3.406   9.453   1.185 -1.1999 -1.2494 -3.4214
35154SOL    HW211299   3.407   9.550   1.069  2.9742  2.7312 -0.4076
35155SOL     OW11300   3.781   8.623   7.584  0.3292 -0.3135  0.5709
35155SOL    HW111301   3.755   8.543   7.538 -0.1516 -1.6258  2.9604
35155SOL    HW211302   3.702   8.677   7.585  0.2001 -0.4955  0.2812
35156SOL     OW11303  10.122   0.382   4.197  0.3197  0.3392 -0.8080
35156SOL    HW111304  10.059   0.378   4.269  0.2508  1.4115 -0.7923
35156SOL    HW211305  10.200   0.420   4.235  0.3958  0.6087 -1.2284
35157SOL     OW11306   0.922   1.847   5.745 -0.1438  0.0334  0.0972
35157SOL    HW111307   0.927   1.798   5.663 -0.1940 -0.2309  0.2511
35157SOL    HW211308   1.008   1.836   5.786  0.1173  0.7361 -0.2403
35158SOL     OW11309   0.088  10.486   9.172  0.0452  0.4652 -0.3902
35158SOL    HW111310   0.120  10.484   9.262  3.1126  1.3326 -1.3128
35158SOL    HW211311   0.105  10.397   9.139  1.4362  0.8519 -0.7999
35159SOL     OW11312   4.755   3.890   9.085 -0.2760  0.0691 -0.6040
35159SOL    HW111313   4.778   3.806   9.048 -1.9875 -0.6679 -0.1039
35159SOL    HW211314   4.672   3.874   9.131 -0.2557  1.8430  0.1327
35160SOL     OW11315   6.607   9.915   1.401 -0.1812  0.3077 -0.2237
35160SOL    HW111316   6.545   9.988   1.409 -0.1670  0.3929 -0.8566
35160SOL    HW211317   6.585   9.873   1.319  0.3254  0.0781 -0.2491
35161SOL     OW11318   0.203   7.933   0.775 -0.0356 -0.3240 -0.0447
35161SOL    HW111319   0.236   7.950   0.863 -2.1075 -1.5513  1.0329
35161SOL    HW211320   0.206   7.838   0.765 -0.2964 -0.2393 -1.1203
35162SOL     OW11321   8.667   7.720   0.851  0.2482  0.0149 -0.5685
35162SOL    HW111322   8.700   7.792   0.906  0.5263  1.0422 -2.0064
35162SOL    HW211323   8.738   7.656   0.851  0.4313  0.2079 -0.1167
35163SOL     OW11324   7.057   5.487   8.156 -0.5169 -0.4039 -0.2501
35163SOL    HW111325   7.150   5.464   8.150 -0.5048 -0.4809  0.2135
35163SOL    HW211326   7.017   5.444   8.080 -0.1121 -0.0570 -0.6649
35164SOL     OW11327   7.598   2.703   2.854 -0.5159 -0.5057 -0.0445
35164SOL    HW111328   7.552   2.779   2.820  0.8058  0.0856 -0.5682
35164SOL    HW211329   7.647   2.736   2.930 -0.9991 -1.1393  0.5560
35165SOL     OW11330   9.441   7.165   0.734 -0.3933 -0.0003  0.1586
35165SOL    HW111331   9.460   7.172   0.641 -1.0299 -0.1306  0.0145
35165SOL    HW211332   9.522   7.193   0.777 -0.1060  0.0896 -0.4282
35166SOL     OW11333   0.132   1.489   0.497  0.3095  0.7301  0.3338
35166SOL    HW111334   0.136   1.503   0.592  1.6917  1.1230  0.2411
35166SOL    HW211335   0.222   1.503   0.467  0.5579 -2.2203 -0.6585
35167SOL     OW11336   6.739   2.147   4.796  0.0613 -0.0400 -0.7628
35167SOL    HW111337   6.656   2.182   4.764 -0.6078 -0.0553  0.8371
35167SOL    HW211338   6.734   2.158   4.891  1.4683 -0.9649 -0.5540
35168SOL     OW11339  10.006   0.188   8.909 -0.4315  0.3119 -0.4916
35168SOL    HW111340  10.037   0.158   8.994 -0.7050  0.6777 -0.2597
35168SOL    HW211341  10.054   0.269   8.893 -0.1039  0.0500 -0.8619
35169SOL     OW11342   9.960   7.094   3.986 -0.3303 -0.3044  0.3201
35169SOL    HW111343  10.048   7.122   4.010 -0.5738 -1.7267  3.4350
35169SOL    HW211344   9.932   7.156   3.919  1.4412  2.8657  2.2612
35170SOL     OW11345   3.049   9.694   1.138 -0.2957 -0.0060 -0.0606
35170SOL    HW111346   2.976   9.675   1.080 -1.3407  0.5903  1.0010
35170SOL    HW211347   3.066   9.611   1.184 -0.0410 -0.2487 -0.5909
35171SOL     OW11348   3.235   1.969   5.187 -0.0747  0.4464  0.4445
35171SOL    HW111349   3.140   1.979   5.176  0.0994  0.7952 -0.9138
35171SOL    HW211350   3.272   2.053   5.160  0.5418  1.0088  2.8061
35172SOL     OW11351   4.057   0.389   7.952 -0.4942 -0.1486  0.1983
35172SOL    HW111352   4.025   0.369   8.040 -1.1303  3.1324  0.8491
35172SOL    HW211353   4.152   0.395   7.961 -0.4629 -0.8424  0.3947
35173SOL     OW11354   9.860   0.476   2.850  0.5761  0.3977 -0.0069
35173SOL    HW111355   9.933   0.415   2.856  0.4157  0.2565  0.5474
35173SOL    HW211356   9.901   0.563   2.856  0.6155  0.3054  1.4349
35174SOL     OW11357   4.361   9.673   6.008 -0.3450 -0.6704  0.9234
35174SOL    HW111358   4.281   9.638   6.046 -0.2978 -0.3845  1.2894
35174SOL    HW211359   4.331   9.742   5.949 -0.4718 -1.6331 -0.1759
35175SOL     OW11360   8.355  10.344   2.193  0.0596 -0.5918  0.0686
35175SOL    HW111361   8.347  10.319   2.285  0.1606  1.2917  0.6174
35175SOL    HW211362   8.297  10.283   2.147 -1.1851 -0.5852  1.5380
35176SOL     OW11363   5.996   0.696   4.660  0.3661 -0.3379  0.2277
35176SOL    HW111364   5.927   0.631   4.649  0.9078 -1.1841  1.5366
35176SOL    HW211365   5.996   0.715   4.754  0.6736  1.0693 -0.0349
35177SOL     OW11366   2.978   5.817   9.365 -0.3267  0.1931 -0.3170
35177SOL    HW111367   2.956   5.731   9.400 -1.8983  0.5010 -0.4670
35177SOL    HW211368   3.055   5.844   9.415  0.3698 -1.3936 -0.4622
35178SOL     OW11369   9.386   3.028   3.567 -0.1914 -0.5250  0.5405
35178SOL    HW111370   9.314   2.980   3.608 -0.8385  0.6227  0.7707
35178SOL    HW211371   9.460   3.016   3.626 -0.0945 -1.9586  0.1587
35179SOL     OW11372   5.744   1.670   5.916 -0.1963  0.1673  0.0226
35179SOL    HW111373   5.799   1.725   5.861  0.5161  0.8086  1.3161
35179SOL    HW211374   5.690   1.732   5.966  2.1463 -0.0146  3.1349
35180SOL     OW11375   9.423   2.601   9.101  0.0352 -0.1820 -0.7261
35180SOL    HW111376   9.412   2.682   9.151 -1.0450  1.4691 -3.4127
35180SOL    HW211377   9.420   2.531   9.167  2.2034  1.9217  1.8842
35181SOL     OW11378   7.794   1.197   4.194 -0.1834 -0.0107 -0.2305
35181SOL    HW111379   7.706   1.159   4.202 -0.2331 -0.2855 -1.8222
35181SOL    HW211380   7.853   1.127   4.220 -0.3987  0.1191  0.6772
35182SOL     OW11381   6.681   6.272   3.010  0.0148 -0.3980 -0.0302
35182SOL    HW111382   6.680   6.204   2.942  3.0483 -1.9430  1.3218
35182SOL    HW211383   6.634   6.233   3.083 -1.1197  0.3239 -0.3424
35183SOL     OW11384   3.333   4.042   6.796 -0.4452  0.4320  0.2054
35183SOL    HW111385   3.369   3.983   6.729 -0.6622 -0.6285  1.0051
35183SOL    HW211386   3.402   4.048   6.862 -1.3242 -0.8425  1.2783
35184SOL     OW11387   3.992   5.404   4.915 -0.4247 -0.6543 -0.4343
35184SOL    HW111388   3.923   5.338   4.917 -1.5259  0.4660  1.2788
35184SOL    HW211389   4.033   5.398   5.001  0.5122 -0.1567 -0.8294
35185SOL     OW11390  10.721   5.659   9.489 -0.3146  0.6646 -0.5460
35185SOL    HW111391  10.792   5.717   9.518  0.3267  1.0197 -2.5934
35185SOL    HW211392  10.642   5.713   9.495  0.2279  1.7334 -2.1088
35186SOL     OW11393   8.840   6.036   0.501 -0.0513  0.7863 -0.1141
35186SOL    HW111394   8.836   6.070   0.412  0.8475 -0.2986 -0.5885
35186SOL    HW211395   8.907   5.967   0.498  0.9121  1.5617  1.6719
35187SOL     OW11396   7.516   7.930   0.169 -0.4539  0.3250  0.2411
35187SOL    HW111397   7.508   7.836   0.188  0.2284  0.3315  0.5976
35187SOL    HW211398   7.460   7.944   0.094 -0.1885 -0.4693 -0.1169
35188SOL     OW11399   7.081   8.751   4.999  0.0573 -0.1504  0.5891
35188SOL    HW111400   7.046   8.758   4.910 -1.1296 -0.0142  1.0475
35188SOL    HW211401   7.167   8.792   4.994  0.7196 -1.6066 -0.8625
35189SOL     OW11402   0.592  10.706   2.507  0.7826  0.3963 -0.2607
35189SOL    HW111403   0.563  10.615   2.503  0.0750  0.5184  1.2362
35189SOL    HW211404   0.673  10.708   2.457  0.9121 -1.1086 -0.1561
35190SOL     OW11405   4.833   4.718   3.232  0.5744 -0.4212  0.7429
35190SOL    HW111406   4.749   4.677   3.253 -0.0012  0.5450  0.3480
35190SOL    HW211407   4.837   4.795   3.288  0.4498  0.4361 -0.3906
35191SOL     OW11408   3.372   5.975   2.315 -0.2932  0.3643  0.3586
35191SOL    HW111409   3.440   6.016   2.367 -0.9790  0.5237  1.1518
35191SOL    HW211410   3.395   5.882   2.313  0.8623  0.6531 -0.8271
35192SOL     OW11411   8.636   8.385   3.085 -0.0684 -0.0919 -0.2711
35192SOL    HW111412   8.655   8.412   2.995  0.6690 -4.5450 -1.7257
35192SOL    HW211413   8.716   8.402   3.134 -0.2634  1.7966 -0.5651
35193SOL     OW11414   4.036   6.272   4.069 -0.3494  0.1121  0.0349
35193SOL    HW111415   4.030   6.241   3.979 -0.7666 -1.8641  0.6942
35193SOL    HW211416   4.113   6.329   4.070  0.7592 -1.2850 -1.1945
35194SOL     OW11417   7.496   8.322   7.476 -0.3636 -0.3151 -0.0967
35194SOL    HW111418   7.499   8.408   7.517 -0.6811 -0.0622 -0.5965
35194SOL    HW211419   7.581   8.313   7.433 -0.3433 -0.2409 -0.0730
35195SOL     OW11420   1.605   9.872   9.971  0.2201  0.3260  0.3116
35195SOL    HW111421   1.657   9.793   9.987  0.7679  0.5878 -0.1274
35195SOL    HW211422   1.537   9.870  10.038 -0.1257 -0.8109 -0.0517
35196SOL     OW11423   2.186  10.429   1.109  0.2231 -0.1339 -0.4254
35196SOL    HW111424   2.276  10.426   1.078  0.2008  1.8758 -0.8093
35196SOL    HW211425   2.174  10.345   1.155  2.6136 -0.0284  0.5550
35197SOL     OW11426   9.052   8.135   0.685 -0.0116 -0.1707 -0.0483
35197SOL    HW111427   8.994   8.204   0.717  0.7044  0.8346 -0.8560
35197SOL    HW211428   9.012   8.105   0.604  0.9045  1.0344 -1.0026
35198SOL     OW11429   9.199   8.478   0.773 -0.2483 -0.0680  0.1110
35198SOL    HW111430   9.144   8.454   0.699  0.7987 -1.4336 -0.2591
35198SOL    HW211431   9.246   8.398   0.795  0.1436  0.5603  1.6706
35199SOL     OW11432   1.365   9.411   8.673  0.1352 -0.2995 -0.6725
35199SOL    HW111433   1.290   9.393   8.729  0.6975  0.7651  0.4873
35199SOL    HW211434   1.333   9.395   8.584 -1.8836  1.3599 -0.3306
35200SOL     OW11435   3.632   0.447   9.661 -0.1354  0.1890  0.4961
35200SOL    HW111436   3.645   0.380   9.595 -0.0232  1.2003 -0.5300
35200SOL    HW211437   3.705   0.436   9.722 -0.9634 -1.6022  1.2267
35201SOL     OW11438   7.074   2.650   8.870 -0.4008 -0.3810  0.1673
35201SOL    HW111439   7.080   2.745   8.865  0.6255 -0.3937  0.7527
35201SOL    HW211440   7.093   2.620   8.781  0.1675 -0.0609  0.1752
35202SOL     OW11441   3.105   5.765   5.828 -0.4370  0.1074 -0.0871
35202SOL    HW111442   3.168   5.694   5.816 -0.4665 -0.2843  1.7421
35202SOL    HW211443   3.147   5.824   5.891 -1.1368  0.8113 -0.2581
35203SOL     OW11444   3.661  10.121   4.789 -0.3140  0.4761  0.0128
35203SOL    HW111445   3.602  10.151   4.720 -0.0371  0.0498 -0.4191
35203SOL    HW211446   3.722  10.193   4.803 -0.5460  0.6716  0.0114
35204SOL     OW11447   7.261   7.884   2.525  0.3869  0.8224  0.0622
35204SOL    HW111448   7.171   7.856   2.508  0.3089  0.9923  0.1978
35204SOL    HW211449   7.266   7.893   2.620  1.2135 -1.4875  0.3033
35205SOL     OW11450   7.136   7.779   2.126  0.5435 -0.5090 -0.0449
35205SOL    HW111451   7.147   7.864   2.168  1.4476 -0.3241 -0.6312
35205SOL    HW211452   7.206   7.725   2.162  0.4133 -0.7874 -0.2046
35206SOL     OW11453  10.498   7.928   2.165 -0.3960  0.0899  0.3364
35206SOL    HW111454  10.563   7.971   2.109 -1.1372  1.5935  0.5813
35206SOL    HW211455  10.531   7.941   2.254 -0.3900 -0.2788  0.3915
35207SOL     OW11456   7.795   1.103   9.277  0.0059 -0.0514  0.1412
35207SOL    HW111457   7.794   1.163   9.351 -2.7520 -0.7078  0.7477
35207SOL    HW211458   7.803   1.016   9.316  0.9883 -0.2904 -0.5365
35208SOL     OW11459   3.588   3.739   7.593 -0.1828  0.1439  0.5086
35208SOL    HW111460   3.541   3.822   7.604  1.7121  1.1704  1.3856
35208SOL    HW211461   3.660   3.761   7.534 -0.1695 -1.1203  0.0314
35209SOL     OW11462   7.409   7.563   4.574  0.2307 -0.0415 -0.0796
35209SOL    HW111463   7.486   7.518   4.539 -0.1841 -0.3997 -0.5509
35209SOL    HW211464   7.438   7.653   4.590  0.6324 -0.0687 -0.6441
35210SOL     OW11465   0.063   3.612   5.494 -0.3176 -0.0639  0.1314
35210SOL    HW111466   0.152   3.585   5.515  0.5125  1.1039 -1.5959
35210SOL    HW211467   0.007   3.553   5.544  1.3956 -2.1472 -0.2768
35211SOL     OW11468   7.287   2.274   9.004 -0.1405 -0.7706 -0.0313
35211SOL    HW111469   7.315   2.354   8.960 -0.2650 -2.0371 -2.5546
35211SOL    HW211470   7.369   2.230   9.028 -0.0088 -1.1592 -1.1334
35212SOL     OW11471   9.260   5.631  10.397 -0.0130  0.5873 -0.1129
35212SOL    HW111472   9.207   5.694  10.349 -1.2304  1.7854  2.5774
35212SOL    HW211473   9.199   5.562  10.423  0.2906  0.6355  0.7829
35213SOL     OW11474   1.163   4.521   0.152 -0.1697  0.0684  0.4578
35213SOL    HW111475   1.076   4.504   0.189 -0.2281 -0.2506  0.1796
35213SOL    HW211476   1.146   4.542   0.060  0.1601 -1.3871  0.0427
35214SOL     OW11477   9.894   3.994  10.216 -0.0243 -0.2126 -0.0988
35214SOL    HW111478   9.978   3.999  10.170 -0.4919  1.1559 -0.8634
35214SOL    HW211479   9.847   3.923  10.172  0.2405 -0.1136 -0.5454
35215SOL     OW11480   7.719   4.456   7.832  0.0920 -0.0747 -1.1297
35215SOL    HW111481   7.795   4.410   7.868 -0.5141 -0.1133  0.1487
35215SOL    HW211482   7.743   4.549   7.836  0.0048 -0.0732 -0.5439
35216SOL     OW11483   4.661   5.310   6.158 -0.6163  0.2479 -0.0259
35216SOL    HW111484   4.663   5.228   6.207 -0.0218 -0.7016 -1.5607
35216SOL    HW211485   4.734   5.303   6.096 -0.2391  2.1565  0.1237
35217SOL     OW11486   6.055   1.236   3.217 -0.1891 -0.4218  0.4863
35217SOL    HW111487   5.992   1.245   3.288 -0.8113  0.2256 -0.1262
35217SOL    HW211488   6.136   1.210   3.260  0.3658  3.0992  1.8750
35218SOL     OW11489   9.227   8.850   7.551 -0.0443  0.0460 -0.5107
35218SOL    HW111490   9.188   8.898   7.478 -1.3822  0.0494  0.1799
35218SOL    HW211491   9.318   8.836   7.525  0.1056  2.0285 -1.1994
35219SOL     OW11492  10.446   9.729   6.988  0.4011  0.0327  0.3960
35219SOL    HW111493  10.372   9.677   6.957  0.7934 -1.1526  1.3305
35219SOL    HW211494  10.452   9.802   6.927 -2.1410  0.7192  0.8880
35220SOL     OW11495   3.504   1.546   9.724  0.5885 -0.1313 -0.0642
35220SOL    HW111496   3.494   1.487   9.798 -0.5138  1.8749  1.5124
35220SOL    HW211497   3.598   1.549   9.707  0.8863 -0.4680  1.4285
35221SOL     OW11498   3.022   9.833   4.639 -0.3193 -0.6481  0.2948
35221SOL    HW111499   3.074   9.861   4.563 -0.0106 -0.8586  0.4234
35221SOL    HW211500   3.038   9.899   4.706 -0.7735 -0.3397  0.1015
35222SOL     OW11501   5.041   0.636   4.727  0.2916 -0.0234  0.1820
35222SOL    HW111502   4.990   0.713   4.752 -1.4843 -1.1915  0.3897
35222SOL    HW211503   5.056   0.588   4.809  1.1367 -0.0519  0.0215
35223SOL     OW11504  10.067   0.270   2.842  0.4277  0.8906 -0.1000
35223SOL    HW111505  10.012   0.209   2.793 -0.5694  2.1159 -0.5739
35223SOL    HW211506  10.152   0.227   2.847 -0.0338 -0.2006 -1.0637
35224SOL     OW11507  10.166   5.628   4.374  0.2409  0.0625  0.1868
35224SOL    HW111508  10.126   5.543   4.396  0.0912 -0.2719 -1.2237
35224SOL    HW211509  10.260   5.610   4.373  0.1623 -0.9311 -2.8691
35225SOL     OW11510   9.425   9.364   5.420 -0.1414  0.0272 -0.3475
35225SOL    HW111511   9.416   9.454   5.451  1.4174  0.2125 -0.3380
35225SOL    HW211512   9.342   9.344   5.378 -0.4576  1.5205 -0.4677
35226SOL     OW11513  10.434   1.452  10.554  0.1666  0.3159  0.3925
35226SOL    HW111514  10.354   1.401  10.545  0.4157  0.2373 -1.7632
35226SOL    HW211515  10.501   1.388  10.576 -0.1591  0.2565  1.2688
35227SOL     OW11516   4.232   0.866   8.794  0.2580 -0.2580 -0.4177
35227SOL    HW111517   4.197   0.799   8.852 -1.2581  1.0697  0.2698
35227SOL    HW211518   4.281   0.817   8.727 -0.0894 -1.9627  0.5340
35228SOL     OW11519   5.539   4.860   2.452  0.0341  0.8475  0.4256
35228SOL    HW111520   5.620   4.836   2.407 -0.6353  1.0906 -0.9683
35228SOL    HW211521   5.549   4.953   2.472 -0.3726  1.1868 -0.8512
35229SOL     OW11522   3.628   4.825   3.584  0.3007 -0.1375  0.0351
35229SOL    HW111523   3.631   4.835   3.680 -0.1160  1.1593 -0.0664
35229SOL    HW211524   3.534   4.825   3.563  0.3735  2.3519 -0.5916
35230SOL     OW11525   2.379   1.081   8.091  0.0075 -0.3781 -0.1628
35230SOL    HW111526   2.380   1.017   8.163 -0.3171  0.1985  0.3671
35230SOL    HW211527   2.286   1.090   8.069  0.1332 -0.8116 -0.9000
35231SOL     OW11528   7.090   9.696   3.993 -0.6498  0.3000  0.6463
35231SOL    HW111529   7.026   9.688   3.923 -0.3137 -0.1423  0.3858
35231SOL    HW211530   7.171   9.724   3.949 -0.1364 -1.0508  0.6921
35232SOL     OW11531   5.577   9.759   6.402 -0.1830 -0.0013 -0.2198
35232SOL    HW111532   5.545   9.808   6.326 -1.3640  1.0407  0.9049
35232SOL    HW211533   5.502   9.754   6.461  1.7570  3.4740  3.0540
35233SOL     OW11534   2.849   9.155   1.068  0.0052 -0.3282 -0.7330
35233SOL    HW111535   2.945   9.155   1.069  0.0393 -1.5160  1.4729
35233SOL    HW211536   2.825   9.067   1.099 -1.7483  1.0496  2.1690
35234SOL     OW11537   9.694   0.558   4.793 -0.3763 -0.0618  0.0989
35234SOL    HW111538   9.603   0.531   4.810 -0.8584  2.1280  1.4028
35234SOL    HW211539   9.745   0.514   4.861 -0.7529  0.1972  0.5544
35235SOL     OW11540   9.759   2.020   0.089 -0.0790 -0.4381  0.1923
35235SOL    HW111541   9.671   2.056   0.103 -0.7296 -1.4770 -0.9728
35235SOL    HW211542   9.818   2.088   0.121 -1.2917  0.6586  0.1991
35236SOL     OW11543  10.466   7.032   2.046 -0.3736  0.1707 -0.3050
35236SOL    HW111544  10.467   7.012   1.953 -2.2864 -0.7565 -0.1923
35236SOL    HW211545  10.489   7.124   2.052 -0.7719  0.3815 -1.7454
35237SOL     OW11546   9.023   8.952   5.857  0.0539  0.3802  0.2581
35237SOL    HW111547   9.102   8.989   5.816 -0.3846 -0.6526 -1.6071
35237SOL    HW211548   9.055   8.874   5.903  0.1139 -0.0988 -0.5869
35238SOL     OW11549   3.780   0.409   7.177  0.1764 -0.0717 -0.0104
35238SOL    HW111550   3.752   0.319   7.158 -0.1561 -0.1046  0.6356
35238SOL    HW211551   3.708   0.448   7.225  0.7439  0.2203  0.6214
35239SOL     OW11552   8.282   0.425   2.692  0.4782 -0.3895 -0.7012
35239SOL    HW111553   8.256   0.414   2.600 -0.8641  0.8121 -0.5094
35239SOL    HW211554   8.220   0.489   2.726  0.5658 -1.2615  1.2160
35240SOL     OW11555   1.318   6.825   1.451 -0.3400 -0.8090 -0.3008
35240SOL    HW111556   1.369   6.744   1.442  0.5743 -0.3329  0.4631
35240SOL    HW211557   1.374   6.883   1.503 -0.5664  0.6755 -1.6482
35241SOL     OW11558   6.859   5.634   9.277 -0.6307  0.6306  0.5409
35241SOL    HW111559   6.895   5.608   9.361  0.7572 -0.3262 -0.3057
35241SOL    HW211560   6.921   5.599   9.212 -2.8448 -0.7393 -0.9815
35242SOL     OW11561   7.204   6.250   1.759  0.0386 -0.7613  0.2581
35242SOL    HW111562   7.225   6.208   1.842 -0.0522 -0.8597  0.2313
35242SOL    HW211563   7.124   6.300   1.777  2.1689  2.5920  1.3872
35243SOL     OW11564   7.660   5.420   0.822 -0.0443 -0.3085 -0.4510
35243SOL    HW111565   7.564   5.421   0.821 -0.0591 -0.3453  0.2778
35243SOL    HW211566   7.684   5.351   0.760 -0.5269 -1.2873  0.4235
35244SOL     OW11567   9.898   7.308   9.171 -0.3169 -0.0794  0.4334
35244SOL    HW111568   9.941   7.223   9.180  0.6883  0.3378 -0.2584
35244SOL    HW211569   9.840   7.298   9.096  0.4405  0.0787 -0.1917
35245SOL     OW11570   5.066   9.246   3.197  0.0698  0.4126  0.0435
35245SOL    HW111571   5.020   9.199   3.127  0.1734  1.7998 -0.9937
35245SOL    HW211572   5.019   9.222   3.277 -0.6998 -0.3793 -0.6230
35246SOL     OW11573   1.374   5.506   4.939  0.0178  0.3073  0.1080
35246SOL    HW111574   1.311   5.552   4.995 -0.2930  1.1086 -0.8812
35246SOL    HW211575   1.348   5.414   4.946 -1.6011  0.6591 -0.6427
35247SOL     OW11576  10.618  10.356   2.808 -0.5355  0.1441 -0.1938
35247SOL    HW111577  10.678  10.330   2.878 -0.5955  0.7524  0.0881
35247SOL    HW211578  10.630  10.450   2.800 -2.0532  0.4245  0.4360
35248SOL     OW11579   0.607   7.601   9.286  0.2367 -0.2021  0.2641
35248SOL    HW111580   0.576   7.540   9.353  0.9508 -0.1565  0.6458
35248SOL    HW211581   0.540   7.669   9.282 -1.0833 -1.5051 -0.8688
35249SOL     OW11582   0.817   4.113   1.137 -0.4374 -0.6315  0.4571
35249SOL    HW111583   0.899   4.156   1.159  0.0786 -0.3344 -1.7937
35249SOL    HW211584   0.824   4.094   1.043 -1.5193 -3.7517  0.8888
35250SOL     OW11585   7.882   2.401  10.580  0.0463 -0.1109 -0.3363
35250SOL    HW111586   7.947   2.470  10.573 -0.3707  0.2779 -0.3691
35250SOL    HW211587   7.934   2.321  10.595  0.4698  0.4941  1.8141
35251SOL     OW11588   6.538   1.603   5.678  0.2126 -0.4343 -0.0485
35251SOL    HW111589   6.507   1.602   5.769 -0.2058  0.7993 -0.1650
35251SOL    HW211590   6.544   1.510   5.654  0.1994 -0.7741  1.1893
35252SOL     OW11591   9.301   5.846   7.461  0.2151  0.3970 -0.1895
35252SOL    HW111592   9.278   5.791   7.387 -0.8355  0.5803 -0.0211
35252SOL    HW211593   9.260   5.931   7.441 -1.4139  0.0186  1.2729
35253SOL     OW11594   8.717   9.337   3.996 -0.4748  0.1156 -0.0170
35253SOL    HW111595   8.668   9.283   4.058 -1.5782  1.0477 -0.0611
35253SOL    HW211596   8.797   9.286   3.978 -1.4205 -1.4455  0.0248
35254SOL     OW11597   6.066   4.838   5.136 -0.4237  0.3858 -0.0273
35254SOL    HW111598   6.106   4.864   5.219  0.6984 -0.6736 -0.2016
35254SOL    HW211599   5.981   4.881   5.135 -0.7119 -0.0749  1.9414
35255SOL     OW11600   3.237   8.788   4.367 -0.4100  0.1424  1.5227
35255SOL    HW111601   3.246   8.696   4.391 -1.3612 -0.2291  0.5611
35255SOL    HW211602   3.315   8.807   4.314  0.5371  0.3338  2.9355
35256SOL     OW11603   5.221  10.077   6.271  0.0891 -0.6016  0.4948
35256SOL    HW111604   5.141  10.048   6.314 -0.4281 -0.2632 -0.2062
35256SOL    HW211605   5.193  10.151   6.216  0.6187 -1.2778 -0.7382
35257SOL     OW11606   7.370   4.793   5.859  0.2144  0.1977 -0.2472
35257SOL    HW111607   7.288   4.806   5.812  0.1744  0.9050  0.0079
35257SOL    HW211608   7.353   4.825   5.947  0.5866 -0.2090 -0.0196
35258SOL     OW11609   7.878   5.845   7.943  0.0560 -0.3593 -0.2911
35258SOL    HW111610   7.908   5.917   7.888 -1.0715 -1.2101 -2.1272
35258SOL    HW211611   7.854   5.776   7.881 -1.3479 -1.3524  1.2702
35259SOL     OW11612   1.622  10.477   1.844 -0.2272  0.1271 -0.4267
35259SOL    HW111613   1.550  10.450   1.786 -0.6254  1.8490 -0.7921
35259SOL    HW211614   1.615  10.573   1.847  0.8738  0.1877  1.0846
35260SOL     OW11615   6.360   5.381   3.891  0.2942 -0.1350 -0.0410
35260SOL    HW111616   6.374   5.294   3.927  2.1192 -0.2681 -0.9554
35260SOL    HW211617   6.430   5.434   3.931  1.0060  0.2080 -1.6721
35261SOL     OW11618   7.248   5.108   8.849 -0.4250 -0.4356  0.1504
35261SOL    HW111619   7.270   5.190   8.804 -2.3495  0.1024  0.0627
35261SOL    HW211620   7.319   5.048   8.827  1.7904  1.5761  1.3318
35262SOL     OW11621   2.977   8.602   1.189 -0.0397 -0.6852  0.2216
35262SOL    HW111622   3.056   8.560   1.222  0.8011  1.0324  0.4998
35262SOL    HW211623   2.939   8.646   1.265 -0.5885 -0.4746 -0.1603
35263SOL     OW11624   8.944   1.295   8.769 -0.5333  0.0895  0.6991
35263SOL    HW111625   8.941   1.277   8.675 -2.3999  1.0641  0.5267
35263SOL    HW211626   8.972   1.386   8.776 -0.4869  0.0487  1.0744
35264SOL     OW11627   7.126   6.131   4.567  0.3442  0.2400 -0.1866
35264SOL    HW111628   7.157   6.214   4.530  1.6438 -0.9063 -1.8446
35264SOL    HW211629   7.203   6.094   4.611 -0.1710 -0.1622  0.3881
35265SOL     OW11630  10.291   0.524   6.482 -0.0257  0.1788 -0.0933
35265SOL    HW111631  10.238   0.580   6.539 -0.2805  0.8079 -0.9386
35265SOL    HW211632  10.289   0.438   6.524  0.4579  0.8093  1.2885
35266SOL     OW11633   4.527   2.938   4.089 -0.3987  0.4322 -0.1915
35266SOL    HW111634   4.579   2.993   4.148  0.4798  1.3452 -1.7591
35266SOL    HW211635   4.436   2.959   4.110 -0.0942  1.0104  0.5746
35267SOL     OW11636   5.455  10.035   7.781  0.3494 -0.1071 -0.4032
35267SOL    HW111637   5.440  10.112   7.727  2.4209 -0.0345 -0.9558
35267SOL    HW211638   5.499  10.070   7.860 -2.2182 -0.2632  1.2054
35268SOL     OW11639   4.556   0.715   7.223 -0.4005  0.1131  0.1600
35268SOL    HW111640   4.529   0.780   7.158  0.3449  1.3861  1.0645
35268SOL    HW211641   4.603   0.649   7.172  1.1207  1.6231 -0.5262
35269SOL     OW11642  10.700   7.476   0.952 -0.4026 -0.4485 -0.0129
35269SOL    HW111643  10.607   7.475   0.929 -0.7415 -1.1655  1.2748
35269SOL    HW211644  10.744   7.449   0.872 -1.2706  0.2034 -0.7393
35270SOL     OW11645   0.975   9.053   2.675  0.3415 -0.3666 -0.6914
35270SOL    HW111646   0.910   9.000   2.721  0.1154 -0.2175 -0.8335
35270SOL    HW211647   0.991   9.127   2.734 -0.6916  0.3467 -1.2706
35271SOL     OW11648   2.619   9.413   4.556 -0.0946  0.2633 -0.1810
35271SOL    HW111649   2.661   9.331   4.529 -0.8335 -0.0925 -0.2903
35271SOL    HW211650   2.691   9.468   4.586  0.3621 -0.6323  0.4242
35272SOL     OW11651   7.606   3.389   5.230  0.0883 -0.1171  0.3922
35272SOL    HW111652   7.584   3.316   5.288  1.9400  0.0550  1.3793
35272SOL    HW211653   7.613   3.349   5.143 -0.7711 -0.7323  0.5867
35273SOL     OW11654   4.796   1.515   7.938 -0.0633 -0.2725  0.0671
35273SOL    HW111655   4.726   1.562   7.892 -0.1267  1.2914  1.6203
35273SOL    HW211656   4.750   1.467   8.007  0.2262 -0.7645 -0.0824
35274SOL     OW11657  10.243   1.877   6.716 -0.8752  0.1022 -0.3540
35274SOL    HW111658  10.241   1.782   6.704  1.0351 -0.1151  0.6738
35274SOL    HW211659  10.193   1.893   6.796 -0.4998 -0.1510 -0.0634
35275SOL     OW11660   0.166   3.230   3.721  0.2935  0.4574 -0.1426
35275SOL    HW111661   0.119   3.158   3.762 -0.3932  1.2731  0.5487
35275SOL    HW211662   0.256   3.221   3.751 -0.2729  1.2858  1.9795
35276SOL     OW11663   3.089   6.407   9.730  0.1646  0.1041  0.1652
35276SOL    HW111664   3.180   6.419   9.757 -0.2173  4.5302  0.1251
35276SOL    HW211665   3.038   6.445   9.802 -1.7519 -2.1101  0.0924
35277SOL     OW11666   2.616   2.832   0.866  0.1466 -0.7730  0.3573
35277SOL    HW111667   2.678   2.880   0.921 -1.8133  0.4166  1.6574
35277SOL    HW211668   2.574   2.900   0.813  0.4477 -1.6477 -1.0518
35278SOL     OW11669   1.939   8.572   1.728 -0.1834  0.0851 -0.1964
35278SOL    HW111670   1.998   8.535   1.794  0.8840 -0.7606 -1.5568
35278SOL    HW211671   1.863   8.602   1.777  0.6388 -0.3805  1.4215
35279SOL     OW11672   3.528   6.598   9.683 -0.1517  0.0694  0.1933
35279SOL    HW111673   3.482   6.536   9.740 -0.8854  0.3764 -0.0485
35279SOL    HW211674   3.527   6.556   9.597 -2.2218  1.1537 -0.3723
35280SOL     OW11675   8.140   0.373  10.394  0.5850 -0.1331  0.3227
35280SOL    HW111676   8.056   0.405  10.426 -0.0299  0.6710 -1.9103
35280SOL    HW211677   8.139   0.279  10.412 -0.5590 -0.0454  0.7859
35281SOL     OW11678   5.146   2.719   4.923 -0.0726  0.0636  0.5829
35281SOL    HW111679   5.237   2.694   4.906  0.5040  2.1489  0.3552
35281SOL    HW211680   5.109   2.735   4.836 -0.2904  0.4059  0.7360
35282SOL     OW11681   4.965   1.738   3.799  0.3480 -0.0182 -0.6666
35282SOL    HW111682   4.879   1.746   3.757  0.3432  2.8550 -0.2871
35282SOL    HW211683   5.013   1.678   3.742 -1.2784 -0.1801 -1.9671
35283SOL     OW11684   0.294   5.750   0.256  0.3444  0.2726  0.1286
35283SOL    HW111685   0.311   5.659   0.234 -0.9857  0.4518 -1.9596
35283SOL    HW211686   0.368   5.799   0.219  0.6414  0.1358  0.5309
35284SOL     OW11687   7.061   5.493   1.252 -0.0682 -0.3754  0.0440
35284SOL    HW111688   6.977   5.447   1.256 -0.1409 -0.1865  0.9087
35284SOL    HW211689   7.096   5.488   1.341  0.5017  0.1663 -0.1399
35285SOL     OW11690   5.372  10.566   8.804 -0.0422  0.3837 -0.0364
35285SOL    HW111691   5.367  10.617   8.885 -0.0404 -0.5915  0.5953
35285SOL    HW211692   5.454  10.518   8.811  0.0104  0.3764 -0.6744
35286SOL     OW11693   2.738   1.904   9.641 -0.1296  0.2152 -0.3293
35286SOL    HW111694   2.742   1.985   9.692  0.9665  0.0741 -0.1690
35286SOL    HW211695   2.651   1.869   9.659 -0.4986  1.1845 -0.1417
35287SOL     OW11696   6.635   7.065   2.306  0.2485  0.3265 -0.5777
35287SOL    HW111697   6.728   7.084   2.298 -0.0490  2.7062  0.7985
35287SOL    HW211698   6.631   6.982   2.353  1.6365 -0.0475 -1.0658
35288SOL     OW11699   1.390   0.248   2.212  0.1708  0.0864  0.1838
35288SOL    HW111700   1.366   0.208   2.129 -2.0595  0.1188  0.7369
35288SOL    HW211701   1.486   0.251   2.211  0.2398  1.4346 -3.0083
35289SOL     OW11702   9.517   5.658   4.252  0.0926  0.0013  0.3566
35289SOL    HW111703   9.550   5.685   4.167 -2.3056  0.1627 -0.6123
35289SOL    HW211704   9.533   5.564   4.255 -1.4952 -0.3818 -1.1959
35290SOL     OW11705   1.644   0.009  10.692  0.3434  0.0576  0.0923
35290SOL    HW111706   1.605  -0.008  10.606  0.0932 -2.3945  0.6271
35290SOL    HW211707   1.593  -0.045  10.753  1.5209  0.5266  1.5581
35291SOL     OW11708   4.946   1.629   3.076 -0.3483  1.1452  0.7218
35291SOL    HW111709   4.931   1.594   2.988 -0.9517  0.8325  0.9467
35291SOL    HW211710   5.002   1.705   3.062 -0.4219  1.0839  0.0674
35292SOL     OW11711   1.670   9.842   8.858  0.3145 -0.4908 -0.0622
35292SOL    HW111712   1.745   9.887   8.897  0.0652 -0.8974  0.9363
35292SOL    HW211713   1.612   9.912   8.829  0.1948 -0.1549  0.9409
35293SOL     OW11714   0.808   5.799   2.726 -0.3111 -0.2980 -0.1236
35293SOL    HW111715   0.726   5.847   2.718  0.5996  1.2894 -0.4857
35293SOL    HW211716   0.857   5.846   2.794  0.8214 -0.3761 -0.8423
35294SOL     OW11717   5.676   8.952   1.319  1.1944  0.8187 -0.1739
35294SOL    HW111718   5.696   9.013   1.391  0.7793  0.8635 -0.0919
35294SOL    HW211719   5.603   8.900   1.352  1.4713  0.3554 -0.2932
35295SOL     OW11720   6.112  10.536   4.681 -0.2839 -0.3131 -0.5342
35295SOL    HW111721   6.053  10.466   4.709 -0.3898  0.5533  1.5647
35295SOL    HW211722   6.054  10.611   4.666  0.2183  0.8626  2.5774
35296SOL     OW11723   5.212   7.512   5.547  0.1803  0.5381 -0.2431
35296SOL    HW111724   5.223   7.513   5.642 -0.9343 -0.2694 -0.0880
35296SOL    HW211725   5.150   7.583   5.529 -1.6407 -0.9329 -0.0508
35297SOL     OW11726   9.109   4.702   9.202 -1.0305  0.1607 -0.4184
35297SOL    HW111727   9.028   4.685   9.154 -0.2076  0.6395 -2.0623
35297SOL    HW211728   9.176   4.706   9.134  0.2277  0.7019  0.8119
35298SOL     OW11729   8.656   2.378   5.876 -0.2394  0.2811 -0.1840
35298SOL    HW111730   8.647   2.470   5.900  1.3129  0.2809  0.5146
35298SOL    HW211731   8.567   2.342   5.883 -0.4181  1.0440  2.3878
35299SOL     OW11732   1.598   8.281   5.162 -0.6213  0.1517  0.5891
35299SOL    HW111733   1.661   8.314   5.226 -0.7633  0.9185  0.3453
35299SOL    HW211734   1.611   8.186   5.162  1.2481  0.3648 -0.1859
35300SOL     OW11735   2.124   2.034   0.146 -1.1222 -0.0349 -0.3388
35300SOL    HW111736   2.188   1.972   0.181 -2.4888 -1.0622  0.4259
35300SOL    HW211737   2.100   2.089   0.220 -2.0623 -0.4993 -0.2802
35301SOL     OW11738   4.980   5.304   6.569  0.1595  0.0308  0.0676
35301SOL    HW111739   5.014   5.215   6.570 -1.1780 -0.4904  0.6368
35301SOL    HW211740   4.973   5.328   6.661 -0.2315  0.4383 -0.0665
35302SOL     OW11741   5.895   0.139   2.242  0.4271  0.1435 -0.4239
35302SOL    HW111742   5.844   0.203   2.292  1.5858  0.2368  0.6918
35302SOL    HW211743   5.877   0.055   2.285  1.5445  0.2451  0.2845
35303SOL     OW11744   8.569   2.198   7.618  0.0840  0.0265 -0.1390
35303SOL    HW111745   8.621   2.237   7.687 -1.1819 -1.1381  1.5806
35303SOL    HW211746   8.593   2.105   7.619 -1.6191 -0.4636  0.4219
35304SOL     OW11747   5.798   0.650   0.493 -0.2525 -0.0485  0.0173
35304SOL    HW111748   5.777   0.742   0.479  1.2570  0.5382  1.3240
35304SOL    HW211749   5.892   0.649   0.507 -0.5434 -1.4523  2.3998
35305SOL     OW11750   3.959   5.810   3.772  0.1416 -0.1254 -0.2815
35305SOL    HW111751   3.937   5.739   3.712 -2.7154 -0.8055  1.4049
35305SOL    HW211752   3.880   5.864   3.776  1.2050  1.4370  0.7699
35306SOL     OW11753   6.162   0.715   9.292  0.3048  0.3149  0.6315
35306SOL    HW111754   6.256   0.700   9.278  0.3005  1.7340 -1.2277
35306SOL    HW211755   6.158   0.788   9.354  0.5050  1.6272 -0.8379
35307SOL     OW11756   4.585   2.083   6.628  0.3800 -0.3411 -0.4410
35307SOL    HW111757   4.547   2.091   6.716 -1.6018 -1.1250 -1.1794
35307SOL    HW211758   4.644   2.158   6.621  0.3715 -0.1075  1.4418
35308SOL     OW11759   9.986   9.604   4.826 -0.0220  0.3256 -0.4485
35308SOL    HW111760  10.061   9.554   4.792 -0.2531 -1.2775  1.2726
35308SOL    HW211761  10.025   9.683   4.863  0.5566  0.5738 -1.5467
35309SOL     OW11762   1.326   7.884   2.353  0.7120 -0.2438  0.5590
35309SOL    HW111763   1.400   7.940   2.329 -0.9318  2.1233  0.6024
35309SOL    HW211764   1.288   7.926   2.430 -0.0064 -2.0817  1.2692
35310SOL     OW11765  10.279   6.935   0.414 -0.1592 -0.5547  0.1821
35310SOL    HW111766  10.281   6.900   0.503  0.9365 -0.6271  0.1535
35310SOL    HW211767  10.284   6.857   0.358 -0.3499 -0.4873  0.0719
35311SOL     OW11768  10.476   3.423   9.355  0.1811 -0.0995 -0.1029
35311SOL    HW111769  10.413   3.373   9.304  0.3453  0.5345 -0.9633
35311SOL    HW211770  10.519   3.359   9.412  1.2366 -1.1682 -2.0074
35312SOL     OW11771   0.780   0.514   4.137  0.1461  0.1457  0.1691
35312SOL    HW111772   0.830   0.454   4.082 -0.1867 -1.0463  1.1039
35312SOL    HW211773   0.713   0.551   4.079  1.3818  0.9012 -0.8133
35313SOL     OW11774   7.353   8.385   6.517  0.4426 -0.6218  0.2950
35313SOL    HW111775   7.388   8.363   6.431  0.5996 -1.1976  0.5060
35313SOL    HW211776   7.426   8.425   6.563  1.1469 -2.6800  1.0714
35314SOL     OW11777  10.237   3.498   3.454  0.0866 -0.0311 -0.6092
35314SOL    HW111778  10.306   3.462   3.510 -0.0050  0.5249 -0.1207
35314SOL    HW211779  10.174   3.427   3.443  0.4970 -0.3927 -0.6648
35315SOL     OW11780   1.325   0.209   1.658  0.6740  0.7591  0.0334
35315SOL    HW111781   1.307   0.277   1.594  1.0129  1.5522  0.7576
35315SOL    HW211782   1.321   0.254   1.743  0.5856 -0.1858  0.5515
35316SOL     OW11783   5.424   8.549   9.320 -0.0313 -0.3193  0.0983
35316SOL    HW111784   5.469   8.612   9.265  0.1173  0.1621  0.7624
35316SOL    HW211785   5.441   8.464   9.278 -2.5304  0.2582 -2.4232
35317SOL     OW11786   7.978   9.996   8.099  0.1238 -0.0764  0.1349
35317SOL    HW111787   7.981  10.064   8.031 -0.2602  0.6612  0.8282
35317SOL    HW211788   7.921  10.034   8.166  0.8099 -0.6355  1.0380
35318SOL     OW11789   6.489   1.477   0.418 -0.1086  0.6369 -0.6697
35318SOL    HW111790   6.583   1.462   0.424 -0.4136 -0.9447  1.6334
35318SOL    HW211791   6.451   1.390   0.427 -1.8181  1.4258  0.1967
35319SOL     OW11792   8.274   8.940   0.910  1.0044 -0.2874 -0.3652
35319SOL    HW111793   8.292   8.938   0.816  1.6291  0.5122 -0.2727
35319SOL    HW211794   8.294   8.852   0.940  1.9562 -0.2189 -0.7734
35320SOL     OW11795   0.694   1.147   0.774  0.1493 -0.9604 -0.7710
35320SOL    HW111796   0.672   1.234   0.741  0.1109 -0.5808  0.2393
35320SOL    HW211797   0.639   1.088   0.723 -0.7373 -0.2905 -0.6049
35321SOL     OW11798   3.362   0.780   1.853  0.0044  0.0639  0.6564
35321SOL    HW111799   3.313   0.849   1.897 -1.3120 -0.1850 -0.3764
35321SOL    HW211800   3.452   0.789   1.886  0.0409  2.7290 -0.0086
35322SOL     OW11801   5.286   4.305   9.078 -0.5739 -0.3999  0.8193
35322SOL    HW111802   5.199   4.319   9.043  0.7629  1.5707 -2.1053
35322SOL    HW211803   5.323   4.235   9.024  0.4045  0.3669  0.4639
35323SOL     OW11804   3.721   1.658   1.736 -0.2472  0.5801  0.3545
35323SOL    HW111805   3.658   1.704   1.792 -0.7300 -1.7856  1.8975
35323SOL    HW211806   3.805   1.703   1.752 -0.9637  1.9027  0.5331
35324SOL     OW11807   1.672   0.010   1.568 -0.1370 -0.6199 -0.0145
35324SOL    HW111808   1.633   0.086   1.612 -1.0035 -1.6206  1.0509
35324SOL    HW211809   1.621  -0.000   1.488  0.9878  0.8048 -0.9516
35325SOL     OW11810   8.027   1.228   1.946 -0.3931  0.2996  0.0068
35325SOL    HW111811   8.026   1.195   1.856  0.9209  2.6929 -0.9895
35325SOL    HW211812   7.935   1.243   1.967 -0.8416 -1.7972 -0.3057
35326SOL     OW11813   4.059   2.300   6.993 -0.6209  0.1910  0.2101
35326SOL    HW111814   4.137   2.256   7.026 -0.8085  1.6116  2.8510
35326SOL    HW211815   4.002   2.229   6.963 -0.4342 -1.4029  3.1928
35327SOL     OW11816   0.950   0.062   9.584 -0.2204  0.6748  0.3691
35327SOL    HW111817   1.034   0.019   9.570 -1.3362 -1.7868  0.5448
35327SOL    HW211818   0.960   0.110   9.666  0.3188 -1.7357  1.8185
35328SOL     OW11819   6.510   0.150   0.205  0.1063  0.1563 -0.4099
35328SOL    HW111820   6.577   0.142   0.137 -0.8513  0.6176 -1.4487
35328SOL    HW211821   6.428   0.160   0.156 -0.7911 -0.8473  0.8223
35329SOL     OW11822   2.040   8.468   5.896 -0.0021 -0.0982 -0.2828
35329SOL    HW111823   2.082   8.386   5.924 -0.3397 -0.1648  0.0402
35329SOL    HW211824   1.946   8.447   5.896 -0.0539  0.1278 -0.7355
35330SOL     OW11825   9.032   3.409   1.036  0.3099 -0.1081  0.4983
35330SOL    HW111826   9.018   3.501   1.056 -0.8992 -0.0434 -0.5501
35330SOL    HW211827   9.128   3.398   1.038  0.4732  1.2043  0.4498
35331SOL     OW11828   4.084   2.074   6.531 -0.0158 -0.3440 -0.6177
35331SOL    HW111829   3.996   2.064   6.569 -1.1591 -0.4988 -3.0915
35331SOL    HW211830   4.069   2.121   6.449  2.0440 -1.4437 -1.7011
35332SOL     OW11831   5.337   9.385   7.632 -0.0066  0.2079  0.2340
35332SOL    HW111832   5.367   9.433   7.709 -1.5763  0.9988  0.3967
35332SOL    HW211833   5.258   9.339   7.661 -0.9018  0.8972 -0.9956
35333SOL     OW11834   0.278   8.601   9.250 -0.6456 -0.2490 -0.0236
35333SOL    HW111835   0.354   8.633   9.201 -0.8206  0.6534  0.2812
35333SOL    HW211836   0.303   8.613   9.342 -0.4837 -1.5399  0.1218
35334SOL     OW11837   5.031   4.498   2.345  0.4317 -0.0617  0.3872
35334SOL    HW111838   5.113   4.450   2.351  0.4993 -0.0550 -0.4873
35334SOL    HW211839   5.029   4.551   2.425  0.3016 -1.5699  1.4282
35335SOL     OW11840   7.236   0.600   4.421 -0.1439 -0.0665  0.5244
35335SOL    HW111841   7.278   0.580   4.505  0.6387  0.5104  0.2822
35335SOL    HW211842   7.232   0.695   4.418 -0.2398 -0.0854 -0.0549
35336SOL     OW11843   5.891   5.655   8.348 -0.2296  0.5527  0.3250
35336SOL    HW111844   5.880   5.641   8.254  0.7266 -0.5672  0.3619
35336SOL    HW211845   5.954   5.727   8.355  0.7711 -0.2843  0.0893
35337SOL     OW11846   8.242   9.329   1.468 -0.3669  0.5424 -0.1318
35337SOL    HW111847   8.274   9.346   1.380 -0.5081 -0.4626 -0.3878
35337SOL    HW211848   8.308   9.272   1.507 -1.9988 -2.0064 -0.8473
35338SOL     OW11849   5.036   5.750   6.402  0.3505  0.5206 -0.1555
35338SOL    HW111850   5.040   5.680   6.336 -1.0361 -0.2266  0.5016
35338SOL    HW211851   5.099   5.723   6.469  0.0824  0.0739 -0.0765
35339SOL     OW11852   4.710   2.362   5.944 -0.4152  0.7178  0.3996
35339SOL    HW111853   4.686   2.286   5.997  1.8946 -0.4130 -0.0444
35339SOL    HW211854   4.779   2.405   5.993  0.3831  0.7934 -0.7548
35340SOL     OW11855   6.876  10.341   3.000 -0.1068  0.0514 -0.4749
35340SOL    HW111856   6.886  10.252   3.034 -3.5187 -1.3166 -2.5064
35340SOL    HW211857   6.830  10.388   3.069 -1.0042 -0.6998 -0.5459
35341SOL     OW11858   6.399   1.923   5.822 -0.3393 -0.1476 -0.0660
35341SOL    HW111859   6.344   1.859   5.777 -1.0694 -0.3806  1.1138
35341SOL    HW211860   6.337   1.986   5.858  0.3124  0.6726 -0.3567
35342SOL     OW11861   1.118   3.783   4.204 -0.4837 -0.0285  0.6903
35342SOL    HW111862   1.055   3.848   4.233 -0.5497 -0.6080  1.9113
35342SOL    HW211863   1.188   3.787   4.269 -0.1864 -0.7274  0.4208
35343SOL     OW11864   4.462   0.726   2.388  0.4042  0.0505 -0.2460
35343SOL    HW111865   4.484   0.717   2.296 -0.3095  0.8075 -0.4970
35343SOL    HW211866   4.495   0.813   2.413  1.4480 -0.5190  0.4733
35344SOL     OW11867   3.107   4.011   7.165  0.3010 -0.1051 -0.6711
35344SOL    HW111868   3.035   4.039   7.222 -0.4588 -2.1714 -0.5216
35344SOL    HW211869   3.081   4.038   7.077 -1.2464 -1.7211 -0.7817
35345SOL     OW11870   9.050   0.079   9.726 -0.1113 -0.2954 -0.3786
35345SOL    HW111871   9.136   0.037   9.730  0.7266  1.3700  0.1359
35345SOL    HW211872   9.062   0.155   9.670 -0.9822  0.5131  0.4743
35346SOL     OW11873   5.632   3.088   9.791 -0.7364  0.3863  0.2412
35346SOL    HW111874   5.678   3.159   9.748 -0.6279  0.6253  0.7422
35346SOL    HW211875   5.696   3.017   9.798 -1.2464 -0.2941 -1.5265
35347SOL     OW11876   7.502   6.772   7.821  0.1013 -0.1989 -0.0448
35347SOL    HW111877   7.561   6.796   7.892  0.1017 -2.8314  0.9710
35347SOL    HW211878   7.415   6.797   7.852  0.2660  0.0839  0.1921
35348SOL     OW11879   7.456   3.788   0.658 -0.3260  0.6575  0.5415
35348SOL    HW111880   7.448   3.883   0.668 -3.1892  0.5052  0.5802
35348SOL    HW211881   7.491   3.776   0.570 -2.0717  1.8018 -0.3815
35349SOL     OW11882   5.262   9.082   0.019  0.0815  0.3322  0.1344
35349SOL    HW111883   5.280   9.102  -0.073  0.8921 -2.2054 -0.3532
35349SOL    HW211884   5.338   9.116   0.067  1.1196 -0.8876 -0.5652
35350SOL     OW11885   0.789   7.688   3.791 -0.4124  0.3588  0.5703
35350SOL    HW111886   0.811   7.691   3.697 -0.6576  1.9037  0.5384
35350SOL    HW211887   0.850   7.624   3.827  1.3511  1.4921 -0.2423
35351SOL     OW11888   1.912   5.222   1.984  0.6492  0.1462 -0.1648
35351SOL    HW111889   1.898   5.128   1.974 -0.8402  0.3630 -0.3130
35351SOL    HW211890   1.999   5.238   1.947  0.2791 -0.9362 -1.5679
35352SOL     OW11891   2.054  10.194  10.093 -0.3386 -0.0062 -0.6973
35352SOL    HW111892   1.975  10.140  10.082 -0.3613  0.1349 -1.2849
35352SOL    HW211893   2.071  10.194  10.187 -2.2327  1.6109 -0.2747
35353SOL     OW11894   8.387   7.971   1.503 -0.1875 -0.2481 -0.3690
35353SOL    HW111895   8.339   7.890   1.482  0.3726 -0.6786 -0.0063
35353SOL    HW211896   8.324   8.041   1.484  0.0900 -0.6072 -3.0051
35354SOL     OW11897   0.435   6.814   0.262  0.0971  0.2288  0.2846
35354SOL    HW111898   0.350   6.851   0.284  0.0528  1.5537 -1.8298
35354SOL    HW211899   0.443   6.736   0.317 -2.4672  0.0968  0.5555
35355SOL     OW11900   1.769   1.700   2.801  0.0320  0.0405  0.3304
35355SOL    HW111901   1.843   1.717   2.742  0.5595  0.8698  1.2066
35355SOL    HW211902   1.790   1.616   2.842 -0.3233 -0.5274 -0.6192
35356SOL     OW11903   2.366   8.707   3.306  0.9820 -0.0846 -0.4529
35356SOL    HW111904   2.402   8.786   3.265 -0.5325  0.0116 -1.6749
35356SOL    HW211905   2.330   8.738   3.389  1.8607  0.1854 -0.1563
35357SOL     OW11906   3.122   4.481  10.507  0.1435 -0.2067 -0.0218
35357SOL    HW111907   3.216   4.476  10.520  0.0900  0.3212  0.6415
35357SOL    HW211908   3.096   4.392  10.483  0.9908 -0.0741 -1.6044
35358SOL     OW11909   3.403   3.511   0.935 -0.8186  0.0828  0.0241
35358SOL    HW111910   3.390   3.432   0.987 -1.4050 -0.0325 -0.2951
35358SOL    HW211911   3.439   3.480   0.852 -0.0129  0.2538  0.3012
35359SOL     OW11912   9.525   8.636  10.613 -0.1159 -0.2975 -0.2040
35359SOL    HW111913   9.548   8.719  10.654 -1.1130 -0.5081  0.8100
35359SOL    HW211914   9.591   8.625  10.543  0.7752  0.7237  0.4458
35360SOL     OW11915   2.812   5.723   2.623  0.1884  0.1887 -0.3803
35360SOL    HW111916   2.864   5.659   2.575 -0.1686  1.0449 -1.9519
35360SOL    HW211917   2.783   5.676   2.701  2.1953 -0.7201 -0.1015
35361SOL     OW11918   5.489   6.268   2.352 -0.4140  0.0981 -0.3302
35361SOL    HW111919   5.553   6.319   2.403 -0.2921  0.5836 -0.9517
35361SOL    HW211920   5.498   6.302   2.263 -0.2967 -1.0583 -0.7712
35362SOL     OW11921   2.492   3.687  10.681 -0.2810 -0.2994 -0.7820
35362SOL    HW111922   2.480   3.625  10.754  3.8726 -0.1203  0.3007
35362SOL    HW211923   2.486   3.632  10.603 -0.5717 -1.3152 -0.0837
35363SOL     OW11924   3.102   7.286   0.074 -0.3179  0.2020 -0.9945
35363SOL    HW111925   3.061   7.205   0.103  0.1388 -0.0354 -1.0105
35363SOL    HW211926   3.039   7.354   0.097  0.4047  0.1386  1.4100
35364SOL     OW11927   5.256   3.215   2.670  0.3040 -0.0437  0.1711
35364SOL    HW111928   5.242   3.261   2.587 -0.2361  1.4613  1.0652
35364SOL    HW211929   5.168   3.199   2.704  0.5194 -0.6530  0.4715
35365SOL     OW11930   4.000   0.428  10.562  0.0027  0.1925  0.4003
35365SOL    HW111931   3.985   0.511  10.608 -1.3510 -0.0114  0.3722
35365SOL    HW211932   4.090   0.404  10.585  0.7567  2.1160 -0.3396
35366SOL     OW11933   1.216   5.775   1.955  0.0269  0.4132 -0.4095
35366SOL    HW111934   1.223   5.770   1.860 -0.9885 -0.4212 -0.4532
35366SOL    HW211935   1.123   5.788   1.972  0.1226 -0.0158  0.4937
35367SOL     OW11936   2.709   1.828   8.549 -0.7745  0.6037 -0.3273
35367SOL    HW111937   2.711   1.863   8.639 -2.5187 -0.0612  0.0180
35367SOL    HW211938   2.636   1.875   8.508  0.4693  1.4299 -1.6528
35368SOL     OW11939   8.517   2.201   8.793 -0.6581 -0.2293 -0.0018
35368SOL    HW111940   8.604   2.163   8.808 -0.5076 -0.8268 -2.1699
35368SOL    HW211941   8.456   2.134   8.826 -0.3638  0.3799  1.9501
35369SOL     OW11942   4.631   3.285   9.018  0.5017  0.2097  0.4485
35369SOL    HW111943   4.633   3.378   9.041  0.3884  0.4318 -0.4243
35369SOL    HW211944   4.580   3.281   8.937 -0.8015 -0.7858  1.2704
35370SOL     OW11945   3.325   8.522  10.601  0.0556  0.1506 -0.3145
35370SOL    HW111946   3.312   8.511  10.695 -1.5573 -0.4931 -0.5859
35370SOL    HW211947   3.310   8.435  10.564  1.3377  0.2451 -1.1254
35371SOL     OW11948   5.503   7.828   8.660 -0.3975 -0.4089 -0.1564
35371SOL    HW111949   5.532   7.905   8.610  0.4804 -0.9528 -0.5092
35371SOL    HW211950   5.488   7.761   8.594  1.3799 -1.3258  0.3029
35372SOL     OW11951   9.651   3.124   7.393 -0.4854 -0.5902 -0.5496
35372SOL    HW111952   9.732   3.079   7.371 -0.6604 -1.1392 -0.0799
35372SOL    HW211953   9.671   3.217   7.380  0.4636 -0.6593  0.3510
35373SOL     OW11954   0.843   3.335   0.176  0.1408 -0.3450  0.2133
35373SOL    HW111955   0.858   3.387   0.097 -2.1632 -0.0905 -0.1165
35373SOL    HW211956   0.876   3.390   0.248  1.5532 -0.2602 -0.4601
35374SOL     OW11957   7.285   5.307   1.615 -0.0675 -0.3414 -0.4738
35374SOL    HW111958   7.212   5.366   1.596 -1.5919 -1.8554  0.3910
35374SOL    HW211959   7.303   5.319   1.708 -2.2666 -3.0711  0.4457
35375SOL     OW11960  10.690  10.587   8.063 -0.3542 -0.4066  0.5634
35375SOL    HW111961  10.768  10.562   8.014 -0.1788  1.1687 -0.0004
35375SOL    HW211962  10.723  10.639   8.136 -0.9265  2.0203 -0.7977
35376SOL     OW11963   4.396   1.392   1.301 -0.0677 -0.3980 -0.0832
35376SOL    HW111964   4.335   1.372   1.372  0.5410  1.1423  0.9277
35376SOL    HW211965   4.353   1.463   1.252  1.2071  1.3123  1.1525
35377SOL     OW11966   5.128  10.545   6.047  0.4253  0.2518  0.5826
35377SOL    HW111967   5.184  10.608   6.092 -0.5200  1.9876 -0.5764
35377SOL    HW211968   5.117  10.474   6.110  0.5556  1.7820  2.4111
35378SOL     OW11969   4.912   9.815   0.419 -0.0208  0.3473 -0.2205
35378SOL    HW111970   4.925   9.909   0.427  0.3814  0.2901 -0.2137
35378SOL    HW211971   4.887   9.787   0.507  2.2914  0.0611  0.4097
35379SOL     OW11972   9.765   5.374   2.442  0.6068  0.3417 -0.9480
35379SOL    HW111973   9.677   5.404   2.421 -0.0455  0.0590  1.0934
35379SOL    HW211974   9.764   5.280   2.423  0.8813  0.5699 -2.1170
35380SOL     OW11975   9.130   8.531   1.663 -0.1135  0.1854  0.0242
35380SOL    HW111976   9.187   8.593   1.618 -1.3079  0.9427 -0.5111
35380SOL    HW211977   9.094   8.580   1.737  0.5674 -0.5484  0.8624
35381SOL     OW11978   7.492   2.089   8.648 -0.7373  0.1559 -0.1918
35381SOL    HW111979   7.479   2.032   8.723  1.1867 -0.7080 -0.4476
35381SOL    HW211980   7.576   2.132   8.665  0.2394 -0.7785 -2.2275
35382SOL     OW11981   5.873   7.938   4.204  0.2290 -0.0439 -0.1508
35382SOL    HW111982   5.879   8.007   4.270  2.9548 -0.2205 -0.0918
35382SOL    HW211983   5.865   7.857   4.254  1.9312 -0.1444  0.0233
35383SOL     OW11984   2.087   0.419  10.398  0.9711  0.4053  0.2356
35383SOL    HW111985   2.098   0.508  10.430  0.7315  0.2079  0.8794
35383SOL    HW211986   2.021   0.426  10.330  1.5005  0.8319 -0.2455
35384SOL     OW11987   7.311   5.572   0.305 -0.3687 -0.0641  0.3031
35384SOL    HW111988   7.272   5.610   0.227  0.7248 -1.4335 -0.9633
35384SOL    HW211989   7.365   5.643   0.342 -1.7109  0.9211  0.4547
35385SOL     OW11990   6.311  10.259   4.171 -0.4192 -0.1775  0.8172
35385SOL    HW111991   6.401  10.247   4.141 -0.8688  0.7643 -1.0048
35385SOL    HW211992   6.313  10.341   4.221 -0.5495  0.7745 -0.6694
35386SOL     OW11993   6.226   3.978   1.953 -0.1898 -0.3535 -0.0995
35386SOL    HW111994   6.229   4.037   1.878  1.3761 -0.3619 -0.0759
35386SOL    HW211995   6.310   3.933   1.951  0.7193  1.0087  2.7307
35387SOL     OW11996   8.635   2.943   1.672  0.6428 -0.1547  0.5636
35387SOL    HW111997   8.580   2.896   1.609 -1.2329  1.9477  0.5266
35387SOL    HW211998   8.679   3.010   1.621 -0.0319  0.8578  1.2800
35388SOL     OW11999   4.244   0.349   7.678 -0.1817 -0.7212 -0.0875
35388SOL    HW112000   4.260   0.438   7.708  1.4812 -0.5438 -1.3162
35388SOL    HW212001   4.260   0.294   7.754 -0.0782 -0.0515  0.3785
35389SOL     OW12002   3.971   2.984   3.268 -0.6133  0.0227  0.0418
35389SOL    HW112003   4.048   2.928   3.266  0.2760  1.1992 -1.3721
35389SOL    HW212004   3.897   2.924   3.271  0.3360 -1.1708  0.1536
35390SOL     OW12005   2.088   6.049   2.365 -0.5158  0.2811  0.3721
35390SOL    HW112006   2.027   6.039   2.292 -0.8934  1.5222  0.5127
35390SOL    HW212007   2.034   6.075   2.439  0.1094  0.8700  0.6296
35391SOL     OW12008  10.363   0.183   1.216 -0.5074  0.1973  0.1388
35391SOL    HW112009  10.325   0.100   1.187  1.6191 -0.9632  0.4594
35391SOL    HW212010  10.369   0.236   1.137 -0.2051 -0.6829 -0.4500
35392SOL     OW12011   8.729   1.968   9.810 -0.0225  0.3066 -0.3891
35392SOL    HW112012   8.675   1.894   9.781  0.1315  1.2878 -3.5383
35392SOL    HW212013   8.798   1.928   9.862 -0.1195 -1.7725 -1.7500
35393SOL     OW12014   3.035   2.550   2.944  0.3363 -0.5368  0.2556
35393SOL    HW112015   2.977   2.544   3.020  0.7790  0.4215  0.6883
35393SOL    HW212016   2.986   2.509   2.873 -0.5711 -0.3930  0.7794
35394SOL     OW12017   8.199   1.462   1.886  0.2642 -0.2384 -0.5339
35394SOL    HW112018   8.164   1.391   1.940  0.8982  0.4401  0.8079
35394SOL    HW212019   8.242   1.418   1.813 -3.7157 -1.1578 -2.6244
35395SOL     OW12020   8.342   3.851  10.436  0.2885 -0.1324 -0.2604
35395SOL    HW112021   8.262   3.814  10.474 -0.9118 -0.5800 -2.9916
35395SOL    HW212022   8.355   3.803  10.355  2.9720  0.4485 -0.2705
35396SOL     OW12023   7.043   2.175  10.474  0.2949 -0.1425 -0.1581
35396SOL    HW112024   7.099   2.104  10.443 -1.4394 -1.7677  0.2457
35396SOL    HW212025   6.989   2.197  10.398  0.4309  0.3582 -0.1128
35397SOL     OW12026   5.461   2.308   0.274 -0.1058 -0.4598  0.4452
35397SOL    HW112027   5.408   2.364   0.217  0.0490 -1.4954 -0.7536
35397SOL    HW212028   5.541   2.292   0.224  0.9887  0.3239  1.8511
35398SOL     OW12029  10.558   0.910   0.970  1.0361 -0.3644  0.0984
35398SOL    HW112030  10.579   0.860   0.891 -0.0216  0.5897 -0.8390
35398SOL    HW212031  10.502   0.851   1.021 -1.2352  0.2063 -1.5754
35399SOL     OW12032   9.601   4.543   0.055 -0.2544 -0.1566  0.2845
35399SOL    HW112033   9.669   4.494   0.100 -0.2994  1.0126  1.6995
35399SOL    HW212034   9.556   4.478   0.001  0.5425 -1.3832  1.0617
35400SOL     OW12035   4.006   4.631   2.473  0.2576 -0.5606 -0.2081
35400SOL    HW112036   4.100   4.649   2.465  0.6513 -1.7595  1.3055
35400SOL    HW212037   4.001   4.555   2.531 -1.6164 -1.1228 -1.0458
35401SOL     OW12038  10.693   3.627   9.304 -0.3965  0.6605  0.7434
35401SOL    HW112039  10.627   3.580   9.356  1.0939 -0.3384  1.7988
35401SOL    HW212040  10.718   3.701   9.359  0.6196  0.0395  1.1466
35402SOL     OW12041   7.043   1.735   7.743 -0.2861 -0.2255 -0.0299
35402SOL    HW112042   7.127   1.757   7.702 -1.0179 -2.2167 -2.9801
35402SOL    HW212043   6.997   1.818   7.750  1.2443  0.6689 -0.0012
35403SOL     OW12044   6.217   9.708   0.468  0.0812 -0.1642  0.0809
35403SOL    HW112045   6.188   9.671   0.385 -0.2375 -1.5581  0.7899
35403SOL    HW212046   6.146   9.768   0.493 -0.2381 -0.4098 -0.2227
35404SOL     OW12047   3.116   2.410  10.473 -0.0963  0.6104  0.4386
35404SOL    HW112048   3.074   2.344  10.417 -0.8856  1.1916  0.3348
35404SOL    HW212049   3.207   2.412  10.443 -0.4117  0.6185 -0.5575
35405SOL     OW12050   2.241   4.468   2.070  0.1736 -0.1952 -0.1703
35405SOL    HW112051   2.209   4.439   1.985  1.6196  0.8252 -1.1007
35405SOL    HW212052   2.272   4.557   2.055  1.0998 -0.2388  1.2743
35406SOL     OW12053   8.139   0.882   3.848  0.1773  0.2665  0.4509
35406SOL    HW112054   8.182   0.819   3.790 -0.6793 -0.4719  0.5936
35406SOL    HW212055   8.189   0.962   3.837 -1.2564  0.8956 -3.1472
35407SOL     OW12056   8.288   6.703  10.400 -0.5905 -0.4677  0.0397
35407SOL    HW112057   8.366   6.720  10.453  0.2635 -0.9355 -1.0325
35407SOL    HW212058   8.237   6.640  10.451  1.1365 -2.4105 -0.4995
35408SOL     OW12059  10.377   0.851   4.434 -0.1704 -0.4668  0.3740
35408SOL    HW112060  10.420   0.833   4.518  1.0743  1.8057  0.3033
35408SOL    HW212061  10.428   0.923   4.396 -1.7299 -0.3069 -1.5645
35409SOL     OW12062   0.119   8.864  10.474 -0.1295 -0.1610  0.0359
35409SOL    HW112063   0.100   8.854  10.381  2.1809  0.5713 -0.5752
35409SOL    HW212064   0.087   8.952  10.495  0.4961  0.1768 -0.3998
35410SOL     OW12065   0.778   2.442   8.454 -0.5712 -0.2675  0.7545
35410SOL    HW112066   0.719   2.445   8.530 -0.3822 -0.5565  0.9139
35410SOL    HW212067   0.737   2.501   8.390  0.4007  1.7354  1.8801
35411SOL     OW12068   5.967   6.913   9.425  0.0876 -0.4407 -0.2725
35411SOL    HW112069   6.023   6.837   9.445  0.3103 -0.1817  0.1125
35411SOL    HW212070   5.909   6.882   9.355 -0.9065 -1.4753  0.9511
35412SOL     OW12071   1.190   5.096   5.993 -0.0972 -0.7800  0.2739
35412SOL    HW112072   1.131   5.105   6.068 -1.8432  2.2941 -1.2775
35412SOL    HW212073   1.260   5.159   6.011  0.7143 -1.6799  0.3328
35413SOL     OW12074   5.773   8.385   3.513 -0.0548  0.2288  0.7645
35413SOL    HW112075   5.754   8.478   3.528 -2.1401  0.1326 -0.8431
35413SOL    HW212076   5.840   8.385   3.445 -0.4602  0.5701  0.3575
35414SOL     OW12077   1.349   6.944   5.586 -0.1991  0.0021 -0.3579
35414SOL    HW112078   1.279   7.009   5.578  0.4584  1.1833  2.4028
35414SOL    HW212079   1.408   6.962   5.513 -1.5519  0.4940 -1.3764
35415SOL     OW12080   4.091   6.046   0.051  0.0914  0.5814  0.4102
35415SOL    HW112081   4.078   5.959   0.088 -2.1059  1.4798  1.9591
35415SOL    HW212082   4.158   6.087   0.107  0.5959  0.1738  0.1191
35416SOL     OW12083   8.453   0.632   7.466  0.2790 -0.1944 -0.2394
35416SOL    HW112084   8.510   0.578   7.521 -1.5923  0.0983  2.1455
35416SOL    HW212085   8.511   0.663   7.397  2.0397 -3.1059 -0.2676
35417SOL     OW12086   1.785   4.206   9.139  0.2758 -0.4027 -0.4392
35417SOL    HW112087   1.762   4.194   9.231  0.0238  3.0418  0.0886
35417SOL    HW212088   1.706   4.243   9.099  1.0399  0.1371 -1.5098
35418SOL     OW12089  10.070   0.385  10.665  0.0147 -0.0347  0.0348
35418SOL    HW112090  10.070   0.327  10.742  0.8097 -0.2831 -0.1333
35418SOL    HW212091   9.996   0.443  10.678  1.7887  1.9164  2.5220
35419SOL     OW12092   9.465   3.119   0.240  0.0242 -0.1980 -0.3919
35419SOL    HW112093   9.560   3.114   0.231 -0.1052 -2.5671 -1.0455
35419SOL    HW212094   9.432   3.059   0.173 -1.8358 -1.2413  1.3813
35420SOL     OW12095   5.885   2.342  10.457 -0.3591 -0.1288 -0.1344
35420SOL    HW112096   5.900   2.297  10.374 -1.6864 -1.2088  0.1555
35420SOL    HW212097   5.951   2.410  10.461  0.2315 -0.5769 -1.7044
35421SOL     OW12098  10.622   0.675   6.058 -0.0928 -0.4743 -0.5410
35421SOL    HW112099  10.571   0.612   6.109 -0.2179  0.5229  0.6079
35421SOL    HW212100  10.683   0.622   6.008  1.1854 -1.4509  1.9097
35422SOL     OW12101   2.236   3.014   0.150  0.0291 -0.3943  0.0656
35422SOL    HW112102   2.267   2.979   0.067 -1.9797  0.4967 -1.1313
35422SOL    HW212103   2.140   3.007   0.145 -0.3007  2.2247  1.0915
35423SOL     OW12104   2.137   3.262   8.793  0.0312 -0.2807  0.5289
35423SOL    HW112105   2.129   3.170   8.816 -0.1159 -0.8005 -1.4459
35423SOL    HW212106   2.098   3.309   8.867 -1.9117 -1.8932  0.6064
35424SOL     OW12107  10.658  10.073   1.246  0.6147  0.1135  0.1103
35424SOL    HW112108  10.674  10.021   1.325 -0.8786  0.2434  0.5227
35424SOL    HW212109  10.722  10.144   1.250  0.1828  0.4406  1.5111
35425SOL     OW12110   6.236   9.126   7.831  0.3966 -0.0508  0.1249
35425SOL    HW112111   6.177   9.051   7.831 -1.0181  0.9434  2.4550
35425SOL    HW212112   6.279   9.122   7.917  1.1275  1.1525 -0.1679
35426SOL     OW12113   0.216   4.303   8.463  0.2238  0.1451 -0.1347
35426SOL    HW112114   0.169   4.223   8.484 -0.8346  0.5295 -1.0054
35426SOL    HW212115   0.298   4.295   8.513 -1.2590  0.0677  2.4966
35427SOL     OW12116   4.170   0.802   3.947  0.0709 -0.0583 -0.4995
35427SOL    HW112117   4.251   0.752   3.939 -0.4497 -0.8980 -0.6867
35427SOL    HW212118   4.128   0.766   4.025 -1.1618 -1.2075 -1.6325
35428SOL     OW12119   8.454   7.063  10.444 -0.0066  0.2493 -0.1081
35428SOL    HW112120   8.531   7.006  10.434 -0.6492 -0.3981 -1.7535
35428SOL    HW212121   8.457   7.120  10.366 -0.9582  0.5020  0.0369
35429SOL     OW12122   7.763   5.620   9.311  0.3706  0.4253  0.0671
35429SOL    HW112123   7.748   5.617   9.217 -0.4791  2.0683  0.1132
35429SOL    HW212124   7.677   5.605   9.349  0.9673 -1.8905  0.6685
35430SOL     OW12125   3.086   2.332   1.226  0.2720  0.1988  0.0851
35430SOL    HW112126   3.161   2.391   1.224 -0.3601  1.0010 -0.6805
35430SOL    HW212127   3.112   2.257   1.174 -0.1168  1.3296 -1.8221
35431SOL     OW12128   1.603   1.699   7.431  0.4876 -0.7558  0.5268
35431SOL    HW112129   1.547   1.661   7.499 -1.0647 -0.6320 -0.6287
35431SOL    HW212130   1.571   1.789   7.422  1.4340 -0.4211  0.4176
35432SOL     OW12131   8.260   6.001   1.246 -0.0545  0.4585  0.5392
35432SOL    HW112132   8.227   5.931   1.190  0.2766  0.7618 -0.0389
35432SOL    HW212133   8.273   5.959   1.331  0.0878 -0.1681  0.2143
35433SOL     OW12134   3.702   4.351   4.271  0.0927 -0.2498  0.2701
35433SOL    HW112135   3.763   4.363   4.344 -2.6386 -0.0055  2.7082
35433SOL    HW212136   3.699   4.436   4.228  1.4461 -0.2801  0.0840
35434SOL     OW12137   1.154   4.729   5.171  0.1792 -0.4798 -0.0521
35434SOL    HW112138   1.153   4.743   5.077 -1.5140 -1.3537 -0.2054
35434SOL    HW212139   1.067   4.755   5.201  0.6279 -0.3735  1.2529
35435SOL     OW12140   7.718   3.880   8.057  0.0891 -0.2077  0.0347
35435SOL    HW112141   7.782   3.841   8.116  2.0861  1.3246 -0.9972
35435SOL    HW212142   7.691   3.961   8.100  0.6609  0.3214 -0.5643
35436SOL     OW12143   8.219   4.302   7.285  0.1367 -0.3546 -0.4334
35436SOL    HW112144   8.262   4.236   7.341 -1.3475 -1.5704 -0.6638
35436SOL    HW212145   8.127   4.297   7.309 -0.0677  1.4725 -0.6811
35437SOL     OW12146   4.709  10.108   3.440  0.4216 -0.2046 -0.1373
35437SOL    HW112147   4.739  10.018   3.424  0.9282  0.2671 -2.1593
35437SOL    HW212148   4.790  10.158   3.453  0.4324  0.5427 -2.6090
35438SOL     OW12149   8.027   2.238  10.102 -0.1781 -0.4845  0.6833
35438SOL    HW112150   8.020   2.175  10.030  0.6267 -0.5630  0.6623
35438SOL    HW212151   8.082   2.194  10.167  2.1078  0.9358 -0.1887
35439SOL     OW12152   4.341  10.040   4.165  0.3498  0.3049 -0.4904
35439SOL    HW112153   4.422  10.001   4.196 -0.2058 -0.0498  0.5560
35439SOL    HW212154   4.282   9.966   4.151  0.0291  0.5945 -0.6969
35440SOL     OW12155   4.867   6.959   8.605  0.0523  0.4264 -0.2544
35440SOL    HW112156   4.885   7.042   8.649  0.2228 -0.4452  1.3735
35440SOL    HW212157   4.776   6.967   8.576  0.7143  2.0275 -2.1652
35441SOL     OW12158   9.514   6.143   2.441  0.3030 -0.3546  0.7167
35441SOL    HW112159   9.475   6.201   2.507 -0.1190  0.2886 -0.0710
35441SOL    HW212160   9.488   6.182   2.357 -1.3614 -2.5491  0.1099
35442SOL     OW12161  10.022   5.062   3.482 -0.3445 -0.2762 -0.4519
35442SOL    HW112162  10.063   5.043   3.566 -1.4156 -0.2917  0.0887
35442SOL    HW212163   9.972   5.142   3.497 -1.2011 -0.7218 -0.8333
35443SOL     OW12164   4.962   3.290   9.306  0.5451 -0.3506  0.4254
35443SOL    HW112165   5.052   3.318   9.294  0.7634 -1.5229 -0.9684
35443SOL    HW212166   4.946   3.230   9.233 -1.6450  0.4913  0.1550
35444SOL     OW12167   5.611   8.729   7.830 -0.4411 -0.0673  0.0961
35444SOL    HW112168   5.608   8.807   7.886 -1.0169  0.7672 -1.0606
35444SOL    HW212169   5.702   8.725   7.799 -0.5776  0.5573 -0.3968
35445SOL     OW12170   8.728   4.362   0.040 -0.1378 -0.3131  0.3104
35445SOL    HW112171   8.749   4.277   0.003  2.4152  1.2452 -2.2400
35445SOL    HW212172   8.653   4.393  -0.010 -0.9985 -0.9637  1.1677
35446SOL     OW12173   8.769   2.659   5.535 -0.4024  0.0347  0.2285
35446SOL    HW112174   8.697   2.710   5.498 -0.5317 -0.6492 -0.4800
35446SOL    HW212175   8.736   2.628   5.620 -0.1604  1.4845  0.8824
35447SOL     OW12176   6.369   0.776   7.185 -0.2543  0.1503 -0.5556
35447SOL    HW112177   6.286   0.735   7.208 -0.2392 -1.0309 -2.3550
35447SOL    HW212178   6.428   0.702   7.168  0.6066  0.9487 -1.1355
35448SOL     OW12179   7.710   5.994   0.986 -0.0498  0.2567  0.1100
35448SOL    HW112180   7.653   6.015   0.912 -0.1498 -1.3884 -0.3119
35448SOL    HW212181   7.735   6.079   1.022  0.2307  1.0991 -1.9787
35449SOL     OW12182   8.735   7.397   6.687 -0.0332  0.5409 -0.0786
35449SOL    HW112183   8.738   7.482   6.644 -0.1712  1.2905  1.3329
35449SOL    HW212184   8.647   7.363   6.668 -1.0489  2.0281  1.7114
35450SOL     OW12185   7.596   1.634   6.133  0.0807  0.1396  0.5248
35450SOL    HW112186   7.618   1.683   6.053  0.7717 -0.6668  0.2129
35450SOL    HW212187   7.673   1.580   6.150 -0.5040 -0.5172  1.1098
35451SOL     OW12188   5.612   7.255   1.780  0.3555  0.3403  0.1381
35451SOL    HW112189   5.540   7.202   1.816 -0.5493  1.4930  0.0799
35451SOL    HW212190   5.603   7.246   1.685  0.6365  0.0449  0.1374
35452SOL     OW12191   2.556   5.620   0.188  0.6125 -0.6142 -0.0033
35452SOL    HW112192   2.581   5.659   0.104 -0.0160 -0.3372 -0.0716
35452SOL    HW212193   2.461   5.631   0.191  0.7205  0.1778  1.1302
35453SOL     OW12194   0.489   7.907   0.118  0.0796 -0.5343 -0.8901
35453SOL    HW112195   0.393   7.914   0.116 -0.1441  1.2347  3.8011
35453SOL    HW212196   0.506   7.833   0.176  1.4113  0.3915 -0.0305
35454SOL     OW12197   5.543   7.848   0.664 -0.3684 -0.3096  0.4302
35454SOL    HW112198   5.458   7.843   0.707 -1.4725  0.8885 -1.4415
35454SOL    HW212199   5.546   7.770   0.608 -1.5843  1.0279 -1.6438
35455SOL     OW12200   0.232   0.674   3.592 -0.4993 -0.2341  0.1834
35455SOL    HW112201   0.168   0.719   3.537  0.6684  2.7423  1.0571
35455SOL    HW212202   0.209   0.581   3.584 -3.2102  0.4579 -1.6175
35456SOL     OW12203   5.529   6.870   3.021  0.0261 -0.4657  0.0615
35456SOL    HW112204   5.552   6.834   2.936  0.4587 -0.7389  0.2921
35456SOL    HW212205   5.493   6.796   3.070 -0.9105 -0.1507 -0.1293
35457SOL     OW12206   2.439   1.775   3.046 -0.0087 -0.1939 -0.0725
35457SOL    HW112207   2.351   1.745   3.025  0.0046  1.0246 -2.1956
35457SOL    HW212208   2.458   1.738   3.133 -1.7937 -2.1674 -0.4476
35458SOL     OW12209   4.141   2.963   9.424  0.1357  0.6997 -0.2726
35458SOL    HW112210   4.143   2.939   9.517 -1.9991  0.1813 -0.3299
35458SOL    HW212211   4.086   3.041   9.420 -0.8251 -0.0059 -1.2479
35459SOL     OW12212   6.593   4.079   7.351 -0.1688 -0.3234  0.0917
35459SOL    HW112213   6.525   4.028   7.307  0.6212 -1.2167 -0.1283
35459SOL    HW212214   6.552   4.164   7.368 -1.3285 -0.8349 -0.0468
35460SOL     OW12215   2.439   5.277   7.098 -0.2233 -0.1981 -0.3233
35460SOL    HW112216   2.471   5.223   7.169  2.7022  0.6948 -0.8188
35460SOL    HW212217   2.453   5.224   7.019 -1.9499 -0.5526 -0.4440
35461SOL     OW12218  10.650   3.904   9.392 -0.4765  0.2844 -0.1502
35461SOL    HW112219  10.656   3.975   9.328  0.4688 -1.6151 -2.3250
35461SOL    HW212220  10.561   3.869   9.381 -0.0448 -0.5691 -1.0899
35462SOL     OW12221   5.976   8.583   7.084 -0.1044  0.4473 -0.3954
35462SOL    HW112222   5.957   8.556   7.174 -0.9163  1.3290 -0.2975
35462SOL    HW212223   5.891   8.606   7.047  0.1958 -0.0982 -1.4625
35463SOL     OW12224   2.960   3.446   9.801 -0.6469 -0.5937  0.1774
35463SOL    HW112225   3.012   3.443   9.720 -1.3281  2.1614 -0.4572
35463SOL    HW212226   3.010   3.502   9.859 -1.2356 -0.7710  0.8660
35464SOL     OW12227   2.222   0.986   1.385  0.3629  0.3802 -0.0793
35464SOL    HW112228   2.210   1.081   1.378  0.8690  0.4232 -0.4037
35464SOL    HW212229   2.307   0.976   1.427 -0.0709  0.0714  0.7353
35465SOL     OW12230   5.744   5.633   7.669  0.1044 -0.4195  0.4376
35465SOL    HW112231   5.748   5.553   7.616 -0.9056 -0.5646  0.5495
35465SOL    HW212232   5.665   5.677   7.638 -2.2485 -1.9034  3.6941
35466SOL     OW12233   9.437   2.884   6.876  0.1252 -0.6134  0.1561
35466SOL    HW112234   9.503   2.954   6.870 -0.5512 -0.0924 -2.2779
35466SOL    HW212235   9.386   2.906   6.953  0.5777  1.0248  0.0263
35467SOL     OW12236   3.659   1.482   6.591  0.7261 -0.3028  0.0174
35467SOL    HW112237   3.731   1.509   6.648  0.4674  0.2782  0.0771
35467SOL    HW212238   3.596   1.438   6.649 -0.0689  1.2848  0.4083
35468SOL     OW12239   8.384   0.933   5.058  0.7126  0.0056  0.5459
35468SOL    HW112240   8.426   0.851   5.082 -0.0314  0.1094  2.3759
35468SOL    HW212241   8.395   0.989   5.134  1.0474  1.5592 -0.6045
35469SOL     OW12242   7.448   3.845  10.307 -0.5874 -0.2746 -0.1850
35469SOL    HW112243   7.528   3.888  10.276 -0.2779 -0.7771 -0.1026
35469SOL    HW212244   7.479   3.764  10.348 -1.3213 -2.0816 -2.9156
35470SOL     OW12245   5.600   2.023  10.296 -0.1305  0.6904  0.2035
35470SOL    HW112246   5.630   2.112  10.277  0.9703  0.2789 -0.1115
35470SOL    HW212247   5.514   2.034  10.336 -1.4594  1.7643 -2.6648
35471SOL     OW12248   7.886   7.471   3.738 -0.0930 -0.7328  0.0926
35471SOL    HW112249   7.792   7.489   3.729  0.5563  3.1106 -0.5812
35471SOL    HW212250   7.920   7.478   3.648  1.2345  1.3392  0.6828
35472SOL     OW12251   9.543   3.780   1.673 -0.0031  0.6656 -0.2487
35472SOL    HW112252   9.524   3.832   1.751  0.1865 -1.3136  1.1891
35472SOL    HW212253   9.459   3.769   1.629 -0.5218  0.0308  0.8584
35473SOL     OW12254   5.663   4.111   2.619  0.1173 -0.2130 -0.4779
35473SOL    HW112255   5.624   4.127   2.705 -0.9663 -0.2611 -0.9436
35473SOL    HW212256   5.726   4.041   2.634 -2.6832 -2.9649 -0.3262
35474SOL     OW12257  10.646   9.237   8.634  0.5528  0.1904 -0.1644
35474SOL    HW112258  10.674   9.327   8.617  0.7784  0.2618  0.5344
35474SOL    HW212259  10.550   9.240   8.629  0.4403  0.8776  1.6084
35475SOL     OW12260   1.092   6.991   2.354 -0.9121  0.5607  0.0014
35475SOL    HW112261   1.045   6.955   2.279 -1.7275  0.3013  0.6202
35475SOL    HW212262   1.035   7.060   2.386 -0.1971  1.1963 -0.0836
35476SOL     OW12263   9.025   6.958   3.606  0.5723 -0.1906 -0.4621
35476SOL    HW112264   9.067   6.872   3.615 -0.5098 -0.6366  0.4694
35476SOL    HW212265   8.964   6.947   3.533  1.2297  0.1236 -1.0690
35477SOL     OW12266   7.584   5.724   8.812  0.2706 -0.0315 -0.2049
35477SOL    HW112267   7.515   5.716   8.747  0.4248 -1.4132 -0.2160
35477SOL    HW212268   7.665   5.707   8.764  0.3966 -0.9373  0.3042
35478SOL     OW12269   9.972   1.397   2.018 -0.1340  0.1057 -0.0263
35478SOL    HW112270   9.993   1.489   2.002 -0.6396  0.0460 -1.0528
35478SOL    HW212271   9.955   1.360   1.932 -0.2760 -0.8741  0.4061
35479SOL     OW12272   9.955   8.277   0.218  0.2736  0.1036  0.0994
35479SOL    HW112273   9.916   8.203   0.172  1.3587  1.2292 -2.9235
35479SOL    HW212274   9.885   8.342   0.222  0.1089 -0.0816  0.2151
35480SOL     OW12275   9.507   1.648   6.503  0.2642 -0.1014  0.5718
35480SOL    HW112276   9.540   1.560   6.487  0.2846 -0.0144  0.1389
35480SOL    HW212277   9.483   1.681   6.417  1.6320  0.8594  0.5348
35481SOL     OW12278   3.850   5.018   1.360 -0.0014 -0.0220  0.0449
35481SOL    HW112279   3.829   5.103   1.322 -0.8254 -0.9765 -1.7239
35481SOL    HW212280   3.766   4.972   1.366  0.5783 -1.1462 -0.1112
35482SOL     OW12281   6.603   8.655   9.939  0.4125 -0.2882  0.0705
35482SOL    HW112282   6.521   8.673   9.893  0.0494  2.8130  1.6303
35482SOL    HW212283   6.671   8.677   9.876 -0.0711  2.0633  0.2633
35483SOL     OW12284   0.563  10.112   8.190 -0.1089 -0.0252  0.5608
35483SOL    HW112285   0.642  10.150   8.151 -0.5644  0.8144  0.4464
35483SOL    HW212286   0.529  10.054   8.121  0.5333 -0.5868  0.7027
35484SOL     OW12287   5.640   5.737   1.182  0.4120 -0.1759 -0.1088
35484SOL    HW112288   5.627   5.644   1.165  0.3319 -0.3834  0.9901
35484SOL    HW212289   5.683   5.771   1.103 -1.0196 -0.7895 -1.1891
35485SOL     OW12290   0.419   0.933   1.468 -0.4738  0.0042  0.5670
35485SOL    HW112291   0.421   1.023   1.501 -0.3640  0.5751 -0.9190
35485SOL    HW212292   0.417   0.943   1.373 -2.9735 -1.5309  0.3745
35486SOL     OW12293  10.123   4.555   7.916 -0.0933 -0.0013  0.5575
35486SOL    HW112294  10.051   4.501   7.882 -0.5852  1.2250 -0.4248
35486SOL    HW212295  10.171   4.496   7.974 -1.4288 -1.0875  0.6345
35487SOL     OW12296   1.843   4.909   5.201 -0.5145 -0.0280 -0.0296
35487SOL    HW112297   1.936   4.892   5.219 -0.7778  1.2156  3.1682
35487SOL    HW212298   1.839   5.003   5.183 -1.1819 -0.0505 -0.0232
35488SOL     OW12299   3.659   5.287   6.534 -0.5385 -0.0409 -0.6401
35488SOL    HW112300   3.596   5.288   6.606  0.2936 -1.0306  0.1272
35488SOL    HW212301   3.654   5.199   6.498  1.8341 -0.8661  0.7800
35489SOL     OW12302   3.927  10.386   0.275 -0.4392  0.3271 -0.0383
35489SOL    HW112303   3.862  10.432   0.222 -0.7536  0.0023  0.0593
35489SOL    HW212304   4.003  10.378   0.218 -0.2825  1.1973  0.0319
35490SOL     OW12305   6.658   6.111   5.618  0.0289  0.1949  0.6320
35490SOL    HW112306   6.700   6.107   5.532 -0.8706  0.1923  0.1788
35490SOL    HW212307   6.612   6.195   5.618  0.0494  0.2089  1.1229
35491SOL     OW12308   3.670   7.150   5.208  0.4921 -0.1371  0.6506
35491SOL    HW112309   3.630   7.126   5.291 -0.1965  0.9915  0.6619
35491SOL    HW212310   3.614   7.218   5.173 -0.8807 -2.4704 -2.1150
35492SOL     OW12311   9.941   8.153   0.722 -0.0533  0.0195  0.4338
35492SOL    HW112312   9.908   8.238   0.751 -1.8584 -0.9593  1.3763
35492SOL    HW212313   9.893   8.134   0.642 -1.7747 -1.3458  1.7340
35493SOL     OW12314   6.819   0.267   1.745  0.0141  0.4019 -0.4745
35493SOL    HW112315   6.724   0.261   1.737 -0.0267  1.0921 -0.5338
35493SOL    HW212316   6.850   0.273   1.655  0.2033 -0.9546 -0.5208
35494SOL     OW12317   9.579   2.052   0.499  0.2946 -0.3376  0.0656
35494SOL    HW112318   9.567   2.129   0.443 -0.5172  0.4092  1.2323
35494SOL    HW212319   9.491   2.014   0.507  0.5627 -0.9627  0.1094
35495SOL     OW12320   0.381   1.830   4.771 -0.2294  0.2431  0.7593
35495SOL    HW112321   0.447   1.761   4.767 -2.1395 -1.6539 -1.4765
35495SOL    HW212322   0.429   1.910   4.751  1.4914 -1.0176 -0.5218
35496SOL     OW12323   0.857   9.942   1.850 -0.6085  0.0544  0.2992
35496SOL    HW112324   0.892   9.905   1.769 -0.9589  1.6661 -0.6492
35496SOL    HW212325   0.931   9.990   1.888 -0.6523 -0.0589  0.5284
35497SOL     OW12326   9.735   1.040   7.957  0.1309  0.0283  0.1640
35497SOL    HW112327   9.794   0.971   7.988  0.8487  0.5135 -0.0913
35497SOL    HW212328   9.785   1.086   7.889 -1.4931 -1.1570 -1.9462
35498SOL     OW12329   6.163   0.774   8.377  0.0033 -0.3463 -0.0349
35498SOL    HW112330   6.100   0.763   8.306  0.6861  0.6439 -0.8305
35498SOL    HW212331   6.167   0.689   8.420 -0.6760 -0.8685 -0.9838
35499SOL     OW12332   8.338   2.019   8.947  0.4586  0.2958 -0.1954
35499SOL    HW112333   8.347   1.939   8.998  0.8481  0.8230  0.5753
35499SOL    HW212334   8.244   2.038   8.946  0.4005  0.0058 -0.1097
35500SOL     OW12335   2.626   5.574   4.842  0.2298 -0.3821  0.4844
35500SOL    HW112336   2.554   5.624   4.802  0.7193 -1.0021 -1.2339
35500SOL    HW212337   2.670   5.531   4.769  1.2685 -1.4656  1.6889
35501SOL     OW12338   9.830   4.241   9.967 -0.3422  0.1320 -0.2268
35501SOL    HW112339   9.741   4.250   9.933 -0.5206  1.9548  0.6361
35501SOL    HW212340   9.885   4.238   9.889 -1.0068  1.0436 -0.7503
35502SOL     OW12341  10.139   0.065   9.965 -0.3665  0.5910  0.3874
35502SOL    HW112342  10.083   0.010  10.020  0.9576  0.4897  1.6701
35502SOL    HW212343  10.228   0.049   9.996  0.3924  0.9624 -1.4251
35503SOL     OW12344   1.431   5.450   8.757 -0.1291 -0.2260 -0.2666
35503SOL    HW112345   1.450   5.464   8.850 -1.4714  0.2217 -0.0373
35503SOL    HW212346   1.377   5.525   8.732  1.9610  0.8218 -1.9904
35504SOL     OW12347   9.897   0.173   1.287 -0.4072  0.0941 -0.5528
35504SOL    HW112348   9.914   0.240   1.222  0.0644 -0.1054 -0.6452
35504SOL    HW212349   9.934   0.093   1.249  0.7893  0.1770  0.3801
35505SOL     OW12350   3.817   6.833   1.083 -0.0825  0.4462  0.4079
35505SOL    HW112351   3.812   6.752   1.132 -1.4764  1.2950  1.7717
35505SOL    HW212352   3.729   6.870   1.089  0.7621  2.5518  0.6919
35506SOL     OW12353   9.658   2.687   7.993  0.3809  0.2030 -0.5630
35506SOL    HW112354   9.726   2.649   8.049  0.0038  0.5678  0.1586
35506SOL    HW212355   9.684   2.663   7.904 -0.9644 -3.7033 -0.1151
35507SOL     OW12356   3.958   0.391   1.992 -0.4052 -0.0101  0.0132
35507SOL    HW112357   3.984   0.301   2.013  1.3380  0.5231  0.2968
35507SOL    HW212358   3.868   0.383   1.961 -0.1390 -1.9133 -0.3992
35508SOL     OW12359   0.667   8.963   8.742  0.4415  0.2228 -0.5435
35508SOL    HW112360   0.615   8.917   8.676 -1.6488 -0.5043  1.4951
35508SOL    HW212361   0.647   9.055   8.728 -1.0233 -0.0109 -0.1477
35509SOL     OW12362   2.461  10.405   5.060 -0.4267 -0.2351  0.3492
35509SOL    HW112363   2.506  10.489   5.049  0.1597 -0.6278 -0.3799
35509SOL    HW212364   2.370  10.425   5.040 -0.8664  0.8139  2.9124
35510SOL     OW12365   3.410   9.842   3.847  0.0273 -0.4240 -0.0409
35510SOL    HW112366   3.439   9.751   3.842  0.1523 -0.3180 -1.4802
35510SOL    HW212367   3.329   9.844   3.796  0.0098  0.2775  0.0100
35511SOL     OW12368   3.999   8.794   0.475  0.6771  0.2480  0.6139
35511SOL    HW112369   4.065   8.804   0.406  0.3811  1.4728  0.4962
35511SOL    HW212370   3.939   8.866   0.461 -1.1141 -1.2356  0.2863
35512SOL     OW12371   5.718   8.722   2.459 -0.1198  0.5462 -0.3454
35512SOL    HW112372   5.810   8.735   2.436 -0.2083 -1.1055 -1.8387
35512SOL    HW212373   5.670   8.776   2.397 -0.1941 -0.4248 -1.1764
35513SOL     OW12374   8.488   5.027   6.253 -0.3781  0.0100 -0.5345
35513SOL    HW112375   8.528   5.092   6.196 -0.2275  0.4096  0.0266
35513SOL    HW212376   8.483   5.069   6.338 -0.5811 -0.5947 -0.2437
35514SOL     OW12377   4.147   7.117   5.651  0.0053 -0.8790 -0.9728
35514SOL    HW112378   4.190   7.202   5.642  0.1382 -0.8557 -0.1689
35514SOL    HW212379   4.208   7.055   5.610  0.3830 -0.7222 -0.6524
35515SOL     OW12380   2.743   4.483   9.649 -0.0551 -0.2647  0.2516
35515SOL    HW112381   2.807   4.546   9.681 -1.7022  0.3532  2.6237
35515SOL    HW212382   2.661   4.534   9.643 -0.8921 -1.6117 -0.1678
35516SOL     OW12383   5.472   7.273   6.009  0.2256  0.3519  0.8778
35516SOL    HW112384   5.503   7.222   6.084  0.1487  0.8328  1.2401
35516SOL    HW212385   5.539   7.258   5.941  0.1494 -0.3051  0.9435
35517SOL     OW12386   3.339   2.073   8.002 -0.0131 -0.2359 -0.5463
35517SOL    HW112387   3.374   2.120   8.078 -2.0604  1.7248 -0.7116
35517SOL    HW212388   3.416   2.029   7.964  1.5243  0.8060  1.1630
35518SOL     OW12389   3.961   6.508   7.608 -0.3843 -0.1887  0.5233
35518SOL    HW112390   4.006   6.552   7.536 -1.1230 -0.9279 -0.4195
35518SOL    HW212391   3.868   6.512   7.585 -0.6675 -0.1368  1.6082
35519SOL     OW12392   0.452   9.879   0.231 -0.7034  0.2456 -0.0530
35519SOL    HW112393   0.428   9.791   0.202 -1.3416 -0.2697  1.9119
35519SOL    HW212394   0.547   9.874   0.243 -0.4858  0.3461 -1.5102
35520SOL     OW12395   3.256   3.828   8.680  0.0693  0.2586  0.5660
35520SOL    HW112396   3.160   3.822   8.672  0.2231 -1.6798 -0.4533
35520SOL    HW212397   3.287   3.824   8.590  1.1563 -0.6175  0.9645
35521SOL     OW12398   2.607   1.638   8.309  0.0456  0.4665 -0.0265
35521SOL    HW112399   2.629   1.597   8.226 -1.9823  1.6830 -1.2454
35521SOL    HW212400   2.676   1.702   8.323  1.4353 -1.0293  0.2409
35522SOL     OW12401   7.499   5.099   1.596 -0.1437  0.1654 -0.1296
35522SOL    HW112402   7.586   5.074   1.627  0.5505  2.0174 -0.4772
35522SOL    HW212403   7.465   5.158   1.664 -0.1526  1.2792 -1.0670
35523SOL     OW12404   1.467   6.891   2.996 -0.7541 -0.3591  0.0067
35523SOL    HW112405   1.485   6.981   3.024 -2.3746  0.2396 -0.7578
35523SOL    HW212406   1.437   6.847   3.076 -0.2527 -0.1305  0.3214
35524SOL     OW12407   5.103  10.122   6.773 -0.6520 -0.1071  0.0756
35524SOL    HW112408   5.053  10.067   6.833 -1.2913 -0.3755 -0.6874
35524SOL    HW212409   5.051  10.202   6.763 -2.0812 -1.2190 -2.3578
35525SOL     OW12410   8.651   3.265   6.102 -0.2640 -0.1084  0.1185
35525SOL    HW112411   8.744   3.244   6.103 -0.2062  0.1472  0.8743
35525SOL    HW212412   8.624   3.261   6.194 -0.8149  0.6074  0.0012
35526SOL     OW12413   5.798   1.033   1.093  0.3934 -0.4904  0.0182
35526SOL    HW112414   5.759   0.980   1.162 -0.2797  3.1360  2.6900
35526SOL    HW212415   5.738   1.023   1.019 -2.2562  0.0296  1.9545
35527SOL     OW12416   3.884   0.222   0.624 -0.1564 -0.4379  0.3674
35527SOL    HW112417   3.823   0.155   0.593 -0.8602  0.4797 -0.2746
35527SOL    HW212418   3.831   0.278   0.681  0.3465 -0.2304  0.6332
35528SOL     OW12419   2.968   1.485   4.515  0.7931 -0.4048 -0.2317
35528SOL    HW112420   2.974   1.446   4.428  0.3251  0.3137 -0.5967
35528SOL    HW212421   2.958   1.410   4.574 -2.7064 -0.8374 -1.1448
35529SOL     OW12422   4.112   8.626   7.851 -0.3451 -0.5332  0.5584
35529SOL    HW112423   4.041   8.571   7.885 -1.2994  1.5353  2.2089
35529SOL    HW212424   4.075   8.714   7.851  1.9457  0.4975  0.6316
35530SOL     OW12425   4.632   9.945   7.451 -0.6728 -0.0199  0.1365
35530SOL    HW112426   4.725   9.924   7.464 -0.8698 -0.2890  1.2093
35530SOL    HW212427   4.588   9.861   7.456 -0.9664  0.0988 -0.4677
35531SOL     OW12428   4.338   8.474   8.432  0.0196  0.5475  0.5455
35531SOL    HW112429   4.410   8.537   8.437  0.9826 -0.4512 -0.2408
35531SOL    HW212430   4.377   8.391   8.459 -0.6459 -0.1452 -0.5268
35532SOL     OW12431   2.152   2.753   4.637  0.0871 -0.0821 -0.1231
35532SOL    HW112432   2.242   2.724   4.620  0.0314 -0.6078  0.4334
35532SOL    HW212433   2.110   2.752   4.551  0.4722 -0.3506 -0.3133
35533SOL     OW12434   5.996   9.591   9.091 -0.1697 -0.6262 -0.1797
35533SOL    HW112435   5.908   9.582   9.128  0.1427  0.9943  1.0569
35533SOL    HW212436   6.054   9.560   9.161  0.3075 -0.1767 -0.3716
35534SOL     OW12437   2.355   3.715   6.458  0.1344  0.6747  0.5148
35534SOL    HW112438   2.370   3.732   6.551  0.8119 -0.6502  0.6802
35534SOL    HW212439   2.260   3.707   6.450  0.1417 -0.6783  1.4104
35535SOL     OW12440  10.362   1.016   3.967  0.1884  0.2268  0.1515
35535SOL    HW112441  10.426   1.077   4.005  0.0520  1.9225 -2.0860
35535SOL    HW212442  10.286   1.072   3.946 -0.8716 -1.1867  0.0935
35536SOL     OW12443   3.498   0.551   7.092  0.0796 -0.8960 -0.0040
35536SOL    HW112444   3.489   0.512   7.179 -1.7503 -0.4377  0.0487
35536SOL    HW212445   3.510   0.644   7.109 -1.4333 -0.6331 -0.2284
35537SOL     OW12446   7.949   8.097  10.680 -0.4080 -0.2301  0.4698
35537SOL    HW112447   7.924   8.136  10.764  0.9913  1.5679  0.1152
35537SOL    HW212448   7.968   8.172  10.624  0.8297 -1.4266 -0.7631
35538SOL     OW12449   4.140   0.199   6.727 -0.2067 -0.5270 -0.6902
35538SOL    HW112450   4.174   0.142   6.796  0.7690  2.1398  1.2004
35538SOL    HW212451   4.045   0.183   6.728 -0.5313  0.7084  2.7096
35539SOL     OW12452   4.114   0.990   7.107  0.4683 -0.1144 -0.0749
35539SOL    HW112453   4.140   0.966   7.196  0.2875  0.7448  0.2201
35539SOL    HW212454   4.114   0.908   7.059 -1.4302 -0.9198  1.2092
35540SOL     OW12455   3.004   2.619   5.564  0.2941 -0.5045  1.0290
35540SOL    HW112456   2.962   2.668   5.634  1.6625  0.2057  1.3829
35540SOL    HW212457   3.096   2.643   5.569  0.7059 -1.7294  0.0480
35541SOL     OW12458   8.990   0.151   3.625  0.0853 -0.0579  0.2444
35541SOL    HW112459   9.082   0.127   3.620 -0.2065 -0.9549 -2.7530
35541SOL    HW212460   8.990   0.246   3.637  1.3914 -0.0491  0.2639
35542SOL     OW12461   1.952   0.662   7.769 -0.0487  0.1186 -0.1646
35542SOL    HW112462   1.864   0.636   7.794  0.2886 -1.2669 -0.3123
35542SOL    HW212463   1.998   0.674   7.852 -0.4170  1.0620 -0.0842
35543SOL     OW12464   1.317   6.779   3.181 -0.4373  0.0483  0.2447
35543SOL    HW112465   1.247   6.786   3.247 -0.2901  0.0365  0.4037
35543SOL    HW212466   1.374   6.710   3.215 -0.3271  0.0842  0.1337
35544SOL     OW12467   8.381   7.508   9.929 -0.1309 -0.1057 -0.0410
35544SOL    HW112468   8.288   7.528   9.916 -0.2784 -1.0592 -0.5398
35544SOL    HW212469   8.395   7.427   9.881  0.7747 -0.4156  0.7133
35545SOL     OW12470   1.414   9.211   0.616  0.1861 -0.1113 -0.0528
35545SOL    HW112471   1.478   9.167   0.560 -1.5343 -0.7931 -1.5788
35545SOL    HW212472   1.386   9.288   0.565 -1.2246 -0.6105 -0.0783
35546SOL     OW12473   3.866   1.671  10.320  0.3186 -0.2349 -0.0648
35546SOL    HW112474   3.857   1.649  10.412 -0.2810 -1.2445 -0.3455
35546SOL    HW212475   3.918   1.600  10.283  1.8481  0.9341 -0.2317
35547SOL     OW12476   0.469   5.130   2.285  0.3040 -0.1887 -0.3548
35547SOL    HW112477   0.427   5.189   2.222  0.1423 -0.7008 -0.7375
35547SOL    HW212478   0.400   5.110   2.349  0.4320  0.2362 -0.0883
35548SOL     OW12479   3.632   3.287   8.874 -0.9549 -0.1216 -0.0290
35548SOL    HW112480   3.715   3.267   8.918 -0.8887 -2.8427 -1.1835
35548SOL    HW212481   3.574   3.216   8.901 -2.3330  0.7069 -0.7317
35549SOL     OW12482   1.318   9.655   9.381 -0.1942 -0.0857 -0.5007
35549SOL    HW112483   1.247   9.602   9.344 -1.6685  0.6965  1.0732
35549SOL    HW212484   1.327   9.625   9.471  0.2126  1.0742 -0.1329
35550SOL     OW12485   3.699   5.367   7.175  0.2367 -0.0167  0.1491
35550SOL    HW112486   3.783   5.360   7.130 -0.3403  0.0105 -0.9891
35550SOL    HW212487   3.660   5.279   7.166  0.4932 -0.2704  1.4106
35551SOL     OW12488  10.293   2.912   3.739  0.5695  0.3283 -0.1430
35551SOL    HW112489  10.238   2.965   3.681  0.2942  0.8557  0.5843
35551SOL    HW212490  10.281   2.822   3.707 -1.7631  0.2410  0.7628
35552SOL     OW12491   6.389   8.618   8.128  0.0169  0.4775 -0.0567
35552SOL    HW112492   6.431   8.534   8.113 -1.5428 -0.4782  0.6899
35552SOL    HW212493   6.422   8.647   8.213  0.1905  0.4069 -0.0994
35553SOL     OW12494   4.691   2.395   8.236  0.6051 -0.5527 -0.2966
35553SOL    HW112495   4.739   2.455   8.179 -1.0339 -0.4469 -1.6378
35553SOL    HW212496   4.703   2.431   8.324  0.9089  0.8643 -0.8889
35554SOL     OW12497   3.766   6.440   1.497  0.4371  0.4118 -0.1110
35554SOL    HW112498   3.712   6.361   1.502  0.2557  0.4906 -0.7050
35554SOL    HW212499   3.715   6.508   1.542 -0.7109  0.8806 -2.0310
35555SOL     OW12500  10.426   4.129   6.516  0.5141 -0.4562 -0.1212
35555SOL    HW112501  10.421   4.087   6.430 -0.7896  1.0019 -0.8101
35555SOL    HW212502  10.513   4.168   6.519  0.6039 -0.5894 -0.7372
35556SOL     OW12503   1.890   3.104   6.471  0.3052 -0.8612  0.3445
35556SOL    HW112504   1.983   3.128   6.466 -0.0490  0.3155 -1.6159
35556SOL    HW212505   1.880   3.032   6.409 -0.1752 -0.6815  0.2089
35557SOL     OW12506   9.522   6.646   7.737 -0.1584 -0.4375  0.6748
35557SOL    HW112507   9.513   6.597   7.656 -3.5187  1.7633 -0.4992
35557SOL    HW212508   9.606   6.691   7.728 -0.5027 -0.1297 -1.7247
35558SOL     OW12509   4.997   1.918   5.925 -0.2904 -0.1870 -0.2770
35558SOL    HW112510   4.987   2.009   5.899 -1.3824 -0.4547 -0.8913
35558SOL    HW212511   4.953   1.912   6.010 -0.0632 -0.1018 -0.1540
35559SOL     OW12512   5.322   6.594   8.958 -0.3640  0.0126 -0.1231
35559SOL    HW112513   5.296   6.672   8.910 -1.1061 -1.1731 -1.7299
35559SOL    HW212514   5.288   6.521   8.907 -0.0811 -1.3764  1.5539
35560SOL     OW12515   1.682   8.052   0.927 -0.2508  0.5099  0.1215
35560SOL    HW112516   1.708   8.015   1.011  0.3190 -3.9262 -1.7309
35560SOL    HW212517   1.764   8.067   0.880 -0.4283 -3.1143 -1.7315
35561SOL     OW12518   5.293   9.013   2.761  0.2595  0.2140  0.4899
35561SOL    HW112519   5.218   8.979   2.713 -1.5606  2.2185  1.6985
35561SOL    HW212520   5.296   8.962   2.842  0.3991 -0.0548  0.3169
35562SOL     OW12521   8.344   6.886   7.787 -0.2548 -0.3884 -0.1569
35562SOL    HW112522   8.329   6.894   7.881  0.2701 -2.7099  0.1952
35562SOL    HW212523   8.322   6.795   7.767 -0.3077  0.0439 -2.2826
35563SOL     OW12524   4.132   6.553   5.339 -0.2955  0.4932  0.1429
35563SOL    HW112525   4.167   6.466   5.359 -2.4215 -0.1915  1.1530
35563SOL    HW212526   4.199   6.593   5.284  0.5339 -1.9678 -0.7914
35564SOL     OW12527   9.972   3.573   8.099 -0.1871  0.6756 -0.0614
35564SOL    HW112528  10.020   3.512   8.043  0.2589 -0.1871  1.2147
35564SOL    HW212529   9.893   3.525   8.124 -0.2283  0.9223  0.2961
35565SOL     OW12530   7.638   8.275   6.610  0.5207  0.3467 -0.2756
35565SOL    HW112531   7.673   8.267   6.521 -1.6224 -1.4916 -1.0458
35565SOL    HW212532   7.618   8.368   6.619 -2.6776  0.1648 -3.2762
35566SOL     OW12533   0.846  10.692   5.184 -0.1837  1.0282  0.0175
35566SOL    HW112534   0.826  10.768   5.129 -1.2275 -1.1146 -2.8241
35566SOL    HW212535   0.917  10.647   5.138 -1.1157 -0.8961  0.3519
35567SOL     OW12536   1.096   3.941   9.743 -0.9181  0.2670 -0.1751
35567SOL    HW112537   1.158   3.997   9.790 -1.3012  1.0496 -0.5640
35567SOL    HW212538   1.027   3.923   9.806  0.2542 -1.6349  0.6626
35568SOL     OW12539   0.123   3.565   7.348 -0.1834 -0.0142 -0.1372
35568SOL    HW112540   0.148   3.474   7.334  1.0126 -0.2342  2.7813
35568SOL    HW212541   0.028   3.563   7.359 -0.0246 -1.1331  1.1790
35569SOL     OW12542   9.611   7.254   4.184  0.1659 -0.2494  0.1054
35569SOL    HW112543   9.550   7.200   4.133 -0.8317 -1.2747  2.2637
35569SOL    HW212544   9.560   7.333   4.205 -0.7629 -1.3912  2.4699
35570SOL     OW12545   6.508   1.227   9.652  0.0299  0.5156 -0.6028
35570SOL    HW112546   6.436   1.222   9.715  0.3647  0.1111 -0.2487
35570SOL    HW212547   6.480   1.294   9.589 -0.7491  0.2089 -0.5901
35571SOL     OW12548   4.246   7.792   7.939 -0.6430 -0.5602  0.4243
35571SOL    HW112549   4.189   7.722   7.908  0.7080 -0.9342 -1.3315
35571SOL    HW212550   4.332   7.751   7.948 -0.4055  0.2280  2.0849
35572SOL     OW12551   9.549   3.377   1.849  0.2601 -0.4280  0.9587
35572SOL    HW112552   9.529   3.354   1.940 -1.9601  3.1314  1.5445
35572SOL    HW212553   9.472   3.350   1.799 -0.7089  1.9418  1.0516
35573SOL     OW12554   9.339   5.014   2.882 -0.0549 -0.3322 -0.8040
35573SOL    HW112555   9.398   5.077   2.840 -0.2021  1.0617  0.9450
35573SOL    HW212556   9.290   4.976   2.809  1.9981 -0.5300 -2.1823
35574SOL     OW12557   8.379   1.367   0.070  0.4586  0.2638  0.1320
35574SOL    HW112558   8.348   1.457   0.062 -0.6567 -0.1560 -0.3408
35574SOL    HW212559   8.468   1.376   0.105  1.0696  1.6426 -1.5978
35575SOL     OW12560   6.146  10.672   4.094 -0.1926 -0.9570 -0.6719
35575SOL    HW112561   6.082  10.724   4.143  0.6849  0.6510 -1.1366
35575SOL    HW212562   6.210  10.737   4.064 -0.2254 -1.9922 -3.1941
35576SOL     OW12563   6.367   1.488   6.369  0.2803  0.0135  0.3068
35576SOL    HW112564   6.306   1.462   6.300 -0.8483 -2.6777  2.1095
35576SOL    HW212565   6.453   1.464   6.336 -0.0516  0.2637 -0.7676
35577SOL     OW12566  10.634   6.733   1.119  0.3645  0.1392  0.1874
35577SOL    HW112567  10.700   6.795   1.148 -0.5571  0.6036  1.3694
35577SOL    HW212568  10.683   6.655   1.095  1.4516  0.9590 -0.3398
35578SOL     OW12569   6.674   4.852   8.731 -0.5935 -0.0158 -0.3603
35578SOL    HW112570   6.748   4.910   8.745 -0.4295 -0.4185  0.5150
35578SOL    HW212571   6.697   4.800   8.654  0.4314 -0.7486  0.4232
35579SOL     OW12572   4.256   3.276   0.971  0.0277 -0.0757 -0.0152
35579SOL    HW112573   4.280   3.361   1.008 -2.2390  0.8321 -0.4519
35579SOL    HW212574   4.254   3.291   0.876  0.1354 -0.7845 -0.1375
35580SOL     OW12575   5.470   6.858   9.254 -0.6308 -0.0978 -0.4279
35580SOL    HW112576   5.471   6.853   9.158  0.9038  2.3940 -0.6400
35580SOL    HW212577   5.521   6.937   9.274 -1.1257 -0.4067  2.4500
35581SOL     OW12578   8.063   4.179  10.102  0.1728  0.5122 -0.5165
35581SOL    HW112579   7.985   4.125  10.112  0.8722 -0.3839  0.2385
35581SOL    HW212580   8.064   4.204  10.010 -0.7180  0.0945 -0.6445
35582SOL     OW12581  10.598   1.816   1.657  0.1317 -0.3858  0.1420
35582SOL    HW112582  10.536   1.743   1.659 -1.0798  0.5305 -1.4603
35582SOL    HW212583  10.649   1.801   1.577 -0.9252  1.1011 -0.8529
35583SOL     OW12584   5.587   4.682  10.381  0.7648  0.8110 -0.9040
35583SOL    HW112585   5.578   4.732  10.300  0.2356  0.0241 -1.3415
35583SOL    HW212586   5.592   4.591  10.353  1.2473  0.5684 -0.0860
35584SOL     OW12587   6.915   6.802   7.426  0.6223  0.3881 -0.4957
35584SOL    HW112588   6.880   6.733   7.369 -0.1267  0.0912  0.2803
35584SOL    HW212589   6.894   6.884   7.382 -0.0167  0.1651 -0.6182
35585SOL     OW12590   7.852   2.086   1.706 -0.0605  0.2711  0.1439
35585SOL    HW112591   7.879   2.006   1.661 -1.3716  0.3000 -0.7419
35585SOL    HW212592   7.807   2.055   1.785 -1.9313  0.0140 -0.9475
35586SOL     OW12593   7.456   0.512   8.232 -0.1044 -0.1064 -0.3669
35586SOL    HW112594   7.405   0.563   8.294 -0.6046 -0.4340 -0.5050
35586SOL    HW212595   7.394   0.487   8.164  0.3829  0.0367 -0.8707
35587SOL     OW12596  10.189   6.481   0.725 -0.4453 -0.1193 -0.0263
35587SOL    HW112597  10.119   6.536   0.760 -2.1870 -3.0967  1.6889
35587SOL    HW212598  10.229   6.532   0.655 -3.7556  2.1054 -0.4776
35588SOL     OW12599  10.207   9.073   3.100 -0.1939  0.0373 -0.9678
35588SOL    HW112600  10.190   9.058   3.007 -1.7226 -0.6993 -0.5950
35588SOL    HW212601  10.143   9.140   3.125 -0.9856 -1.0376 -0.0566
35589SOL     OW12602   7.006   9.725   1.889  0.0045  0.3821 -0.5171
35589SOL    HW112603   6.919   9.708   1.852  0.4275 -0.8399 -0.9930
35589SOL    HW212604   6.989   9.746   1.981 -0.7542 -0.4870 -0.4450
35590SOL     OW12605   5.799   1.479   3.300 -0.4388  0.4333 -0.6191
35590SOL    HW112606   5.798   1.405   3.361 -1.1546  0.2693 -0.8251
35590SOL    HW212607   5.738   1.453   3.231  0.9367  0.2764 -1.8069
35591SOL     OW12608   8.324   3.423   2.191  0.0875  0.8305  0.0846
35591SOL    HW112609   8.246   3.421   2.246  1.3416  3.2248  2.1144
35591SOL    HW212610   8.377   3.350   2.223 -0.5462  0.2545 -0.1476
35592SOL     OW12611   6.773   3.323   6.845  0.1349 -0.4189  0.0018
35592SOL    HW112612   6.819   3.242   6.865  3.0285  0.7943 -1.1987
35592SOL    HW212613   6.818   3.390   6.895 -2.7787  0.4615  1.7027
35593SOL     OW12614   3.771  10.458   4.449  0.1234  0.8211  0.7844
35593SOL    HW112615   3.771  10.520   4.522  0.6558  1.6552  0.0859
35593SOL    HW212616   3.788  10.373   4.490  1.0296  1.3584  1.5662
35594SOL     OW12617   8.469   5.854   4.807 -0.1104  0.0477  0.3886
35594SOL    HW112618   8.504   5.896   4.728  0.1953  0.2139  0.6100
35594SOL    HW212619   8.374   5.861   4.797 -0.0662  1.3836  0.7239
35595SOL     OW12620   8.850   4.728   9.081 -0.1787  0.2710  0.6529
35595SOL    HW112621   8.831   4.645   9.124 -0.1277  0.3161  0.7616
35595SOL    HW212622   8.768   4.777   9.086 -1.2054 -0.9312 -2.0718
35596SOL     OW12623   4.373   0.622   1.749  0.0061 -0.0469  0.5474
35596SOL    HW112624   4.295   0.569   1.735  0.6912 -0.7252 -0.9154
35596SOL    HW212625   4.445   0.568   1.718  1.2874 -0.0438  3.2354
35597SOL     OW12626   8.878   7.388   2.564  0.2994  0.2126  0.0847
35597SOL    HW112627   8.890   7.480   2.544  0.2253  1.0262  3.1985
35597SOL    HW212628   8.938   7.342   2.506  0.3982  2.2075 -1.4693
35598SOL     OW12629   6.895   3.883   6.424 -0.1566 -0.3278 -0.2144
35598SOL    HW112630   6.810   3.857   6.460 -0.0710 -0.3266 -0.0111
35598SOL    HW212631   6.959   3.848   6.486 -0.0463  0.6812  0.2596
35599SOL     OW12632   3.061   4.448   1.636  0.3938  0.0605 -0.3274
35599SOL    HW112633   2.999   4.466   1.565 -0.1721  1.8639  0.5610
35599SOL    HW212634   3.029   4.367   1.676 -0.8625  0.4535 -0.4834
35600SOL     OW12635   3.881   2.942   9.610 -0.3389 -0.6690  0.1853
35600SOL    HW112636   3.829   2.862   9.607 -0.1232 -0.7753 -0.7077
35600SOL    HW212637   3.944   2.927   9.681 -0.6562 -1.0608  0.3917
35601SOL     OW12638   2.285   5.244   9.704  0.1978  0.3033  0.1384
35601SOL    HW112639   2.218   5.312   9.701  0.1271  0.2869  1.0593
35601SOL    HW212640   2.363   5.290   9.736 -0.3090 -0.3700  2.5453
35602SOL     OW12641   2.136   7.340   9.072  0.3200 -0.7277  0.6116
35602SOL    HW112642   2.151   7.404   9.141 -1.3467 -1.3785  1.6393
35602SOL    HW212643   2.136   7.256   9.117 -3.4886 -0.9953  0.3841
35603SOL     OW12644   2.863   4.543   0.288  0.4045 -0.7493  0.4522
35603SOL    HW112645   2.821   4.459   0.271 -1.5057  0.2238  0.0923
35603SOL    HW212646   2.861   4.589   0.204  0.7884 -0.0718  0.8042
35604SOL     OW12647   4.751   4.650   1.730 -0.2630  1.1817  0.1390
35604SOL    HW112648   4.779   4.741   1.723  0.7959  0.9268  0.6991
35604SOL    HW212649   4.826   4.606   1.772 -0.5039 -0.0604 -0.6987
35605SOL     OW12650   3.588   6.572  10.388  0.3163  0.1289 -0.6690
35605SOL    HW112651   3.682   6.588  10.379  0.6749 -1.2050  0.4549
35605SOL    HW212652   3.569   6.592  10.480 -0.1677 -1.1438 -0.4794
35606SOL     OW12653   2.579   3.274   8.225  0.0122 -0.2218  0.1420
35606SOL    HW112654   2.655   3.324   8.196 -0.5762  1.4916  1.3841
35606SOL    HW212655   2.522   3.338   8.266 -1.6630 -1.6346  0.1433
35607SOL     OW12656   6.497   4.136   2.438 -0.0861 -0.4933  0.4218
35607SOL    HW112657   6.511   4.223   2.401 -0.6447  0.4785  2.3397
35607SOL    HW212658   6.479   4.080   2.363  0.9151  0.9081 -0.9151
35608SOL     OW12659   6.351   0.283   3.575  0.0922 -0.2998  0.0373
35608SOL    HW112660   6.293   0.228   3.523 -0.5090 -1.4445  1.8594
35608SOL    HW212661   6.426   0.300   3.517 -0.9588 -0.7393 -1.5150
35609SOL     OW12662   6.920   9.366   4.209 -0.1731  0.1552  0.1105
35609SOL    HW112663   6.841   9.327   4.171  0.0711  0.0106 -0.2486
35609SOL    HW212664   6.957   9.297   4.264  1.5176 -0.9917 -2.2858
35610SOL     OW12665   8.209   8.461   5.783 -0.5456  0.1249 -0.1955
35610SOL    HW112666   8.246   8.381   5.821 -0.3777 -0.7185 -2.0279
35610SOL    HW212667   8.114   8.448   5.788 -0.5928  0.8216  1.4810
35611SOL     OW12668  10.093   7.777  10.443  0.3815 -0.4226 -0.0145
35611SOL    HW112669  10.150   7.834  10.496 -1.1701  0.5813  0.6718
35611SOL    HW212670  10.105   7.690  10.480 -0.4537  0.2075  1.8911
35612SOL     OW12671   9.204   4.021   3.721 -0.0641  0.1248  0.4071
35612SOL    HW112672   9.156   3.943   3.692 -0.8245 -0.1316  2.2475
35612SOL    HW212673   9.259   3.990   3.792 -1.2466  1.4344  1.9772
35613SOL     OW12674   6.360   0.850   8.143  0.5646  0.2572  0.4198
35613SOL    HW112675   6.317   0.815   8.064  0.5381  1.5358 -0.1568
35613SOL    HW212676   6.309   0.815   8.216 -1.3161  1.5068 -0.2382
35614SOL     OW12677   3.672   6.851   2.632 -0.4877 -0.2318 -0.0884
35614SOL    HW112678   3.683   6.879   2.723 -0.1551  0.2421 -0.2675
35614SOL    HW212679   3.730   6.776   2.623  0.0317  0.1614 -0.0978
35615SOL     OW12680   3.382  10.574   2.448 -0.7179 -0.0606  0.3218
35615SOL    HW112681   3.294  10.536   2.437 -0.8404  0.4734 -0.7528
35615SOL    HW212682   3.386  10.642   2.381  0.0035  0.8872  1.2967
35616SOL     OW12683  10.134   0.590   7.236 -0.3882 -0.2628 -0.3366
35616SOL    HW112684  10.212   0.626   7.280 -1.6592  0.4622  1.4244
35616SOL    HW212685  10.158   0.500   7.216  1.1731  0.1582 -0.4851
35617SOL     OW12686  10.364  10.180   1.385  0.1912  0.8570  0.5434
35617SOL    HW112687  10.451  10.141   1.375 -0.9473 -1.8653  0.3789
35617SOL    HW212688  10.372  10.267   1.345  2.1449 -0.3379 -1.9757
35618SOL     OW12689   3.878   9.436   9.095  0.1798 -0.2723 -1.1424
35618SOL    HW112690   3.884   9.528   9.068 -0.1077  0.7898  1.9290
35618SOL    HW212691   3.969   9.407   9.101  0.7726  1.6409  2.8518
35619SOL     OW12692   9.344   0.574   8.042 -0.4169 -0.2685 -0.0561
35619SOL    HW112693   9.366   0.507   7.978 -3.6195  0.4961 -2.1924
35619SOL    HW212694   9.425   0.624   8.053  1.0234 -2.2214 -1.2335
35620SOL     OW12695   5.062   3.916   0.074  0.1965 -0.5160  0.0461
35620SOL    HW112696   4.986   3.951   0.027  0.6695  1.5486  0.7163
35620SOL    HW212697   5.120   3.884   0.005  1.1965  3.0942 -0.9978
35621SOL     OW12698   4.447   3.250   2.603  0.0364  0.2701 -0.7043
35621SOL    HW112699   4.423   3.343   2.599 -2.1630 -0.2195 -0.4410
35621SOL    HW212700   4.512   3.245   2.672 -0.1923  1.5500 -0.3626
35622SOL     OW12701   3.123   7.556   0.626 -0.7833  0.1124  0.2804
35622SOL    HW112702   3.148   7.618   0.694 -0.0039 -0.3865  0.4525
35622SOL    HW212703   3.115   7.472   0.671 -1.4284  0.0022 -0.0272
35623SOL     OW12704   2.691   1.407   2.909 -0.0103 -0.6280  0.4883
35623SOL    HW112705   2.734   1.323   2.895 -0.1795 -0.5510 -0.5886
35623SOL    HW212706   2.672   1.439   2.821  1.1982  1.1545  0.8355
35624SOL     OW12707   6.260   3.898   7.995 -0.0504  0.2159 -0.2226
35624SOL    HW112708   6.334   3.920   8.051  0.6285 -1.2730 -0.4795
35624SOL    HW212709   6.188   3.878   8.055  0.9852 -2.4760  0.2171
35625SOL     OW12710   8.512   4.939   6.676 -0.6828 -0.5448  0.2970
35625SOL    HW112711   8.458   4.997   6.621 -1.1279  0.4468  1.7125
35625SOL    HW212712   8.449   4.880   6.717 -0.3870 -1.0997 -0.0520
35626SOL     OW12713   0.614   2.464   6.715  0.0445  0.6698  0.1004
35626SOL    HW112714   0.690   2.415   6.748  0.7418  2.2553  0.9298
35626SOL    HW212715   0.539   2.428   6.762  0.6729  1.0515  1.4242
35627SOL     OW12716   0.057   4.828   4.443  0.7002  0.2242  0.8950
35627SOL    HW112717   0.025   4.843   4.355 -0.5499  2.0116  1.5963
35627SOL    HW212718   0.111   4.904   4.463  3.8100 -1.7397  0.5240
35628SOL     OW12719   3.485   0.683   0.660  0.2893  0.5160  0.3373
35628SOL    HW112720   3.542   0.633   0.602  0.0600  1.5462 -0.8339
35628SOL    HW212721   3.406   0.629   0.668  0.6583 -0.0203  0.3708
35629SOL     OW12722   0.294   4.882  10.408  0.0013  0.3296  0.1679
35629SOL    HW112723   0.254   4.800  10.440  0.2228  0.5401  1.0027
35629SOL    HW212724   0.219   4.939  10.391 -0.1106  0.3203  0.6105
35630SOL     OW12725   8.743   2.605   8.925  0.1603  0.3639  0.0773
35630SOL    HW112726   8.808   2.581   8.991  0.1622  1.0247  0.3230
35630SOL    HW212727   8.782   2.578   8.842  0.9804  1.2217  0.1744
35631SOL     OW12728   6.663   6.490   3.241  0.4299 -0.2270 -0.0956
35631SOL    HW112729   6.647   6.396   3.238 -1.2034  0.0306 -0.5827
35631SOL    HW212730   6.590   6.528   3.193  0.6873  1.3421  0.6852
35632SOL     OW12731   4.188   6.877   0.908 -0.4036 -0.1783  0.1873
35632SOL    HW112732   4.219   6.795   0.946  0.3107 -0.3839 -0.7928
35632SOL    HW212733   4.257   6.940   0.929  0.1852 -0.3790 -1.0368
35633SOL     OW12734   7.091   7.366   2.971 -0.3619 -0.1319 -0.3872
35633SOL    HW112735   7.084   7.278   2.936 -0.5101  0.0597 -0.8461
35633SOL    HW212736   7.008   7.408   2.947  0.0790  0.4255 -0.9976
35634SOL     OW12737   4.821   2.882   6.697  0.6509 -0.0482 -0.1759
35634SOL    HW112738   4.877   2.949   6.738  1.1266  0.0155 -0.9054
35634SOL    HW212739   4.803   2.916   6.610  0.0710 -0.4156 -0.2005
35635SOL     OW12740   6.080   8.930   7.465 -0.4880 -0.1165 -0.1640
35635SOL    HW112741   6.157   8.904   7.416  0.7673 -0.8947  2.0849
35635SOL    HW212742   6.079   9.026   7.459  0.3924 -0.1273 -0.5895
35636SOL     OW12743   6.570   6.028   7.894  0.0414 -0.1780  0.0057
35636SOL    HW112744   6.563   5.936   7.919  2.1989 -1.1208 -2.4169
35636SOL    HW212745   6.530   6.032   7.807  2.0034  0.6376 -0.9096
35637SOL     OW12746   6.164   4.377   7.276  0.2079 -0.0600 -0.2612
35637SOL    HW112747   6.136   4.287   7.258 -1.5507  0.5103 -0.5798
35637SOL    HW212748   6.173   4.417   7.189  0.0232  0.3330 -0.1027
35638SOL     OW12749   5.892   3.430   2.082 -0.6953  0.4569  0.0972
35638SOL    HW112750   5.807   3.468   2.058 -0.7131  0.7448  0.5985
35638SOL    HW212751   5.940   3.503   2.121 -0.0020  0.4349 -0.7061
35639SOL     OW12752   6.810   4.361   4.926  0.2029  0.2926  0.0655
35639SOL    HW112753   6.716   4.347   4.911  0.1002  0.5782  0.4413
35639SOL    HW212754   6.853   4.293   4.874 -0.2113  0.1960 -0.1527
35640SOL     OW12755   6.612   4.203   7.002 -0.6663  0.1749 -0.4702
35640SOL    HW112756   6.663   4.141   7.053  0.7737 -0.5584 -2.6464
35640SOL    HW212757   6.531   4.157   6.982 -0.4158 -0.2661 -0.4765
35641SOL     OW12758   8.472   7.274   6.813  0.1829 -0.3105  0.0353
35641SOL    HW112759   8.493   7.183   6.794  1.7831 -0.0665  0.5270
35641SOL    HW212760   8.410   7.299   6.745 -0.3329 -1.7767 -0.0670
35642SOL     OW12761   7.580   1.724   4.160  0.1572 -0.3339 -0.5154
35642SOL    HW112762   7.567   1.677   4.242  0.0294 -0.9459 -0.8828
35642SOL    HW212763   7.498   1.772   4.146 -0.0814 -0.7666 -0.6272
35643SOL     OW12764   4.952   3.311  10.636  0.1308  0.6733 -0.1033
35643SOL    HW112765   4.969   3.319  10.730  0.6403 -0.3280 -0.0958
35643SOL    HW212766   4.863   3.344  10.625 -0.4671 -0.4870  0.9687
35644SOL     OW12767  10.391   4.103   5.037 -0.0342  0.3151 -0.1580
35644SOL    HW112768  10.320   4.133   4.981 -0.7597 -1.3643 -0.2060
35644SOL    HW212769  10.463   4.085   4.976 -1.3310 -3.0489 -0.9038
35645SOL     OW12770   1.151   4.340   6.410 -0.5590  0.8492 -0.0393
35645SOL    HW112771   1.218   4.404   6.436  1.9102 -2.1151  1.5378
35645SOL    HW212772   1.182   4.306   6.326  1.0589 -1.7135  1.4506
35646SOL     OW12773   5.776   6.821   4.445  0.6411  0.4245 -0.1492
35646SOL    HW112774   5.789   6.727   4.459  0.3674  0.3437 -0.4301
35646SOL    HW212775   5.684   6.835   4.466  0.6919  0.6378 -0.0704
35647SOL     OW12776   8.071   5.183   8.005  0.1468 -0.0759 -0.1389
35647SOL    HW112777   8.081   5.220   7.917 -0.3445  2.9564  0.9405
35647SOL    HW212778   7.978   5.166   8.014  0.2733 -0.9092 -0.3847
35648SOL     OW12779   0.356   4.776   4.810  0.4360  0.1650  0.0698
35648SOL    HW112780   0.266   4.784   4.780  0.4461 -0.2824 -0.0873
35648SOL    HW212781   0.365   4.685   4.837  1.1639 -0.1010 -1.0001
35649SOL     OW12782   4.410   0.196   0.501 -0.0853 -0.2950 -0.3040
35649SOL    HW112783   4.387   0.133   0.568 -1.0632 -0.1607 -0.4864
35649SOL    HW212784   4.327   0.241   0.481  0.5639  1.0041 -0.2115
35650SOL     OW12785   9.065   7.294   0.199  0.1580  0.1638  0.0273
35650SOL    HW112786   9.085   7.232   0.128  0.3942  1.3020 -0.9449
35650SOL    HW212787   8.977   7.271   0.227 -0.0186 -0.1961 -0.7858
35651SOL     OW12788   3.087   7.173   4.590 -0.5279  0.7468 -0.4137
35651SOL    HW112789   3.112   7.216   4.673  1.9728  0.8250 -1.1142
35651SOL    HW212790   3.096   7.080   4.608 -0.5655  0.7403 -0.4288
35652SOL     OW12791   0.008   8.229   0.840 -0.2110  0.0577  0.1541
35652SOL    HW112792  -0.035   8.147   0.820  2.9157 -1.5899 -0.4628
35652SOL    HW212793   0.029   8.267   0.755 -1.6156  1.5924  0.4256
35653SOL     OW12794   4.534   3.318   1.765 -0.1371  0.5573 -0.2753
35653SOL    HW112795   4.471   3.289   1.699 -0.7337  1.3583 -0.0728
35653SOL    HW212796   4.527   3.413   1.765  0.2182  0.5920  0.5793
35654SOL     OW12797   0.009   6.185   0.505 -0.2506 -0.1135  0.5992
35654SOL    HW112798  -0.012   6.107   0.557 -0.0859 -0.3687  0.2892
35654SOL    HW212799  -0.001   6.258   0.566  0.3956 -0.4493  1.1247
35655SOL     OW12800   0.302   7.588   9.559 -0.4054 -0.4745 -0.4070
35655SOL    HW112801   0.296   7.638   9.478  0.5932 -0.8745 -0.7404
35655SOL    HW212802   0.376   7.529   9.546 -1.2851 -1.7561  0.1280
35656SOL     OW12803   8.607   3.157   8.529  0.0850  0.1220 -0.5556
35656SOL    HW112804   8.589   3.080   8.474 -0.1284  0.5291 -1.0679
35656SOL    HW212805   8.585   3.128   8.618 -0.6323 -0.2083 -0.8286
35657SOL     OW12806   7.441   5.127   0.456 -0.6462  0.2588 -0.7172
35657SOL    HW112807   7.488   5.104   0.377 -0.5225  0.7361 -0.7867
35657SOL    HW212808   7.367   5.066   0.459  1.5490 -2.5375  0.9662
35658SOL     OW12809   7.493   2.365   0.937 -0.4724  0.2932 -0.0388
35658SOL    HW112810   7.572   2.314   0.954 -0.1455  0.5038 -0.8846
35658SOL    HW212811   7.485   2.367   0.842 -1.0963  0.8865  0.0154
35659SOL     OW12812   1.825   4.234   8.323  0.1341 -0.0196 -0.0178
35659SOL    HW112813   1.815   4.263   8.414 -0.2691  0.9842 -0.3675
35659SOL    HW212814   1.907   4.184   8.323  1.0839  1.4670  0.5414
35660SOL     OW12815   0.670   0.276   9.289  0.2068 -0.2076  0.0800
35660SOL    HW112816   0.711   0.195   9.318 -0.3161 -0.7321 -0.6084
35660SOL    HW212817   0.579   0.252   9.270 -0.0836  0.6501  0.3317
35661SOL     OW12818   5.841   9.414   5.084  0.5171 -0.0997 -0.5070
35661SOL    HW112819   5.884   9.336   5.120 -0.4488 -0.4763 -0.1455
35661SOL    HW212820   5.911   9.462   5.040  1.4312 -0.3664  0.6286
35662SOL     OW12821   1.828   7.257   3.144 -0.0331  0.1939  0.3584
35662SOL    HW112822   1.775   7.325   3.102 -1.4753 -0.4556  1.0389
35662SOL    HW212823   1.910   7.300   3.164 -0.5238  1.4360 -0.1824
35663SOL     OW12824   1.648   7.322   2.082  0.2808 -0.5539  0.4439
35663SOL    HW112825   1.735   7.317   2.043 -0.1323 -0.4189 -0.5265
35663SOL    HW212826   1.593   7.269   2.025 -0.5705  0.5587  0.1810
35664SOL     OW12827   6.281   3.721   3.876 -0.2098 -0.1134  0.0541
35664SOL    HW112828   6.297   3.755   3.787  1.1904 -2.1292 -0.5454
35664SOL    HW212829   6.369   3.699   3.909 -0.8961 -1.7489  0.9220
35665SOL     OW12830   6.917   4.973   0.510 -0.0980  0.2192 -0.3182
35665SOL    HW112831   7.009   4.954   0.527 -0.5380 -0.4323  1.6645
35665SOL    HW212832   6.901   5.055   0.557 -0.1150  1.3813 -2.2471
35666SOL     OW12833  10.454  10.490   2.227  0.5186 -0.5452 -0.3197
35666SOL    HW112834  10.486  10.563   2.281  0.5451  0.5671 -1.7940
35666SOL    HW212835  10.415  10.429   2.290 -0.5657  1.2759  0.8644
35667SOL     OW12836   9.713   8.085   8.153  0.1199 -0.3978 -0.0878
35667SOL    HW112837   9.689   8.160   8.208 -1.1133 -0.8996  0.1014
35667SOL    HW212838   9.807   8.073   8.169  0.1307  0.4861  0.6410
35668SOL     OW12839   9.019   0.212   0.170  0.0596 -0.3296 -0.5232
35668SOL    HW112840   8.949   0.258   0.217  1.6933  3.1318 -1.1533
35668SOL    HW212841   8.988   0.207   0.080 -0.2519 -0.7610 -0.3942
35669SOL     OW12842   4.575   5.942   3.423  0.5351  0.2889  0.1981
35669SOL    HW112843   4.489   5.898   3.421  0.0386  1.2554 -1.3051
35669SOL    HW212844   4.630   5.884   3.476  0.4778 -3.2508 -3.2114
35670SOL     OW12845   7.993   5.731   1.929  0.5496 -0.0707  0.0197
35670SOL    HW112846   7.967   5.711   2.019 -0.3243  0.7426 -0.0459
35670SOL    HW212847   7.913   5.725   1.878  1.5472 -4.0869 -1.4208
35671SOL     OW12848   6.977   9.826   2.147  0.3397  0.2505 -0.2894
35671SOL    HW112849   6.958   9.908   2.193 -1.6673 -1.0736  1.4242
35671SOL    HW212850   7.051   9.789   2.194 -0.4461 -0.1398  0.6901
35672SOL     OW12851   5.518   5.761   7.997  0.3604  0.2403  0.1656
35672SOL    HW112852   5.584   5.803   8.052  1.5923 -1.8266  0.3823
35672SOL    HW212853   5.480   5.693   8.053  0.7853 -1.1165 -1.1350
35673SOL     OW12854   2.767   0.778   9.549  0.0996 -0.2989  0.1690
35673SOL    HW112855   2.700   0.710   9.541 -0.0532 -0.2128  0.7218
35673SOL    HW212856   2.838   0.747   9.492 -0.1890 -0.6498 -0.0080
35674SOL     OW12857   7.837   0.014   4.657 -0.3680 -0.2558  0.3180
35674SOL    HW112858   7.767  -0.027   4.606 -0.0178 -2.1115  1.2625
35674SOL    HW212859   7.913  -0.044   4.646  0.6139  0.9378  0.5063
35675SOL     OW12860   4.897   1.350   7.712  0.0993 -0.3651  0.4401
35675SOL    HW112861   4.880   1.415   7.643  1.9582 -0.1520  0.1287
35675SOL    HW212862   4.889   1.399   7.794  3.0062  0.7282  0.1662
35676SOL     OW12863   8.640  10.475   7.222 -0.0500 -0.2680  0.7215
35676SOL    HW112864   8.597  10.517   7.148  0.5744  0.9886  1.0352
35676SOL    HW212865   8.620  10.382   7.213 -0.6278 -0.0296 -0.5760
35677SOL     OW12866   0.979   3.959   7.570 -0.2062 -0.2466 -0.3957
35677SOL    HW112867   0.892   3.981   7.536 -0.0313  0.7523 -0.2274
35677SOL    HW212868   0.962   3.909   7.650 -0.6258 -2.5980 -1.8496
35678SOL     OW12869   3.096   9.384   2.350 -0.0566 -0.1072  0.7011
35678SOL    HW112870   3.037   9.412   2.280  1.1604  2.1135  0.4721
35678SOL    HW212871   3.128   9.465   2.389  2.5669 -1.1894  1.0373
35679SOL     OW12872   4.276   9.442   3.119 -0.3366  0.0804  0.6364
35679SOL    HW112873   4.348   9.485   3.073 -0.9295 -1.1138 -1.5274
35679SOL    HW212874   4.320   9.377   3.175  0.3323  0.2256  0.2925
35680SOL     OW12875   1.719   2.069   8.472 -0.0040 -0.5338  0.0480
35680SOL    HW112876   1.796   2.063   8.529  0.4253 -1.0211 -0.5680
35680SOL    HW212877   1.727   2.154   8.429  0.0038 -0.4340  0.2462
35681SOL     OW12878   4.360   1.932   6.139  0.4302 -0.6655 -0.1196
35681SOL    HW112879   4.322   1.932   6.051  1.8444 -0.1848 -0.7613
35681SOL    HW212880   4.326   2.012   6.180  1.4060  0.2367 -1.0055
35682SOL     OW12881   4.714   9.596  10.000 -0.0841  0.1926  0.5703
35682SOL    HW112882   4.661   9.562   9.928  0.0129 -2.3970  1.6043
35682SOL    HW212883   4.651   9.631  10.063 -0.2213  1.5827 -0.3025
35683SOL     OW12884   8.517   3.223   0.907  0.2358  0.1149  0.3850
35683SOL    HW112885   8.599   3.244   0.952  0.1432 -0.2293  0.7287
35683SOL    HW212886   8.536   3.140   0.862 -0.5527 -1.1614  2.2552
35684SOL     OW12887   4.802   3.509   3.580 -0.4393  0.4120 -0.4828
35684SOL    HW112888   4.716   3.474   3.558 -0.7535  1.1367 -0.4371
35684SOL    HW212889   4.834   3.452   3.649 -0.8782  0.1329 -0.5062
35685SOL     OW12890   5.422   2.511   6.914  0.3193 -0.0652 -0.0403
35685SOL    HW112891   5.384   2.478   6.996 -0.3894  0.6384 -0.0753
35685SOL    HW212892   5.509   2.472   6.911 -0.7599 -2.7056 -0.5071
35686SOL     OW12893   4.865  10.294   2.715 -0.6121 -0.1390 -0.6294
35686SOL    HW112894   4.786  10.342   2.739  0.0370  0.8558 -0.4149
35686SOL    HW212895   4.837  10.235   2.645 -1.4670  0.4787 -0.8248
35687SOL     OW12896   7.147  10.007  10.619  0.1970 -0.1422  0.0459
35687SOL    HW112897   7.239  10.028  10.636  0.1676 -0.0344  0.0720
35687SOL    HW212898   7.098  10.078  10.660  0.1254  0.1640 -0.5602
35688SOL     OW12899   8.837   0.647   8.261 -0.1927  0.3087  0.4840
35688SOL    HW112900   8.892   0.583   8.217 -0.2167 -0.7548  1.9336
35688SOL    HW212901   8.758   0.653   8.206  0.2781 -0.0749 -0.2366
35689SOL     OW12902   7.832   3.582   7.537  0.0814 -0.2268 -0.2715
35689SOL    HW112903   7.846   3.488   7.526 -0.1927 -0.2459 -0.4894
35689SOL    HW212904   7.752   3.588   7.590 -0.7649 -0.1122 -1.5341
35690SOL     OW12905   1.921   6.309   3.367 -0.4727 -0.4536  0.0962
35690SOL    HW112906   1.913   6.278   3.457 -1.3836  0.9762  0.5425
35690SOL    HW212907   1.863   6.252   3.316 -1.2060 -0.2722  0.7038
35691SOL     OW12908   6.575   9.432   3.183 -0.3163 -1.2279 -0.2680
35691SOL    HW112909   6.644   9.412   3.120 -0.5453  0.5618 -1.1658
35691SOL    HW212910   6.496   9.441   3.130 -0.1457  2.3819 -0.1446
35692SOL     OW12911   9.717   8.233   7.896  0.2670  0.3066 -0.4137
35692SOL    HW112912   9.786   8.198   7.841 -0.2213 -0.1058 -0.7751
35692SOL    HW212913   9.716   8.176   7.973  0.2392  0.2339 -0.4684
35693SOL     OW12914   8.854   0.604   0.847 -0.5201  0.1391  0.0890
35693SOL    HW112915   8.762   0.626   0.836 -0.3734  2.4661  2.3924
35693SOL    HW212916   8.863   0.583   0.940  0.7008 -3.6747 -0.7387
35694SOL     OW12917   2.051   4.295   1.883  0.4058 -0.0893 -0.2664
35694SOL    HW112918   1.991   4.229   1.849  1.4453 -0.7251 -0.9324
35694SOL    HW212919   2.101   4.249   1.951 -0.1909  0.5749  0.6411
35695SOL     OW12920   0.458   3.818   4.986 -0.0757 -0.6377  0.4884
35695SOL    HW112921   0.368   3.819   4.952  0.4718 -2.2590 -1.1999
35695SOL    HW212922   0.507   3.766   4.922  2.1745  0.5483  1.1332
35696SOL     OW12923   9.686   7.979   2.161 -0.3016  0.0838 -0.9193
35696SOL    HW112924   9.728   8.001   2.244 -1.3717  0.6938 -0.5281
35696SOL    HW212925   9.757   7.982   2.097  0.6662 -1.0347  0.0588
35697SOL     OW12926   2.798   1.147   8.060 -0.3586  1.2569  0.9066
35697SOL    HW112927   2.893   1.150   8.058  0.0015 -3.2115  1.1511
35697SOL    HW212928   2.775   1.136   8.152 -0.7543 -1.0100  0.5973
35698SOL     OW12929   7.217   6.533   0.540  0.0373 -0.2767 -0.3160
35698SOL    HW112930   7.221   6.624   0.568  2.3816 -0.4765  0.1723
35698SOL    HW212931   7.281   6.488   0.595  0.6415 -1.7800 -2.1553
35699SOL     OW12932   7.562   3.802   6.907 -0.0400 -0.4825 -0.5331
35699SOL    HW112933   7.477   3.835   6.937  0.0573 -0.5598 -0.1635
35699SOL    HW212934   7.558   3.810   6.812  0.5302  1.9800 -0.4209
35700SOL     OW12935   0.978   6.247   8.302  0.7330 -0.1921 -0.7614
35700SOL    HW112936   0.936   6.282   8.223  1.3279  0.6200 -0.7343
35700SOL    HW212937   0.979   6.153   8.289 -0.0147 -0.1321 -1.3077
35701SOL     OW12938   3.674   4.815   7.751  0.3287 -0.4149 -0.4388
35701SOL    HW112939   3.627   4.796   7.833 -0.0158  0.9792 -0.2940
35701SOL    HW212940   3.629   4.891   7.714 -0.1593 -1.6249 -2.4646
35702SOL     OW12941   7.307   0.679   9.677 -0.0339  0.2396 -0.9580
35702SOL    HW112942   7.220   0.642   9.665  0.1234 -1.0133  1.2624
35702SOL    HW212943   7.292   0.761   9.725  0.0280 -0.8732  1.0971
35703SOL     OW12944   3.303   0.032  10.676 -0.2459 -0.5744  0.7083
35703SOL    HW112945   3.278  -0.060  10.669  1.6159 -1.0218 -1.3288
35703SOL    HW212946   3.363   0.035  10.750  0.9713 -1.3825 -0.2039
35704SOL     OW12947   8.789   8.549   0.978  0.5665  0.3199 -0.2823
35704SOL    HW112948   8.790   8.497   1.058  0.0052 -0.1990 -0.6049
35704SOL    HW212949   8.742   8.629   1.002 -1.1384 -0.5701 -0.5205
35705SOL     OW12950   6.282   4.273   3.710 -0.2359 -0.1190  0.0649
35705SOL    HW112951   6.247   4.239   3.627  0.0912  0.0806 -0.1596
35705SOL    HW212952   6.364   4.315   3.685 -1.7703  3.1123 -0.1435
35706SOL     OW12953   6.711   3.922   9.624 -0.6634 -0.1580 -0.4331
35706SOL    HW112954   6.676   4.012   9.620 -1.5112 -0.4965 -1.0980
35706SOL    HW212955   6.760   3.919   9.705 -1.6512  0.5501  0.2166
35707SOL     OW12956   9.370   3.236   2.779 -0.1374 -0.1662  0.0045
35707SOL    HW112957   9.312   3.311   2.791 -0.9684 -0.9363  0.9453
35707SOL    HW212958   9.419   3.230   2.861  0.7778  0.0500 -0.5175
35708SOL     OW12959   9.945   0.683   1.762  0.7248 -0.1916  0.2817
35708SOL    HW112960   9.922   0.645   1.846 -1.3781 -1.5055 -0.7959
35708SOL    HW212961  10.037   0.658   1.749  0.9155 -0.4510  1.8939
35709SOL     OW12962   6.673   1.935   5.727 -0.1892 -0.6072 -0.0164
35709SOL    HW112963   6.702   2.014   5.771  0.9030 -2.2137  2.3381
35709SOL    HW212964   6.578   1.936   5.737 -0.0584 -0.3136  1.2852
35710SOL     OW12965   8.528   9.948   9.579  0.0689 -0.3506  0.5166
35710SOL    HW112966   8.534   9.918   9.489 -1.7641  0.1128  0.2045
35710SOL    HW212967   8.487   9.876   9.627  1.4453 -0.7784  1.1091
35711SOL     OW12968   7.217   6.719  10.535 -0.3111  0.4947  0.1264
35711SOL    HW112969   7.280   6.648  10.546 -1.1341 -0.3064 -0.1580
35711SOL    HW212970   7.138   6.687  10.579 -0.6292  1.3204  0.1603
35712SOL     OW12971   2.248   3.977   9.567 -0.2656 -0.4056 -0.3249
35712SOL    HW112972   2.336   4.004   9.591 -0.4686  0.0939 -0.1267
35712SOL    HW212973   2.195   3.997   9.644 -0.4320 -1.3330 -0.1938
35713SOL     OW12974   9.122  10.048   7.744  0.1457 -0.5357  0.3241
35713SOL    HW112975   9.122  10.028   7.838 -0.0515 -1.5225  0.1226
35713SOL    HW212976   9.030  10.046   7.718  0.1942 -0.2005  0.1181
35714SOL     OW12977   3.016   6.938  10.181 -0.3138  0.1505 -0.1324
35714SOL    HW112978   3.033   6.844  10.183 -0.9904  0.0295  1.6588
35714SOL    HW212979   3.099   6.978  10.205 -0.2633 -0.0244 -0.0143
35715SOL     OW12980   7.794   1.785   9.518 -0.0778  0.4623  0.2793
35715SOL    HW112981   7.858   1.843   9.561 -0.0693  1.1814 -0.6842
35715SOL    HW212982   7.792   1.708   9.574  2.2103  0.0915 -0.0283
35716SOL     OW12983   2.404   8.092   6.250  0.0358 -0.7320 -0.5545
35716SOL    HW112984   2.316   8.115   6.278  0.0385 -1.6287  0.2649
35716SOL    HW212985   2.462   8.142   6.308  0.0425 -2.7364  1.2962
35717SOL     OW12986   7.803   7.138   9.467  0.6715  0.2459  0.1002
35717SOL    HW112987   7.718   7.146   9.509 -0.5795 -1.7191 -1.8702
35717SOL    HW212988   7.844   7.063   9.509  0.6045  0.0106 -0.2487
35718SOL     OW12989   6.397  10.385   6.165  0.0342  0.4212 -0.7270
35718SOL    HW112990   6.396  10.313   6.102 -0.4628  0.7168 -1.0658
35718SOL    HW212991   6.318  10.436   6.144  0.1504  0.8186 -0.2108
35719SOL     OW12992  10.364   3.282   6.238  0.0390 -0.0980 -0.3677
35719SOL    HW112993  10.312   3.308   6.162  0.6302 -1.0127 -1.1068
35719SOL    HW212994  10.371   3.187   6.232  0.4976 -0.1429  0.5778
35720SOL     OW12995   5.226   1.984   6.200 -0.2080 -0.0965  0.2254
35720SOL    HW112996   5.266   2.058   6.154  0.3120  0.3051  1.3087
35720SOL    HW212997   5.169   2.024   6.265  1.3847 -0.5727  2.0066
35721SOL     OW12998   7.571   5.092   2.091 -0.2528  0.0080 -0.1623
35721SOL    HW112999   7.491   5.120   2.046 -0.5912  1.3915  1.2075
35721SOL    HW213000   7.550   5.100   2.184  1.2022 -0.4668  0.2361
35722SOL     OW13001   8.189   5.512   9.648  0.1932 -0.2474 -0.1796
35722SOL    HW113002   8.162   5.493   9.558 -3.1345  0.8546  0.4178
35722SOL    HW213003   8.137   5.452   9.701  1.0507  0.0812  1.0499
35723SOL     OW13004   5.923   8.466   2.482 -0.1855  0.1777  0.2608
35723SOL    HW113005   5.929   8.524   2.406 -0.0366 -0.8307 -0.5207
35723SOL    HW213006   6.007   8.422   2.485  0.2596  1.0407  1.7388
35724SOL     OW13007   6.294  10.460   7.172  0.0253  0.0525 -0.0043
35724SOL    HW113008   6.240  10.473   7.093  1.9307  0.7061 -1.2581
35724SOL    HW213009   6.365  10.403   7.144  0.0465 -0.7726  1.6158
35725SOL     OW13010   5.298   3.263   6.521  0.1591 -0.5163 -0.3056
35725SOL    HW113011   5.213   3.233   6.490 -0.3070  0.8795 -0.4350
35725SOL    HW213012   5.347   3.283   6.441  0.0227  0.2282 -0.2095
35726SOL     OW13013   7.732   3.351   1.355  0.3230  0.6793 -0.6276
35726SOL    HW113014   7.712   3.406   1.279 -3.3079  1.2118  0.4927
35726SOL    HW213015   7.650   3.305   1.374  1.6919 -1.0491  1.7131
35727SOL     OW13016   2.633   6.174   8.949  0.1992  0.5187  0.5160
35727SOL    HW113017   2.589   6.145   9.028  0.8107 -2.0851 -0.0178
35727SOL    HW213018   2.707   6.227   8.980 -1.6030  2.6354  1.4865
35728SOL     OW13019   0.688   0.483   0.324 -0.5692  0.3145  0.3634
35728SOL    HW113020   0.752   0.531   0.376  0.4979 -0.9530  0.2861
35728SOL    HW213021   0.644   0.425   0.387 -0.9229  0.4555  0.2475
35729SOL     OW13022   7.251   6.437   9.855  0.4747 -0.2377  0.1417
35729SOL    HW113023   7.244   6.344   9.874  0.6531 -0.1241  0.8092
35729SOL    HW213024   7.344   6.457   9.869  0.8994 -0.3915 -2.0940
35730SOL     OW13025   9.007   2.967   2.893  0.4360  0.4659 -0.4002
35730SOL    HW113026   8.952   2.898   2.855 -1.0533  1.2457  0.2684
35730SOL    HW213027   9.097   2.933   2.884 -0.2521 -1.7048  0.1827
35731SOL     OW13028   9.461   9.272   6.496  0.0821 -0.2729 -0.1446
35731SOL    HW113029   9.492   9.237   6.580  0.2212  0.4266  0.1043
35731SOL    HW213030   9.366   9.259   6.497  0.0048  0.3369  0.4064
35732SOL     OW13031   6.874   3.494   8.889  0.2258  0.1356 -0.1871
35732SOL    HW113032   6.790   3.476   8.847 -1.0210  0.1416  2.1657
35732SOL    HW213033   6.926   3.538   8.821 -1.4533 -0.3356 -1.8503
35733SOL     OW13034   6.006   5.243   6.461  0.1208 -0.2800 -0.3679
35733SOL    HW113035   6.019   5.287   6.545  1.0931  0.2734 -0.7848
35733SOL    HW213036   5.948   5.170   6.481 -0.2273  0.2514  0.6483
35734SOL     OW13037   5.427   1.052   9.760 -0.5431 -0.1933 -0.1657
35734SOL    HW113038   5.427   1.037   9.854 -0.6968  0.9425  0.0305
35734SOL    HW213039   5.337   1.034   9.733 -0.9551  1.1754  0.2156
35735SOL     OW13040   5.812   7.108   6.370  0.4996  0.0382  0.2496
35735SOL    HW113041   5.823   7.049   6.444 -0.9437  0.2325  0.6480
35735SOL    HW213042   5.898   7.110   6.328  0.6908 -2.0900  0.4160
35736SOL     OW13043   1.592  10.684   9.721 -0.0908  0.3473 -0.3811
35736SOL    HW113044   1.578  10.769   9.762 -5.6363  0.7126 -2.1862
35736SOL    HW213045   1.589  10.622   9.794 -1.6389  1.4341  0.5607
35737SOL     OW13046   4.708   3.548  10.165  0.2958 -0.7157  0.7026
35737SOL    HW113047   4.735   3.566  10.255 -2.6501 -0.1674  1.5773
35737SOL    HW213048   4.719   3.453  10.155  1.6346 -0.6350  1.2608
35738SOL     OW13049   2.911   6.407  10.259  1.0897 -0.2078  0.4476
35738SOL    HW113050   2.838   6.391  10.199 -0.6584  2.4069  1.6901
35738SOL    HW213051   2.924   6.324  10.304  0.3853 -1.3396 -1.3260
35739SOL     OW13052   6.273   7.436   7.331  0.0956 -0.1830  0.7597
35739SOL    HW113053   6.359   7.479   7.327  0.2509 -0.5660 -0.5753
35739SOL    HW213054   6.211   7.509   7.340  0.5893  0.0418  2.7034
35740SOL     OW13055  10.633  10.580   3.273 -0.5465  0.3677  0.2094
35740SOL    HW113056  10.543  10.583   3.238 -0.5142  0.7195  0.1497
35740SOL    HW213057  10.689  10.586   3.196 -0.4702 -0.2919  0.2147
35741SOL     OW13058   2.364   6.984   9.948 -0.2900 -0.1173  0.0686
35741SOL    HW113059   2.356   6.943   9.862 -1.8270 -1.1661  0.6538
35741SOL    HW213060   2.432   7.050   9.938 -0.6008 -0.0626 -2.0094
35742SOL     OW13061   7.358   2.566   9.137 -0.0997 -0.0901 -0.1119
35742SOL    HW113062   7.422   2.635   9.154 -0.1148 -0.1828  0.3282
35742SOL    HW213063   7.355   2.559   9.042  0.0341  0.3947 -0.1563
35743SOL     OW13064  10.428   1.593   3.759  0.7159  0.5539  0.0166
35743SOL    HW113065  10.470   1.529   3.816  2.0294  1.6147  0.3035
35743SOL    HW213066  10.498   1.622   3.700  0.0351  1.3829 -0.4044
35744SOL     OW13067   2.119   7.807   2.662  0.6796 -0.0258 -0.1758
35744SOL    HW113068   2.095   7.722   2.699 -0.1224  0.1030 -0.3942
35744SOL    HW213069   2.080   7.808   2.575  2.3353 -0.2113 -0.9561
35745SOL     OW13070   7.962   1.018   4.375  0.3805 -0.1950 -0.1715
35745SOL    HW113071   8.026   1.069   4.425  0.5410  0.3041 -0.8712
35745SOL    HW213072   7.900   0.986   4.440  0.6883  0.2914  0.3679
35746SOL     OW13073   9.008  10.419   0.618  0.3372  0.2775  0.0048
35746SOL    HW113074   9.009  10.460   0.705  1.8692  1.8925 -0.7004
35746SOL    HW213075   8.927  10.368   0.617 -1.2367  2.5293  1.3465
35747SOL     OW13076   4.459   9.954   6.818  0.2983  0.3501 -0.7692
35747SOL    HW113077   4.512  10.032   6.799 -0.0035  1.1307  1.2920
35747SOL    HW213078   4.523   9.884   6.831  0.5724  0.1868 -2.6776
35748SOL     OW13079   6.553   8.700   3.858 -0.1514  0.0753 -0.1498
35748SOL    HW113080   6.505   8.717   3.939 -0.4332 -2.5281  0.2956
35748SOL    HW213081   6.570   8.606   3.859 -0.4078 -0.1114 -3.2493
35749SOL     OW13082   8.213   7.546   4.008 -0.2746 -0.4301 -0.0072
35749SOL    HW113083   8.124   7.527   4.037 -0.3051  0.4826  0.5238
35749SOL    HW213084   8.247   7.462   3.978 -1.1561 -0.8734  0.2168
35750SOL     OW13085   0.316   8.571   2.679  0.6718 -0.1610  0.0250
35750SOL    HW113086   0.242   8.631   2.684  1.6785  1.0355  2.7300
35750SOL    HW213087   0.281   8.487   2.709  0.0519 -0.0306 -0.3197
35751SOL     OW13088  10.359   3.976   8.461 -0.6284 -0.0218 -0.0803
35751SOL    HW113089  10.276   3.996   8.504 -1.0953 -0.4546 -0.7760
35751SOL    HW213090  10.392   3.899   8.508 -2.2179 -1.8943 -1.8666
35752SOL     OW13091   1.056   4.465   5.287  0.0326  0.1780  0.7720
35752SOL    HW113092   1.099   4.547   5.308  2.2748 -1.0310  1.1667
35752SOL    HW213093   1.017   4.436   5.369 -0.7132  0.7799  0.6453
35753SOL     OW13094   9.878   4.066   3.573  0.3261  0.1473 -0.2406
35753SOL    HW113095   9.889   4.146   3.521  1.9011  0.1308  0.0342
35753SOL    HW213096   9.948   4.008   3.543  0.7960 -0.1539  1.3696
35754SOL     OW13097   5.705   7.909   5.242 -0.1032  0.0924 -0.1265
35754SOL    HW113098   5.635   7.843   5.241  0.7154 -0.8367 -1.9406
35754SOL    HW213099   5.785   7.858   5.250  0.4626  1.0071  0.0993
35755SOL     OW13100   2.865   0.898   0.672  0.3115 -0.1381 -0.0003
35755SOL    HW113101   2.901   0.837   0.609  0.3893  0.2697 -0.3523
35755SOL    HW213102   2.784   0.929   0.632  0.1797 -0.1435  0.2567
35756SOL     OW13103   5.806   8.028   8.843 -0.1313 -0.3603 -0.0610
35756SOL    HW113104   5.764   7.943   8.855 -1.5773  0.2482 -0.5956
35756SOL    HW213105   5.893   8.007   8.809 -1.2079 -1.5751 -2.2517
35757SOL     OW13106   9.160   0.992   5.789 -0.2107 -0.2005  0.5841
35757SOL    HW113107   9.077   0.950   5.809  0.3840 -1.5663  0.2886
35757SOL    HW213108   9.187   0.954   5.705  0.7774  0.1197  0.7416
35758SOL     OW13109   4.093   9.985   5.027  0.4865 -0.7615  0.4376
35758SOL    HW113110   4.091   9.891   5.008  0.8428 -0.7349  0.2432
35758SOL    HW213111   4.011  10.003   5.073  0.2100 -1.0860  0.0824
35759SOL     OW13112   6.575   8.712   4.473  0.5679 -0.0456  0.2151
35759SOL    HW113113   6.494   8.728   4.424  1.2209 -0.1276 -0.9372
35759SOL    HW213114   6.581   8.617   4.478 -0.0351 -0.0344  1.4093
35760SOL     OW13115  10.050   6.189   0.474 -0.4144 -0.0607 -0.4819
35760SOL    HW113116  10.074   6.223   0.560  0.8303  0.4798 -1.0299
35760SOL    HW213117  10.100   6.242   0.412 -1.4298 -0.3247 -1.5593
35761SOL     OW13118   9.597   6.141   3.921 -0.2027 -0.3157  0.3785
35761SOL    HW113119   9.502   6.129   3.919 -0.1130 -1.2102  0.8807
35761SOL    HW213120   9.629   6.068   3.975  0.6391  0.7533  1.3890
35762SOL     OW13121   7.417   6.800  10.214  0.6745 -0.7178 -0.2940
35762SOL    HW113122   7.461   6.802  10.299  0.8494 -1.4735 -0.3659
35762SOL    HW213123   7.377   6.713  10.209  1.8042 -1.1993 -1.5508
35763SOL     OW13124   8.573   3.855   4.683 -0.4283 -0.0278  0.0132
35763SOL    HW113125   8.645   3.867   4.744  0.3701  0.7385 -1.0498
35763SOL    HW213126   8.549   3.943   4.654 -0.9669 -0.3489 -0.5765
35764SOL     OW13127   7.173   7.239   9.957 -0.2695 -0.0161  0.1576
35764SOL    HW113128   7.117   7.210  10.029 -1.4721 -2.2018 -1.5296
35764SOL    HW213129   7.124   7.218   9.877  2.4286 -1.0300 -1.3996
35765SOL     OW13130   8.317   6.219   4.032 -0.0305  0.5224  0.1757
35765SOL    HW113131   8.339   6.285   3.966 -0.9821 -0.3303 -1.0282
35765SOL    HW213132   8.322   6.136   3.986 -0.3332 -0.1309  1.2821
35766SOL     OW13133   1.701   7.292   4.870  0.1260  0.9289  0.7352
35766SOL    HW113134   1.739   7.253   4.949  1.2269  0.5013  0.0325
35766SOL    HW213135   1.644   7.224   4.835  0.5269  0.6799  0.5584
35767SOL     OW13136   8.704   9.531   5.403 -0.4306 -0.1400  0.4004
35767SOL    HW113137   8.636   9.532   5.470 -1.4145  0.3686 -0.5692
35767SOL    HW213138   8.699   9.444   5.364 -0.4270 -0.1559  0.4373
35768SOL     OW13139   7.709   1.180   3.063  0.3865  0.0279 -0.0846
35768SOL    HW113140   7.724   1.132   3.144  0.5220  1.5452  0.8223
35768SOL    HW213141   7.618   1.161   3.040 -0.2844  1.0999  1.5121
35769SOL     OW13142   3.065   5.888   3.867  0.9798 -0.3757 -0.1586
35769SOL    HW113143   2.978   5.922   3.845  0.2191  0.7673  3.8223
35769SOL    HW213144   3.051   5.795   3.884  0.7960 -0.4289 -0.5801
35770SOL     OW13145   2.697   1.360   9.143 -0.1067 -0.6626  0.0148
35770SOL    HW113146   2.733   1.358   9.231 -0.7858 -1.5922  0.2973
35770SOL    HW213147   2.602   1.366   9.156 -0.1260  3.0487 -0.7054
35771SOL     OW13148  10.471  10.120   3.930  0.1925 -0.0613  0.1327
35771SOL    HW113149  10.432  10.191   3.880 -0.4300 -0.8412 -0.5126
35771SOL    HW213150  10.409  10.102   4.000  0.0443 -0.3982 -0.0857
35772SOL     OW13151   3.252   0.835   6.076 -0.4982 -0.2147  0.2114
35772SOL    HW113152   3.268   0.929   6.073  0.0406 -0.3095  0.1080
35772SOL    HW213153   3.238   0.810   5.984  2.6740 -0.7944 -0.2273
35773SOL     OW13154   5.710   8.798   7.301  0.1710  0.3389  0.0661
35773SOL    HW113155   5.647   8.850   7.352  0.8430  0.9521  0.2861
35773SOL    HW213156   5.742   8.732   7.363  0.8868  0.9995  0.4269
35774SOL     OW13157   4.745   3.604   9.644 -0.2030 -0.2154 -0.1404
35774SOL    HW113158   4.716   3.559   9.723 -0.2356  2.2789  1.3661
35774SOL    HW213159   4.666   3.649   9.612 -0.4029 -1.8421 -2.1466
35775SOL     OW13160   5.483   6.079   4.294 -0.0421 -0.0550 -0.2146
35775SOL    HW113161   5.562   6.035   4.326  0.6338 -0.3403 -2.1215
35775SOL    HW213162   5.421   6.008   4.277 -1.1760  0.2300  2.2483
35776SOL     OW13163   8.434   8.611   2.208 -0.1066 -0.5667 -0.6171
35776SOL    HW113164   8.467   8.701   2.216  0.3728 -0.7852 -0.0529
35776SOL    HW213165   8.434   8.578   2.298 -4.4323  0.2803 -0.1051
35777SOL     OW13166  10.018  10.042   3.835 -0.5784  0.0225  0.2332
35777SOL    HW113167  10.054  10.086   3.757 -1.0643  0.5302  0.2920
35777SOL    HW213168  10.070   9.962   3.842  0.7263  0.8526  0.4629
35778SOL     OW13169   3.284   8.218   0.816 -0.1037  0.1384 -0.0025
35778SOL    HW113170   3.348   8.260   0.758  0.4267  1.0354  1.1838
35778SOL    HW213171   3.211   8.195   0.759  0.5095  0.7483 -1.0676
35779SOL     OW13172   9.917   9.940   7.661  0.2479  0.1238  0.0900
35779SOL    HW113173  10.000   9.976   7.693  0.2732  0.1566 -0.0129
35779SOL    HW213174   9.876   9.902   7.738  0.0448  0.7076  0.2735
35780SOL     OW13175   4.309   6.869   8.496  0.5228 -0.3818 -0.3654
35780SOL    HW113176   4.351   6.829   8.420  1.7283  1.3720 -0.6566
35780SOL    HW213177   4.215   6.851   8.483  0.9083 -2.1738 -0.9884
35781SOL     OW13178   9.217   1.726   0.444 -0.2929  0.3545 -0.4411
35781SOL    HW113179   9.270   1.686   0.514 -2.3850 -0.6703  0.6660
35781SOL    HW213180   9.200   1.815   0.475  0.2484  0.4823 -0.5031
35782SOL     OW13181   7.229   3.726   6.810 -0.0041  0.1290  0.1507
35782SOL    HW113182   7.267   3.692   6.729 -0.8133  0.3211 -0.3320
35782SOL    HW213183   7.257   3.666   6.878  0.6676 -0.0520 -0.2830
35783SOL     OW13184   9.081   1.208   7.352  0.6143 -0.4581 -0.4480
35783SOL    HW113185   9.136   1.168   7.284  0.7867  1.0989 -1.2632
35783SOL    HW213186   9.051   1.290   7.313 -1.5534 -0.8296  0.3341
35784SOL     OW13187   7.378   4.844   6.455  0.0213 -0.6997  0.0993
35784SOL    HW113188   7.289   4.827   6.425 -0.7182  3.0181 -0.2685
35784SOL    HW213189   7.371   4.850   6.550 -0.8843  2.4590 -0.0535
35785SOL     OW13190  10.107   7.383   2.719  0.0639  0.0987 -0.3881
35785SOL    HW113191  10.181   7.391   2.779  1.1842 -1.1651 -1.5304
35785SOL    HW213192  10.109   7.464   2.668  0.2903  0.3291 -0.0185
35786SOL     OW13193   6.453   3.989   3.516 -0.1106 -0.1638 -0.4838
35786SOL    HW113194   6.447   3.972   3.422  0.2105 -1.3082 -0.3157
35786SOL    HW213195   6.368   4.027   3.539 -0.8876 -1.5666 -0.9194
35787SOL     OW13196  10.462   1.862   6.287  1.5873  0.2486  0.4261
35787SOL    HW113197  10.414   1.881   6.206 -1.7818 -2.5608  1.4831
35787SOL    HW213198  10.430   1.928   6.349 -1.5225 -1.7675  1.2027
35788SOL     OW13199   5.540   6.882   8.195 -0.2377 -0.1645  0.1007
35788SOL    HW113200   5.531   6.789   8.174  0.0523  0.2309 -2.0583
35788SOL    HW213201   5.633   6.901   8.182 -0.4486  0.6021 -0.3836
35789SOL     OW13202   4.945   8.610   6.702  0.2194 -0.2175  0.0375
35789SOL    HW113203   4.852   8.611   6.725  0.0103  0.3928 -0.8228
35789SOL    HW213204   4.977   8.696   6.728 -0.1335  0.6847 -2.3314
35790SOL     OW13205   4.049   0.572   2.187  0.4834 -0.4131  0.0078
35790SOL    HW113206   4.013   0.510   2.124  1.9991 -0.6976 -0.6146
35790SOL    HW213207   4.049   0.656   2.141  2.1010 -0.7223 -0.6166
35791SOL     OW13208   8.659   7.213  10.632  0.4371 -0.3044 -0.1886
35791SOL    HW113209   8.608   7.145  10.676 -0.1092  1.3483  1.8808
35791SOL    HW213210   8.749   7.180  10.631 -0.0646 -1.7405 -0.7424
35792SOL     OW13211  10.505   9.688   4.679  0.0475 -0.1680 -0.2842
35792SOL    HW113212  10.537   9.717   4.594 -0.8180  0.4997 -0.3981
35792SOL    HW213213  10.494   9.594   4.670  0.3137 -0.1534 -0.7922
35793SOL     OW13214  10.646   7.922   7.779  0.3712  0.1261  0.3745
35793SOL    HW113215  10.740   7.936   7.783  0.3156  0.6437 -0.0451
35793SOL    HW213216  10.632   7.882   7.693  0.0044  1.7135 -0.3241
35794SOL     OW13217   9.131   2.247   7.115 -0.4282 -0.1277  0.7346
35794SOL    HW113218   9.089   2.306   7.177 -0.6842 -1.3155  1.7219
35794SOL    HW213219   9.058   2.212   7.063 -0.2302  0.7529 -0.1650
35795SOL     OW13220   3.384   3.687   4.336 -0.2087  0.0933  0.6519
35795SOL    HW113221   3.331   3.695   4.416 -0.5922 -0.2533  0.4382
35795SOL    HW213222   3.322   3.703   4.265  0.2226  0.8177  0.4338
35796SOL     OW13223   2.403   0.389   4.647  0.2584 -0.0616 -0.4984
35796SOL    HW113224   2.449   0.313   4.683 -1.8356 -1.0686  0.1995
35796SOL    HW213225   2.325   0.353   4.605 -1.0505  1.7059  0.2713
35797SOL     OW13226   2.605   1.117   0.081 -0.2159  0.1938 -0.3055
35797SOL    HW113227   2.559   1.150   0.158  2.2222  1.2927  0.7654
35797SOL    HW213228   2.643   1.034   0.110 -1.4775 -0.7210 -1.1888
35798SOL     OW13229   1.718   2.736   7.454  0.2281 -0.0859  0.5940
35798SOL    HW113230   1.679   2.794   7.520  0.1314  0.9529 -0.3365
35798SOL    HW213231   1.652   2.669   7.439 -0.8316  1.0720 -0.2079
35799SOL     OW13232  10.373   2.312   8.313 -0.0788 -0.0382 -0.2941
35799SOL    HW113233  10.322   2.360   8.247  0.4404  2.4309  0.9641
35799SOL    HW213234  10.444   2.272   8.264 -2.8218 -3.2868 -2.0592
35800SOL     OW13235   9.969   9.286   1.628 -0.4944  0.1383 -0.3301
35800SOL    HW113236   9.993   9.194   1.614 -1.0641 -0.3677  1.5992
35800SOL    HW213237   9.880   9.293   1.594 -0.4342 -0.0105 -0.5203
35801SOL     OW13238   0.321   0.237  10.017 -0.0751  0.3120 -0.7844
35801SOL    HW113239   0.355   0.322  10.044 -0.5123  0.4050 -0.5091
35801SOL    HW213240   0.249   0.220  10.078 -0.1683 -0.1290 -1.0132
35802SOL     OW13241   0.490   3.012   1.890  0.2560  0.3439  0.0948
35802SOL    HW113242   0.405   3.018   1.934  0.2116 -1.9416  0.4264
35802SOL    HW213243   0.547   2.968   1.952  0.7386 -1.1790 -1.3605
35803SOL     OW13244   0.493   6.626   2.155  0.0437 -0.3143 -0.1178
35803SOL    HW113245   0.424   6.603   2.092  0.0320 -0.3999 -0.0743
35803SOL    HW213246   0.500   6.549   2.212 -0.3404 -0.0207  0.3408
35804SOL     OW13247   5.158   0.645   4.478  0.2228 -0.2385  0.3972
35804SOL    HW113248   5.237   0.694   4.500  0.3052 -1.1199  2.1879
35804SOL    HW213249   5.110   0.637   4.560 -2.0344  0.7375 -0.7410
35805SOL     OW13250   0.297   0.830   0.291 -0.2307 -0.2433  0.0254
35805SOL    HW113251   0.263   0.747   0.256  1.2215 -1.3346  1.0336
35805SOL    HW213252   0.223   0.890   0.288 -1.5086 -1.7580 -0.1904
35806SOL     OW13253   1.442   6.223   2.804  0.0600  0.3893 -0.0083
35806SOL    HW113254   1.524   6.227   2.755  0.4142 -1.5981  0.3462
35806SOL    HW213255   1.449   6.293   2.869  1.0651  0.8356 -0.5700
35807SOL     OW13256   5.154   5.484   7.507 -0.3475  0.3494 -0.1275
35807SOL    HW113257   5.111   5.415   7.456 -1.8129  0.6903  0.5960
35807SOL    HW213258   5.134   5.565   7.459  0.3470  0.4105 -0.3228
35808SOL     OW13259   1.007   1.917   3.403  0.4786 -0.7939  0.3584
35808SOL    HW113260   0.980   2.003   3.434 -0.5505 -1.1251  0.4558
35808SOL    HW213261   0.957   1.856   3.458 -1.7129 -1.4094 -2.1030
35809SOL     OW13262   6.984   4.212   2.874 -0.0987 -0.3638  0.5244
35809SOL    HW113263   6.995   4.177   2.963  1.6102  0.7762  0.7961
35809SOL    HW213264   6.889   4.223   2.865 -0.5649 -3.0656  1.1612
35810SOL     OW13265   2.120   9.206   2.338  0.2972 -0.2011  0.4386
35810SOL    HW113266   2.041   9.156   2.320  0.5441 -0.0635 -1.2252
35810SOL    HW213267   2.182   9.179   2.270  0.9366  1.2640  0.3844
35811SOL     OW13268   9.889   6.855   8.926  0.3380 -0.8718 -0.9904
35811SOL    HW113269   9.954   6.812   8.983  0.1671 -0.4229 -0.4386
35811SOL    HW213270   9.807   6.850   8.976  0.2437 -0.2361 -1.0756
35812SOL     OW13271   5.360   2.107   0.446  0.0743 -0.2675 -0.0170
35812SOL    HW113272   5.372   2.174   0.379 -0.2633 -1.2345 -1.0631
35812SOL    HW213273   5.270   2.077   0.435  0.1265 -0.6900  0.6380
35813SOL     OW13274   9.271   1.998   3.360  0.4931  0.2989  0.0300
35813SOL    HW113275   9.277   2.086   3.324  1.0942 -0.1087 -0.9098
35813SOL    HW213276   9.192   1.960   3.321  0.4611  0.2737  0.1157
35814SOL     OW13277   9.598   0.887   0.972 -0.2849  0.3171  0.3137
35814SOL    HW113278   9.546   0.878   1.052 -1.3859  1.1093 -0.2881
35814SOL    HW213279   9.628   0.798   0.953  0.5315  0.2088  1.9370
35815SOL     OW13280   1.327   2.340   6.779  0.2411  0.6458 -0.6784
35815SOL    HW113281   1.316   2.374   6.690  2.4362 -0.3443 -1.4121
35815SOL    HW213282   1.372   2.257   6.768  4.1520  2.1996  1.3963
35816SOL     OW13283   9.278   2.647   1.939 -0.0094 -0.2596  0.2655
35816SOL    HW113284   9.306   2.637   1.848 -1.4169  0.3290 -0.2520
35816SOL    HW213285   9.286   2.740   1.956 -1.4599 -0.1023  0.1551
35817SOL     OW13286   2.686   8.200   1.175  0.1289  0.1686 -0.4799
35817SOL    HW113287   2.627   8.128   1.197  1.0938 -0.5911 -0.2838
35817SOL    HW213288   2.766   8.181   1.225  1.1933  0.1927 -2.0916
35818SOL     OW13289   8.928   4.329   5.826 -0.1721  0.0795  0.0493
35818SOL    HW113290   9.004   4.310   5.880 -0.7044 -4.1788 -0.3775
35818SOL    HW213291   8.959   4.315   5.736 -0.6137  1.9868 -0.4506
35819SOL     OW13292   5.366   5.295   0.911  0.1955  0.5243 -0.1551
35819SOL    HW113293   5.333   5.382   0.891 -0.8689  0.2431  0.3145
35819SOL    HW213294   5.294   5.236   0.889 -0.0533 -0.0177  1.8762
35820SOL     OW13295   2.077  10.348   6.152  0.0075 -0.1517  0.1625
35820SOL    HW113296   2.068  10.393   6.068 -0.7664  1.7853  1.2022
35820SOL    HW213297   2.003  10.288   6.156 -0.4658  0.4042 -0.1746
35821SOL     OW13298   9.155   7.642   9.729 -0.0674  0.6062 -0.7327
35821SOL    HW113299   9.111   7.687   9.657  0.7840  1.5028 -0.7007
35821SOL    HW213300   9.150   7.549   9.705 -1.2880  0.7485 -1.1057
35822SOL     OW13301   7.443   0.006   8.749 -0.9156  0.0928  0.3495
35822SOL    HW113302   7.498   0.004   8.670 -1.6631  1.0875 -0.2174
35822SOL    HW213303   7.502   0.037   8.817 -0.3187 -0.5495  0.1436
35823SOL     OW13304   5.438   9.693   2.163 -0.2274  0.2448 -0.4347
35823SOL    HW113305   5.376   9.763   2.182  0.2921  0.5714  0.0966
35823SOL    HW213306   5.391   9.612   2.184 -0.3683  0.5039  0.2828
35824SOL     OW13307   7.182   7.263   5.343 -0.0787 -0.1035 -0.2467
35824SOL    HW113308   7.261   7.315   5.331  0.4004 -0.5927  0.6418
35824SOL    HW213309   7.142   7.258   5.256  0.0566  1.4140 -0.4221
35825SOL     OW13310   8.112   8.034   6.937 -0.3956  0.0545 -0.3345
35825SOL    HW113311   8.199   8.058   6.906 -1.0617  0.7072 -1.7814
35825SOL    HW213312   8.089   8.102   7.001 -0.4306  0.7307 -1.0545
35826SOL     OW13313   0.238   3.805  10.436  0.5109  0.1938 -0.1514
35826SOL    HW113314   0.258   3.714  10.414 -1.5633 -0.2125 -0.5906
35826SOL    HW213315   0.149   3.819  10.403  0.7272  2.3553  0.0116
35827SOL     OW13316   5.071   1.168   9.430 -0.6836  0.1146  0.3495
35827SOL    HW113317   5.096   1.167   9.338 -2.1401  0.9838 -0.0948
35827SOL    HW213318   5.019   1.088   9.441 -0.6927  0.1218  0.3590
35828SOL     OW13319   4.458   6.686   7.515 -0.0879  0.2915 -0.1284
35828SOL    HW113320   4.441   6.720   7.428 -0.5970  0.3580 -0.0038
35828SOL    HW213321   4.386   6.625   7.532 -0.8419  1.4091  0.8423
35829SOL     OW13322  10.397   3.020   6.311  0.1884 -0.6029  0.3489
35829SOL    HW113323  10.313   2.988   6.276  0.7703  0.1924 -1.9664
35829SOL    HW213324  10.446   2.940   6.332  0.1429 -1.2153 -1.6236
35830SOL     OW13325   2.459   6.783   3.446  0.3430 -0.5768  0.4640
35830SOL    HW113326   2.501   6.736   3.374 -0.6870 -1.7708  0.6120
35830SOL    HW213327   2.515   6.860   3.460  2.2678 -1.9162  0.4355
35831SOL     OW13328   3.341   1.514   2.762  0.5584  0.0499  0.6439
35831SOL    HW113329   3.362   1.597   2.720 -1.5868  0.1154 -0.4549
35831SOL    HW213330   3.269   1.478   2.711  0.1386 -1.5693  2.2342
35832SOL     OW13331   4.596   6.932   8.639 -0.3407  0.2958  0.0660
35832SOL    HW113332   4.522   6.915   8.581 -0.1223 -1.3305  0.2035
35832SOL    HW213333   4.589   7.024   8.662 -1.5605  0.4810 -0.9708
35833SOL     OW13334   1.315   9.498   6.600  0.0529 -0.4048  0.2596
35833SOL    HW113335   1.391   9.490   6.658  1.2700  1.2957 -0.9917
35833SOL    HW213336   1.296   9.592   6.598 -0.4731 -0.5130 -1.4084
35834SOL     OW13337   5.090   3.789   4.086  0.1009 -0.6393  0.1875
35834SOL    HW113338   5.002   3.808   4.119  0.3410 -0.4785  0.7550
35834SOL    HW213339   5.123   3.873   4.055  0.1668 -0.6426  0.2489
35835SOL     OW13340   0.520   3.529   5.071  0.5910  0.0665  0.2228
35835SOL    HW113341   0.459   3.603   5.071 -2.5565 -2.3217  0.5942
35835SOL    HW213342   0.530   3.508   4.978 -0.9474 -0.7879  0.2090
35836SOL     OW13343   1.431   9.842   1.686  0.5426 -0.1559  0.2394
35836SOL    HW113344   1.526   9.857   1.679  0.3790  0.5284 -0.7992
35836SOL    HW213345   1.395   9.926   1.713 -0.0070  0.3663 -1.9163
35837SOL     OW13346   4.557   3.658   5.340  0.3823 -0.4390 -0.2182
35837SOL    HW113347   4.582   3.639   5.430 -0.2115  0.9828  0.2743
35837SOL    HW213348   4.620   3.726   5.311 -0.7814  0.7297 -0.0928
35838SOL     OW13349   7.085   5.483   1.565  0.2205  0.0194 -0.2358
35838SOL    HW113350   7.015   5.420   1.547 -0.3574  0.8844 -1.0880
35838SOL    HW213351   7.040   5.565   1.584  0.9689  0.1870  0.8938
35839SOL     OW13352   9.051   0.847   1.314 -0.3085  0.0854  0.0056
35839SOL    HW113353   9.020   0.768   1.359  1.3440 -0.1464  0.8004
35839SOL    HW213354   9.036   0.918   1.376  1.6053 -0.1787  0.8515
35840SOL     OW13355   0.024   8.083   3.924 -0.4622  0.0581 -0.0871
35840SOL    HW113356  -0.005   8.086   4.015 -0.0900 -3.2638  0.2862
35840SOL    HW213357  -0.045   8.034   3.879 -0.5618  1.5293 -1.5974
35841SOL     OW13358   9.665  10.150   6.074 -0.0305  0.2927 -0.4327
35841SOL    HW113359   9.629  10.213   6.012  1.5460  0.2345 -1.4626
35841SOL    HW213360   9.659  10.193   6.159 -2.4703  0.2718 -0.5280
35842SOL     OW13361   3.881   0.921   8.732 -0.7662  0.3328 -0.1827
35842SOL    HW113362   3.936   0.844   8.719 -0.6404  0.8660 -4.0759
35842SOL    HW213363   3.907   0.956   8.817  1.9256 -1.7363 -0.0349
35843SOL     OW13364   7.903   3.216   1.066 -0.6617  0.3687 -0.7239
35843SOL    HW113365   7.809   3.209   1.052 -1.0237  1.0355  1.0911
35843SOL    HW213366   7.921   3.310   1.066 -0.1551  0.2843 -0.2270
35844SOL     OW13367   7.995   8.499   1.260  0.3075 -0.3309 -0.4603
35844SOL    HW113368   8.078   8.533   1.293 -0.2481 -0.0284  0.6576
35844SOL    HW213369   7.970   8.431   1.322 -0.3441 -0.3386 -0.7216
35845SOL     OW13370   6.633   8.040   0.273  0.9294  0.4281 -0.0747
35845SOL    HW113371   6.620   7.985   0.196 -2.5719  0.6903  0.1525
35845SOL    HW213372   6.600   8.126   0.246  0.4588  0.7423  1.4372
35846SOL     OW13373   6.902   4.792   3.980 -0.0757 -0.4129 -0.2893
35846SOL    HW113374   6.960   4.716   3.978 -0.5714 -0.7870 -0.6465
35846SOL    HW213375   6.954   4.863   3.942  0.9211 -0.1858  1.3901
35847SOL     OW13376   4.411   0.719   0.188 -0.4969  0.3152 -0.5864
35847SOL    HW113377   4.391   0.804   0.148  2.4306  0.3261 -2.2808
35847SOL    HW213378   4.377   0.727   0.277 -0.1340  3.3757 -0.6009
35848SOL     OW13379   9.179   0.288   8.592  0.5080  0.2932  0.6207
35848SOL    HW113380   9.136   0.216   8.545  1.3706 -1.8238  2.8307
35848SOL    HW213381   9.272   0.278   8.571  0.6895  0.4414  1.3288
35849SOL     OW13382   9.478   5.969   1.304  0.6692 -0.3338  0.3830
35849SOL    HW113383   9.423   6.026   1.249  2.4209  0.3455 -0.7459
35849SOL    HW213384   9.517   6.028   1.368  1.0609 -0.5743  0.3703
35850SOL     OW13385   5.074   4.580   5.173 -0.6212  0.3370  0.0614
35850SOL    HW113386   5.062   4.560   5.266 -1.5267 -0.4131 -0.2108
35850SOL    HW213387   5.154   4.532   5.149 -0.4568  0.4265  0.4089
35851SOL     OW13388   1.393   7.936   5.478 -0.3673  0.6224  0.3844
35851SOL    HW113389   1.350   8.021   5.466  0.4055  1.1700  1.3637
35851SOL    HW213390   1.415   7.933   5.571 -0.3391 -0.6386  0.3526
35852SOL     OW13391   4.852   9.413   6.670 -0.1442  0.2454  0.3614
35852SOL    HW113392   4.843   9.474   6.743 -2.5232 -0.4461  0.7465
35852SOL    HW213393   4.946   9.409   6.654  0.2631  2.2752  1.7708
35853SOL     OW13394   5.677   1.014   2.040 -0.6207 -0.1649  0.1939
35853SOL    HW113395   5.619   0.955   2.089  0.9695 -0.3460  1.9921
35853SOL    HW213396   5.637   1.100   2.049 -1.3475 -0.4956  0.1965
35854SOL     OW13397   5.154  10.562   5.734  0.2028 -0.5608 -0.5078
35854SOL    HW113398   5.186  10.557   5.824  0.3601 -1.5517 -0.6072
35854SOL    HW213399   5.172  10.652   5.707  2.1887 -0.8501 -0.2748
35855SOL     OW13400   3.686   0.125   0.271 -0.4461 -0.1694 -0.2771
35855SOL    HW113401   3.750   0.195   0.289 -1.1360  0.3030  0.3967
35855SOL    HW213402   3.637   0.116   0.353 -2.4395  0.7210 -1.3104
35856SOL     OW13403   3.747   1.450   1.568  0.0162 -0.3632  0.1788
35856SOL    HW113404   3.752   1.516   1.637 -1.7039 -1.1626  1.1381
35856SOL    HW213405   3.654   1.443   1.548  0.4032 -0.7565 -1.6615
35857SOL     OW13406   7.774   8.395  10.097 -0.3796 -0.3707  0.8279
35857SOL    HW113407   7.736   8.307  10.101  1.2372 -1.1506 -0.1293
35857SOL    HW213408   7.737   8.432  10.017  0.1170 -0.7667  0.4087
35858SOL     OW13409   8.521   0.214   8.349 -0.3275  0.2721 -0.0705
35858SOL    HW113410   8.606   0.244   8.380 -1.8138  1.6279  3.2002
35858SOL    HW213411   8.481   0.292   8.311 -0.6691  0.0154 -0.2404
35859SOL     OW13412   8.683   4.920   1.027 -0.2868  0.0875  0.0166
35859SOL    HW113413   8.692   4.991   1.090  1.2280 -0.0117 -0.0691
35859SOL    HW213414   8.770   4.880   1.021 -0.3102  0.2044 -2.2662
35860SOL     OW13415   0.910   4.247   6.492 -0.1784  0.0688 -0.2083
35860SOL    HW113416   0.996   4.278   6.464 -0.3509 -0.1129 -0.9522
35860SOL    HW213417   0.851   4.274   6.421 -0.1989 -2.8070 -1.4120
35861SOL     OW13418   5.576   2.968   3.266 -0.3714  0.2814 -0.3393
35861SOL    HW113419   5.619   2.976   3.181  0.5606  2.2034  0.2562
35861SOL    HW213420   5.508   2.902   3.252 -0.3459  0.6463 -2.6061
35862SOL     OW13421   6.361   1.812   0.194 -0.1794 -0.1945  0.8347
35862SOL    HW113422   6.332   1.779   0.279  2.0614 -0.8614  1.3980
35862SOL    HW213423   6.350   1.738   0.134  1.4039 -0.8391  1.3065
35863SOL     OW13424   5.114   1.667   5.568 -0.7176 -0.6476  0.2282
35863SOL    HW113425   5.145   1.577   5.573 -0.9785 -0.9242 -2.0196
35863SOL    HW213426   5.019   1.659   5.565 -0.7329 -0.3267 -0.2060
35864SOL     OW13427   6.092   9.339   2.492  0.2414  0.3468  0.1579
35864SOL    HW113428   6.067   9.402   2.560 -0.3878 -1.0700  1.2906
35864SOL    HW213429   6.187   9.348   2.485  0.2907  0.6346  1.0930
35865SOL     OW13430   0.513   2.166   4.973 -0.5234  0.0956  0.1936
35865SOL    HW113431   0.476   2.252   4.955  1.0784  0.1819 -3.4874
35865SOL    HW213432   0.480   2.110   4.903  0.5934 -1.6139  0.9653
35866SOL     OW13433   3.390   8.703   9.817 -0.0940 -0.1569  0.3535
35866SOL    HW113434   3.394   8.730   9.725  1.1110  0.3877  0.5519
35866SOL    HW213435   3.475   8.663   9.834 -0.3212 -0.2844  1.2407
35867SOL     OW13436   4.696   7.303   4.523  0.1180 -0.0276  0.4920
35867SOL    HW113437   4.766   7.369   4.525 -0.5097  0.6686 -0.1426
35867SOL    HW213438   4.725   7.239   4.458  0.1067  0.3320  0.1297
35868SOL     OW13439   7.417   7.386   8.972  0.1357  0.2816 -0.3610
35868SOL    HW113440   7.362   7.329   9.024 -0.8851  1.1536 -0.4513
35868SOL    HW213441   7.363   7.412   8.898  0.2804  1.9716  0.0795
35869SOL     OW13442   3.052   6.688   6.785  0.3110 -0.6859 -0.2924
35869SOL    HW113443   2.987   6.747   6.823 -0.1243 -1.2487 -0.1343
35869SOL    HW213444   3.136   6.725   6.811  0.1063  0.6847 -1.4595
35870SOL     OW13445   5.871   5.501   3.927 -0.5286  0.0172  0.2061
35870SOL    HW113446   5.895   5.451   3.849 -0.5219  0.7766 -0.2855
35870SOL    HW213447   5.786   5.540   3.904  0.1527  1.4295  0.0079
35871SOL     OW13448   2.314   0.766   7.038  0.6238 -0.5067 -0.0529
35871SOL    HW113449   2.266   0.828   7.092 -1.8103 -0.7489 -1.7598
35871SOL    HW213450   2.300   0.796   6.949 -0.8226 -3.4861 -0.9738
35872SOL     OW13451   1.510   7.792   1.449 -0.6545 -0.3421 -0.2208
35872SOL    HW113452   1.531   7.842   1.528 -0.0256 -0.7020 -0.1534
35872SOL    HW213453   1.448   7.725   1.480 -1.0415  0.0204 -0.1975
35873SOL     OW13454   5.415   4.275   5.266  0.2269  0.3622  0.0219
35873SOL    HW113455   5.483   4.210   5.249 -0.8770 -0.4532 -1.5678
35873SOL    HW213456   5.418   4.289   5.361  1.0375 -1.4092  0.3010
35874SOL     OW13457   0.731   3.531   9.962 -0.1611  0.2179 -0.3271
35874SOL    HW113458   0.687   3.544   9.878  1.3097  0.9033 -1.0116
35874SOL    HW213459   0.813   3.486   9.941 -0.1847 -0.4394  0.8531
35875SOL     OW13460   3.251   8.108  10.015  0.4233  0.3672  0.0018
35875SOL    HW113461   3.322   8.045  10.032  0.2165  0.0847 -0.1782
35875SOL    HW213462   3.274   8.148   9.931 -0.7376 -1.2816 -1.1519
35876SOL     OW13463   0.800   6.581   0.571  0.4124  0.3796 -0.4685
35876SOL    HW113464   0.753   6.536   0.501  1.6463  0.6883 -1.5520
35876SOL    HW213465   0.844   6.654   0.527  2.1443 -0.0806  0.3868
35877SOL     OW13466   0.516   7.789   1.861 -0.7241  0.4147  0.0344
35877SOL    HW113467   0.518   7.701   1.899 -1.1352 -0.2297 -1.3939
35877SOL    HW213468   0.428   7.797   1.824 -1.0477  1.8253  1.0105
35878SOL     OW13469  10.636   8.723   3.311 -0.3391 -0.2511  0.4366
35878SOL    HW113470  10.722   8.711   3.350  0.0331 -1.0226 -0.5767
35878SOL    HW213471  10.574   8.693   3.377  0.2765 -1.6895  0.3873
35879SOL     OW13472   9.551   2.940   2.897 -0.1091 -0.2835  0.4264
35879SOL    HW113473   9.458   2.924   2.914  0.2447 -2.0718  0.8823
35879SOL    HW213474   9.585   2.977   2.979 -0.3987  0.3714  0.2588
35880SOL     OW13475   0.008   7.617   2.103  0.1440 -0.4654  0.0685
35880SOL    HW113476   0.086   7.672   2.102 -0.1331 -0.0712 -0.2963
35880SOL    HW213477   0.001   7.584   2.013  1.5124 -2.8403  0.7468
35881SOL     OW13478   0.703   0.796   9.444 -0.4229 -0.1893 -0.0874
35881SOL    HW113479   0.608   0.790   9.441 -0.7483  2.2788  1.8510
35881SOL    HW213480   0.734   0.719   9.396 -3.3410 -2.1783  0.9829
35882SOL     OW13481   0.937   7.971   2.725  0.5990  0.2005  0.8385
35882SOL    HW113482   0.945   8.027   2.648  0.9107 -0.2779  0.5198
35882SOL    HW213483   0.845   7.981   2.752  0.6708  0.9179  0.8324
35883SOL     OW13484   6.562   1.856   3.633 -0.0582 -0.2559 -0.7188
35883SOL    HW113485   6.596   1.908   3.560  3.6504  0.2824  1.1294
35883SOL    HW213486   6.497   1.913   3.674  3.0718  2.7488  0.5624
35884SOL     OW13487   7.211   8.175   7.255 -0.4453  0.2053 -0.3275
35884SOL    HW113488   7.216   8.269   7.274  1.1724  0.4111 -1.5731
35884SOL    HW213489   7.294   8.139   7.286 -0.8253 -0.7235 -0.3503
35885SOL     OW13490  10.072   6.464   2.842  0.3461  0.5755  0.4154
35885SOL    HW113491  10.161   6.431   2.847  0.0976 -0.0645  0.6824
35885SOL    HW213492  10.057   6.481   2.749  0.2694 -0.6403  0.1987
35886SOL     OW13493   2.604   8.510   8.618 -0.4933 -0.1454  0.6483
35886SOL    HW113494   2.577   8.534   8.706  0.8749 -1.3287  1.4379
35886SOL    HW213495   2.597   8.592   8.568 -0.1798  0.8313  2.1322
35887SOL     OW13496   7.213   1.333   0.697  0.0786 -0.3475 -0.1105
35887SOL    HW113497   7.301   1.313   0.728  0.0375 -0.3146  0.0276
35887SOL    HW213498   7.156   1.313   0.771  0.0344  0.2625  0.0301
35888SOL     OW13499   3.735   0.843   1.736 -0.0485 -0.5972  0.8427
35888SOL    HW113500   3.694   0.812   1.655  0.4925 -0.1705  0.3965
35888SOL    HW213501   3.819   0.879   1.708 -0.8813  1.8300  1.2631
35889SOL     OW13502  10.149   6.819   6.057 -0.4972 -0.0013  0.5461
35889SOL    HW113503  10.067   6.817   6.006 -0.2367 -1.8175  0.1536
35889SOL    HW213504  10.210   6.867   6.001 -0.7402 -0.3551 -0.0278
35890SOL     OW13505   1.357   9.056   8.757 -0.1844  0.2004  0.4727
35890SOL    HW113506   1.425   9.061   8.825  0.2058 -1.3990  0.2234
35890SOL    HW213507   1.279   9.092   8.799 -0.3134 -1.9839  2.2942
35891SOL     OW13508   5.120   6.712   0.297 -0.1316  0.9302 -0.0793
35891SOL    HW113509   5.101   6.649   0.228 -1.8695  0.9685  0.3327
35891SOL    HW213510   5.135   6.795   0.251  1.3539  0.4384 -0.5579
35892SOL     OW13511   6.863   4.816   9.891 -0.2971  0.1999  0.0062
35892SOL    HW113512   6.856   4.911   9.898  2.0628  0.5184 -1.1301
35892SOL    HW213513   6.925   4.791   9.959  1.2189 -0.1289 -1.4393
35893SOL     OW13514   2.786   2.171   5.431 -0.4277 -0.1633  0.1431
35893SOL    HW113515   2.794   2.249   5.485 -0.0007  0.4419 -0.7646
35893SOL    HW213516   2.724   2.115   5.478 -2.7265  1.7715 -0.3615
35894SOL     OW13517  10.337   1.374   1.533 -0.0430 -0.2862  0.5190
35894SOL    HW113518  10.352   1.309   1.602  0.2119 -0.6227  0.1481
35894SOL    HW213519  10.259   1.344   1.488 -1.4690  1.0573  1.9639
35895SOL     OW13520   1.745   5.727   5.218  0.6459  0.1522  0.0395
35895SOL    HW113521   1.814   5.662   5.232  0.3419 -0.4429 -1.0953
35895SOL    HW213522   1.786   5.792   5.161 -0.2127 -1.1165 -2.1306
35896SOL     OW13523   2.094   3.164   7.720  0.3610 -0.5202  0.0249
35896SOL    HW113524   2.092   3.260   7.725 -0.5636 -0.4288 -1.3079
35896SOL    HW213525   2.184   3.140   7.743  0.4704  0.6278  0.8620
35897SOL     OW13526   4.633   2.922   7.166  0.1690 -0.1697 -0.0008
35897SOL    HW113527   4.553   2.968   7.140 -0.3343 -0.2633  1.2887
35897SOL    HW213528   4.667   2.884   7.085 -0.0968  1.3906 -0.8932
35898SOL     OW13529   4.840   7.481   8.171  0.0438  0.6053 -0.0870
35898SOL    HW113530   4.761   7.532   8.151  0.7954  1.9429  0.2447
35898SOL    HW213531   4.825   7.396   8.128 -0.5099  1.6751 -2.1467
35899SOL     OW13532   9.206  10.297  10.636 -0.5047  0.5187 -0.0053
35899SOL    HW113533   9.289  10.314  10.680 -0.2741 -0.6151  0.0364
35899SOL    HW213534   9.144  10.282  10.707  0.2889 -3.3706  0.1189
35900SOL     OW13535   4.305   6.460   7.498  0.5088 -0.2381  0.3510
35900SOL    HW113536   4.283   6.409   7.576  1.7875  0.0602  0.9210
35900SOL    HW213537   4.374   6.410   7.455  0.4122  0.0353 -0.1269
35901SOL     OW13538   2.407   2.324   4.446 -0.3938  0.2544 -0.6047
35901SOL    HW113539   2.438   2.350   4.360  1.7341 -0.9132 -0.2645
35901SOL    HW213540   2.407   2.228   4.443 -0.7088  0.2056  0.5524
35902SOL     OW13541   6.299   1.423   3.090 -0.5459  0.1796 -0.0733
35902SOL    HW113542   6.219   1.379   3.119 -0.3984 -0.5152 -0.6783
35902SOL    HW213543   6.282   1.516   3.104 -2.1814  0.2127 -1.8456
35903SOL     OW13544   6.084   0.816  10.676 -0.0054  0.7389 -0.3996
35903SOL    HW113545   6.034   0.810  10.757  1.7719  0.2902  0.7166
35903SOL    HW213546   6.021   0.850  10.612 -2.3785 -1.9297  0.3171
35904SOL     OW13547   1.257   5.976   3.261 -0.5178  0.1406 -0.2090
35904SOL    HW113548   1.290   5.992   3.172 -0.3248 -0.7310 -0.2968
35904SOL    HW213549   1.253   5.881   3.269 -2.1495  0.2147  0.1325
35905SOL     OW13550   0.727   6.989   8.878 -0.0267 -0.1308  0.3234
35905SOL    HW113551   0.808   6.995   8.928  0.7870 -1.9161 -0.6927
35905SOL    HW213552   0.716   6.896   8.862 -1.2411  0.2395 -1.2401
35906SOL     OW13553   7.840   5.944   1.296  0.0272  0.0292 -0.3509
35906SOL    HW113554   7.915   6.000   1.277 -0.1271  0.2509 -0.3115
35906SOL    HW213555   7.873   5.854   1.286  1.5768 -0.1119  3.9964
35907SOL     OW13556  10.583   1.858  10.653  0.3058  0.0291  0.1939
35907SOL    HW113557  10.613   1.801  10.582  0.4350  0.3792 -0.0345
35907SOL    HW213558  10.573   1.799  10.728 -1.7569 -0.7424 -0.5940
35908SOL     OW13559   9.180   2.122   8.366  0.5524 -0.1263 -0.3083
35908SOL    HW113560   9.091   2.100   8.392  0.9563 -1.4866 -0.0473
35908SOL    HW213561   9.230   2.122   8.447  1.2135 -1.4642 -0.6947
35909SOL     OW13562  10.506   6.627   9.683 -0.1581  0.5163 -0.5404
35909SOL    HW113563  10.444   6.682   9.730  0.7044  1.0561 -0.0028
35909SOL    HW213564  10.462   6.606   9.600 -2.0755 -1.2011  0.8043
35910SOL     OW13565   1.130   3.174   8.098  0.5063  0.0171  0.2517
35910SOL    HW113566   1.076   3.190   8.175  1.1167 -0.0646  0.7006
35910SOL    HW213567   1.067   3.146   8.031 -0.2635  1.8118  0.1676
35911SOL     OW13568   6.242   1.495   1.672  0.0060 -0.1041  0.4574
35911SOL    HW113569   6.199   1.570   1.712  0.3147  1.5009 -1.9745
35911SOL    HW213570   6.170   1.442   1.637 -0.1671 -0.1516  0.8874
35912SOL     OW13571   7.861   7.630   6.143 -0.0876  0.3116  0.3475
35912SOL    HW113572   7.825   7.698   6.086  1.3386  1.1192  0.3536
35912SOL    HW213573   7.854   7.549   6.092 -0.0548  0.7962 -0.4465
35913SOL     OW13574   5.557   7.777   7.698 -0.7438  0.4346  0.3039
35913SOL    HW113575   5.607   7.816   7.771  1.5713 -0.0834 -0.8913
35913SOL    HW213576   5.542   7.850   7.638  1.6313  0.0552 -0.8847
35914SOL     OW13577   1.191   4.038   2.174 -0.0757  0.0483 -0.2203
35914SOL    HW113578   1.261   4.091   2.213  0.0712  0.5125 -1.0842
35914SOL    HW213579   1.120   4.100   2.159 -0.1042 -0.1067 -0.7430
35915SOL     OW13580   7.834  10.125   8.279 -0.0785  0.3302 -0.6206
35915SOL    HW113581   7.837  10.220   8.294  0.0897  0.2749 -0.2764
35915SOL    HW213582   7.800  10.090   8.362 -1.0982  0.1749 -1.0996
35916SOL     OW13583   2.836   2.795   8.275  0.1252 -0.2664 -0.0289
35916SOL    HW113584   2.827   2.869   8.335  0.6894  0.0411 -0.3161
35916SOL    HW213585   2.762   2.738   8.296  0.5155 -0.3360  1.2009
35917SOL     OW13586   2.823   9.530   9.858 -1.0364 -0.1740 -0.1701
35917SOL    HW113587   2.816   9.438   9.883 -0.4464  0.0050  0.6953
35917SOL    HW213588   2.914   9.541   9.832 -0.8961  0.3282  0.4855
35918SOL     OW13589   6.335   6.689   1.791  0.2858  0.3919  0.4184
35918SOL    HW113590   6.404   6.751   1.816  0.9022 -0.8357  1.9732
35918SOL    HW213591   6.374   6.634   1.724  1.0768 -0.6448  1.6734
35919SOL     OW13592   6.963   2.631   3.042 -0.5507  0.8926  0.7132
35919SOL    HW113593   7.015   2.711   3.041 -0.6034  0.9242 -0.0740
35919SOL    HW213594   7.028   2.561   3.038 -0.5132  0.8958  1.2034
35920SOL     OW13595   5.560   8.130   8.764  0.0243 -0.5350  0.1049
35920SOL    HW113596   5.650   8.144   8.794  0.2360 -2.8993  0.7843
35920SOL    HW213597   5.569   8.112   8.671  0.3181 -1.0915  0.2336
35921SOL     OW13598   1.068   2.315   0.357  0.0509 -0.3994  0.0813
35921SOL    HW113599   1.112   2.294   0.274 -2.4469  1.3303 -1.8255
35921SOL    HW213600   1.113   2.393   0.389  1.0852 -1.1254  0.4313
35922SOL     OW13601   8.262   3.221   5.183  0.7121  0.3011 -0.0324
35922SOL    HW113602   8.294   3.131   5.194  0.5234  0.4085  1.6201
35922SOL    HW213603   8.298   3.268   5.258  0.1240  1.4138 -0.4357
35923SOL     OW13604   4.266   7.179   4.097 -0.7713  0.5594 -0.2039
35923SOL    HW113605   4.301   7.130   4.171 -0.8656  1.3179  0.3499
35923SOL    HW213606   4.171   7.170   4.105 -0.7887  0.8513 -0.0889
35924SOL     OW13607   8.084   9.891   1.050 -0.0264 -0.6181 -0.3392
35924SOL    HW113608   8.114   9.832   0.981  0.2668 -0.0620 -0.6928
35924SOL    HW213609   8.003   9.929   1.016 -0.7621 -1.5671  0.3107
35925SOL     OW13610   1.457   4.911   8.297 -0.1960 -0.7483 -0.0444
35925SOL    HW113611   1.550   4.909   8.277  0.0001 -0.9357  0.8540
35925SOL    HW213612   1.414   4.887   8.214  0.2851  3.6961 -1.8427
35926SOL     OW13613   5.318   7.328   7.853 -0.0724  0.3649 -0.2717
35926SOL    HW113614   5.384   7.260   7.837 -2.0625 -2.0328  1.1090
35926SOL    HW213615   5.370   7.408   7.867  2.5226 -1.2999  0.3854
35927SOL     OW13616   9.408   2.974  10.406  0.0401  0.1284 -0.3831
35927SOL    HW113617   9.417   2.950  10.498 -1.8163  1.6424  0.2622
35927SOL    HW213618   9.378   2.894  10.363 -2.2217  0.1661  0.9733
35928SOL     OW13619   8.942   5.893  10.560 -0.2331 -0.0895  0.0052
35928SOL    HW113620   8.882   5.896  10.486  0.5262  1.3001 -0.5910
35928SOL    HW213621   8.920   5.812  10.606 -2.9208  0.6153  0.1268
35929SOL     OW13622   8.997   1.981   8.524 -0.0595 -0.2608  0.0067
35929SOL    HW113623   9.053   1.907   8.548 -0.1986 -0.5417 -0.5011
35929SOL    HW213624   8.954   1.952   8.444  0.1402  0.5011 -0.3878
35930SOL     OW13625   2.663   7.864   2.678 -0.2478 -0.6284 -0.6694
35930SOL    HW113626   2.637   7.921   2.751  0.0731  0.7912 -1.6284
35930SOL    HW213627   2.729   7.806   2.716 -0.3627 -0.1766  0.2595
35931SOL     OW13628   2.068   8.648   8.533 -0.0308 -0.1360 -0.1947
35931SOL    HW113629   2.151   8.615   8.569 -0.0363 -1.0243 -0.9659
35931SOL    HW213630   2.007   8.644   8.607  0.7884  1.3052  0.6119
35932SOL     OW13631   6.456   3.392   0.364  0.1508 -0.3627 -0.0005
35932SOL    HW113632   6.380   3.418   0.311  1.7969 -0.7322 -2.7618
35932SOL    HW213633   6.502   3.328   0.310  2.2022 -0.4778  1.7588
35933SOL     OW13634   0.773   6.066   3.043 -0.4192  0.2676  0.5100
35933SOL    HW113635   0.743   6.056   2.953 -1.4827 -0.0928  0.8921
35933SOL    HW213636   0.867   6.048   3.040 -0.0333  2.1661 -0.8487
35934SOL     OW13637   6.870   0.248   5.086  0.0372  0.2332  0.6380
35934SOL    HW113638   6.905   0.317   5.143 -1.0389  3.2522 -2.0499
35934SOL    HW213639   6.944   0.189   5.073  1.6661  1.9644  1.4950
35935SOL     OW13640   3.866   6.577   9.297  0.1017  0.4648 -0.4069
35935SOL    HW113641   3.779   6.543   9.318  0.2380  0.2157 -0.2390
35935SOL    HW213642   3.927   6.516   9.339  0.3487  2.6190  2.7825
35936SOL     OW13643  10.196   0.221   6.903  0.4184  0.1360 -0.5165
35936SOL    HW113644  10.260   0.277   6.860  1.5486  0.2954  1.2727
35936SOL    HW213645  10.228   0.132   6.890  0.6866  0.1750 -0.1353
35937SOL     OW13646   4.345   7.585  10.056 -0.5674  0.0912  0.0434
35937SOL    HW113647   4.316   7.673  10.030 -0.9408  0.3973  1.4095
35937SOL    HW213648   4.427   7.599  10.103 -0.9623 -0.2123  0.8391
35938SOL     OW13649   0.231   9.472   0.552  0.0348  0.6882 -0.0579
35938SOL    HW113650   0.220   9.433   0.639  1.5424 -0.9071 -0.5293
35938SOL    HW213651   0.311   9.523   0.558  0.4657  0.1095 -0.6278
35939SOL     OW13652   2.826   9.008   7.443  0.0729 -0.2808 -0.2440
35939SOL    HW113653   2.788   8.954   7.373 -1.1865 -0.1644  0.3141
35939SOL    HW213654   2.804   8.960   7.523  0.5377  0.1432  0.1382
35940SOL     OW13655   5.235   0.770   7.498  0.1993 -0.2506  0.8030
35940SOL    HW113656   5.262   0.789   7.408  0.3948  0.0543  0.9244
35940SOL    HW213657   5.160   0.827   7.513 -1.0369 -1.6643  0.1985
35941SOL     OW13658   6.648  10.358   0.322 -0.3470 -0.3303  0.3958
35941SOL    HW113659   6.701  10.292   0.277  0.1482 -0.2998  0.9162
35941SOL    HW213660   6.699  10.439   0.314 -0.6415 -0.1539  0.3173
35942SOL     OW13661   2.751   6.868   8.964 -0.0027  0.5514 -0.1122
35942SOL    HW113662   2.702   6.851   8.884  0.9926 -1.3304 -0.3729
35942SOL    HW213663   2.826   6.921   8.936  1.1877 -1.3936 -0.7487
35943SOL     OW13664   6.345   7.700  10.067  0.2885 -0.5648 -0.2022
35943SOL    HW113665   6.328   7.795  10.069 -0.0470 -0.6154 -0.4828
35943SOL    HW213666   6.401   7.688   9.990 -1.2276 -0.8298 -1.2933
35944SOL     OW13667   8.296   1.983   9.276 -0.0590 -0.9060 -0.0295
35944SOL    HW113668   8.375   2.037   9.272 -0.0108 -0.8365  1.4521
35944SOL    HW213669   8.296   1.935   9.194  0.2625  0.8239 -1.0980
35945SOL     OW13670   1.293   4.978   5.174 -0.6024 -0.0824 -0.0176
35945SOL    HW113671   1.315   4.957   5.265  0.7482 -0.4856 -0.4091
35945SOL    HW213672   1.243   4.903   5.143  0.7774 -0.9594 -0.2198
35946SOL     OW13673   1.285  10.488   8.738 -0.1346  0.1806 -0.1993
35946SOL    HW113674   1.239  10.571   8.731  1.0392  0.7881 -1.1893
35946SOL    HW213675   1.229  10.425   8.692 -1.0506  0.3903  0.5965
35947SOL     OW13676   6.893   3.621   7.223  0.0883 -0.2867  0.3421
35947SOL    HW113677   6.980   3.614   7.263  0.7392 -0.9212 -1.0978
35947SOL    HW213678   6.834   3.578   7.285  0.7895  0.1551  1.3391
35948SOL     OW13679   6.839   6.926   8.483 -0.1029 -0.4866  0.1669
35948SOL    HW113680   6.873   6.858   8.541 -0.9035  0.2755  1.5877
35948SOL    HW213681   6.747   6.903   8.470  0.1600 -0.8548 -1.1368
35949SOL     OW13682  10.662   3.869   3.284 -0.9419  0.4705  0.0122
35949SOL    HW113683  10.611   3.905   3.212  0.0556 -0.7152 -1.3437
35949SOL    HW213684  10.639   3.776   3.285  0.9634 -0.0495 -0.4884
35950SOL     OW13685   3.913   4.839   0.783  0.0852 -0.0462 -0.2272
35950SOL    HW113686   3.877   4.764   0.830  1.2744 -0.0160  0.7671
35950SOL    HW213687   4.004   4.815   0.767  0.5900  1.3553  0.4609
35951SOL     OW13688   5.992   4.914   1.630 -0.0242 -0.1447  0.1041
35951SOL    HW113689   6.006   4.933   1.723 -0.1321 -0.1642  0.1245
35951SOL    HW213690   5.912   4.961   1.607 -0.0880 -0.2703  0.0629
35952SOL     OW13691   7.250   1.376  10.647 -0.5251 -0.5113 -0.7520
35952SOL    HW113692   7.236   1.286  10.619  0.2295 -1.2995  1.1841
35952SOL    HW213693   7.339   1.377  10.682 -0.2028  1.2168 -1.5122
35953SOL     OW13694   8.199   7.768   6.960  0.1258 -0.3396 -0.6000
35953SOL    HW113695   8.136   7.697   6.949  0.9673 -0.9792 -1.4101
35953SOL    HW213696   8.145   7.847   6.968 -0.7992 -1.0086 -0.0936
35954SOL     OW13697   3.193   3.297   2.248  0.2551  0.3262 -0.4815
35954SOL    HW113698   3.282   3.313   2.216  1.0763 -1.9885  0.4433
35954SOL    HW213699   3.199   3.308   2.343  0.0635 -1.7478 -0.1987
35955SOL     OW13700   7.879   5.191   6.539 -0.4051 -0.1585  0.4285
35955SOL    HW113701   7.835   5.218   6.620 -0.8166 -0.0590  0.1724
35955SOL    HW213702   7.962   5.152   6.569 -0.7864 -0.6021  0.9341
35956SOL     OW13703   2.477  10.154   8.319 -0.2470 -0.4047  0.5359
35956SOL    HW113704   2.506  10.099   8.392 -1.6866  1.8322  2.9661
35956SOL    HW213705   2.430  10.226   8.361 -2.4167  0.2718 -2.7189
35957SOL     OW13706   2.384   0.713   3.396 -0.4541  0.2640 -0.3035
35957SOL    HW113707   2.299   0.703   3.352 -0.6525  2.2921 -0.4705
35957SOL    HW213708   2.448   0.701   3.327 -0.7330  2.2355 -0.9436
35958SOL     OW13709   4.882   3.983   3.915  0.5572 -0.4385  0.5242
35958SOL    HW113710   4.820   3.924   3.957  0.5425 -1.2329 -0.5651
35958SOL    HW213711   4.861   3.977   3.822  1.2937  0.4369  0.2837
35959SOL     OW13712   2.051   4.096   8.319 -0.1151  0.7644 -0.0860
35959SOL    HW113713   2.144   4.092   8.300  0.2579 -1.9101  1.8401
35959SOL    HW213714   2.010   4.047   8.247  0.1040  0.7237 -0.1828
35960SOL     OW13715   8.600   7.516   9.600  0.3702 -0.1457  0.3422
35960SOL    HW113716   8.564   7.603   9.610 -0.1155 -0.2718 -0.2512
35960SOL    HW213717   8.660   7.523   9.525 -0.3951 -0.5371 -0.3155
35961SOL     OW13718   0.146   9.918   9.150  0.6118 -0.3119  0.4974
35961SOL    HW113719   0.053   9.895   9.149  1.1870 -2.9559 -0.2633
35961SOL    HW213720   0.151   9.999   9.098 -1.1004 -0.9239 -0.7143
35962SOL     OW13721   2.445   0.554   6.887  0.0083  0.5827 -0.0140
35962SOL    HW113722   2.462   0.622   6.953 -0.6013 -2.4805  3.5992
35962SOL    HW213723   2.353   0.531   6.899  0.2982 -1.1456 -0.8550
35963SOL     OW13724   6.193  10.205   3.685  0.1047  0.4338  0.1887
35963SOL    HW113725   6.238  10.287   3.708  0.8206 -0.2902  1.5202
35963SOL    HW213726   6.242  10.137   3.732  0.7827 -1.0565 -2.4764
35964SOL     OW13727   7.807  10.026   2.323 -0.3003 -0.8594 -0.1602
35964SOL    HW113728   7.760   9.971   2.260 -1.1760 -0.5899  0.2469
35964SOL    HW213729   7.881  10.062   2.273 -1.1292 -0.4385 -1.1123
35965SOL     OW13730   1.100   2.181   9.711  0.6996 -0.6397  0.1111
35965SOL    HW113731   1.042   2.257   9.708  0.7662 -0.5967 -0.1750
35965SOL    HW213732   1.171   2.207   9.770 -0.8111 -1.6004  2.5045
35966SOL     OW13733   4.588   2.510   9.894 -0.5561  0.0282 -0.0951
35966SOL    HW113734   4.666   2.566   9.893  0.1307 -0.9072 -1.2913
35966SOL    HW213735   4.596   2.460   9.975 -0.4130  0.6074  0.2554
35967SOL     OW13736   4.268   3.254   4.344 -0.4190  0.2929 -0.3427
35967SOL    HW113737   4.198   3.251   4.410  0.5659  2.7929  0.9309
35967SOL    HW213738   4.231   3.303   4.271 -1.1877 -1.6571 -1.3350
35968SOL     OW13739   6.024   1.520   6.279 -0.0698  0.0802  0.0516
35968SOL    HW113740   6.032   1.566   6.363 -0.4898 -0.6557  0.5048
35968SOL    HW213741   5.930   1.513   6.264 -0.0122 -0.6849  0.0239
35969SOL     OW13742   1.458  10.701   1.364  0.4302 -0.1502  0.1253
35969SOL    HW113743   1.432  10.792   1.373  1.7065  0.4589 -1.7149
35969SOL    HW213744   1.375  10.654   1.356 -0.2687  1.2554 -1.8108
35970SOL     OW13745   6.124   3.898   4.571  0.5815 -0.0570 -0.3765
35970SOL    HW113746   6.162   3.983   4.547 -1.8372  0.6694 -2.0487
35970SOL    HW213747   6.083   3.867   4.490 -2.5843 -0.5963  1.3002
35971SOL     OW13748   1.103   8.022   2.998  0.4559  0.9337  0.0889
35971SOL    HW113749   1.046   8.074   3.054  1.1620  1.7730  0.0374
35971SOL    HW213750   1.044   7.985   2.932 -0.7706 -1.6821  2.4285
35972SOL     OW13751   5.074   2.416   4.836  0.3512 -0.5519 -0.9771
35972SOL    HW113752   5.153   2.463   4.810  0.0953  0.6337  0.2944
35972SOL    HW213753   5.009   2.484   4.852  0.2437 -1.1945  1.8734
35973SOL     OW13754   9.187   8.718   3.413  0.0501 -0.0932 -0.2694
35973SOL    HW113755   9.178   8.755   3.501  1.3331 -1.8903  0.6672
35973SOL    HW213756   9.252   8.774   3.371 -0.0728  0.3794  0.1570
35974SOL     OW13757   5.103   1.713   1.702 -0.2226  0.1997 -0.4436
35974SOL    HW113758   5.019   1.747   1.732 -1.5373 -0.5803 -2.9466
35974SOL    HW213759   5.139   1.782   1.647  1.3533  0.9531  1.4210
35975SOL     OW13760   8.902   7.171   0.912 -0.4525  0.0813 -0.9610
35975SOL    HW113761   8.987   7.206   0.939 -0.1960 -1.9207  1.0753
35975SOL    HW213762   8.920   7.081   0.884 -1.7883 -0.0726 -1.4139
35976SOL     OW13763   0.987   1.452   9.061 -0.0754 -0.0745 -0.1836
35976SOL    HW113764   1.066   1.433   9.011 -0.6416  0.8658 -1.4895
35976SOL    HW213765   0.939   1.369   9.063 -1.4469  0.4445 -3.8538
35977SOL     OW13766   1.849   6.593   9.518 -0.2421  0.0993  0.1127
35977SOL    HW113767   1.943   6.590   9.535 -0.1944  0.4825 -0.0627
35977SOL    HW213768   1.840   6.566   9.426 -0.2126  0.9247 -0.1444
35978SOL     OW13769   0.016  10.420   1.257  0.0818 -0.0178 -0.7930
35978SOL    HW113770   0.099  10.409   1.303  0.5006  0.1961 -1.4680
35978SOL    HW213771   0.016  10.512   1.229 -0.6826  0.1578 -0.2493
35979SOL     OW13772   2.714   2.255   6.647  0.1775 -0.0897 -0.1204
35979SOL    HW113773   2.731   2.290   6.560  0.5356  1.4922  0.5522
35979SOL    HW213774   2.799   2.252   6.690 -0.3028  1.8469  1.1034
35980SOL     OW13775   0.112   9.160   3.811 -0.1673 -0.9582 -0.3093
35980SOL    HW113776   0.158   9.131   3.890 -0.5412  0.3854  0.4294
35980SOL    HW213777   0.149   9.107   3.741  1.4545 -0.9413  0.4908
35981SOL     OW13778   2.464   2.730   2.176 -0.5720 -0.2857  0.1166
35981SOL    HW113779   2.425   2.759   2.094  0.2871 -0.5624 -0.3995
35981SOL    HW213780   2.558   2.744   2.164  0.0137 -3.8424 -0.4453
35982SOL     OW13781   9.474   3.250   4.581  0.8196  0.0953  0.0459
35982SOL    HW113782   9.453   3.340   4.608  0.4219  0.0032  0.0431
35982SOL    HW213783   9.530   3.261   4.504  1.2179  0.3471  0.3691
35983SOL     OW13784   1.542   1.155   2.682  0.6948 -0.5168 -0.3601
35983SOL    HW113785   1.463   1.131   2.730  0.8489 -0.0362  0.1373
35983SOL    HW213786   1.558   1.080   2.625 -0.4909 -0.3528 -0.9540
35984SOL     OW13787   9.370   4.696   2.986 -0.2202  0.4696 -0.2465
35984SOL    HW113788   9.355   4.602   2.995  0.1262  0.4611  0.2721
35984SOL    HW213789   9.293   4.737   3.025  0.5530  0.4156  1.3975
35985SOL     OW13790   2.876   5.333   9.071 -0.2618 -0.3948 -0.3200
35985SOL    HW113791   2.819   5.259   9.053  0.3613 -0.4907 -2.0894
35985SOL    HW213792   2.859   5.395   9.000  0.6154  0.2928  0.0483
35986SOL     OW13793   2.021   4.537  10.361  0.2337  0.0620 -0.2109
35986SOL    HW113794   1.941   4.560  10.409 -0.1357 -1.0289 -0.2865
35986SOL    HW213795   2.089   4.535  10.428  0.0618  0.2820 -0.0272
35987SOL     OW13796   5.240   4.083  10.063  0.6541 -0.8400  0.4348
35987SOL    HW113797   5.232   4.009  10.002 -0.5210 -1.6623  1.5332
35987SOL    HW213798   5.294   4.049  10.134  0.3854 -0.5320  0.7883
35988SOL     OW13799   2.726   0.589   5.316 -0.2940  0.0525  0.4583
35988SOL    HW113800   2.737   0.678   5.283  1.5058 -0.7973 -1.5326
35988SOL    HW213801   2.782   0.584   5.393  1.4697  0.0796 -0.7553
35989SOL     OW13802   7.846   8.293   8.096 -0.0876  0.3368  0.2908
35989SOL    HW113803   7.874   8.209   8.061  0.2928 -0.2295  1.8857
35989SOL    HW213804   7.916   8.318   8.157  0.6569  2.6461 -1.3830
35990SOL     OW13805   4.366   6.142   9.264 -0.0558  0.4151 -0.1238
35990SOL    HW113806   4.441   6.111   9.214 -1.1317 -1.5192 -0.6444
35990SOL    HW213807   4.305   6.177   9.199  0.8496  3.2593  0.3966
35991SOL     OW13808   2.344   5.879  10.163  0.2381  0.5398  0.2624
35991SOL    HW113809   2.398   5.932  10.221  3.0549 -1.0408 -0.6716
35991SOL    HW213810   2.407   5.821  10.119 -2.2859 -1.4810 -0.9496
35992SOL     OW13811   7.097   5.278   9.685  0.1094  0.0282 -0.3257
35992SOL    HW113812   7.171   5.338   9.693 -1.2123  1.5002  1.8950
35992SOL    HW213813   7.097   5.229   9.767  0.4759 -2.3101 -1.6364
35993SOL     OW13814   3.551   9.708   3.123  0.6821  0.1006 -0.1260
35993SOL    HW113815   3.513   9.741   3.041  1.6983 -0.0203 -0.6580
35993SOL    HW213816   3.621   9.769   3.143  0.1973  0.3411  0.8669
35994SOL     OW13817   4.485   6.365   7.091  0.6941 -0.1939  0.3408
35994SOL    HW113818   4.542   6.358   7.014  0.1209 -1.0235 -0.0230
35994SOL    HW213819   4.443   6.450   7.082 -0.4169 -0.8426 -1.0317
35995SOL     OW13820   1.404   0.804   7.884  0.2407 -0.1366  0.0823
35995SOL    HW113821   1.329   0.745   7.894  0.5543 -0.5514  0.0278
35995SOL    HW213822   1.464   0.776   7.953  1.1989 -1.1246 -1.1025
35996SOL     OW13823   9.150   4.831   5.843  0.1001 -0.0796 -0.1562
35996SOL    HW113824   9.184   4.746   5.872 -0.5863 -0.5172 -0.6064
35996SOL    HW213825   9.060   4.833   5.877  0.7840  1.4390  1.7903
35997SOL     OW13826   2.340   0.166   6.930 -0.1858  0.5033  0.0838
35997SOL    HW113827   2.397   0.117   6.990  2.4342  1.0200 -1.7834
35997SOL    HW213828   2.370   0.257   6.938 -3.3308  1.5335  1.6965
35998SOL     OW13829   3.455   2.546   2.582  0.9364 -0.0388  0.3685
35998SOL    HW113830   3.445   2.551   2.677 -0.5367 -0.1145  0.2458
35998SOL    HW213831   3.515   2.473   2.567 -0.3259 -1.3079  1.2002
35999SOL     OW13832   9.248   3.589   2.113  0.1664 -0.0385  0.8460
35999SOL    HW113833   9.280   3.611   2.026 -0.1341 -1.8423  0.2438
35999SOL    HW213834   9.160   3.626   2.117  0.8988  1.7461  1.1401
36000SOL     OW13835   3.355   9.652   9.566 -0.2291 -0.4693 -0.3701
36000SOL    HW113836   3.445   9.632   9.592  0.2618 -1.8388 -2.8815
36000SOL    HW213837   3.355   9.746   9.550  0.4108 -0.2533  0.7550
36001SOL     OW13838   0.377   5.550   1.933  0.5297  0.0824  0.1713
36001SOL    HW113839   0.381   5.618   1.865  1.0083 -0.2543 -0.1446
36001SOL    HW213840   0.359   5.598   2.013 -1.6670  0.3339 -0.4056
36002SOL     OW13841   1.610   1.177   6.961 -0.0799  0.4746  0.4131
36002SOL    HW113842   1.663   1.257   6.966  0.9368 -0.1784  0.3863
36002SOL    HW213843   1.567   1.183   6.876  2.3854 -0.4173 -1.0070
36003SOL     OW13844   9.491   0.355   6.948 -0.6173  0.7126 -0.1499
36003SOL    HW113845   9.558   0.354   7.017 -0.2336 -1.4671 -0.4722
36003SOL    HW213846   9.528   0.302   6.878 -2.8840 -1.1285 -0.0915
36004SOL     OW13847   7.825   5.826   9.692  0.2493  0.0877 -0.1405
36004SOL    HW113848   7.901   5.782   9.654  0.3856  0.1947  0.0061
36004SOL    HW213849   7.827   5.802   9.784 -0.9651 -1.4370 -0.4621
36005SOL     OW13850   2.377   7.390   7.289  0.5512 -0.3152  0.0419
36005SOL    HW113851   2.329   7.464   7.252 -0.4114 -0.4544  0.9704
36005SOL    HW213852   2.469   7.417   7.288  0.4083  0.1705 -1.2606
36006SOL     OW13853   5.861   2.054   4.945  0.3785 -0.0747  0.0541
36006SOL    HW113854   5.798   2.110   4.991  1.2120  0.8078  0.1396
36006SOL    HW213855   5.936   2.110   4.928  2.2911 -1.7606  2.2803
36007SOL     OW13856   2.441   9.610   6.275  0.6070 -0.3080  0.0103
36007SOL    HW113857   2.508   9.549   6.242  0.4027  0.4849 -2.0448
36007SOL    HW213858   2.380   9.620   6.202 -1.0373  0.0469  1.3682
36008SOL     OW13859   4.062   0.110   7.622 -0.1463 -0.6055 -0.5804
36008SOL    HW113860   3.981   0.146   7.586  0.0010 -0.3556 -0.6659
36008SOL    HW213861   4.127   0.178   7.607  0.1080 -0.8564 -0.6267
36009SOL     OW13862   2.680   3.602   8.753 -1.2955 -0.1886  0.7684
36009SOL    HW113863   2.700   3.520   8.800  0.5591 -0.1841  0.0946
36009SOL    HW213864   2.657   3.664   8.821  0.3784 -0.4555  1.6313
36010SOL     OW13865   5.650   1.210   0.201 -0.3139 -0.2972 -1.1580
36010SOL    HW113866   5.727   1.210   0.259 -0.8279 -0.3164 -0.4592
36010SOL    HW213867   5.667   1.281   0.139 -0.4708  0.8214  0.0294
36011SOL     OW13868   9.901   4.136  10.426 -0.0971 -0.4185 -0.3059
36011SOL    HW113869   9.902   4.083  10.346 -0.3005  0.3816 -0.8522
36011SOL    HW213870   9.836   4.204  10.409 -0.6221 -0.6145  0.8015
36012SOL     OW13871   8.763   8.668   3.762  0.2825  0.0148  0.0393
36012SOL    HW113872   8.692   8.715   3.717  0.7591  1.7320  1.0090
36012SOL    HW213873   8.798   8.609   3.695 -0.5355  0.8245 -1.1522
36013SOL     OW13874   4.997   0.710   8.530 -0.6893  0.6060 -0.8582
36013SOL    HW113875   4.966   0.682   8.444 -1.3220 -1.4520 -0.0416
36013SOL    HW213876   5.028   0.629   8.572 -0.6091  1.4991  0.9233
36014SOL     OW13877   3.791   4.614   0.910 -0.4954 -0.1579 -0.2970
36014SOL    HW113878   3.858   4.547   0.898  1.4328  1.1129  2.3801
36014SOL    HW213879   3.715   4.566   0.943 -1.3866 -1.7308 -4.0911
36015SOL     OW13880   6.377   6.023   5.893 -0.3488 -0.4010 -0.4048
36015SOL    HW113881   6.293   5.982   5.913 -0.0493 -1.6058 -1.4934
36015SOL    HW213882   6.364   6.065   5.808  0.5520 -1.8632 -1.2932
36016SOL     OW13883   0.035   5.031   1.142 -0.3912 -0.5944  0.4789
36016SOL    HW113884   0.088   5.103   1.109  1.9507 -0.7482  3.4540
36016SOL    HW213885   0.033   4.967   1.071  2.5020 -0.0549 -0.1852
36017SOL     OW13886   2.793   1.236  10.665 -0.1081 -0.1257 -0.4197
36017SOL    HW113887   2.706   1.210  10.697  0.0881  0.8536  0.9929
36017SOL    HW213888   2.852   1.217  10.737  0.8267 -0.5070 -1.2629
36018SOL     OW13889   9.415   0.867   3.683  0.4245 -0.9317  0.7813
36018SOL    HW113890   9.473   0.793   3.665 -0.2226 -0.9976 -1.2857
36018SOL    HW213891   9.329   0.839   3.652 -0.0395  0.3306  0.8544
36019SOL     OW13892   6.794   7.807   0.449 -0.2325  0.1440  0.3173
36019SOL    HW113893   6.718   7.859   0.473  0.9021  1.7539  0.5394
36019SOL    HW213894   6.796   7.811   0.353 -1.5012 -1.5534  0.1644
36020SOL     OW13895   9.154   2.690   7.298  0.1844  0.1198 -0.1486
36020SOL    HW113896   9.112   2.621   7.350 -2.9047  1.8286 -0.1581
36020SOL    HW213897   9.185   2.753   7.362 -0.2446  0.4207 -0.2315
36021SOL     OW13898   2.422   3.044   6.782  0.4201  0.1692  0.0617
36021SOL    HW113899   2.466   2.983   6.722  2.3343 -0.6722  2.1560
36021SOL    HW213900   2.382   2.987   6.848 -0.0968  1.1224  0.5861
36022SOL     OW13901  10.189   0.628   3.808  0.3010  0.1013  0.3800
36022SOL    HW113902  10.223   0.546   3.771 -0.6036 -0.0540 -0.1345
36022SOL    HW213903  10.145   0.601   3.889  0.3994  0.1509  0.4511
36023SOL     OW13904   4.598   0.199   5.105 -0.0061  0.6818 -0.6557
36023SOL    HW113905   4.613   0.131   5.170 -0.8922  1.0003 -0.0988
36023SOL    HW213906   4.513   0.177   5.066 -1.0892  2.3081  0.6567
36024SOL     OW13907   9.902   1.146   5.371  0.5238 -0.3744 -0.2904
36024SOL    HW113908   9.930   1.236   5.387 -1.0321  0.1732 -0.5307
36024SOL    HW213909   9.918   1.101   5.454 -0.9369  0.7259  0.6244
36025SOL     OW13910   4.048   5.482   0.674  0.4203  0.2880 -0.1506
36025SOL    HW113911   3.980   5.421   0.702 -0.5851  1.1629 -0.6079
36025SOL    HW213912   4.096   5.504   0.754 -1.4144  1.5748  0.6329
36026SOL     OW13913   5.120   4.432   2.040 -0.5733 -0.1719 -0.3222
36026SOL    HW113914   5.214   4.442   2.057 -0.2609 -2.4861 -0.4708
36026SOL    HW213915   5.079   4.492   2.103  0.9087 -1.0287  1.5801
36027SOL     OW13916   1.555  10.433   5.500  0.0886 -0.0381 -0.3744
36027SOL    HW113917   1.588  10.353   5.541  0.0780  1.3096  2.4519
36027SOL    HW213918   1.634  10.479   5.471  0.1646 -0.4390 -0.8270
36028SOL     OW13919   4.005   6.321   3.498  0.2353 -0.0949 -0.0188
36028SOL    HW113920   4.069   6.309   3.568  0.0676 -0.1979  0.1153
36028SOL    HW213921   4.055   6.364   3.428  1.0503 -2.2290 -0.8263
36029SOL     OW13922   6.971  10.126   9.457 -0.4323  0.4419  0.0229
36029SOL    HW113923   7.031  10.105   9.385 -1.7706  0.5204 -1.1439
36029SOL    HW213924   6.924  10.204   9.428 -1.5624  0.0121  0.6182
36030SOL     OW13925   1.164   9.810   2.094 -0.1791 -0.2487  0.2564
36030SOL    HW113926   1.175   9.742   2.160 -1.9167 -0.3521  0.4777
36030SOL    HW213927   1.116   9.768   2.023  0.4952  0.2278 -0.5150
36031SOL     OW13928   9.509  10.662   6.850  0.7048 -0.8427 -0.0583
36031SOL    HW113929   9.583  10.612   6.884  0.5833 -0.6886  0.4483
36031SOL    HW213930   9.460  10.687   6.928  0.9945  0.4217 -0.2671
36032SOL     OW13931   6.457  10.338   0.102  0.1738 -0.4219  0.4177
36032SOL    HW113932   6.528  10.323   0.039 -0.1093 -1.4202  0.3210
36032SOL    HW213933   6.496  10.316   0.186 -0.3277 -2.0701  0.2439
36033SOL     OW13934   0.135  10.155  10.393  0.0708 -0.0688  0.0657
36033SOL    HW113935   0.182  10.077  10.422  1.4121 -0.4433 -2.7561
36033SOL    HW213936   0.163  10.224  10.453  2.5030 -0.7907 -0.1603
36034SOL     OW13937   6.549   8.996   8.225  0.0555 -0.7401  0.1391
36034SOL    HW113938   6.596   8.913   8.227 -1.2259 -1.4895 -0.0572
36034SOL    HW213939   6.592   9.049   8.292  0.6908 -1.6531  0.4799
36035SOL     OW13940   5.774   0.428   2.283  0.6163  0.1226 -0.5200
36035SOL    HW113941   5.719   0.505   2.270  0.6241  0.4698  1.2810
36035SOL    HW213942   5.860   0.455   2.250  0.8437  1.2293  0.8779
36036SOL     OW13943   7.540   8.040   6.425 -0.7465  0.0623 -0.1913
36036SOL    HW113944   7.576   8.094   6.354  0.4027  1.0239  1.0789
36036SOL    HW213945   7.487   7.974   6.380  0.1941  0.4511 -1.9733
36037SOL     OW13946   6.566   5.758   9.715 -0.5018 -0.0454 -0.7592
36037SOL    HW113947   6.649   5.763   9.763 -0.6277  1.8540 -0.6744
36037SOL    HW213948   6.527   5.675   9.744 -0.1522  0.5840  1.7780
36038SOL     OW13949   9.130   2.141   8.820 -0.3953  0.0442 -0.3957
36038SOL    HW113950   9.054   2.129   8.764 -0.6017 -1.2846  0.1282
36038SOL    HW213951   9.163   2.052   8.835  0.8398  0.5396 -0.0431
36039SOL     OW13952   3.965   1.179   2.461  0.5022  0.3653  0.0680
36039SOL    HW113953   3.896   1.228   2.416  1.1094  0.3726 -0.8704
36039SOL    HW213954   3.933   1.089   2.463 -0.0136  0.5470  0.6177
36040SOL     OW13955   9.058   4.118   7.679  0.1103 -0.1763 -0.1998
36040SOL    HW113956   8.981   4.112   7.737 -0.0510 -1.8962 -0.5466
36040SOL    HW213957   9.115   4.048   7.708  1.5191  0.9838 -0.0556
36041SOL     OW13958   4.898   9.269   5.627 -0.2223 -0.0807  0.3961
36041SOL    HW113959   4.993   9.278   5.627 -0.2591  0.3669  0.1808
36041SOL    HW213960   4.870   9.318   5.549 -0.6205 -0.2870  0.4098
36042SOL     OW13961   2.519   3.876  10.146  0.0716  0.4928 -0.0141
36042SOL    HW113962   2.607   3.859  10.115  0.3590  2.0686 -0.1454
36042SOL    HW213963   2.509   3.971  10.141 -1.5552  0.3748  0.2009
36043SOL     OW13964   1.678   2.103   8.129  0.4072  0.2524  0.5134
36043SOL    HW113965   1.709   2.073   8.043  0.1270  0.4885  0.3279
36043SOL    HW213966   1.689   2.028   8.186  1.4969  0.3773  0.4976
36044SOL     OW13967   1.092  10.341   5.079 -0.1606  0.2686  1.0571
36044SOL    HW113968   1.106  10.429   5.114 -0.5325  0.5133  0.6077
36044SOL    HW213969   1.179  10.302   5.075  0.0547  0.7559  0.9037
36045SOL     OW13970   7.712   0.400   0.191  0.3017 -0.7520 -0.4192
36045SOL    HW113971   7.715   0.496   0.182  1.0421 -0.6556  0.6487
36045SOL    HW213972   7.793   0.378   0.236  0.5360 -1.9891 -1.4011
36046SOL     OW13973  10.539   0.279   4.491  0.2114  0.6206 -0.4247
36046SOL    HW113974  10.486   0.217   4.541  0.4903  1.4856  1.0192
36046SOL    HW213975  10.570   0.342   4.557  0.7656  1.7012 -1.6774
36047SOL     OW13976   2.380   9.524   4.570  0.0610 -0.6942  0.3306
36047SOL    HW113977   2.455   9.470   4.546 -0.5686 -0.7494 -1.6576
36047SOL    HW213978   2.334   9.472   4.636  0.8471 -1.4241  0.3173
36048SOL     OW13979   3.027   4.600   4.567  0.0579 -0.2415  0.2142
36048SOL    HW113980   3.104   4.569   4.520  0.0991  0.7638 -0.4229
36048SOL    HW213981   3.030   4.556   4.651  0.2359 -1.7516 -0.5533
36049SOL     OW13982   5.089   0.201   2.585 -0.3046 -0.2465 -0.4193
36049SOL    HW113983   5.037   0.216   2.664  1.5697  0.9524  0.6663
36049SOL    HW213984   5.034   0.144   2.531 -1.7231 -0.9951  1.6684
36050SOL     OW13985   0.464   8.692  10.139  0.0870 -0.1235 -0.6185
36050SOL    HW113986   0.540   8.742  10.168  0.6197 -0.0290 -2.0924
36050SOL    HW213987   0.494   8.601  10.137 -0.2083 -0.2347 -0.0476
36051SOL     OW13988   2.868   9.820   0.088  0.2501 -0.0568 -0.0925
36051SOL    HW113989   2.909   9.788   0.168  0.3484 -1.5704 -0.7144
36051SOL    HW213990   2.830   9.905   0.112  0.7648 -0.2285  1.3898
36052SOL     OW13991   1.014  10.238   8.353  0.3526  0.9896  0.1952
36052SOL    HW113992   0.940  10.216   8.408  0.2762  3.1717  1.0597
36052SOL    HW213993   0.982  10.226   8.263  0.2529 -1.8707  0.5051
36053SOL     OW13994   6.077   7.725   3.666  0.1470  0.0209  0.2721
36053SOL    HW113995   6.052   7.745   3.575  0.3075  0.6501  0.3600
36053SOL    HW213996   6.124   7.642   3.660 -0.5560 -0.3601 -0.1134
36054SOL     OW13997   5.058   9.371   1.804 -0.2515  0.9805  0.0847
36054SOL    HW113998   5.032   9.293   1.756 -2.3695  1.3230  0.5911
36054SOL    HW213999   5.069   9.342   1.895 -3.7678  1.6307  0.8773
36055SOL     OW14000   3.246   0.148   1.904  0.4697  0.6637 -0.2421
36055SOL    HW114001   3.232   0.067   1.855 -2.2836  1.3327 -0.7324
36055SOL    HW214002   3.307   0.198   1.850 -0.5798  0.3595 -1.7693
36056SOL     OW14003   4.186   8.706   2.975 -0.1684 -0.4268 -0.3357
36056SOL    HW114004   4.097   8.677   2.956 -0.7836  1.3861 -0.4881
36056SOL    HW214005   4.222   8.731   2.890 -0.6096  1.6005  0.0107
36057SOL     OW14006   4.045   0.091   3.624  0.5387  0.1890  0.0155
36057SOL    HW114007   4.135   0.083   3.657  1.5690  1.6978 -2.1663
36057SOL    HW214008   4.045   0.041   3.543 -1.0659 -1.0051  0.7141
36058SOL     OW14009   5.757   1.409   8.649  0.3080 -0.0067  0.5393
36058SOL    HW114010   5.767   1.485   8.591  0.7800 -0.0885  0.5094
36058SOL    HW214011   5.683   1.360   8.612 -0.4284  0.7807  0.9464
36059SOL     OW14012   1.577   5.907   3.459 -0.2762 -0.3781 -0.1272
36059SOL    HW114013   1.558   5.845   3.389  1.3821 -3.2036  1.7092
36059SOL    HW214014   1.505   5.897   3.521  0.0338 -0.5549  0.2107
36060SOL     OW14015   9.823   9.347   5.710 -0.1787  0.2547  0.6040
36060SOL    HW114016   9.762   9.300   5.653 -0.8570 -1.0997  2.3408
36060SOL    HW214017   9.830   9.434   5.671 -2.7323  0.2652 -0.0175
36061SOL     OW14018   6.341   6.468   6.594  0.1591  0.2272  0.6147
36061SOL    HW114019   6.419   6.522   6.604  0.0877  0.5277 -0.4181
36061SOL    HW214020   6.322   6.438   6.683  0.9015  0.9122  1.0165
36062SOL     OW14021   8.795   9.442   2.069  0.3058 -0.0176  0.8111
36062SOL    HW114022   8.831   9.498   2.137 -0.6460  2.1479 -0.3711
36062SOL    HW214023   8.728   9.390   2.112 -1.6602  2.7043  1.2393
36063SOL     OW14024   9.766   3.961   9.074 -0.2244 -0.3385  0.1552
36063SOL    HW114025   9.767   3.901   8.999 -0.5787  0.3785 -0.4380
36063SOL    HW214026   9.830   4.029   9.050 -0.6664  0.1326  0.2988
36064SOL     OW14027   0.862   0.519   6.411  0.5773 -0.0174  0.6467
36064SOL    HW114028   0.861   0.462   6.334  2.3202 -0.0135  0.5784
36064SOL    HW214029   0.775   0.558   6.413  0.9336  1.1955 -2.2721
36065SOL     OW14030   8.520   9.146  10.713  0.1096  0.3733 -0.2298
36065SOL    HW114031   8.465   9.083  10.666 -0.0644  1.3748 -1.4122
36065SOL    HW214032   8.495   9.231  10.677  1.4696  0.9776  0.2038
36066SOL     OW14033   6.975   0.345   1.506  0.1486  0.3162 -0.3483
36066SOL    HW114034   7.025   0.335   1.425 -1.3354 -1.8953 -1.0900
36066SOL    HW214035   7.040   0.337   1.576  0.8714 -3.0521 -1.2506
36067SOL     OW14036   3.112   4.456   6.012  0.6760  0.6020  0.1856
36067SOL    HW114037   3.075   4.369   6.027 -0.2838  0.9104 -0.2851
36067SOL    HW214038   3.152   4.480   6.096  0.0616  0.1197  0.6289
36068SOL     OW14039   0.590   5.096   0.866  0.0334  0.3902  0.1513
36068SOL    HW114040   0.577   5.176   0.816 -0.9412  0.8003  1.0379
36068SOL    HW214041   0.668   5.113   0.919  2.0950 -0.6315 -2.2836
36069SOL     OW14042   8.432   6.595   4.895 -0.3267  0.9134 -0.2991
36069SOL    HW114043   8.377   6.517   4.899  1.5328 -0.3945  1.3948
36069SOL    HW214044   8.516   6.564   4.861  0.6672  2.0155  1.0308
36070SOL     OW14045   3.239   8.516   1.244  0.5011 -0.0631  0.1433
36070SOL    HW114046   3.318   8.556   1.207  1.1164 -0.6353  0.8159
36070SOL    HW214047   3.238   8.427   1.208  0.7847 -0.4293  0.9999
36071SOL     OW14048   9.291   1.695   9.286  0.0239  0.0792  0.2938
36071SOL    HW114049   9.282   1.773   9.342 -1.0229 -0.4411  0.8790
36071SOL    HW214050   9.260   1.723   9.200 -0.9054  0.1539  0.6487
36072SOL     OW14051   4.179   4.876  10.569  0.3964  0.4831  0.6123
36072SOL    HW114052   4.175   4.965  10.533 -1.5201  0.2038  0.0427
36072SOL    HW214053   4.263   4.874  10.616  0.3865  2.6741  0.8673
36073SOL     OW14054   1.909   7.912   7.690  0.2913  0.0634  0.3430
36073SOL    HW114055   1.876   7.997   7.720  0.2557  0.9983 -2.1040
36073SOL    HW214056   1.995   7.931   7.654 -1.1437 -0.0268 -3.6832
36074SOL     OW14057   9.319   4.913   2.587 -0.4386 -0.4290 -0.3278
36074SOL    HW114058   9.324   4.973   2.513  0.8805 -0.4514 -0.2881
36074SOL    HW214059   9.346   4.829   2.551  1.7754 -0.1284  0.4521
36075SOL     OW14060   2.624   0.294   5.664  0.0554 -0.0198 -0.9191
36075SOL    HW114061   2.572   0.283   5.743  0.8160 -1.6014 -0.5753
36075SOL    HW214062   2.715   0.294   5.695  0.3227  0.6210 -1.6734
36076SOL     OW14063   7.845   1.707   4.186 -0.2685 -0.3127 -0.6044
36076SOL    HW114064   7.755   1.724   4.160 -0.4176 -0.3541 -0.1330
36076SOL    HW214065   7.850   1.612   4.197 -0.8621 -0.1483  1.7327
36077SOL     OW14066   2.490   0.073   3.175  0.3795 -0.3630 -0.4066
36077SOL    HW114067   2.562   0.095   3.117  1.0427  0.3697  0.6408
36077SOL    HW214068   2.528   0.077   3.263 -1.2718  1.6335  0.3067
36078SOL     OW14069   7.996   2.029   2.981 -0.0422  0.2330  0.0189
36078SOL    HW114070   8.000   2.107   3.037  0.2358 -0.3202  0.7716
36078SOL    HW214071   8.033   2.059   2.898  2.1506  0.3475  0.9686
36079SOL     OW14072   5.774   3.161   4.647  0.2901  0.2800 -0.5744
36079SOL    HW114073   5.838   3.154   4.718  1.1031 -1.5674 -1.4192
36079SOL    HW214074   5.710   3.225   4.678  1.9002  1.3108  0.8059
36080SOL     OW14075   5.254   7.247   5.052 -0.3056  0.4342  0.1991
36080SOL    HW114076   5.280   7.228   5.143  0.3110 -0.8723 -0.2192
36080SOL    HW214077   5.250   7.161   5.010  0.3686  1.0825 -1.2627
36081SOL     OW14078   4.901   3.995   9.524  0.3349  0.4238  0.4038
36081SOL    HW114079   4.971   4.034   9.575  0.5394  2.2050 -1.1254
36081SOL    HW214080   4.872   3.920   9.576  2.3567  0.5098  1.7598
36082SOL     OW14081   3.512   1.017   3.979 -0.1712 -0.2168  0.4051
36082SOL    HW114082   3.459   0.965   4.041 -0.4804  0.0024  0.3259
36082SOL    HW214083   3.454   1.088   3.952 -0.3590 -0.8266 -0.8462
36083SOL     OW14084  10.542   9.703   4.956  0.0125  0.0023 -0.2946
36083SOL    HW114085  10.496   9.730   4.877 -0.6211 -1.5618 -0.4955
36083SOL    HW214086  10.533   9.607   4.957 -2.0049  0.0967  2.8798
36084SOL     OW14087   6.137   7.226   3.813  0.0674  0.2951 -0.4356
36084SOL    HW114088   6.218   7.178   3.794 -0.0814 -0.6576  1.2186
36084SOL    HW214089   6.076   7.197   3.745  0.4506 -0.6716 -0.3885
36085SOL     OW14090   5.336  10.168   4.714 -0.0526  0.0846 -0.1169
36085SOL    HW114091   5.318  10.141   4.804  0.4082 -0.6355 -0.2341
36085SOL    HW214092   5.301  10.257   4.709 -2.1065 -0.6514  0.1223
36086SOL     OW14093   3.970   8.580   1.570  0.7130  0.2871  0.0371
36086SOL    HW114094   3.894   8.579   1.629  1.6117  0.3521  1.2277
36086SOL    HW214095   3.969   8.668   1.531 -1.7642 -0.7387 -2.6514
36087SOL     OW14096   3.985   7.550   5.004  0.4331 -0.6602  0.0825
36087SOL    HW114097   3.904   7.600   4.986  0.0616 -1.2732  0.0345
36087SOL    HW214098   3.954   7.464   5.031  1.0877 -1.0983 -0.5499
36088SOL     OW14099   3.211   7.515   6.729  0.0560 -0.6582  0.1000
36088SOL    HW114100   3.236   7.461   6.805 -0.2376  0.9499  1.4038
36088SOL    HW214101   3.116   7.502   6.721  0.0465 -0.6383  0.1753
36089SOL     OW14102   7.885   1.450   0.795 -0.5861  0.0675  0.0719
36089SOL    HW114103   7.797   1.474   0.823 -0.6241 -2.0008  2.0716
36089SOL    HW214104   7.873   1.396   0.718 -1.0802 -0.1496  0.2992
36090SOL     OW14105   7.082  10.188   2.802 -0.3453 -0.1391 -0.0411
36090SOL    HW114106   7.123  10.167   2.886 -0.2794 -1.1846 -0.3106
36090SOL    HW214107   6.991  10.157   2.812  0.3408 -2.8073 -1.2278
36091SOL     OW14108  10.480   2.131   8.578 -0.0467  0.3337  0.3494
36091SOL    HW114109  10.402   2.083   8.606 -0.4611  0.6343 -0.2719
36091SOL    HW214110  10.447   2.217   8.552  0.7175  1.0686  1.6957
36092SOL     OW14111   4.200   6.825   4.220  0.0141  0.2588  0.6925
36092SOL    HW114112   4.261   6.795   4.287  0.7496  1.7901  0.7598
36092SOL    HW214113   4.248   6.893   4.173 -0.8325 -0.1276 -0.7755
36093SOL     OW14114   7.188   0.905   2.336 -0.5863  0.4344 -0.2037
36093SOL    HW114115   7.094   0.899   2.323 -0.2791  0.8554 -3.1115
36093SOL    HW214116   7.222   0.821   2.306  0.0347  0.6005  0.0218
36094SOL     OW14117   9.669   7.714   2.960 -0.1498  0.5979 -0.8625
36094SOL    HW114118   9.681   7.767   3.040  0.3002 -0.1899 -0.4020
36094SOL    HW214119   9.753   7.719   2.915 -0.2936  0.7511 -1.1199
36095SOL     OW14120   3.956   3.094  10.458  0.6726 -0.2449  0.1191
36095SOL    HW114121   3.979   3.135  10.375  1.6226  1.1724  1.0420
36095SOL    HW214122   3.970   3.000  10.443  0.2508 -0.0891 -1.4720
36096SOL     OW14123   4.798   3.793   1.400  0.1426 -0.1994 -0.1743
36096SOL    HW114124   4.773   3.768   1.311  0.0421  0.2667 -0.2780
36096SOL    HW214125   4.726   3.762   1.455 -1.1974  1.9766 -0.5726
36097SOL     OW14126   1.474   0.539   1.728  0.4550  0.3742  0.1848
36097SOL    HW114127   1.527   0.461   1.742 -0.4633 -0.1975  0.6183
36097SOL    HW214128   1.537   0.611   1.726  1.2928 -0.3428  0.0337
36098SOL     OW14129   2.509  10.714   4.654 -0.2952 -0.1672  0.1319
36098SOL    HW114130   2.553  10.684   4.575  1.2388 -1.9279  1.5640
36098SOL    HW214131   2.564  10.785   4.687  1.4188 -2.0942  1.6976
36099SOL     OW14132   0.978   6.925   1.445 -0.0539  1.0379 -0.0252
36099SOL    HW114133   0.927   6.990   1.396 -1.5336 -0.1926 -0.2002
36099SOL    HW214134   1.022   6.873   1.377 -1.2695 -0.0042 -0.0519
36100SOL     OW14135   0.034   3.347   1.551 -0.0526 -0.2550  0.1762
36100SOL    HW114136   0.128   3.343   1.564  0.1428 -0.8616 -1.2774
36100SOL    HW214137   0.018   3.431   1.507 -0.1918 -0.1577  0.4089
36101SOL     OW14138   5.090   8.095   1.051  0.3581  0.0248  0.2479
36101SOL    HW114139   5.055   8.058   1.133 -1.4966  1.6724  0.2728
36101SOL    HW214140   5.161   8.152   1.079 -0.6494  1.0407  0.8182
36102SOL     OW14141   4.165   7.592   7.560  0.0730 -0.2686 -0.0484
36102SOL    HW114142   4.217   7.546   7.494  1.5382 -0.0551  0.9080
36102SOL    HW214143   4.165   7.534   7.636  0.7909  0.6963  0.7109
36103SOL     OW14144   6.438   2.779   8.996  0.2850  0.3438  0.2821
36103SOL    HW114145   6.470   2.702   8.949 -0.9655 -0.0168 -0.0159
36103SOL    HW214146   6.450   2.758   9.089 -0.6378 -0.4956  0.2248
36104SOL     OW14147   9.670   6.271   1.879 -0.1438  0.5300 -0.5703
36104SOL    HW114148   9.582   6.249   1.910  0.1285  0.3499  0.0931
36104SOL    HW214149   9.660   6.355   1.835 -0.3832  1.2453  0.8060
36105SOL     OW14150   6.602   4.099   4.036  0.3420 -0.1874  0.6344
36105SOL    HW114151   6.531   4.158   4.012  1.3790  1.1586  0.7928
36105SOL    HW214152   6.605   4.035   3.964  0.3483  0.9946 -0.4553
36106SOL     OW14153   9.534   5.886   5.967 -0.0898 -0.0350  0.3497
36106SOL    HW114154   9.523   5.911   6.059  0.7341  2.4725 -0.1611
36106SOL    HW214155   9.629   5.876   5.956 -0.0752  0.8927 -0.4819
36107SOL     OW14156   2.415   4.161   8.564  0.2870  0.1346 -0.6121
36107SOL    HW114157   2.416   4.121   8.651 -1.6020 -0.2247 -0.7046
36107SOL    HW214158   2.483   4.114   8.515  1.8734  0.8302  0.8230
36108SOL     OW14159   6.873   9.667   9.599 -0.2669  0.0144 -0.3813
36108SOL    HW114160   6.932   9.740   9.617 -0.2079 -0.5511  2.0330
36108SOL    HW214161   6.891   9.604   9.669 -1.2134 -1.7731 -1.6616
36109SOL     OW14162   3.220   3.399   8.514 -0.4852  0.0347  0.1180
36109SOL    HW114163   3.185   3.313   8.493 -1.6619  0.6966 -0.7167
36109SOL    HW214164   3.144   3.450   8.540  0.2482  0.7314  0.9669
36110SOL     OW14165   4.532   8.469   0.508  0.1265 -0.4498 -0.2711
36110SOL    HW114166   4.599   8.454   0.574 -0.9116 -0.0518  0.9155
36110SOL    HW214167   4.459   8.412   0.534 -0.5925  0.2915 -0.6074
36111SOL     OW14168   3.125   6.256   2.818  0.6042  0.6307  0.4810
36111SOL    HW114169   3.140   6.209   2.900  0.6444  1.5908  1.0407
36111SOL    HW214170   3.036   6.291   2.825  0.9647  1.5713  0.5706
36112SOL     OW14171   4.775   6.157   0.452 -0.7357 -0.2520  0.7655
36112SOL    HW114172   4.712   6.192   0.389 -0.0149 -0.0709  0.1318
36112SOL    HW214173   4.844   6.222   0.456  0.4916 -1.4431 -0.2118
36113SOL     OW14174   2.605   6.613   3.250  0.4893 -0.0795 -0.0542
36113SOL    HW114175   2.676   6.566   3.206  1.1010 -0.1316  0.9571
36113SOL    HW214176   2.534   6.549   3.255  1.0270 -0.6463  0.5781
36114SOL     OW14177   4.168   9.033   6.739 -0.6026 -0.0200 -0.3140
36114SOL    HW114178   4.166   9.055   6.832 -1.3908  2.7461 -0.8746
36114SOL    HW214179   4.197   9.114   6.697 -0.1597 -1.2408 -2.4821
36115SOL     OW14180   5.512   4.172   1.305  0.1608  0.8335 -0.0354
36115SOL    HW114181   5.461   4.104   1.348 -1.3603  0.6304 -1.9975
36115SOL    HW214182   5.516   4.144   1.213 -0.7268  3.4415 -0.9716
36116SOL     OW14183   7.708   4.516   7.550 -0.2513 -0.6165  0.0591
36116SOL    HW114184   7.707   4.489   7.642  0.3134 -2.3705 -0.4144
36116SOL    HW214185   7.761   4.450   7.506  1.0934  1.2070 -1.2490
36117SOL     OW14186   1.918   6.467   9.213  0.0822 -0.1199 -0.0123
36117SOL    HW114187   1.970   6.405   9.263  0.6236  0.4814  0.1838
36117SOL    HW214188   1.940   6.450   9.122  2.6992  1.8623  0.1397
36118SOL     OW14189   4.515   0.909   9.154  0.6562  0.4097 -0.8903
36118SOL    HW114190   4.483   0.820   9.136  0.0768 -0.1366  2.2254
36118SOL    HW214191   4.603   0.911   9.117  1.1280 -1.8940 -0.0631
36119SOL     OW14192   4.043   1.289   6.533 -0.2879 -0.6795 -0.3798
36119SOL    HW114193   4.009   1.302   6.621  0.7023  1.7662 -0.2690
36119SOL    HW214194   4.091   1.206   6.537  0.6114 -0.1029  1.6920
36120SOL     OW14195   0.652   0.844   9.988  0.3065 -0.1132  0.3154
36120SOL    HW114196   0.582   0.868  10.050  0.5246 -1.3457  1.0851
36120SOL    HW214197   0.607   0.830   9.905 -0.1824  0.3272  0.5021
36121SOL     OW14198   8.859   0.371   0.323 -0.3589 -0.3204 -0.1958
36121SOL    HW114199   8.871   0.403   0.413  0.7493  0.8172 -0.7189
36121SOL    HW214200   8.769   0.393   0.302 -0.4618 -0.0891  0.4583
36122SOL     OW14201  10.458   6.959   1.802  0.3201  0.1431 -0.5428
36122SOL    HW114202  10.551   6.962   1.780  0.0412 -1.5521 -2.2794
36122SOL    HW214203  10.436   6.866   1.801 -1.5276  0.5328 -0.8064
36123SOL     OW14204   0.638  10.531   0.588  0.4230 -0.2786  0.1029
36123SOL    HW114205   0.680  10.610   0.622  2.3757 -0.9014 -0.6861
36123SOL    HW214206   0.592  10.494   0.663  2.2943 -0.1448  1.4041
36124SOL     OW14207   3.284   4.498   4.310 -0.0914 -0.3106  0.5807
36124SOL    HW114208   3.322   4.516   4.224  0.9041 -0.9154  0.8869
36124SOL    HW214209   3.342   4.543   4.372 -0.4009 -0.4675  0.9877
36125SOL     OW14210   5.178   5.628   0.081  0.2619  0.1102  0.3802
36125SOL    HW114211   5.166   5.647  -0.012  3.6617  0.6474 -0.0857
36125SOL    HW214212   5.227   5.546   0.082  1.2872  0.7030  1.5992
36126SOL     OW14213   7.169   5.756   9.972  0.1650 -0.3078  0.3456
36126SOL    HW114214   7.110   5.713   9.911 -1.1705  1.7172  0.0846
36126SOL    HW214215   7.242   5.786   9.919  0.7636 -1.5774  0.4149
36127SOL     OW14216   6.572  10.660  10.244  0.3613 -0.8235 -0.3796
36127SOL    HW114217   6.617  10.596  10.190  0.0694 -1.1907 -0.1873
36127SOL    HW214218   6.632  10.735  10.247  0.9095 -1.2630 -0.2276
36128SOL     OW14219   4.045   8.736   4.713 -0.7376 -0.5390  0.2472
36128SOL    HW114220   3.968   8.733   4.771  0.6737 -0.3459  2.2338
36128SOL    HW214221   4.023   8.802   4.647 -1.6429  0.7431  1.7603
36129SOL     OW14222   9.940   4.485   3.381  0.3759 -0.6168 -0.5045
36129SOL    HW114223   9.947   4.501   3.287  1.1887 -1.1616 -0.5435
36129SOL    HW214224   9.955   4.391   3.391  3.5012 -0.1589  0.4113
36130SOL     OW14225   3.163   7.277   4.846  0.3401  0.6167  0.8336
36130SOL    HW114226   3.155   7.186   4.874  0.5822  0.2905 -0.1321
36130SOL    HW214227   3.257   7.295   4.847  0.4048  0.4274 -0.2524
36131SOL     OW14228   4.999   6.756   8.390  0.4473  0.2288  0.2502
36131SOL    HW114229   5.049   6.819   8.441  1.5347  1.1655 -1.8482
36131SOL    HW214230   5.065   6.708   8.339 -0.5165 -1.2589  0.3423
36132SOL     OW14231   3.730   4.666   5.627 -0.2119 -0.1750  0.4301
36132SOL    HW114232   3.692   4.734   5.683  0.9774 -1.3712  2.8325
36132SOL    HW214233   3.823   4.667   5.649  0.2077 -1.1015 -1.1578
36133SOL     OW14234  10.655   3.346   5.028 -0.2906  0.3786 -0.1965
36133SOL    HW114235  10.611   3.261   5.030 -2.1912  1.2958 -0.6655
36133SOL    HW214236  10.626   3.390   5.109  0.8167  0.5281  0.1305
36134SOL     OW14237   2.881   6.829   4.366  0.5845  0.0045  0.0360
36134SOL    HW114238   2.876   6.787   4.280  1.3111  1.5117 -0.7853
36134SOL    HW214239   2.805   6.888   4.368  1.1223  0.7224 -0.0294
36135SOL     OW14240   5.629   0.700   2.333 -0.5795 -0.3720  0.5150
36135SOL    HW114241   5.697   0.754   2.372 -1.6279  1.0229  0.4839
36135SOL    HW214242   5.564   0.762   2.302 -1.3370 -1.6117 -0.4899
36136SOL     OW14243   9.456   8.293   0.124 -0.1989  0.1572  0.1246
36136SOL    HW114244   9.421   8.324   0.207 -1.4785 -0.3726 -0.1904
36136SOL    HW214245   9.520   8.225   0.148 -2.6181 -2.0906  0.6892
36137SOL     OW14246   8.502   3.428   9.875 -0.0419  0.2164  0.0292
36137SOL    HW114247   8.465   3.342   9.894 -0.1730  0.3665  0.4553
36137SOL    HW214248   8.437   3.490   9.906  0.5893  0.4842  0.8793
36138SOL     OW14249   1.390  10.309   2.686  0.4090 -0.2038 -0.1730
36138SOL    HW114250   1.360  10.292   2.596  0.9527  0.6635 -0.5343
36138SOL    HW214251   1.446  10.386   2.678 -0.0145  0.2491  1.0096
36139SOL     OW14252   7.068   9.625   0.848 -0.1996 -0.4244  0.1704
36139SOL    HW114253   7.055   9.546   0.901  0.1794 -1.4766 -1.2543
36139SOL    HW214254   7.115   9.595   0.770 -2.3945  0.6743 -1.7274
36140SOL     OW14255   6.515   6.446   1.164  0.0833 -0.2174  0.4487
36140SOL    HW114256   6.577   6.519   1.168  0.6715 -0.6982  0.2715
36140SOL    HW214257   6.500   6.433   1.070 -1.9031  1.2241  0.5055
36141SOL     OW14258   6.558   2.222   8.162  0.0690 -0.6447  0.3175
36141SOL    HW114259   6.468   2.191   8.172 -0.4513  0.7296  0.1163
36141SOL    HW214260   6.608   2.144   8.136 -0.7168 -1.8032  2.0414
36142SOL     OW14261   7.587   6.627   6.728  0.0253  0.7354  0.3499
36142SOL    HW114262   7.530   6.702   6.709  2.8486  2.9036 -0.1839
36142SOL    HW214263   7.631   6.610   6.645  0.9465 -0.1953  1.0098
36143SOL     OW14264  10.479   5.488   1.251 -0.1889 -0.0771 -0.3742
36143SOL    HW114265  10.390   5.520   1.235 -0.5048  0.2677  1.7485
36143SOL    HW214266  10.532   5.567   1.262  0.1743 -0.2779 -0.6572
36144SOL     OW14267   3.800   8.379   7.013  0.1130 -0.3936 -0.4184
36144SOL    HW114268   3.838   8.467   7.022  0.9789 -0.6719 -1.2414
36144SOL    HW214269   3.753   8.382   6.930 -0.4785 -0.5011 -0.0971
36145SOL     OW14270   3.598   0.028  10.642 -0.5553  0.1376  0.3442
36145SOL    HW114271   3.666   0.034  10.575 -1.1527  2.5085 -0.1156
36145SOL    HW214272   3.601  -0.064  10.670  0.4252 -0.6825 -2.1615
36146SOL     OW14273   3.995   9.474   6.337  0.2861  0.0438 -0.2460
36146SOL    HW114274   4.015   9.391   6.382  0.0180 -0.2206 -0.6107
36146SOL    HW214275   4.003   9.540   6.405  0.8364 -0.2401 -0.0226
36147SOL     OW14276   2.687   7.927   2.176 -0.1852 -0.1365 -0.0059
36147SOL    HW114277   2.669   7.944   2.268 -1.9278  0.2720 -0.3892
36147SOL    HW214278   2.655   8.004   2.130  0.8182 -0.2624 -0.9577
36148SOL     OW14279   8.980   7.435  10.705  0.0903  0.2667 -1.0654
36148SOL    HW114280   9.010   7.388  10.782 -2.4392 -0.4471 -0.4195
36148SOL    HW214281   9.059   7.449  10.653  1.5609 -0.9737  0.7026
36149SOL     OW14282   3.064   8.473   9.903 -0.0180  0.3224  0.4996
36149SOL    HW114283   3.072   8.568   9.895 -1.5532  0.4713  0.3536
36149SOL    HW214284   3.001   8.449   9.835 -2.8580 -0.2028  3.0619
36150SOL     OW14285   0.454  10.220   0.482 -0.1739  0.2889  0.0122
36150SOL    HW114286   0.527  10.209   0.421 -0.5847  0.8439 -0.5889
36150SOL    HW214287   0.408  10.298   0.451 -1.4988 -0.5180 -0.1142
36151SOL     OW14288   9.390   8.218   9.814 -0.3121 -0.4591 -0.3493
36151SOL    HW114289   9.319   8.194   9.755  0.2062 -0.2248 -1.0916
36151SOL    HW214290   9.392   8.313   9.812 -0.4101 -0.4420  0.2035
36152SOL     OW14291   9.913  10.594   7.279 -0.2021  0.1252 -0.6489
36152SOL    HW114292   9.900  10.523   7.341 -1.0223 -0.2982 -1.2848
36152SOL    HW214293   9.889  10.556   7.194 -2.4177  1.6562 -0.7815
36153SOL     OW14294   4.751   2.972   8.433  0.0479 -0.1495 -0.5264
36153SOL    HW114295   4.788   2.913   8.368  1.3949  0.7264 -0.6008
36153SOL    HW214296   4.762   2.927   8.517  2.4155  0.5330 -0.3961
36154SOL     OW14297   3.107   7.414   5.839  0.1312  0.3453  0.3646
36154SOL    HW114298   3.135   7.404   5.930 -0.6348  2.0582  0.8194
36154SOL    HW214299   3.153   7.492   5.808 -0.0952  0.1343 -0.5416
36155SOL     OW14300   3.691  10.208   9.638 -0.1240  0.1126  0.3479
36155SOL    HW114301   3.665  10.141   9.574  0.4735  1.5811 -1.5325
36155SOL    HW214302   3.608  10.242   9.671 -0.5185  0.5520 -1.0129
36156SOL     OW14303   9.433   7.909   1.346 -0.1359  0.2820 -0.3568
36156SOL    HW114304   9.435   7.913   1.442  1.4575  1.3072 -0.3999
36156SOL    HW214305   9.500   7.844   1.324  0.6268  1.1970 -0.8002
36157SOL     OW14306   1.665   0.451   3.502 -0.0984 -0.0565 -0.2428
36157SOL    HW114307   1.649   0.541   3.473 -0.5460  0.2594  0.8968
36157SOL    HW214308   1.750   0.454   3.545 -0.9203  0.2689  1.4311
36158SOL     OW14309   9.807   9.472   5.382 -0.4368 -0.4660  0.1913
36158SOL    HW114310   9.839   9.520   5.459  3.3764  0.3662 -1.6923
36158SOL    HW214311   9.828   9.381   5.400  0.1994 -0.3115  0.2350
36159SOL     OW14312   2.725   4.656   6.156  0.5130 -0.3613 -0.2420
36159SOL    HW114313   2.779   4.686   6.084  0.6246 -0.9890 -0.4305
36159SOL    HW214314   2.699   4.567   6.131 -0.8738  0.0322 -0.3149
36160SOL     OW14315   8.800   2.326   9.471 -0.0337 -0.5706  0.1297
36160SOL    HW114316   8.851   2.300   9.393  0.5860  1.8728 -0.3474
36160SOL    HW214317   8.851   2.290   9.544  2.4793  1.7136 -0.3336
36161SOL     OW14318   8.501   3.846   2.482 -0.3419  0.4988  0.0039
36161SOL    HW114319   8.471   3.801   2.403 -2.3599 -0.9422  1.4973
36161SOL    HW214320   8.586   3.806   2.501 -1.0343 -1.0418 -0.0017
36162SOL     OW14321   0.653   0.577   5.980  0.4254 -0.0059 -0.4849
36162SOL    HW114322   0.665   0.672   5.984  1.3328 -0.1534  1.0987
36162SOL    HW214323   0.741   0.541   5.984  0.0415 -0.9485 -0.1216
36163SOL     OW14324   3.664   7.803   1.089  0.5123  0.0588 -0.2841
36163SOL    HW114325   3.617   7.760   1.017 -0.2119 -0.6473  0.5872
36163SOL    HW214326   3.747   7.756   1.094  0.4749 -0.0349 -0.5279
36164SOL     OW14327   3.657   0.708   2.846 -0.5958  0.4484  0.0408
36164SOL    HW114328   3.604   0.771   2.797 -0.1542  1.3176  0.6495
36164SOL    HW214329   3.706   0.661   2.778 -1.1932  0.5095 -0.4438
36165SOL     OW14330   2.854   3.247  10.018  0.8268 -0.5736 -0.0983
36165SOL    HW114331   2.928   3.187  10.031  1.4260 -0.0135 -0.8602
36165SOL    HW214332   2.854   3.265   9.924  0.1470 -0.0178  0.0015
36166SOL     OW14333   6.836   0.541   3.276 -0.1223  0.2278  0.0044
36166SOL    HW114334   6.845   0.625   3.232 -1.2399 -0.1414 -0.9785
36166SOL    HW214335   6.800   0.563   3.362 -0.5822  0.7384 -0.3151
36167SOL     OW14336   9.524   3.429   7.578  0.0186 -0.0647 -0.2484
36167SOL    HW114337   9.601   3.456   7.629  0.3796  0.3242 -0.9833
36167SOL    HW214338   9.558   3.414   7.490 -0.6369 -0.5312 -0.4247
36168SOL     OW14339   3.862   8.644   0.944 -0.7720 -0.0635  0.3416
36168SOL    HW114340   3.856   8.548   0.947  0.3279 -0.1417  0.4981
36168SOL    HW214341   3.908   8.668   1.025 -0.4478  0.5341 -0.0096
36169SOL     OW14342   8.659   2.469   2.735 -0.2837  0.2138 -0.2255
36169SOL    HW114343   8.644   2.409   2.663 -0.2744  0.4941 -0.4650
36169SOL    HW214344   8.735   2.433   2.782 -1.5413 -1.1083  0.8816
36170SOL     OW14345   3.791   9.561   7.181  0.0721  0.0220  0.5227
36170SOL    HW114346   3.728   9.505   7.227  1.1339 -0.8639  0.9497
36170SOL    HW214347   3.782   9.647   7.223 -2.4007  0.5713 -0.9116
36171SOL     OW14348   9.106   5.006   0.813  0.1733  0.3543  0.1238
36171SOL    HW114349   9.135   5.004   0.722  0.4962  1.5232  0.1833
36171SOL    HW214350   9.160   5.074   0.854  0.1748 -0.2930  1.2387
36172SOL     OW14351   3.568   1.459   2.601 -0.3214 -0.4035 -0.1718
36172SOL    HW114352   3.501   1.491   2.661  0.9075  0.1620  0.9331
36172SOL    HW214353   3.559   1.364   2.603  0.1220 -0.4407  1.4416
36173SOL     OW14354   7.305   3.536   1.737 -0.3936  0.1345  0.4254
36173SOL    HW114355   7.310   3.504   1.647  0.9151  2.2315 -0.3184
36173SOL    HW214356   7.242   3.478   1.779 -1.1458 -0.8428 -1.8633
36174SOL     OW14357   9.087   8.812  10.431  0.1067 -0.2678 -0.0346
36174SOL    HW114358   9.171   8.775  10.404  0.5655 -1.5378  2.7515
36174SOL    HW214359   9.110   8.873  10.501 -0.7882  4.5560 -3.4725
36175SOL     OW14360   2.315   2.486   1.009 -0.2585 -0.0516  0.1531
36175SOL    HW114361   2.278   2.398   1.003 -0.2775  0.0509 -2.1436
36175SOL    HW214362   2.402   2.479   0.970  0.1411  0.7541  0.8652
36176SOL     OW14363   2.499   4.618   0.812  0.1146  0.0256  0.0974
36176SOL    HW114364   2.573   4.657   0.858 -0.5335  0.7393  0.5633
36176SOL    HW214365   2.486   4.675   0.736 -0.4711  0.4017  0.4698
36177SOL     OW14366   1.113   1.204   1.387 -0.1909 -0.0331  0.7850
36177SOL    HW114367   1.120   1.295   1.415  0.1577  0.1533  0.1115
36177SOL    HW214368   1.192   1.189   1.334 -0.3457 -0.6645  0.7249
36178SOL     OW14369   0.480   1.053   5.270 -0.2607 -0.2292 -0.0303
36178SOL    HW114370   0.488   1.001   5.351  0.4501  0.2846  0.2440
36178SOL    HW214371   0.502   1.142   5.297 -1.5126  0.2293 -0.4901
36179SOL     OW14372   3.788   5.476   5.954 -0.3569  0.9587 -0.2285
36179SOL    HW114373   3.797   5.443   6.044  0.2120  0.5936 -0.4111
36179SOL    HW214374   3.758   5.566   5.964  0.7658  1.2879  0.3712
36180SOL     OW14375   8.726   9.504   6.175  0.1030 -0.2409  0.0005
36180SOL    HW114376   8.671   9.497   6.097 -0.0168 -0.2283  0.0824
36180SOL    HW214377   8.702   9.589   6.212  0.9078  0.2268 -0.5125
36181SOL     OW14378   2.967   8.977   5.085 -0.0578  0.3573 -0.5853
36181SOL    HW114379   2.891   8.990   5.142  0.2642 -1.7520  0.4503
36181SOL    HW214380   2.941   9.013   5.001 -1.3029  1.8040  0.3750
36182SOL     OW14381   3.146   7.770   8.526 -0.8187 -0.3091  0.5445
36182SOL    HW114382   3.080   7.823   8.571  0.5189  0.8739  1.1737
36182SOL    HW214383   3.181   7.828   8.459  0.1130 -0.6672  0.7122
36183SOL     OW14384   6.556   1.996   9.776  0.1771  0.3913 -0.2489
36183SOL    HW114385   6.521   1.933   9.840  2.4434  1.4137  2.1734
36183SOL    HW214386   6.611   1.943   9.718 -1.1052 -0.4122 -0.7586
36184SOL     OW14387   8.229   1.252   3.709  0.1565  0.2031 -0.0359
36184SOL    HW114388   8.320   1.282   3.703 -0.6251  2.4970 -3.2455
36184SOL    HW214389   8.216   1.200   3.630 -1.4921  0.5119 -0.0067
36185SOL     OW14390   8.504   5.682   7.875 -0.5350 -0.3150  0.1804
36185SOL    HW114391   8.451   5.736   7.934 -0.5695 -0.9425  0.7295
36185SOL    HW214392   8.553   5.624   7.933 -0.4493 -0.8338 -0.4006
36186SOL     OW14393  10.257  10.102   5.305  0.0549  0.0843  0.3838
36186SOL    HW114394  10.167  10.135   5.315  0.2915  0.7750  0.2600
36186SOL    HW214395  10.312  10.180   5.311  0.5841 -0.2057 -0.5289
36187SOL     OW14396  10.354   5.216   2.992  0.6274  0.2255 -0.3687
36187SOL    HW114397  10.264   5.187   3.008  1.3642 -0.9947  1.8844
36187SOL    HW214398  10.349   5.312   2.995 -0.3382  0.1620  1.6184
36188SOL     OW14399   3.837   6.208   0.095 -0.1583  0.3844 -0.4121
36188SOL    HW114400   3.861   6.299   0.111 -0.1659  0.6796 -1.9422
36188SOL    HW214401   3.920   6.163   0.081 -0.2627  0.6935 -2.1942
36189SOL     OW14402   2.207   8.389   1.126  0.0838  0.3818 -0.7402
36189SOL    HW114403   2.200   8.399   1.221 -1.2865 -1.1962 -0.6192
36189SOL    HW214404   2.228   8.297   1.113 -0.6330  0.3624 -1.9758
36190SOL     OW14405   0.682   0.932   7.418 -0.4378 -0.7796 -0.3045
36190SOL    HW114406   0.696   0.906   7.327  0.2747  0.8087 -0.6858
36190SOL    HW214407   0.746   0.882   7.468 -1.3989 -2.3046 -0.5274
36191SOL     OW14408   3.076   6.667   5.746 -0.1251  0.8006  0.2396
36191SOL    HW114409   3.018   6.631   5.679  0.7719  1.8857 -1.1905
36191SOL    HW214410   3.156   6.615   5.738 -0.9504 -1.0101  2.5247
36192SOL     OW14411   6.542   2.954   8.115 -0.4121 -0.1534  0.2487
36192SOL    HW114412   6.610   2.932   8.051  0.0742  3.2712 -0.5906
36192SOL    HW214413   6.584   2.941   8.200  0.9845  0.8044 -0.2476
36193SOL     OW14414   3.957   8.248   4.693 -0.2682  0.4145  0.3280
36193SOL    HW114415   4.041   8.215   4.725 -0.6107 -0.4921  0.3132
36193SOL    HW214416   3.895   8.178   4.711 -0.8258  0.6434 -0.6301
36194SOL     OW14417   3.794   4.168  10.460  0.0637 -0.0327  0.4426
36194SOL    HW114418   3.744   4.145  10.538  0.1833 -0.8520  0.2773
36194SOL    HW214419   3.772   4.260  10.445 -0.3751 -0.0170  1.1289
36195SOL     OW14420   1.676   7.783   0.238  0.5657  0.3346  0.9463
36195SOL    HW114421   1.723   7.729   0.175 -0.9073  0.7850 -0.6123
36195SOL    HW214422   1.745   7.831   0.284  1.7633 -1.1526  0.7913
36196SOL     OW14423   4.517   3.698   0.925  0.4871 -0.4474  0.5536
36196SOL    HW114424   4.608   3.667   0.916  0.1650 -2.3303  2.6297
36196SOL    HW214425   4.497   3.738   0.841  3.3124  0.2537  0.0954
36197SOL     OW14426   8.360   1.204   7.901 -0.3400  0.0765  0.1383
36197SOL    HW114427   8.417   1.240   7.969 -1.2105  0.7222  0.5498
36197SOL    HW214428   8.419   1.185   7.828  0.3364  1.3308  0.3181
36198SOL     OW14429   9.899   6.918   7.563  0.1713 -0.0096 -0.3842
36198SOL    HW114430   9.818   6.964   7.538  0.6828  0.4808 -1.1655
36198SOL    HW214431   9.960   6.936   7.491  0.8939 -0.5973  0.0723
36199SOL     OW14432   5.050   5.046   8.159 -0.6847  0.3183  0.0618
36199SOL    HW114433   4.983   5.114   8.158 -0.0553  0.9605 -0.8250
36199SOL    HW214434   5.061   5.023   8.251 -1.9159  0.3963  0.2399
36200SOL     OW14435   7.232  10.419   5.989 -0.3962 -0.2717 -0.3576
36200SOL    HW114436   7.164  10.442   6.053 -1.5663 -1.6733 -1.0512
36200SOL    HW214437   7.196  10.446   5.905  0.0997 -0.6312 -0.6920
36201SOL     OW14438   2.708   4.937   3.211  0.1996  0.4901 -0.0807
36201SOL    HW114439   2.646   4.875   3.172  0.0648 -0.0826  1.0036
36201SOL    HW214440   2.745   4.890   3.286  0.6492  1.4621  0.3224
36202SOL     OW14441   5.848   1.853   1.375  0.0261 -0.1039  0.1302
36202SOL    HW114442   5.803   1.860   1.291  0.2300  0.0393  0.0321
36202SOL    HW214443   5.892   1.937   1.386 -0.6867  0.1944  0.7834
36203SOL     OW14444   9.923   4.596   0.753  0.1952 -0.0622 -0.3958
36203SOL    HW114445   9.897   4.504   0.756  0.1045 -0.0691 -1.2229
36203SOL    HW214446   9.847   4.641   0.715 -0.0364  0.4595  0.6491
36204SOL     OW14447   6.655   2.532   0.891  0.4193  0.2517  0.1983
36204SOL    HW114448   6.609   2.452   0.865 -1.9733  0.8590  2.1687
36204SOL    HW214449   6.707   2.556   0.815 -0.2230 -2.1579 -1.0990
36205SOL     OW14450   2.374   8.146   2.014  0.2119 -0.4682  0.0003
36205SOL    HW114451   2.347   8.159   1.924 -0.2436 -0.9848  0.0583
36205SOL    HW214452   2.431   8.221   2.033 -1.9396  1.2148  0.1947
36206SOL     OW14453  10.277   9.619   3.421  0.4513  0.3538 -0.0856
36206SOL    HW114454  10.355   9.563   3.431 -0.1865 -0.4737  0.4737
36206SOL    HW214455  10.234   9.585   3.343  1.0755  1.3560 -0.8779
36207SOL     OW14456   4.421   4.237   6.339  0.3323  0.3287  0.4070
36207SOL    HW114457   4.491   4.270   6.283  1.0324 -1.0849  0.4111
36207SOL    HW214458   4.430   4.287   6.420  1.7307 -0.2356  0.6285
36208SOL     OW14459   5.219  10.622   4.145  0.4573 -0.3459  0.1582
36208SOL    HW114460   5.284  10.559   4.174 -0.1644  0.3210  3.3712
36208SOL    HW214461   5.243  10.704   4.188 -0.8721  0.6580 -0.8979
36209SOL     OW14462   0.364   3.163  10.211 -0.1104 -0.2368 -0.0928
36209SOL    HW114463   0.423   3.194  10.143  1.3829  0.4035  1.4056
36209SOL    HW214464   0.293   3.227  10.213  1.6396  1.8187  1.2563
36210SOL     OW14465   5.816   8.946   4.629  0.0652  0.4597  0.5082
36210SOL    HW114466   5.895   8.900   4.658  1.1237  2.2591  0.6054
36210SOL    HW214467   5.819   9.030   4.674 -0.7536  1.4295 -1.1595
36211SOL     OW14468   8.817   0.659   0.127 -0.0950  0.4735 -0.1433
36211SOL    HW114469   8.885   0.708   0.173  0.6532 -0.2855 -0.4036
36211SOL    HW214470   8.739   0.670   0.182  0.0713  1.8391 -0.1476
36212SOL     OW14471   5.247   1.421   7.148  0.6695  0.0054  0.4168
36212SOL    HW114472   5.280   1.334   7.126 -0.8246 -0.5298  0.2173
36212SOL    HW214473   5.185   1.406   7.219 -0.2118  0.7955 -0.1703
36213SOL     OW14474   3.813   7.033  10.007 -0.0629  0.2312 -0.3063
36213SOL    HW114475   3.804   6.958   9.948 -3.4685 -0.0831  0.4170
36213SOL    HW214476   3.867   7.001  10.079 -2.0338 -1.8697  0.3496
36214SOL     OW14477   2.570   2.084   4.761 -0.2440 -0.1125  0.4180
36214SOL    HW114478   2.480   2.079   4.794 -0.8078 -1.0641 -1.1680
36214SOL    HW214479   2.617   2.015   4.808 -0.7003 -0.5633  0.2172
36215SOL     OW14480   2.345   9.131   0.763  0.2801  0.5413 -0.5761
36215SOL    HW114481   2.321   9.159   0.675  0.1632  0.4834 -0.5624
36215SOL    HW214482   2.266   9.147   0.816 -0.2730 -1.1101 -0.8418
36216SOL     OW14483   5.743   4.016   6.870  0.0367  0.1778 -0.1187
36216SOL    HW114484   5.689   3.983   6.942  2.8368 -1.2783  1.4942
36216SOL    HW214485   5.802   4.079   6.911 -0.4147  1.8396 -1.8482
36217SOL     OW14486   0.676   8.622   1.897  0.0844  0.2245 -0.2890
36217SOL    HW114487   0.621   8.545   1.883 -0.3985  0.6351 -0.6903
36217SOL    HW214488   0.677   8.634   1.992  0.7016 -0.6582 -0.1738
36218SOL     OW14489   0.146   2.932   1.418  0.1315 -0.2527  0.0119
36218SOL    HW114490   0.213   2.903   1.480  1.2917 -2.4543 -2.0711
36218SOL    HW214491   0.079   2.863   1.420  0.4833 -0.6893 -1.5178
36219SOL     OW14492   0.850   1.166   8.829 -0.6641  0.4025  0.9069
36219SOL    HW114493   0.942   1.189   8.814 -1.0456  2.5385  1.4884
36219SOL    HW214494   0.844   1.074   8.806  1.3619  0.5135 -0.2872
36220SOL     OW14495   4.991   0.178   0.004 -0.1535  0.3701  0.3909
36220SOL    HW114496   5.013   0.088   0.028  0.8304  0.5495  0.2012
36220SOL    HW214497   4.898   0.186   0.026 -0.5600 -1.0274 -0.6143
36221SOL     OW14498   0.259   2.624  10.489 -0.4390  0.0472  0.3565
36221SOL    HW114499   0.322   2.654  10.555 -0.3938 -0.1880  0.4217
36221SOL    HW214500   0.296   2.541  10.458 -1.1866 -0.5597  1.0570
36222SOL     OW14501   8.199   7.817   2.096 -0.0216  0.1346  0.7518
36222SOL    HW114502   8.281   7.812   2.145 -0.1018 -1.6963  0.7852
36222SOL    HW214503   8.139   7.864   2.154 -0.0474 -1.7713  2.3822
36223SOL     OW14504   9.057   8.084   7.018  0.0671 -0.4208  0.3522
36223SOL    HW114505   9.049   7.992   6.990  1.8181  0.0829 -2.1788
36223SOL    HW214506   8.992   8.130   6.966 -0.1888 -0.0926  0.9571
36224SOL     OW14507   5.664   9.306   9.388 -0.1956 -0.5839 -0.1356
36224SOL    HW114508   5.610   9.235   9.352 -0.0971 -1.0269  0.5634
36224SOL    HW214509   5.633   9.316   9.478 -2.1118  2.1284 -0.9468
36225SOL     OW14510   6.917   3.441   3.990  0.0607 -0.1268 -0.0469
36225SOL    HW114511   6.840   3.435   3.932  1.6809  0.5682 -2.4201
36225SOL    HW214512   6.964   3.359   3.975  0.4594  0.0190  0.3908
36226SOL     OW14513   2.203   5.974   9.947 -0.2505  0.4268 -0.2370
36226SOL    HW114514   2.261   6.048   9.931 -0.9938  0.9276 -0.6587
36226SOL    HW214515   2.243   5.928  10.021 -0.6332  2.1488  1.1056
36227SOL     OW14516   5.069   5.874   1.606  0.0080  0.2051  0.3309
36227SOL    HW114517   5.053   5.964   1.636 -1.9547  0.4446 -1.2087
36227SOL    HW214518   5.146   5.880   1.551  0.7529  0.6530  1.3927
36228SOL     OW14519   9.139   2.537   8.807 -0.0822 -0.3874  0.4260
36228SOL    HW114520   9.165   2.492   8.888  0.9391 -0.8269 -0.1350
36228SOL    HW214521   9.210   2.598   8.789 -0.3355 -0.2485 -0.1197
36229SOL     OW14522   9.831   3.277   1.823  0.2976  0.2336  0.9605
36229SOL    HW114523   9.747   3.322   1.829  0.0354 -0.2032  0.6105
36229SOL    HW214524   9.815   3.191   1.862  0.5517  0.1063  0.7830
36230SOL     OW14525   3.203   1.435   3.000 -0.2779 -0.2857  0.0498
36230SOL    HW114526   3.154   1.361   2.964 -1.4805  0.5210 -0.0263
36230SOL    HW214527   3.255   1.467   2.926 -1.4980  0.3481 -0.5586
36231SOL     OW14528   4.125   3.171   1.292 -0.5087 -0.4624  0.1467
36231SOL    HW114529   4.150   3.242   1.350 -1.9130 -0.9329  1.3773
36231SOL    HW214530   4.080   3.108   1.348 -0.6466 -1.6137 -1.1902
36232SOL     OW14531   3.765   9.723   7.820  0.6799  0.3626  0.4252
36232SOL    HW114532   3.727   9.677   7.745 -0.3147  1.9201 -0.0694
36232SOL    HW214533   3.776   9.655   7.886  0.5218 -0.8383 -0.7414
36233SOL     OW14534   2.211   0.457   5.861  0.1498 -0.2553 -0.0623
36233SOL    HW114535   2.183   0.373   5.897  2.0356 -0.6729  0.5598
36233SOL    HW214536   2.299   0.440   5.826  0.1653  1.2283 -0.8263
36234SOL     OW14537   8.054   9.399   4.232  0.2790  0.1064 -0.2645
36234SOL    HW114538   7.995   9.354   4.293  1.0812 -0.2979  0.2256
36234SOL    HW214539   8.016   9.384   4.146 -1.0867  0.9983  0.1433
36235SOL     OW14540   7.361   1.364   5.816 -0.0246  0.2767 -0.4296
36235SOL    HW114541   7.384   1.431   5.752  1.3368  0.6992  0.4579
36235SOL    HW214542   7.372   1.407   5.901 -3.2093  0.1860  0.1478
36236SOL     OW14543   4.460   1.674   1.687  0.1206  0.2900  0.0641
36236SOL    HW114544   4.421   1.589   1.666 -0.2764  0.6462 -0.7100
36236SOL    HW214545   4.386   1.736   1.681  0.7499  0.9632 -1.2956
36237SOL     OW14546   6.692   2.164  10.554  0.8712  0.1915  0.2036
36237SOL    HW114547   6.741   2.243  10.579 -1.7543  1.4505  1.7793
36237SOL    HW214548   6.659   2.183  10.466  0.6708  0.6477  0.3746
36238SOL     OW14549   7.472   5.191   5.761  0.5339 -0.3303  0.1910
36238SOL    HW114550   7.428   5.129   5.703 -0.7028 -0.7845  1.5550
36238SOL    HW214551   7.497   5.264   5.703 -0.7787 -0.6984 -0.8960
36239SOL     OW14552   6.666   0.007   8.769  0.1982  0.1069  0.1504
36239SOL    HW114553   6.665   0.098   8.799  0.3700  0.2198 -0.1818
36239SOL    HW214554   6.581  -0.028   8.795  0.6897 -0.0746  1.6077
36240SOL     OW14555   5.897   0.599   6.495 -0.7234 -0.4396  0.1721
36240SOL    HW114556   5.830   0.551   6.446 -0.6656 -0.7056  0.3505
36240SOL    HW214557   5.849   0.670   6.538 -0.8276 -0.4045  0.0017
36241SOL     OW14558   2.754   2.351   6.393 -0.1926 -0.3033 -0.0743
36241SOL    HW114559   2.846   2.378   6.389 -0.4511  0.8973  1.3420
36241SOL    HW214560   2.705   2.433   6.386 -1.2238 -1.0005 -1.6619
36242SOL     OW14561   5.891   3.207   5.347 -0.2021  0.0384  0.4979
36242SOL    HW114562   5.860   3.246   5.429  0.0810  0.5048  0.3904
36242SOL    HW214563   5.980   3.242   5.336  0.0261 -0.5754  0.3514
36243SOL     OW14564   6.552   1.227   6.448 -0.4367  0.1173  0.0503
36243SOL    HW114565   6.588   1.284   6.515  0.1943 -0.3067  0.0815
36243SOL    HW214566   6.539   1.143   6.492 -0.0521 -0.1532 -0.3429
36244SOL     OW14567   4.715   7.266   5.226 -0.2185  0.5907 -0.1038
36244SOL    HW114568   4.810   7.278   5.229 -0.0821 -0.3311 -0.4212
36244SOL    HW214569   4.690   7.294   5.138 -0.2396  0.8211 -0.0244
36245SOL     OW14570  10.480   5.731   5.152 -0.5218  0.3304 -0.2038
36245SOL    HW114571  10.519   5.662   5.098 -1.2321 -1.0471  0.9578
36245SOL    HW214572  10.386   5.711   5.152 -0.6468  0.8426  0.7651
36246SOL     OW14573   2.096   9.225   5.024  0.1830 -0.3363 -0.3805
36246SOL    HW114574   2.046   9.307   5.029  0.9521  0.2322 -1.5061
36246SOL    HW214575   2.099   9.193   5.114 -2.3109 -0.4682 -0.2804
36247SOL     OW14576   9.139   8.849   3.683  0.3163  0.3954 -0.5212
36247SOL    HW114577   9.132   8.792   3.759  0.1118 -0.5270 -1.2102
36247SOL    HW214578   9.198   8.920   3.710  1.1416 -0.5243  0.1202
36248SOL     OW14579   5.786   0.648   0.777 -0.0081  0.6583 -0.3852
36248SOL    HW114580   5.765   0.635   0.684  0.3227 -0.2660 -0.3374
36248SOL    HW214581   5.738   0.728   0.801 -0.0648  0.9337 -1.3542
36249SOL     OW14582   9.276  10.479   5.008 -0.4291  0.1299 -0.6053
36249SOL    HW114583   9.289  10.562   5.053 -0.2273  0.0751 -0.5652
36249SOL    HW214584   9.181  10.464   5.012 -0.5527  0.6815 -1.1755
36250SOL     OW14585   9.706   0.857   5.666 -0.9815 -0.1129  0.0016
36250SOL    HW114586   9.745   0.797   5.602 -0.4368 -0.2514  0.4654
36250SOL    HW214587   9.760   0.848   5.744 -0.3375  1.6446 -0.2037
36251SOL     OW14588   2.317   6.953   8.988  0.2688 -0.1206  0.2328
36251SOL    HW114589   2.295   6.980   8.898  2.1083 -0.8386 -0.4839
36251SOL    HW214590   2.296   6.860   8.990 -1.1766  0.1987  1.0545
36252SOL     OW14591   6.313   3.063   4.230 -0.3925 -0.0767  0.0990
36252SOL    HW114592   6.395   3.013   4.237 -0.1961  0.1122 -0.7496
36252SOL    HW214593   6.301   3.100   4.317  1.5892  1.6661 -0.2723
36253SOL     OW14594   1.476   2.562   0.330  0.1283 -0.5686  0.6963
36253SOL    HW114595   1.499   2.606   0.248 -0.3609  0.3796  1.0589
36253SOL    HW214596   1.560   2.550   0.375  0.4815 -1.6959 -0.2149
36254SOL     OW14597   3.113  10.481   9.226  0.3829  0.0321  0.4423
36254SOL    HW114598   3.151  10.563   9.257 -0.4443 -0.3039  2.5277
36254SOL    HW214599   3.135  10.478   9.133 -2.6296  4.4013 -0.7239
36255SOL     OW14600   4.473   4.569   7.567 -0.1718 -0.1987  0.9327
36255SOL    HW114601   4.486   4.659   7.536  1.0156 -0.5302  0.3895
36255SOL    HW214602   4.504   4.570   7.657  2.1057 -0.5473  0.2223
36256SOL     OW14603   0.105   2.322   5.097  0.4673 -0.3171 -0.6606
36256SOL    HW114604   0.097   2.361   5.010  0.2481  0.3853 -0.3308
36256SOL    HW214605   0.066   2.235   5.089  0.8528 -0.4262 -1.3750
36257SOL     OW14606   3.418   4.610   5.856 -0.2455  0.1213 -0.2496
36257SOL    HW114607   3.386   4.567   5.777  0.6153 -1.4307  0.2037
36257SOL    HW214608   3.498   4.656   5.828  0.3074 -0.7914 -0.2201
36258SOL     OW14609   2.779   2.699   2.487 -0.4035 -0.3355 -0.1350
36258SOL    HW114610   2.689   2.678   2.464 -0.7903  0.1118  0.8986
36258SOL    HW214611   2.816   2.616   2.517 -0.5920 -0.4417 -0.1920
36259SOL     OW14612   2.705   9.721   2.550  0.2169 -0.2676 -0.2641
36259SOL    HW114613   2.751   9.708   2.633 -0.1006  0.3464  0.0189
36259SOL    HW214614   2.774   9.749   2.489  0.3389 -0.0472 -0.0292
36260SOL     OW14615   5.807   3.166   5.044 -0.0906 -0.5323  0.3362
36260SOL    HW114616   5.851   3.133   5.122  0.8707  0.4707  0.2450
36260SOL    HW214617   5.768   3.249   5.071  0.0562 -0.2888 -0.1750
36261SOL     OW14618   1.444   6.489   2.946 -0.7599 -0.1973 -0.1162
36261SOL    HW114619   1.507   6.486   3.017 -1.6069 -1.7195  0.6087
36261SOL    HW214620   1.415   6.580   2.943 -0.9237 -0.1667  1.6757
36262SOL     OW14621   1.371   1.685   6.121  0.1358  0.0218 -0.1438
36262SOL    HW114622   1.402   1.695   6.031 -0.0560  0.9452 -0.1133
36262SOL    HW214623   1.359   1.591   6.132 -0.5754 -0.0421 -1.3370
36263SOL     OW14624   6.346   9.128   2.214  0.1821 -0.2940 -0.6662
36263SOL    HW114625   6.260   9.158   2.183 -0.2214  0.4542  1.0902
36263SOL    HW214626   6.408   9.167   2.153 -0.6196  0.6551 -0.9031
36264SOL     OW14627   3.330   5.398   8.629  0.2270 -0.0041 -0.4766
36264SOL    HW114628   3.382   5.325   8.596  1.5102  0.1314  1.1139
36264SOL    HW214629   3.320   5.381   8.723 -0.8857  1.0149 -0.3764
36265SOL     OW14630   2.755   2.980   9.495  0.4082  0.2622  0.0701
36265SOL    HW114631   2.839   2.937   9.476  1.2874  2.0121 -0.1546
36265SOL    HW214632   2.753   3.055   9.436 -0.9119  0.7616  0.7260
36266SOL     OW14633   2.394   1.236   2.724  0.3984 -0.3418 -0.1555
36266SOL    HW114634   2.360   1.324   2.742 -0.4831 -0.5694 -0.6568
36266SOL    HW214635   2.391   1.192   2.809 -0.2148 -0.2387 -0.1212
36267SOL     OW14636   1.353   5.935   2.097  0.1635 -0.4853 -0.0676
36267SOL    HW114637   1.325   5.850   2.063  1.7699 -1.1754  0.2361
36267SOL    HW214638   1.440   5.919   2.134  0.7275  1.3856 -0.4370
36268SOL     OW14639   0.083   9.867   3.365 -0.1807 -0.1179  0.4802
36268SOL    HW114640   0.057   9.778   3.388 -1.4552  0.5155  1.5618
36268SOL    HW214641   0.154   9.888   3.426  0.3300 -0.4717  0.0266
36269SOL     OW14642   4.019   9.244   5.318 -0.0090  0.5237  0.1051
36269SOL    HW114643   3.944   9.185   5.318 -0.2033  0.7692 -0.3384
36269SOL    HW214644   4.081   9.204   5.256 -0.1469  0.7885 -0.2071
36270SOL     OW14645   0.419   0.650   8.558 -0.1175  0.0431  0.0262
36270SOL    HW114646   0.449   0.627   8.470 -0.4080  1.3827 -0.4443
36270SOL    HW214647   0.340   0.702   8.544 -1.1130 -1.1015  1.1450
36271SOL     OW14648   5.450   2.448   6.122  0.2795  0.9846 -0.3601
36271SOL    HW114649   5.501   2.472   6.199  0.9160  1.9168 -1.0427
36271SOL    HW214650   5.372   2.504   6.125  0.0977  0.7249 -0.1802
36272SOL     OW14651   5.693   5.512   3.639  0.4218  0.1282  0.2079
36272SOL    HW114652   5.664   5.460   3.715  1.6922  0.0780  0.6823
36272SOL    HW214653   5.639   5.481   3.567  1.7202 -2.5275  0.2748
36273SOL     OW14654   7.707   2.967   2.604  0.5814 -0.3958 -0.4743
36273SOL    HW114655   7.615   2.968   2.630  0.3418  1.4383 -1.2457
36273SOL    HW214656   7.710   2.909   2.528  0.4756 -2.0602  0.7145
36274SOL     OW14657   4.170   2.495   1.518 -0.2703  0.3958 -0.9850
36274SOL    HW114658   4.193   2.409   1.552  2.5973  1.5359  0.2667
36274SOL    HW214659   4.096   2.523   1.571 -0.8257 -1.0135 -0.9877
36275SOL     OW14660   1.683  10.350   8.394  0.9056 -0.2142 -0.0366
36275SOL    HW114661   1.735  10.424   8.361 -0.6215  0.6566 -0.5975
36275SOL    HW214662   1.599  10.389   8.417 -0.6575 -2.0659 -2.2066
36276SOL     OW14663   4.027   4.394   5.504 -0.5254 -0.6433 -0.1143
36276SOL    HW114664   3.986   4.317   5.465  0.2848 -1.0055 -0.2687
36276SOL    HW214665   4.063   4.363   5.587  1.6569 -0.9823 -1.1235
36277SOL     OW14666   6.009   0.306   6.340 -0.4683 -0.0373 -0.7432
36277SOL    HW114667   5.946   0.291   6.269  0.2366 -1.9283 -1.0254
36277SOL    HW214668   5.969   0.267   6.417 -0.4068  0.3268 -0.5258
36278SOL     OW14669   1.846   5.321   4.952  0.0752  0.0177 -0.1896
36278SOL    HW114670   1.924   5.342   4.901  0.5013  2.3996  1.2620
36278SOL    HW214671   1.773   5.352   4.899  0.1961 -0.9740 -0.9555
36279SOL     OW14672   3.372   7.148   2.908  0.2123 -0.5377  0.1858
36279SOL    HW114673   3.391   7.055   2.922  1.5049 -0.3332 -0.1159
36279SOL    HW214674   3.303   7.167   2.972 -0.3807 -1.7925 -0.0352
36280SOL     OW14675   6.993   1.430   2.788  0.0594  0.3884 -0.3808
36280SOL    HW114676   6.992   1.511   2.737 -0.8977  0.1329 -0.8047
36280SOL    HW214677   6.900   1.409   2.800  0.2282  0.7806  2.0588
36281SOL     OW14678   9.771   6.856   0.132  0.1515 -0.5369  0.7043
36281SOL    HW114679   9.806   6.906   0.059  1.0371 -2.4179 -0.2395
36281SOL    HW214680   9.845   6.806   0.165 -1.0488 -2.7299  0.2903
36282SOL     OW14681   4.139   6.816   9.974 -0.1240 -0.1687 -0.1338
36282SOL    HW114682   4.227   6.836   9.940 -0.1197  0.6834  0.3346
36282SOL    HW214683   4.085   6.803   9.896  0.0722  0.9018 -0.4766
36283SOL     OW14684   2.138   1.875   2.903  0.8795 -0.3263  0.7195
36283SOL    HW114685   2.148   1.792   2.856  1.2752  0.7704 -1.2731
36283SOL    HW214686   2.061   1.863   2.957  1.1894 -2.1373  0.8287
36284SOL     OW14687   1.608   8.292   8.375 -0.5093  0.1919  0.0240
36284SOL    HW114688   1.514   8.307   8.363 -0.2940  0.3200 -1.8395
36284SOL    HW214689   1.619   8.282   8.470 -2.5001 -0.5685  0.2288
36285SOL     OW14690   7.064   3.482   2.624  0.1373 -0.1910  0.1353
36285SOL    HW114691   6.975   3.515   2.635 -0.3238 -1.1937 -0.4547
36285SOL    HW214692   7.116   3.560   2.603 -1.0837  0.0929 -2.1101
36286SOL     OW14693   1.879   0.847   9.414 -0.2792  0.1362  0.4076
36286SOL    HW114694   1.785   0.863   9.419 -0.7147 -2.3770  1.5050
36286SOL    HW214695   1.894   0.820   9.323 -0.6318  0.4021  0.2658
36287SOL     OW14696   3.909   9.102   9.386 -0.1063  0.1905  0.4686
36287SOL    HW114697   3.826   9.064   9.414  0.3146 -0.7984  0.4095
36287SOL    HW214698   3.945   9.140   9.466 -0.6271  0.6621  0.4866
36288SOL     OW14699   9.433   0.387   0.894  0.6468  0.0458 -0.5523
36288SOL    HW114700   9.366   0.375   0.827 -0.0136  0.5722 -0.0034
36288SOL    HW214701   9.404   0.463   0.943  1.2687 -0.1655  0.1612
36289SOL     OW14702   9.608   1.288   5.527 -0.0469 -0.1447  0.0750
36289SOL    HW114703   9.625   1.316   5.617  1.9720  0.3005 -0.3929
36289SOL    HW214704   9.585   1.195   5.535 -1.1432  0.1773  1.1258
36290SOL     OW14705   4.528   4.020   6.104  0.1414  0.4277  0.0838
36290SOL    HW114706   4.573   4.086   6.156  1.6809 -0.3203 -0.2403
36290SOL    HW214707   4.598   3.971   6.060 -1.0404  0.1398 -1.6014
36291SOL     OW14708   1.732   4.997   5.687  0.7885  0.3970 -0.2479
36291SOL    HW114709   1.785   4.995   5.607  0.8993  1.4989 -0.2048
36291SOL    HW214710   1.660   4.935   5.670  1.4025 -0.1787 -0.7764
36292SOL     OW14711   7.508   6.189   2.420 -0.1156 -0.2706  0.3169
36292SOL    HW114712   7.503   6.189   2.516 -1.6782  1.1331  0.2877
36292SOL    HW214713   7.425   6.151   2.392  0.1621 -0.3037 -0.4810
36293SOL     OW14714   0.633   0.467   1.609 -0.0865  0.5270  0.2525
36293SOL    HW114715   0.586   0.385   1.624 -0.8564  1.0082  0.5390
36293SOL    HW214716   0.564   0.532   1.592  0.5532  0.9352 -0.8768
36294SOL     OW14717   7.687   1.638   8.856 -0.2526  0.7663  0.4724
36294SOL    HW114718   7.771   1.638   8.809 -0.3772 -1.3317  0.1324
36294SOL    HW214719   7.624   1.669   8.792 -0.1660 -0.5584 -0.3090
36295SOL     OW14720   5.677   3.847   1.596 -0.3400 -0.0509  0.2323
36295SOL    HW114721   5.752   3.898   1.625  0.3443  0.5499 -2.3853
36295SOL    HW214722   5.715   3.767   1.559 -1.0224 -0.0759 -0.4441
36296SOL     OW14723   2.867   7.196   7.315  0.3683 -0.0765  0.3286
36296SOL    HW114724   2.958   7.192   7.344  1.0424  2.2060 -1.1845
36296SOL    HW214725   2.871   7.195   7.220 -1.0518  1.2384  0.1948
36297SOL     OW14726   1.474   3.695   3.857 -0.0445  0.2416 -0.6548
36297SOL    HW114727   1.460   3.681   3.764 -0.7728  0.0741 -0.5301
36297SOL    HW214728   1.508   3.784   3.863  2.7529 -0.7026 -1.2919
36298SOL     OW14729   8.369   4.300  10.113 -0.8357 -0.6159  0.1163
36298SOL    HW114730   8.425   4.248  10.055  0.2056  0.1112  0.4533
36298SOL    HW214731   8.342   4.374  10.060  0.2921  0.1629  0.5988
36299SOL     OW14732   8.501  10.330   6.873  0.0110 -0.2893 -0.5406
36299SOL    HW114733   8.427  10.363   6.924 -0.4127 -0.5031 -1.0067
36299SOL    HW214734   8.509  10.239   6.901 -0.4082 -0.4904 -1.0574
36300SOL     OW14735   9.656   9.875  10.024  0.6834 -0.4328 -0.4694
36300SOL    HW114736   9.630   9.960  10.058  2.6708 -0.0144  0.1297
36300SOL    HW214737   9.645   9.815  10.098  1.1990 -0.2922 -0.2737
36301SOL     OW14738   9.598   8.141   4.109 -0.6074  0.4972 -0.6104
36301SOL    HW114739   9.674   8.173   4.060 -2.0806 -0.0697 -3.4861
36301SOL    HW214740   9.547   8.219   4.129 -0.7551  0.6119 -1.4082
36302SOL     OW14741   0.164   2.401   2.396 -0.4251 -0.1213  0.3833
36302SOL    HW114742   0.190   2.365   2.481 -0.2711 -1.7533 -0.3273
36302SOL    HW214743   0.223   2.359   2.333  0.0557  1.7236 -0.4623
36303SOL     OW14744   6.727   6.089   6.747  0.3415  0.1216 -0.1856
36303SOL    HW114745   6.780   6.084   6.827  0.8157 -2.0811 -0.5638
36303SOL    HW214746   6.640   6.062   6.775  0.0113  1.2838 -0.0544
36304SOL     OW14747   2.147   3.376   3.548 -0.4620 -0.1900 -0.0777
36304SOL    HW114748   2.184   3.451   3.596  0.4469 -1.0946  0.6680
36304SOL    HW214749   2.127   3.412   3.461 -1.4005  1.2783  0.6888
36305SOL     OW14750   3.633  10.672   7.799  0.5062  0.6116 -0.0556
36305SOL    HW114751   3.550  10.660   7.845 -0.7032  1.7282 -1.8255
36305SOL    HW214752   3.667  10.756   7.830 -0.2210  1.2790 -1.0118
36306SOL     OW14753   8.889   7.129   2.202  1.2190  0.1643 -0.5106
36306SOL    HW114754   8.862   7.102   2.289  0.1089  2.0828 -0.2065
36306SOL    HW214755   8.981   7.153   2.212  1.0588  0.5044  0.1556
36307SOL     OW14756   7.219   6.723   3.006 -0.1196  0.1240  0.0566
36307SOL    HW114757   7.177   6.743   2.922 -1.2572 -0.6741  0.4197
36307SOL    HW214758   7.199   6.798   3.062  1.6496  1.2374 -0.6925
36308SOL     OW14759   4.558   6.006   2.593 -0.3706  0.7521 -0.0429
36308SOL    HW114760   4.556   6.099   2.570 -1.8059  0.2432 -2.2638
36308SOL    HW214761   4.629   5.969   2.541 -0.9004  0.3147 -0.4633
36309SOL     OW14762   8.431   3.311   3.817  0.6551  0.1063 -0.2053
36309SOL    HW114763   8.441   3.396   3.775 -0.0455 -0.1614 -0.9360
36309SOL    HW214764   8.427   3.248   3.745 -2.3989 -0.1860  0.0774
36310SOL     OW14765   6.612   4.775   9.796 -0.2883 -0.4347 -0.0918
36310SOL    HW114766   6.565   4.693   9.807  0.0629 -0.9332 -1.9905
36310SOL    HW214767   6.695   4.762   9.843  0.4712 -1.8258 -1.7223
36311SOL     OW14768   6.694   8.031   4.090 -0.0666  0.2347 -0.0614
36311SOL    HW114769   6.614   7.979   4.089  0.5482 -0.7616 -1.5299
36311SOL    HW214770   6.740   8.005   4.010  2.4123 -0.3517  1.4387
36312SOL     OW14771   7.728   8.804   4.146  0.0526  0.2656 -0.5110
36312SOL    HW114772   7.733   8.878   4.086 -0.7408  0.1642 -0.7123
36312SOL    HW214773   7.658   8.827   4.207  1.2022  0.6065  0.7204
36313SOL     OW14774   1.747   7.395   4.012 -0.0401  0.4950 -0.0165
36313SOL    HW114775   1.819   7.365   4.067  0.4054  0.2567 -0.7115
36313SOL    HW214776   1.697   7.316   3.992 -0.4496  0.6463  0.3874
36314SOL     OW14777   7.130   9.908   6.017  0.0248 -0.4464 -0.0702
36314SOL    HW114778   7.209   9.863   6.047  0.5739  0.2954 -0.3719
36314SOL    HW214779   7.160   9.996   5.995 -0.6498 -0.5252 -1.3784
36315SOL     OW14780   2.326   3.000   4.406  0.0141  0.1206 -0.5265
36315SOL    HW114781   2.315   3.092   4.383  0.5077  0.5501  0.8222
36315SOL    HW214782   2.323   2.999   4.502 -0.6218 -1.3613 -0.5385
36316SOL     OW14783  10.355   5.051   4.007  0.9275  0.1768  0.4087
36316SOL    HW114784  10.311   5.108   3.943  0.0867 -0.6665  0.2028
36316SOL    HW214785  10.374   5.108   4.081 -1.7411  0.3344  1.0638
36317SOL     OW14786   8.049   5.768   2.630 -0.1490  0.4206  0.0837
36317SOL    HW114787   7.993   5.823   2.685  2.4327 -0.4162  4.0076
36317SOL    HW214788   8.020   5.679   2.649  1.3885  0.0663  0.9730
36318SOL     OW14789   6.750  10.430   7.555 -0.4640 -0.0930  0.3690
36318SOL    HW114790   6.766  10.423   7.650  0.5572  1.2439  0.3313
36318SOL    HW214791   6.794  10.354   7.517  1.4570  0.7683  0.7603
36319SOL     OW14792   8.052   1.409   0.264  0.2393 -0.0591  0.2294
36319SOL    HW114793   8.126   1.361   0.302  0.8721  0.2586 -0.5951
36319SOL    HW214794   7.991   1.420   0.337  0.9181 -0.4856  0.8724
36320SOL     OW14795   6.088   2.947  10.508  0.3429 -0.1670 -0.8532
36320SOL    HW114796   6.134   3.031  10.515 -0.7885  0.6147 -2.3844
36320SOL    HW214797   6.124   2.907  10.429  0.7861 -1.0932 -0.1957
36321SOL     OW14798   4.143   6.191   0.664  0.6977 -0.1121  0.0555
36321SOL    HW114799   4.051   6.185   0.639  0.0670  0.3653  2.1138
36321SOL    HW214800   4.187   6.222   0.585 -0.7992 -0.9270 -1.1416
36322SOL     OW14801   2.250   6.985   8.662 -0.7734  0.0008  0.2592
36322SOL    HW114802   2.268   7.062   8.608 -2.2511 -0.3112 -0.7414
36322SOL    HW214803   2.316   6.921   8.636 -0.8594  0.2002 -0.4548
36323SOL     OW14804   5.697   9.114   2.929 -0.1627  0.0074 -0.3036
36323SOL    HW114805   5.708   9.043   2.866 -2.0160 -0.5370 -0.0719
36323SOL    HW214806   5.757   9.093   3.000 -0.3394 -1.0897 -0.4613
36324SOL     OW14807   0.768   1.596   1.449  0.0322 -0.0778 -0.1846
36324SOL    HW114808   0.835   1.640   1.396 -0.5342 -0.3824 -1.1774
36324SOL    HW214809   0.685   1.625   1.412 -0.3761 -0.1876  0.6379
36325SOL     OW14810   8.206   3.049   5.485 -0.5177  0.4740 -0.3142
36325SOL    HW114811   8.294   3.032   5.516  0.3896  2.2645 -1.6978
36325SOL    HW214812   8.170   3.112   5.548 -0.1360  1.0843 -0.6936
36326SOL     OW14813   6.688   5.974   1.734 -0.5196  0.0233  0.5471
36326SOL    HW114814   6.616   6.037   1.737  0.6962  1.4387  1.2410
36326SOL    HW214815   6.717   5.967   1.825  0.9061  0.3174  0.1359
36327SOL     OW14816   3.726   4.135   9.295  0.0175  0.3175  0.6484
36327SOL    HW114817   3.792   4.191   9.255 -0.5118 -0.1949 -1.0441
36327SOL    HW214818   3.770   4.095   9.370  1.4574  0.3945 -0.1260
36328SOL     OW14819   1.673   1.070   8.795  0.2392 -0.2569  0.1291
36328SOL    HW114820   1.632   0.984   8.811  1.3301 -0.9157 -0.4877
36328SOL    HW214821   1.724   1.087   8.874 -2.0551  1.1240  1.4206
36329SOL     OW14822   3.394   5.883   6.967  0.2321  0.1436 -0.2881
36329SOL    HW114823   3.463   5.817   6.962 -0.3684 -0.6772  1.4104
36329SOL    HW214824   3.379   5.909   6.876 -0.5283 -3.1062 -1.2304
36330SOL     OW14825   7.266   7.750   1.882 -0.5858 -0.8090 -0.0578
36330SOL    HW114826   7.251   7.800   1.962 -1.4808 -0.5466 -0.3787
36330SOL    HW214827   7.269   7.816   1.812  1.5197 -0.8884 -0.1234
36331SOL     OW14828   2.948   1.142   3.361  0.1220  0.1565 -0.0250
36331SOL    HW114829   2.872   1.086   3.346 -0.6026  0.6229  1.5976
36331SOL    HW214830   2.912   1.231   3.362  0.9977  0.5405 -1.0016
36332SOL     OW14831   2.339   9.493   3.374  0.2983 -0.3263 -0.1948
36332SOL    HW114832   2.344   9.457   3.463  2.3946 -0.6476 -0.3906
36332SOL    HW214833   2.431   9.502   3.347 -0.1919  2.5185 -1.2244
36333SOL     OW14834   4.096   2.604   8.641 -0.0426 -0.6460  0.3623
36333SOL    HW114835   4.127   2.570   8.557  1.2863  1.6563 -0.1618
36333SOL    HW214836   4.167   2.585   8.702  0.9658  1.4483 -0.0526
36334SOL     OW14837   5.540   6.512  10.068  0.4135  0.3113  0.4030
36334SOL    HW114838   5.543   6.416  10.065  1.0372  0.3311  0.1666
36334SOL    HW214839   5.447   6.533  10.075  0.2488 -0.3068  0.1623
36335SOL     OW14840  10.363   8.892   3.258  0.5973 -0.2123 -0.3267
36335SOL    HW114841  10.327   8.954   3.195 -0.5178  0.6212  1.0651
36335SOL    HW214842  10.458   8.898   3.247  0.4932  1.3983 -0.5689
36336SOL     OW14843   2.155   1.640   7.246  0.0693  0.0537  0.1722
36336SOL    HW114844   2.204   1.681   7.175 -2.6964  0.9444 -1.4090
36336SOL    HW214845   2.138   1.710   7.309 -0.2834  0.0898  0.0416
36337SOL     OW14846   2.597   3.679   5.505 -0.7450 -0.4538  0.1546
36337SOL    HW114847   2.597   3.633   5.421  0.1531  0.4723 -0.3715
36337SOL    HW214848   2.631   3.766   5.484 -0.3751 -0.2615  1.5114
36338SOL     OW14849  10.182   7.735   2.866 -0.4048  0.0505 -0.5099
36338SOL    HW114850  10.204   7.828   2.874  1.5560 -0.5351  2.0126
36338SOL    HW214851  10.262   7.694   2.833 -0.9407 -0.9003 -0.6783
36339SOL     OW14852  10.026   6.431   4.044 -0.4374  0.0774 -0.3701
36339SOL    HW114853  10.090   6.405   3.977 -1.7939  1.8077 -2.4659
36339SOL    HW214854  10.056   6.517   4.074  0.4566 -0.9051  1.7522
36340SOL     OW14855   1.391   2.754   7.793  0.9223  0.1595 -0.2546
36340SOL    HW114856   1.448   2.785   7.863  0.9358  0.4982 -0.4133
36340SOL    HW214857   1.383   2.829   7.734 -0.1569  0.3156  0.0617
36341SOL     OW14858   4.161   5.405   9.691 -1.2103 -0.1874 -0.4101
36341SOL    HW114859   4.216   5.330   9.666 -1.2631 -0.5998  0.6374
36341SOL    HW214860   4.101   5.416   9.618 -3.2463 -3.1643  0.6106
36342SOL     OW14861   7.649   1.639   5.643 -0.2028  0.0193 -0.1535
36342SOL    HW114862   7.556   1.618   5.633  0.0879 -0.8645 -1.2371
36342SOL    HW214863   7.686   1.563   5.687 -0.2571  1.0652  1.7890
36343SOL     OW14864   6.239   5.907   3.338 -0.0942  0.1261 -0.2368
36343SOL    HW114865   6.318   5.916   3.286  0.1446  1.7609  0.3475
36343SOL    HW214866   6.269   5.869   3.421  0.9748  4.6079  1.7061
36344SOL     OW14867   6.330   1.664  10.678 -0.1225 -0.6324  0.1203
36344SOL    HW114868   6.372   1.735  10.629  0.5732  0.1809  1.8135
36344SOL    HW214869   6.281   1.616  10.612  1.6624 -0.2717 -1.5938
36345SOL     OW14870   2.131   2.849   2.121 -0.2125  0.3478  0.0982
36345SOL    HW114871   2.192   2.875   2.189  0.6759  0.6651 -0.7997
36345SOL    HW214872   2.075   2.783   2.163  1.6869 -1.0608  0.5244
36346SOL     OW14873   8.948   6.598   8.239  0.3348  0.6752 -0.3217
36346SOL    HW114874   8.873   6.539   8.238  1.0606 -0.2630 -0.7536
36346SOL    HW214875   9.023   6.541   8.251  0.8650  1.7492  2.0154
36347SOL     OW14876   7.769   0.915   4.548  0.1940 -0.1935 -0.4858
36347SOL    HW114877   7.681   0.916   4.587  0.6615  0.2324  0.6264
36347SOL    HW214878   7.808   0.833   4.580  0.3522 -0.1618 -0.5985
36348SOL     OW14879   1.577   6.573   9.458 -0.4418 -0.6767 -0.4425
36348SOL    HW114880   1.590   6.510   9.387 -0.1129 -2.9947  1.5084
36348SOL    HW214881   1.665   6.597   9.485 -0.5656  1.1537 -1.5337
36349SOL     OW14882   0.802   2.927   1.565  0.2319  0.2768  0.2060
36349SOL    HW114883   0.804   2.892   1.654 -1.1193  0.5194  0.3423
36349SOL    HW214884   0.710   2.942   1.547  0.7039  4.0507  0.2521
36350SOL     OW14885   7.440   4.503   2.509  0.2241 -0.4125  0.4360
36350SOL    HW114886   7.367   4.523   2.451  0.8266 -1.6137 -0.8031
36350SOL    HW214887   7.400   4.495   2.595 -0.9931 -0.3517 -0.0994
36351SOL     OW14888   5.096   2.621   7.341 -0.1240  0.2987 -0.2989
36351SOL    HW114889   5.028   2.573   7.389 -0.5686  1.8560  0.7279
36351SOL    HW214890   5.047   2.673   7.277  0.1868  0.6826 -0.2272
36352SOL     OW14891   1.622   5.941   4.022  0.2668 -0.7696 -1.0271
36352SOL    HW114892   1.704   5.949   4.071 -0.1080 -0.8851 -0.3587
36352SOL    HW214893   1.563   5.894   4.082  0.0280 -1.5925 -1.8917
36353SOL     OW14894   0.498   3.624   7.567 -0.5845 -0.9792 -0.5086
36353SOL    HW114895   0.471   3.715   7.581  0.3809 -0.6083 -0.9981
36353SOL    HW214896   0.526   3.620   7.476  0.5890 -1.4378 -0.1577
36354SOL     OW14897   5.218   0.116   5.638  0.4730  0.5527 -0.2260
36354SOL    HW114898   5.271   0.088   5.564  1.0798  0.7864  0.1195
36354SOL    HW214899   5.262   0.194   5.672 -1.0019  1.7699 -0.9594
36355SOL     OW14900   1.079   2.222   7.912  0.3444 -0.2603  0.4894
36355SOL    HW114901   1.097   2.245   8.004 -1.2383  0.8365  0.5796
36355SOL    HW214902   0.990   2.256   7.897  0.4119 -0.8202 -1.3262
36356SOL     OW14903   5.070   2.304   0.932  0.0867  0.7293  0.1703
36356SOL    HW114904   5.133   2.326   0.864  0.8573  2.0731  1.2798
36356SOL    HW214905   4.992   2.274   0.884  0.4533  2.0208 -1.3096
36357SOL     OW14906   8.601  10.437   8.217 -0.2239  0.4036 -0.0377
36357SOL    HW114907   8.535  10.375   8.186  0.3408  0.5396 -1.6019
36357SOL    HW214908   8.560  10.480   8.292 -0.2440 -2.5486  1.8092
36358SOL     OW14909   9.289   3.294   1.065  0.1637  0.5563  0.4038
36358SOL    HW114910   9.380   3.284   1.092  0.0197 -0.1270  0.6576
36358SOL    HW214911   9.245   3.216   1.100 -0.9248  1.7947  1.9771
36359SOL     OW14912   4.002   9.675   9.048 -0.6462 -0.0999  0.1789
36359SOL    HW114913   4.082   9.637   9.013  0.1263  0.7855  0.9521
36359SOL    HW214914   3.989   9.756   8.998 -0.9751 -0.1587  0.1623
36360SOL     OW14915   6.102   4.705  10.377 -0.0882  0.3687 -0.0480
36360SOL    HW114916   6.081   4.615  10.353 -0.6178 -0.1761  2.2165
36360SOL    HW214917   6.197   4.711  10.366 -0.0178 -0.5595 -0.0252
36361SOL     OW14918   3.426   9.807   1.239  0.2327 -0.0732 -0.3061
36361SOL    HW114919   3.376   9.884   1.210 -0.9938 -0.4195  0.7817
36361SOL    HW214920   3.402   9.738   1.177 -1.5835 -0.5376  0.8347
36362SOL     OW14921   5.217   2.422   8.070  0.0112  0.1959 -0.0420
36362SOL    HW114922   5.275   2.357   8.030  0.9006 -0.2333  1.8767
36362SOL    HW214923   5.246   2.505   8.033  0.4436 -0.2301 -0.6893
36363SOL     OW14924   6.034   4.127   5.945 -0.1192  0.4696 -0.2579
36363SOL    HW114925   6.026   4.145   5.851 -0.5583 -1.9465 -0.7554
36363SOL    HW214926   6.107   4.065   5.951 -0.4737  0.1481  0.9411
36364SOL     OW14927   8.156   4.373   9.654  0.5984  0.7546 -0.2570
36364SOL    HW114928   8.133   4.319   9.578 -2.2866  0.8211  0.4480
36364SOL    HW214929   8.246   4.348   9.675  0.1384 -2.1485 -1.3052
36365SOL     OW14930   8.520   7.575   4.160  0.1554  0.7016 -0.1289
36365SOL    HW114931   8.461   7.647   4.139  0.4797  0.6366 -1.3794
36365SOL    HW214932   8.584   7.575   4.089  0.3388 -0.6237 -0.0010
36366SOL     OW14933   2.668   0.439   2.839 -0.2436  0.4380  0.6113
36366SOL    HW114934   2.756   0.458   2.807 -0.5138 -0.2004 -0.5436
36366SOL    HW214935   2.680   0.362   2.896  0.0189  0.7027  0.9220
36367SOL     OW14936   0.355   2.577   6.061 -0.1741 -0.4307  0.1700
36367SOL    HW114937   0.270   2.545   6.030  0.3311  0.2494 -2.0591
36367SOL    HW214938   0.418   2.539   6.001  0.9860  0.1797  0.9678
36368SOL     OW14939  10.204   2.573   4.601  0.1821  0.4248 -0.2131
36368SOL    HW114940  10.171   2.495   4.646 -1.0366  0.4565 -1.0174
36368SOL    HW214941  10.126   2.626   4.584  0.6296  0.5594 -2.0606
36369SOL     OW14942   2.070   0.326   2.342  0.2441  0.2795  0.0700
36369SOL    HW114943   2.050   0.235   2.321  1.1673 -0.1279  0.8947
36369SOL    HW214944   2.153   0.344   2.299  0.0686  0.7298 -0.0860
36370SOL     OW14945   3.772   4.310   3.264 -0.4734 -0.2927  0.2204
36370SOL    HW114946   3.772   4.403   3.288  0.8305 -0.3378  0.4539
36370SOL    HW214947   3.860   4.280   3.284 -1.0801 -1.7652  0.7840
36371SOL     OW14948   1.603   4.905   0.562  0.2769 -0.3812 -0.6775
36371SOL    HW114949   1.693   4.908   0.530  0.8438 -2.0754  0.5893
36371SOL    HW214950   1.561   4.839   0.507 -0.4189  0.8504 -1.6851
36372SOL     OW14951   8.958   5.455  10.328 -0.1250 -0.1560  0.2903
36372SOL    HW114952   8.898   5.387  10.297 -0.4875  0.7915 -1.1899
36372SOL    HW214953   9.007   5.481  10.249 -0.8043  2.0960  0.5558
36373SOL     OW14954   3.564   3.678   5.646 -0.4104 -0.5303 -0.3793
36373SOL    HW114955   3.480   3.676   5.693 -0.2518 -1.8009 -0.1110
36373SOL    HW214956   3.574   3.589   5.612  0.9648 -0.4784 -0.1556
36374SOL     OW14957   3.476   9.523   4.600 -0.8459 -0.0887  0.1221
36374SOL    HW114958   3.461   9.617   4.584 -1.7087 -0.1809  0.3904
36374SOL    HW214959   3.416   9.479   4.540  0.0894 -0.4932 -0.5450
36375SOL     OW14960   3.811   5.552   8.388 -0.3972 -0.6341  0.5256
36375SOL    HW114961   3.855   5.491   8.448 -0.6396 -0.5140  0.8339
36375SOL    HW214962   3.737   5.585   8.439 -0.2604 -0.0754  0.3623
36376SOL     OW14963   8.833   6.320   5.770 -0.5497  0.2632 -0.0979
36376SOL    HW114964   8.878   6.250   5.817 -2.0070  0.9421  2.5844
36376SOL    HW214965   8.755   6.278   5.733 -0.7657  0.1926  0.4218
36377SOL     OW14966   7.687   3.593   8.790  0.1332 -0.2144  0.1568
36377SOL    HW114967   7.663   3.670   8.739 -2.9115 -0.3591  1.1643
36377SOL    HW214968   7.603   3.556   8.818  1.5786 -2.3266  2.0205
36378SOL     OW14969   3.376   6.608   5.374  0.2289  0.2311  0.1035
36378SOL    HW114970   3.436   6.628   5.445 -0.3959  0.3644  0.5990
36378SOL    HW214971   3.429   6.619   5.295  1.1041 -0.5670  0.5616
36379SOL     OW14972   0.968   9.502   2.568  0.1205  0.3568 -0.4400
36379SOL    HW114973   0.884   9.457   2.568  0.5506 -0.4772  0.0648
36379SOL    HW214974   0.966   9.557   2.490 -1.0248  0.6147 -0.2456
36380SOL     OW14975   0.894   0.656   4.316 -0.4520  0.4960  0.3805
36380SOL    HW114976   0.845   0.610   4.248  1.5877  0.4325 -1.1419
36380SOL    HW214977   0.916   0.741   4.277  0.1876  0.7297  1.2096
36381SOL     OW14978   2.182   6.628   4.136 -0.4435  0.3616  0.1087
36381SOL    HW114979   2.156   6.536   4.145  2.4086 -0.4577  1.0468
36381SOL    HW214980   2.187   6.661   4.225  3.4874 -0.2197  0.2832
36382SOL     OW14981   6.809   5.542   4.958  0.1369  0.3436 -0.4980
36382SOL    HW114982   6.873   5.601   4.919 -0.9482  1.1346 -1.1269
36382SOL    HW214983   6.757   5.511   4.883 -1.2930  1.0494  0.1741
36383SOL     OW14984   8.126   5.707   3.880 -0.1536 -0.2181 -0.0649
36383SOL    HW114985   8.091   5.762   3.810  0.0640  1.3507  0.9869
36383SOL    HW214986   8.107   5.756   3.960  2.6441 -0.2181  0.7212
36384SOL     OW14987   1.747   9.697   0.066  0.0199 -0.2535 -0.9822
36384SOL    HW114988   1.740   9.793   0.065 -0.4833 -0.2602  0.6357
36384SOL    HW214989   1.791   9.676  -0.017 -1.2056  1.2489 -2.0749
36385SOL     OW14990  10.599   7.302   9.939  0.1245 -0.1688  0.0370
36385SOL    HW114991  10.527   7.249   9.905  0.7749  0.0401 -1.8350
36385SOL    HW214992  10.652   7.240   9.989  1.8609 -1.9726 -3.5830
36386SOL     OW14993   8.405   2.867   3.156  0.1076  0.5474  0.1283
36386SOL    HW114994   8.344   2.941   3.159  0.5713  0.9385  0.0693
36386SOL    HW214995   8.352   2.793   3.127 -0.4617  0.7578  0.6029
36387SOL     OW14996   8.651   0.250   5.484 -0.0492  0.9913  0.3214
36387SOL    HW114997   8.569   0.261   5.532  0.7670  1.9515  1.5611
36387SOL    HW214998   8.696   0.334   5.494  0.6581  0.8385 -1.2133
36388SOL     OW14999   9.319   8.656   7.243  0.7393 -0.8116 -0.0217
36388SOL    HW115000   9.317   8.691   7.333  0.3459 -0.1822 -0.2640
36388SOL    HW215001   9.408   8.672   7.213  0.5509  0.0608 -0.1463
36389SOL     OW15002   4.079   7.633   6.128  0.4180 -0.0444  0.4284
36389SOL    HW115003   4.120   7.602   6.048  0.1366  0.6700 -0.0024
36389SOL    HW215004   4.114   7.722   6.140  1.6585 -0.6776  1.9388
36390SOL     OW15005   3.207   2.154   3.300 -0.0128  0.3314 -0.2993
36390SOL    HW115006   3.229   2.134   3.391 -0.5122  0.8640 -0.0547
36390SOL    HW215007   3.250   2.238   3.282 -0.9457  0.8577 -0.1447
36391SOL     OW15008   2.082   7.630   3.495 -0.5608 -0.1398  0.0859
36391SOL    HW115009   2.064   7.619   3.402 -0.6379  1.8384 -0.1683
36391SOL    HW215010   2.099   7.541   3.527 -0.6970 -0.8648 -1.7639
36392SOL     OW15011   9.332   9.079   5.532 -0.4969 -0.3740 -0.0179
36392SOL    HW115012   9.250   9.054   5.573 -0.7262  0.7113  0.2266
36392SOL    HW215013   9.328   9.175   5.528  1.5745 -0.1110  1.8354
36393SOL     OW15014   9.211   7.043   8.031  0.1088 -0.3863  0.1076
36393SOL    HW115015   9.267   7.053   7.954 -1.5042 -1.1215 -1.2438
36393SOL    HW215016   9.260   6.986   8.090  0.8513 -0.9013 -0.9805
36394SOL     OW15017   4.795   8.364   2.578  0.0832 -0.7040  0.1854
36394SOL    HW115018   4.780   8.414   2.658  1.3127 -2.0478  1.3119
36394SOL    HW215019   4.765   8.275   2.599  1.0680 -1.2395 -0.5779
36395SOL     OW15020   1.485  10.643  10.480 -0.3381 -0.3815  0.3454
36395SOL    HW115021   1.486  10.564  10.425  1.4519  0.2947 -0.6915
36395SOL    HW215022   1.429  10.705  10.432 -2.2539 -1.1760  1.4701
36396SOL     OW15023   6.088   3.570   6.713 -0.0959  0.5067 -0.5486
36396SOL    HW115024   6.057   3.496   6.660  0.9603 -1.0563  0.9361
36396SOL    HW215025   6.177   3.586   6.682  0.7477 -0.8053  1.0827
36397SOL     OW15026   6.830   3.335   4.318 -0.1343  0.2182 -0.0521
36397SOL    HW115027   6.737   3.341   4.297 -0.6382 -1.1509  1.5398
36397SOL    HW215028   6.847   3.241   4.326  1.4205  0.4344 -0.3823
36398SOL     OW15029   1.101   7.518   5.597 -0.3551  0.5210 -0.4123
36398SOL    HW115030   1.023   7.474   5.565  0.6479 -0.6390 -1.3559
36398SOL    HW215031   1.153   7.449   5.639 -0.0142  1.3493  0.5912
36399SOL     OW15032   0.796   6.722   0.819  0.1649  0.3188  0.1460
36399SOL    HW115033   0.782   6.649   0.759 -4.5737  0.0287  1.2361
36399SOL    HW215034   0.838   6.789   0.765 -1.2582 -0.9139 -2.7273
36400SOL     OW15035   1.891   4.498   2.143 -0.0041 -0.6324 -0.2745
36400SOL    HW115036   1.930   4.515   2.057  1.4563 -0.8660  0.3215
36400SOL    HW215037   1.854   4.410   2.135 -1.9611  0.2158 -1.3601
36401SOL     OW15038   6.276  10.143   7.243 -0.5486  0.0562  0.1297
36401SOL    HW115039   6.214  10.187   7.302 -0.4916  1.4067 -0.7736
36401SOL    HW215040   6.231  10.143   7.158  0.0039 -0.4620 -0.1638
36402SOL     OW15041   4.833   2.771   8.246  0.1380  0.0972 -0.6848
36402SOL    HW115042   4.882   2.814   8.176 -0.3515  2.4494  0.3067
36402SOL    HW215043   4.747   2.754   8.207  0.6824 -1.0251 -1.4295
36403SOL     OW15044   2.284   5.241   5.818 -0.1989  0.4909  0.5447
36403SOL    HW115045   2.333   5.304   5.871  1.6450 -1.0571  0.7901
36403SOL    HW215046   2.285   5.160   5.870  0.4899 -0.6930 -1.1885
36404SOL     OW15047   6.311   3.734   5.024  0.2072  0.5873  0.6117
36404SOL    HW115048   6.340   3.686   5.102 -1.1982  1.4375  1.7168
36404SOL    HW215049   6.320   3.672   4.952 -2.2103 -1.6875  2.0878
36405SOL     OW15050   3.002   6.620   3.197  0.3441  0.4374  0.3830
36405SOL    HW115051   2.995   6.694   3.137  0.5211 -0.0383 -0.2314
36405SOL    HW215052   2.920   6.573   3.187  0.3559  0.3782  0.5520
36406SOL     OW15053   4.490   6.214   4.785 -0.3496 -0.1962  0.2856
36406SOL    HW115054   4.509   6.305   4.764  0.7222 -0.6044 -0.6360
36406SOL    HW215055   4.396   6.205   4.768 -0.5574  0.8287  0.8159
36407SOL     OW15056   8.436   0.209   2.452 -0.1063  0.1841  0.0810
36407SOL    HW115057   8.351   0.244   2.425  0.8422  1.6172 -1.2135
36407SOL    HW215058   8.437   0.119   2.420 -0.4043  0.7500 -1.5935
36408SOL     OW15059   4.360   6.184   8.849  0.1311  0.2051  0.5065
36408SOL    HW115060   4.276   6.210   8.813 -0.1063 -0.5172  0.5257
36408SOL    HW215061   4.424   6.237   8.802 -0.4590  2.5093  2.0982
36409SOL     OW15062   0.229   7.906   4.149 -0.3246  0.4851  0.3050
36409SOL    HW115063   0.147   7.937   4.187 -0.7458  1.1276 -1.0780
36409SOL    HW215064   0.285   7.983   4.146 -0.6423  0.6785 -1.2396
36410SOL     OW15065  10.655   0.966   1.818 -0.0550 -0.0786  0.2378
36410SOL    HW115066  10.741   1.005   1.803 -0.2717  0.1153 -0.5697
36410SOL    HW215067  10.641   0.972   1.913  0.8019 -0.0831  0.3653
36411SOL     OW15068   3.714   3.203   5.892 -0.2609 -0.4250 -0.5784
36411SOL    HW115069   3.710   3.159   5.977 -0.4988 -0.1848 -0.4661
36411SOL    HW215070   3.756   3.139   5.835  0.2266 -0.4542 -0.1977
36412SOL     OW15071   7.374   4.451   6.954 -0.0401  0.1066  0.3500
36412SOL    HW115072   7.405   4.473   6.866 -0.0336 -1.1186  0.0198
36412SOL    HW215073   7.279   4.461   6.949 -0.3442 -2.4057 -0.6148
36413SOL     OW15074   6.022   5.871   0.329  0.1191  0.1691  0.2508
36413SOL    HW115075   6.050   5.961   0.345  1.6427 -0.4550  1.3988
36413SOL    HW215076   5.950   5.857   0.391  1.4060 -0.0792  1.7526
36414SOL     OW15077   2.220   9.708   4.460  0.1179  0.3979  0.4195
36414SOL    HW115078   2.274   9.649   4.512 -0.7381 -1.3011 -0.5451
36414SOL    HW215079   2.134   9.703   4.501  0.2460  1.7822  0.9206
36415SOL     OW15080   4.238   2.081   8.453 -0.5683 -0.1246 -0.6681
36415SOL    HW115081   4.221   2.161   8.502  2.8822  0.4165 -0.0892
36415SOL    HW215082   4.321   2.096   8.409 -0.8519 -2.6373 -2.2998
36416SOL     OW15083   0.055   9.747   1.598  0.3940  0.2431 -0.4241
36416SOL    HW115084   0.150   9.742   1.591  0.7207  0.9554  2.5472
36416SOL    HW215085   0.026   9.655   1.600  0.9828  0.0268 -1.2343
36417SOL     OW15086   6.064   5.014   3.496  0.5789  0.1902  0.2689
36417SOL    HW115087   6.004   4.985   3.565  0.5883 -0.3772  0.0420
36417SOL    HW215088   6.126   4.942   3.485 -0.5197 -0.5538 -1.6076
36418SOL     OW15089   4.600   1.537   3.204  1.0290  0.0933 -0.0012
36418SOL    HW115090   4.575   1.579   3.122  1.6588 -0.1705 -0.3363
36418SOL    HW215091   4.522   1.544   3.259  0.6744  0.4743 -0.5386
36419SOL     OW15092   0.086   4.078   3.729 -0.1158 -0.1054  0.6245
36419SOL    HW115093   0.027   4.022   3.679  1.1181 -0.7462 -0.1480
36419SOL    HW215094   0.174   4.052   3.702  0.5264  1.4824  1.0374
36420SOL     OW15095   6.271   6.845   6.088 -0.7241  0.1848  0.8752
36420SOL    HW115096   6.273   6.916   6.024  0.6698  1.6145  2.4023
36420SOL    HW215097   6.246   6.887   6.170  1.2275 -0.8242  2.0653
36421SOL     OW15098   6.356   0.584   5.751 -0.0784 -0.0069  0.1990
36421SOL    HW115099   6.356   0.543   5.665 -1.9190  1.0137 -0.3361
36421SOL    HW215100   6.344   0.511   5.812  2.1223 -0.8455 -0.2816
36422SOL     OW15101  10.698   6.963   6.904  0.1321  0.0104 -1.0837
36422SOL    HW115102  10.609   6.994   6.891  0.1721  0.1414 -1.0535
36422SOL    HW215103  10.714   6.973   6.998 -0.3796 -1.5249 -0.8119
36423SOL     OW15104   7.520   5.900   9.057 -0.2225 -0.1204  0.1480
36423SOL    HW115105   7.563   5.985   9.051 -1.5756  0.5054 -1.2779
36423SOL    HW215106   7.571   5.843   8.999 -0.8196  0.4190 -0.9400
36424SOL     OW15107   8.673   2.330   0.103 -0.0483 -0.2383  0.1719
36424SOL    HW115108   8.755   2.378   0.109  0.3516 -0.9221  0.2875
36424SOL    HW215109   8.608   2.396   0.076  0.8169  0.0177 -1.4237
36425SOL     OW15110   5.116   3.614   6.688  0.2427 -0.9339 -0.3917
36425SOL    HW115111   5.085   3.699   6.719  3.4767 -0.0170  0.6774
36425SOL    HW215112   5.093   3.613   6.595 -0.9854  0.5334 -0.1413
36426SOL     OW15113   2.653   0.500  10.373 -0.0696 -0.3472  0.3520
36426SOL    HW115114   2.616   0.438  10.436  0.3116 -0.4439  0.4829
36426SOL    HW215115   2.686   0.444  10.302 -1.0780 -0.2029 -0.2420
36427SOL     OW15116   2.607   0.603   9.119 -0.3529 -0.3660  0.4300
36427SOL    HW115117   2.647   0.552   9.189 -0.1738 -0.1452  0.4925
36427SOL    HW215118   2.613   0.547   9.041  0.8170 -0.0286  0.2523
36428SOL     OW15119   6.694   8.627   1.038  0.4769  0.1743 -0.3044
36428SOL    HW115120   6.695   8.625   1.134  0.4799  2.1644 -0.2269
36428SOL    HW215121   6.651   8.545   1.013 -1.6557  0.6513  1.4613
36429SOL     OW15122   1.746   7.710   7.486  0.1059 -0.0111 -0.4894
36429SOL    HW115123   1.656   7.694   7.458  0.8930 -2.7189 -1.7758
36429SOL    HW215124   1.746   7.802   7.511 -2.9900  0.1182 -0.4849
36430SOL     OW15125   0.369   9.672   6.784 -0.2629  0.2496 -0.1334
36430SOL    HW115126   0.451   9.708   6.817 -1.4907  2.5461  0.6789
36430SOL    HW215127   0.327   9.635   6.862 -0.9409  1.1349 -0.0525
36431SOL     OW15128   3.917   2.714   0.645 -0.0745  0.3837  0.1082
36431SOL    HW115129   3.951   2.690   0.731  1.0204  0.6796 -0.2330
36431SOL    HW215130   3.989   2.699   0.585 -0.6796  0.6242 -0.6996
36432SOL     OW15131   2.162   2.449   7.093 -0.4810 -0.3370  0.5577
36432SOL    HW115132   2.168   2.461   7.188  0.9816 -1.0020  0.5747
36432SOL    HW215133   2.253   2.446   7.063 -0.9181  0.1004 -0.9074
36433SOL     OW15134   5.155   8.154   9.648  0.7327  0.7522  0.0010
36433SOL    HW115135   5.224   8.173   9.712  1.4221 -1.1157 -0.1241
36433SOL    HW215136   5.162   8.059   9.633 -2.0765  0.4267  0.2185
36434SOL     OW15137   0.326   0.660  10.429  0.0271  0.0680 -0.4017
36434SOL    HW115138   0.241   0.624  10.455 -0.0208  0.5821  0.1893
36434SOL    HW215139   0.310   0.753  10.417  0.5076  0.1706 -0.2839
36435SOL     OW15140   6.009   3.818   9.132  0.3606 -0.0918 -0.1626
36435SOL    HW115141   5.951   3.762   9.081  1.6078 -0.2395 -1.4868
36435SOL    HW215142   5.986   3.907   9.106  1.0510 -0.1700 -1.0835
36436SOL     OW15143   4.579   1.327   2.706  0.0246  0.0671  0.4957
36436SOL    HW115144   4.643   1.362   2.768  0.0297  2.3242 -0.6609
36436SOL    HW215145   4.607   1.362   2.621 -2.1011  0.2210 -0.2028
36437SOL     OW15146   5.224   6.965   4.981  0.8469  0.4536 -0.0697
36437SOL    HW115147   5.300   6.908   4.974  1.1175  0.6664  0.9977
36437SOL    HW215148   5.174   6.930   5.056 -0.1951  0.2133 -0.8496
36438SOL     OW15149  10.664   8.531   5.175 -0.0296 -0.0254 -0.3663
36438SOL    HW115150  10.686   8.478   5.251  1.8464 -1.1834 -1.6396
36438SOL    HW215151  10.729   8.602   5.174 -0.7141  0.6223 -0.3078
36439SOL     OW15152   7.382   9.544  10.486  0.5610 -0.0908  0.0663
36439SOL    HW115153   7.445   9.541  10.414  0.2285  0.3962 -0.2402
36439SOL    HW215154   7.432   9.580  10.559  1.0920 -1.2156  0.2863
36440SOL     OW15155   4.228   4.939  10.209  0.9582 -0.0204 -0.3141
36440SOL    HW115156   4.293   4.928  10.279  0.1242 -1.3099  0.3099
36440SOL    HW215157   4.144   4.934  10.254  0.4111 -0.2899 -1.3327
36441SOL     OW15158   8.689   8.334   3.361  0.1207  0.1901 -0.3908
36441SOL    HW115159   8.760   8.311   3.421 -0.0372 -3.3210 -1.3576
36441SOL    HW215160   8.614   8.350   3.419  0.4867 -1.0526  0.4615
36442SOL     OW15161   6.395   3.603  10.037 -0.3605  0.1913 -0.7470
36442SOL    HW115162   6.322   3.614  10.098 -2.1657 -1.3462 -2.4923
36442SOL    HW215163   6.433   3.518  10.061  0.5332  0.7149 -0.2316
36443SOL     OW15164   8.863   5.098   1.248 -1.1143 -0.2183 -0.5166
36443SOL    HW115165   8.777   5.120   1.283 -0.3570 -0.9674  2.0406
36443SOL    HW215166   8.893   5.025   1.302  1.7772  1.0252 -0.2265
36444SOL     OW15167   9.910   0.597   1.318  0.3495  0.0458  0.3783
36444SOL    HW115168   9.992   0.604   1.268 -0.0785  0.3856 -0.2822
36444SOL    HW215169   9.843   0.583   1.252 -0.1862  0.1957  0.8898
36445SOL     OW15170   1.102   0.140   5.024  0.1151 -0.3505  0.4191
36445SOL    HW115171   1.107   0.092   4.941  1.8151  0.8666 -0.2383
36445SOL    HW215172   1.169   0.208   5.017  0.5420 -0.4001  2.9274
36446SOL     OW15173   1.905   9.728   2.122  0.2588 -0.1348 -0.2862
36446SOL    HW115174   1.901   9.640   2.084  0.3549  0.0594 -0.7415
36446SOL    HW215175   1.842   9.779   2.072  0.5300  0.1708 -0.3125
36447SOL     OW15176   0.423   8.711   5.208 -0.2316 -0.5163  0.0009
36447SOL    HW115177   0.516   8.732   5.196 -0.7967  2.2832 -0.0794
36447SOL    HW215178   0.405   8.734   5.299 -0.6993 -1.8552  0.2755
36448SOL     OW15179   6.791   2.194   9.848  0.1633  0.4574 -0.2473
36448SOL    HW115180   6.787   2.103   9.878 -1.4090  0.0635 -1.5227
36448SOL    HW215181   6.792   2.246   9.929  2.8420 -0.6709  0.5527
36449SOL     OW15182   6.846   0.712  10.647  0.0661 -0.0783  0.6141
36449SOL    HW115183   6.896   0.703  10.566  1.0230  2.3488  0.8413
36449SOL    HW215184   6.780   0.779  10.627  0.0305  0.2237  1.6804
36450SOL     OW15185   1.560   9.519   6.711  0.5124 -0.0696 -0.4357
36450SOL    HW115186   1.579   9.462   6.786  1.0013 -1.7821 -1.7915
36450SOL    HW215187   1.627   9.496   6.647  1.4302  2.8771 -0.6818
36451SOL     OW15188   6.538   2.349   1.749  0.0319 -0.0209 -0.3737
36451SOL    HW115189   6.551   2.444   1.745  0.6107 -0.1256 -1.4172
36451SOL    HW215190   6.585   2.316   1.672  0.3397 -1.2112  0.3125
36452SOL     OW15191   7.618   5.584   8.448 -0.0248 -0.0066 -0.1334
36452SOL    HW115192   7.690   5.626   8.493 -0.1756  1.8877 -1.5641
36452SOL    HW215193   7.541   5.638   8.469 -0.7099 -0.9692 -0.0627
36453SOL     OW15194  10.527   3.073   1.928  0.2293 -0.2373 -0.6460
36453SOL    HW115195  10.511   3.165   1.949 -0.2394 -0.1910 -1.1705
36453SOL    HW215196  10.491   3.025   2.003 -0.3133 -0.0272 -0.7685
36454SOL     OW15197   7.487   0.036   5.889 -0.0248 -0.0046  0.2023
36454SOL    HW115198   7.434   0.024   5.967 -0.5641 -0.7468 -0.2645
36454SOL    HW215199   7.435   0.091   5.832  0.1558  0.1280  0.1634
36455SOL     OW15200   8.743   7.016   2.409  0.4171 -0.4201 -0.3894
36455SOL    HW115201   8.770   6.973   2.490 -2.5181 -0.4536  0.6982
36455SOL    HW215202   8.692   6.950   2.362  0.4472  0.2094 -1.3446
36456SOL     OW15203   1.686   8.880   3.323 -1.0496  0.3589  0.4318
36456SOL    HW115204   1.737   8.808   3.360 -0.3082  0.5400 -0.1957
36456SOL    HW215205   1.598   8.845   3.312 -1.2008  0.1760  1.9652
36457SOL     OW15206   0.277   1.822   2.633  0.4919  0.3631 -0.4778
36457SOL    HW115207   0.363   1.788   2.655  0.3236  0.0031 -0.3695
36457SOL    HW215208   0.220   1.745   2.633  0.0539  0.6815  0.0213
36458SOL     OW15209   6.525   1.695   2.916  0.3805 -0.0454 -0.8220
36458SOL    HW115210   6.485   1.659   2.995 -0.8909 -2.0277 -2.2492
36458SOL    HW215211   6.609   1.649   2.909 -0.3305 -1.3105 -1.5428
36459SOL     OW15212   7.643   7.049   6.576  0.0290  0.2337  0.8400
36459SOL    HW115213   7.595   6.996   6.512  1.1053 -0.9777  0.9864
36459SOL    HW215214   7.594   7.037   6.658  0.6084 -1.0804  1.0132
36460SOL     OW15215  10.358   9.442   7.171  0.0647 -0.0518  0.2035
36460SOL    HW115216  10.290   9.501   7.137 -0.9922 -0.8824  0.8236
36460SOL    HW215217  10.323   9.354   7.157  2.5784 -0.7505 -2.8330
36461SOL     OW15218   2.793   7.364   9.604  0.4539  0.0424 -0.2106
36461SOL    HW115219   2.852   7.300   9.565 -1.0946 -0.6727 -1.5244
36461SOL    HW215220   2.782   7.334   9.695  0.0550 -1.3764 -0.6906
36462SOL     OW15221   5.599   2.555   9.517  0.5106 -0.1461 -0.7340
36462SOL    HW115222   5.569   2.493   9.451 -2.2181  1.1439 -0.8504
36462SOL    HW215223   5.689   2.576   9.492  0.0351 -0.7997 -3.1961
36463SOL     OW15224   0.313   0.052   5.168 -0.4320  0.4002 -0.2150
36463SOL    HW115225   0.351   0.042   5.256  1.5190 -0.6881 -1.1225
36463SOL    HW215226   0.220   0.034   5.180 -0.3185  0.8503  1.7207
36464SOL     OW15227   0.781   1.628   2.485  0.4410  0.3845 -0.1278
36464SOL    HW115228   0.729   1.688   2.538  0.3534  0.7839 -0.6584
36464SOL    HW215229   0.840   1.587   2.547  0.1741  0.6637  0.3209
36465SOL     OW15230   6.186   9.747   5.567 -0.0564 -0.1641  0.1569
36465SOL    HW115231   6.241   9.669   5.571  0.2154 -0.0608 -1.1388
36465SOL    HW215232   6.097   9.713   5.552  0.2176 -0.2252 -1.5496
36466SOL     OW15233   8.574   4.919   8.510  0.3234  0.1855  0.7260
36466SOL    HW115234   8.585   4.929   8.416  0.6035  2.8640  0.9888
36466SOL    HW215235   8.664   4.914   8.544  0.2378  0.0677  0.9376
36467SOL     OW15236   3.743   3.969   0.187  0.0087  0.8940  0.0960
36467SOL    HW115237   3.653   3.940   0.205  0.5344  0.0989  1.6693
36467SOL    HW215238   3.798   3.897   0.219  1.2894  2.5078  1.7422
36468SOL     OW15239   2.652   0.436   2.188  0.1070  0.1927 -0.1690
36468SOL    HW115240   2.685   0.415   2.275  0.8936  0.4548 -0.4029
36468SOL    HW215241   2.584   0.501   2.204  0.7585  0.7900  0.1957
36469SOL     OW15242   9.669   6.513   2.332 -0.0308  0.1656  0.3561
36469SOL    HW115243   9.747   6.569   2.334  0.3361 -0.2984 -0.5881
36469SOL    HW215244   9.693   6.440   2.276 -1.4137  0.4240 -0.6341
36470SOL     OW15245   3.419   0.098   8.161 -0.0890  0.2348 -0.0569
36470SOL    HW115246   3.421   0.043   8.084  0.4561  0.1836 -0.0112
36470SOL    HW215247   3.341   0.071   8.209  2.0874 -3.1872  1.9170
36471SOL     OW15248   5.517  10.551   9.121 -0.6639 -0.3098 -0.1859
36471SOL    HW115249   5.587  10.509   9.171  0.4688  0.1287 -1.3541
36471SOL    HW215250   5.544  10.542   9.030 -1.3508  1.2278 -0.5739
36472SOL     OW15251   8.741   7.541   3.978  0.0175 -0.2054 -0.7054
36472SOL    HW115252   8.769   7.497   3.897  0.6807 -1.1771  0.0270
36472SOL    HW215253   8.772   7.484   4.048 -0.5159  0.6427  0.2468
36473SOL     OW15254   2.031   3.349   9.074  0.5543 -0.0394 -0.0947
36473SOL    HW115255   2.009   3.364   9.166 -1.3052 -1.8792 -0.1707
36473SOL    HW215256   1.986   3.420   9.027 -0.5194 -0.4516  0.2606
36474SOL     OW15257   8.309   4.870   0.228  0.5652 -0.4705  0.2635
36474SOL    HW115258   8.296   4.809   0.301  1.6278  0.2517  1.0860
36474SOL    HW215259   8.403   4.862   0.208  0.3105 -0.5753 -0.9639
36475SOL     OW15260   2.913   5.274   0.463 -0.0328  0.7942 -0.1694
36475SOL    HW115261   2.839   5.297   0.407 -0.1116 -0.5929 -0.6628
36475SOL    HW215262   2.986   5.324   0.427 -0.7101  2.2550  0.3802
36476SOL     OW15263   5.857  10.047   6.909  0.0398  0.4784 -0.5912
36476SOL    HW115264   5.809  10.065   6.990  3.2689 -0.1007  1.6369
36476SOL    HW215265   5.810   9.974   6.869 -0.2583 -0.9723  2.1716
36477SOL     OW15266   2.672   8.950   6.602  0.5977  0.1097  0.5576
36477SOL    HW115267   2.695   8.998   6.523 -2.1297 -0.6179 -0.8006
36477SOL    HW215268   2.681   9.013   6.673  0.6771  1.5082 -0.6607
36478SOL     OW15269   6.871   8.068   8.174 -0.1024  0.3426 -0.0503
36478SOL    HW115270   6.929   8.022   8.114  0.7937  2.1772 -0.6584
36478SOL    HW215271   6.929   8.116   8.233 -0.9670  1.4229 -0.0245
36479SOL     OW15272   9.328   5.681   1.309 -0.5701 -0.1909  0.0832
36479SOL    HW115273   9.233   5.682   1.303 -0.6539  1.3150  1.1197
36479SOL    HW215274   9.357   5.756   1.257  0.1845 -1.5080 -1.4863
36480SOL     OW15275   5.993   3.482   3.642  0.1086  0.0096 -0.2706
36480SOL    HW115276   6.054   3.536   3.593 -0.0519  0.8202  0.4072
36480SOL    HW215277   6.039   3.460   3.723 -0.9778  1.8370  0.9086
36481SOL     OW15278   9.116   5.859  10.306  0.5227  0.0098 -0.5506
36481SOL    HW115279   9.176   5.851  10.233 -0.2198  0.4277 -1.2253
36481SOL    HW215280   9.140   5.941  10.348  2.2155 -1.1452  0.8836
36482SOL     OW15281  10.360   1.393   3.107  0.0248 -0.5102 -0.2191
36482SOL    HW115282  10.444   1.381   3.061  0.8426 -1.5797  1.4591
36482SOL    HW215283  10.331   1.304   3.126 -1.0301 -0.1128  0.0788
36483SOL     OW15284   3.665   4.596   4.190  0.1828 -1.2912 -0.4238
36483SOL    HW115285   3.657   4.606   4.095 -1.4953 -1.8025 -0.3740
36483SOL    HW215286   3.737   4.654   4.215 -0.3228 -0.0089 -1.8238
36484SOL     OW15287   5.743   6.712  10.080 -0.0967  0.4376 -0.0286
36484SOL    HW115288   5.694   6.788  10.047  1.5186  1.2596 -0.6796
36484SOL    HW215289   5.683   6.639  10.072 -1.6614  1.6169  0.4557
36485SOL     OW15290   4.922   5.018   6.265  0.2406  0.1965 -0.2906
36485SOL    HW115291   4.911   5.017   6.170  0.2910  0.8271 -0.3036
36485SOL    HW215292   4.992   4.954   6.281  0.0465 -0.1113 -0.6496
36486SOL     OW15293   8.546   4.329   8.836 -0.2126  0.3955  0.3074
36486SOL    HW115294   8.508   4.289   8.914 -1.2449 -1.5907 -1.1299
36486SOL    HW215295   8.619   4.272   8.812  2.2384  2.7638  1.5609
36487SOL     OW15296   1.292  10.217   2.461  0.6789 -0.5368 -0.0405
36487SOL    HW115297   1.323  10.131   2.490  1.0151 -0.0662  1.0246
36487SOL    HW215298   1.313  10.220   2.367 -1.4252 -2.5468 -0.6718
36488SOL     OW15299   6.349   8.905   7.464  0.1828 -0.4512  0.3246
36488SOL    HW115300   6.386   8.822   7.434  0.8974 -0.4186  1.0873
36488SOL    HW215301   6.370   8.967   7.394  0.4867 -0.7075  0.1845
36489SOL     OW15302   6.041   0.177   7.360 -0.0506 -0.3629  0.2943
36489SOL    HW115303   6.115   0.193   7.419  0.2273 -2.0793  0.4569
36489SOL    HW215304   5.977   0.130   7.413 -0.5109 -0.4650 -0.3347
36490SOL     OW15305   9.389   2.694   1.710  0.5827 -0.0918 -0.7185
36490SOL    HW115306   9.467   2.661   1.665  0.5776  0.3014 -1.0220
36490SOL    HW215307   9.342   2.744   1.643  0.1429 -0.2083 -0.4977
36491SOL     OW15308   4.771   1.871   9.909  0.3421 -0.1105  0.7855
36491SOL    HW115309   4.729   1.792   9.876  0.2918  0.5950 -0.9602
36491SOL    HW215310   4.848   1.883   9.853  0.3051  1.1091  0.9652
36492SOL     OW15311  10.188   4.565   2.423  0.0302 -0.2679  0.0261
36492SOL    HW115312  10.249   4.498   2.452  0.4696  0.7386  1.5745
36492SOL    HW215313  10.132   4.581   2.499 -0.9711  0.1219 -0.7735
36493SOL     OW15314   6.017   4.191   6.351  0.4196 -0.1200 -0.2344
36493SOL    HW115315   5.944   4.149   6.305 -0.0858 -0.1638  0.5916
36493SOL    HW215316   6.092   4.133   6.334 -0.3929 -1.7466  1.3771
36494SOL     OW15317   4.779   9.986   8.135 -0.1378  0.7352  0.0326
36494SOL    HW115318   4.842  10.050   8.102 -0.2169  0.3870 -0.8391
36494SOL    HW215319   4.825   9.940   8.204  0.6498  0.3608 -0.7238
36495SOL     OW15320   8.313   9.071   7.888  0.1989  0.9101 -0.0104
36495SOL    HW115321   8.352   9.001   7.837  0.0364  0.8087  0.0021
36495SOL    HW215322   8.311   9.037   7.978 -0.8066  0.5211 -0.1681
36496SOL     OW15323   7.802   7.036   5.055 -0.5048  0.4665 -0.2352
36496SOL    HW115324   7.777   6.971   4.989  0.1158  2.6922 -2.8221
36496SOL    HW215325   7.883   7.002   5.092 -0.7558 -0.7353 -0.7327
36497SOL     OW15326   2.399   9.116   4.898 -0.0079  0.3240 -0.4591
36497SOL    HW115327   2.476   9.082   4.851  1.1593  3.9244 -1.4420
36497SOL    HW215328   2.326   9.062   4.866  1.5620 -0.8600 -2.2736
36498SOL     OW15329   9.937   8.460   2.958 -0.4597 -0.0055  0.3540
36498SOL    HW115330   9.934   8.553   2.935 -1.4591 -0.1028  0.0387
36498SOL    HW215331   9.947   8.458   3.053  0.6682  0.4110  0.2562
36499SOL     OW15332   0.024   3.166   1.238  0.7039 -0.4546  0.5424
36499SOL    HW115333   0.053   3.247   1.280 -2.5601  0.4164  1.4346
36499SOL    HW215334   0.056   3.096   1.296  2.8004  0.1832  0.2390
36500SOL     OW15335   2.179  10.183   8.242 -0.4720  0.8078 -0.0467
36500SOL    HW115336   2.137  10.097   8.238 -1.1675  1.0943  0.8006
36500SOL    HW215337   2.134  10.236   8.176  0.1591  0.4516 -0.7804
36501SOL     OW15338   0.985   5.687   9.753 -0.1135 -0.1797  0.1850
36501SOL    HW115339   0.937   5.754   9.704  0.0147  0.1417  0.4888
36501SOL    HW215340   1.001   5.617   9.689  0.2192  0.3149 -0.2829
36502SOL     OW15341   9.653   4.531   2.198 -0.3721 -0.3308  0.0215
36502SOL    HW115342   9.637   4.466   2.129 -0.0954  1.0816 -1.4279
36502SOL    HW215343   9.748   4.542   2.199 -0.3133 -0.8731  1.1541
36503SOL     OW15344   5.413   2.429   9.680  0.2189  0.1173 -0.0213
36503SOL    HW115345   5.496   2.461   9.645  0.0781  1.0398  0.4562
36503SOL    HW215346   5.436   2.389   9.764  0.3059 -0.4298 -0.3080
36504SOL     OW15347   1.791   8.120  10.134  0.6068 -0.4123  0.2530
36504SOL    HW115348   1.853   8.048  10.136  0.6571 -0.3686  0.2506
36504SOL    HW215349   1.707   8.080  10.158  0.4643 -0.6434 -0.5797
36505SOL     OW15350   0.216   6.238   2.628  0.2947 -0.6914 -0.0596
36505SOL    HW115351   0.190   6.244   2.536  3.6335  0.7420 -1.0703
36505SOL    HW215352   0.199   6.147   2.652 -0.1460 -1.2448 -2.2404
36506SOL     OW15353  10.152   2.855   2.293  0.0509 -0.2701  0.3489
36506SOL    HW115354  10.179   2.897   2.374 -1.2124  1.5524 -0.1132
36506SOL    HW215355  10.069   2.896   2.271 -0.8320 -2.4307 -0.6376
36507SOL     OW15356   6.542   3.604   6.966 -0.5577  0.4394 -0.0994
36507SOL    HW115357   6.620   3.659   6.956  0.3502 -1.1202 -2.6072
36507SOL    HW215358   6.576   3.519   6.994 -1.2777 -0.2944 -1.3329
36508SOL     OW15359   9.070   9.984   3.793  0.1554  0.2851  0.1633
36508SOL    HW115360   8.998   9.948   3.740  0.9520  1.2303 -1.6564
36508SOL    HW215361   9.034   9.988   3.882 -1.2606 -1.3567 -0.2557
36509SOL     OW15362  10.538  10.586   0.875 -0.2457  0.0507 -0.6039
36509SOL    HW115363  10.605  10.537   0.827  0.6210  1.8884 -1.3938
36509SOL    HW215364  10.457  10.571   0.827 -0.4195 -1.9713  0.1980
36510SOL     OW15365   2.990   7.691   1.296 -0.1959  0.2828 -0.3906
36510SOL    HW115366   2.960   7.602   1.279  1.0198 -0.1777 -0.2487
36510SOL    HW215367   2.989   7.700   1.391 -1.7885  0.9791 -0.4400
36511SOL     OW15368   5.492   5.580   8.339  0.0509 -0.2432 -0.2584
36511SOL    HW115369   5.537   5.617   8.415  1.0240 -0.3121 -0.7884
36511SOL    HW215370   5.476   5.489   8.364 -0.1661 -0.1139  0.0885
36512SOL     OW15371   2.744   1.797   1.803  0.0033  0.4670 -0.4575
36512SOL    HW115372   2.785   1.787   1.889  0.4073  1.9783 -0.4351
36512SOL    HW215373   2.734   1.892   1.793  0.9040  0.3848 -2.5137
36513SOL     OW15374   2.194  10.519   2.348 -0.5851  0.2899  0.2529
36513SOL    HW115375   2.145  10.586   2.396 -2.0320  1.1141 -2.2463
36513SOL    HW215376   2.130  10.479   2.290  0.9764 -1.0429 -0.6337
36514SOL     OW15377   3.915   1.256   3.800  0.4084 -0.4287 -0.1302
36514SOL    HW115378   3.908   1.186   3.865 -0.7953  0.0849  0.3174
36514SOL    HW215379   3.825   1.276   3.776  0.8028 -0.2393 -1.5902
36515SOL     OW15380   6.238  10.568   2.337  0.2036 -0.0709 -0.0112
36515SOL    HW115381   6.307  10.634   2.346 -0.2587  0.4120 -0.0181
36515SOL    HW215382   6.264  10.498   2.397  1.1778 -0.2981 -0.6761
36516SOL     OW15383  10.364   6.733   2.917 -0.0422  0.0100  0.2022
36516SOL    HW115384  10.429   6.775   2.974  1.4239 -0.8668 -0.7707
36516SOL    HW215385  10.289   6.716   2.975  1.1053 -0.1955  1.6855
36517SOL     OW15386  10.481   2.082   8.929  0.1786 -0.3547 -0.3489
36517SOL    HW115387  10.472   2.141   8.854  1.7219 -0.0602 -0.3451
36517SOL    HW215388  10.554   2.118   8.979 -0.4474 -0.8800  1.0061
36518SOL     OW15389   7.964   7.307   9.340 -0.8351 -0.2354  0.0459
36518SOL    HW115390   7.900   7.246   9.379  0.5094  0.0901  3.0388
36518SOL    HW215391   8.043   7.255   9.327 -0.4597  0.2743  0.2373
36519SOL     OW15392   6.432   8.069   8.458 -0.1360  0.4207 -0.0616
36519SOL    HW115393   6.438   8.135   8.389 -1.4567  1.3992  0.7255
36519SOL    HW215394   6.430   7.986   8.410 -1.0585  1.0725 -1.2329
36520SOL     OW15395   1.151   6.859  10.690  0.0427  0.0122  0.3383
36520SOL    HW115396   1.220   6.924  10.682  1.7385 -1.8325 -1.3259
36520SOL    HW215397   1.078   6.905  10.730  1.6750  2.4834  0.6560
36521SOL     OW15398   4.020   4.387   2.641  0.2611  0.5476 -0.2793
36521SOL    HW115399   3.959   4.392   2.715 -0.3122  0.8877 -0.7680
36521SOL    HW215400   4.099   4.347   2.678  0.0670  0.9218  0.5718
36522SOL     OW15401   4.995   2.087   5.132  0.1648  0.4293  0.2194
36522SOL    HW115402   5.009   2.115   5.041  0.0585 -0.2857 -0.0299
36522SOL    HW215403   4.942   2.008   5.124 -0.5549  0.8225  0.9512
36523SOL     OW15404   7.157   4.378   8.086  0.3894 -0.1639 -0.2045
36523SOL    HW115405   7.119   4.450   8.137  0.5642  1.5126 -2.3119
36523SOL    HW215406   7.082   4.337   8.043  0.4277 -0.4366 -0.0156
36524SOL     OW15407   5.360   5.881   8.989 -0.3532  0.4435  0.0714
36524SOL    HW115408   5.368   5.852   8.898  0.3720  0.9184 -0.0309
36524SOL    HW215409   5.380   5.975   8.985  1.3743  0.1414  0.9470
36525SOL     OW15410  10.639   9.979   7.524  0.7302 -0.2998 -0.4351
36525SOL    HW115411  10.691   9.914   7.477 -0.3294  0.6150 -3.0724
36525SOL    HW215412  10.570   9.928   7.567  1.3773 -1.1219 -0.3443
36526SOL     OW15413   1.568  10.155   9.653  0.3701 -0.1432  0.2394
36526SOL    HW115414   1.508  10.085   9.627  1.0122 -0.2012 -1.2033
36526SOL    HW215415   1.650  10.110   9.672  0.3133  0.0620  1.0103
36527SOL     OW15416   0.456   0.299   4.787 -0.2301  0.1341  0.3789
36527SOL    HW115417   0.491   0.313   4.875 -1.8290  3.1519  0.6642
36527SOL    HW215418   0.372   0.255   4.801 -0.0939 -0.1727  0.2587
36528SOL     OW15419   0.275   2.112   5.498  0.3483 -0.3269 -0.3603
36528SOL    HW115420   0.192   2.072   5.524  0.8027 -0.7788  0.4326
36528SOL    HW215421   0.296   2.071   5.415 -0.9335  0.8467 -1.3017
36529SOL     OW15422   7.822   0.996   3.580 -0.4695  0.0367 -0.2873
36529SOL    HW115423   7.893   0.932   3.584 -0.9639 -0.5086  0.0806
36529SOL    HW215424   7.856   1.067   3.526  0.6286  0.1304  0.4808
36530SOL     OW15425   0.013   1.152   8.812 -0.3945 -0.3780 -0.2090
36530SOL    HW115426  -0.008   1.059   8.823 -2.2447  0.2207  2.0673
36530SOL    HW215427   0.029   1.185   8.900 -0.5148  1.6203 -0.8654
36531SOL     OW15428   6.363   9.534   8.991 -0.2929 -0.4143  0.3641
36531SOL    HW115429   6.373   9.442   8.966 -0.5110 -0.2890 -0.1972
36531SOL    HW215430   6.286   9.535   9.048 -0.2193 -0.5961  0.4674
36532SOL     OW15431   5.354   8.821   9.583  0.4363  0.4692  0.3184
36532SOL    HW115432   5.348   8.728   9.607 -1.5872 -0.0081 -1.6395
36532SOL    HW215433   5.355   8.821   9.488  1.0934  2.4639  0.2852
36533SOL     OW15434   8.723   2.036   5.141  0.3255  0.4411 -0.1360
36533SOL    HW115435   8.708   1.949   5.179 -0.5517  0.8220  0.4220
36533SOL    HW215436   8.659   2.043   5.070 -0.1180  0.9190  0.3069
36534SOL     OW15437   1.280   1.587   6.660  0.7032  0.3130  0.5104
36534SOL    HW115438   1.312   1.675   6.677  0.5176  0.7000 -1.0181
36534SOL    HW215439   1.284   1.577   6.565 -0.8351 -0.7251  0.5079
36535SOL     OW15440   5.812   1.701   5.014  0.0895 -0.6004 -0.5278
36535SOL    HW115441   5.790   1.790   4.984 -0.8275 -0.1003  1.4615
36535SOL    HW215442   5.908   1.702   5.023  0.2473 -0.3282 -1.9637
36536SOL     OW15443   8.765   3.774   2.432  0.2148 -0.4892  0.0788
36536SOL    HW115444   8.854   3.791   2.465  0.7155  1.5901 -2.0825
36536SOL    HW215445   8.777   3.705   2.367  0.0847 -0.8747  0.4619
36537SOL     OW15446   8.121   6.124   4.578  0.5049 -0.2285 -0.0688
36537SOL    HW115447   8.156   6.190   4.520 -0.2472 -0.0471 -0.3262
36537SOL    HW215448   8.192   6.107   4.641  1.4001 -0.5805 -1.1448
36538SOL     OW15449   4.705  10.404   0.334  0.1995  0.5806 -0.0057
36538SOL    HW115450   4.722  10.417   0.241  0.9623  0.5932  0.1267
36538SOL    HW215451   4.645  10.329   0.338  0.2599  0.5031 -0.4962
36539SOL     OW15452   1.033   6.494   8.635  0.1651  0.9244 -0.1377
36539SOL    HW115453   1.117   6.461   8.666  0.5907  2.9785  1.0652
36539SOL    HW215454   1.053   6.538   8.552  0.3686  1.7198  0.3227
36540SOL     OW15455   8.979   6.763   4.093 -0.3501 -0.4832 -0.0596
36540SOL    HW115456   9.007   6.795   4.179  0.1497  0.9739 -0.7238
36540SOL    HW215457   9.060   6.753   4.044 -0.5306 -2.4633 -0.0308
36541SOL     OW15458   8.410   1.975   3.540  0.3071 -0.2126 -0.0538
36541SOL    HW115459   8.348   1.975   3.467  0.0515 -0.7075  0.1529
36541SOL    HW215460   8.421   1.882   3.561  0.6405 -0.0919  0.3150
36542SOL     OW15461   7.189  10.692   0.602 -0.5053 -0.3905 -0.5974
36542SOL    HW115462   7.148  10.717   0.685 -0.6117  2.6864 -1.4411
36542SOL    HW215463   7.275  10.659   0.627 -0.7848 -0.1552  0.7610
36543SOL     OW15464   8.727   8.972   3.776  0.7990 -0.0119  0.0096
36543SOL    HW115465   8.685   9.040   3.829  1.9390  1.3176 -0.7303
36543SOL    HW215466   8.654   8.928   3.732  0.1294  2.6639 -1.7611
36544SOL     OW15467   8.354   6.787   2.059  0.3762 -0.1454 -0.0815
36544SOL    HW115468   8.274   6.745   2.090 -0.3037  0.9924 -0.2257
36544SOL    HW215469   8.346   6.786   1.964 -0.1662  1.1949 -0.0833
36545SOL     OW15470   2.515   1.768   1.437 -0.5948 -0.4903 -0.2505
36545SOL    HW115471   2.534   1.699   1.501 -0.6488 -0.0855  0.2052
36545SOL    HW215472   2.593   1.824   1.438 -0.6404 -0.4225 -0.4580
36546SOL     OW15473   8.073   6.885   3.469  0.3510 -0.6257 -0.2918
36546SOL    HW115474   8.001   6.872   3.407 -1.1083 -0.6679  1.3405
36546SOL    HW215475   8.111   6.969   3.445  0.7083 -1.2353 -2.0555
36547SOL     OW15476   4.958   5.977   0.153  0.4264 -0.3067 -0.1661
36547SOL    HW115477   5.026   5.921   0.191  0.3313 -0.6180 -0.4512
36547SOL    HW215478   4.978   5.978   0.059  1.4258  1.4817  0.0113
36548SOL     OW15479   4.126   2.590   7.500  0.4848 -0.1323 -0.2210
36548SOL    HW115480   4.177   2.671   7.505  1.1657 -0.4076 -1.8608
36548SOL    HW215481   4.036   2.619   7.485  0.2806  0.3333  1.6173
36549SOL     OW15482   4.106   3.560   3.928  0.2347  0.1145 -0.3544
36549SOL    HW115483   4.069   3.638   3.969 -0.3242 -0.6157  0.5562
36549SOL    HW215484   4.064   3.557   3.842 -2.8101 -1.2784  1.0289
36550SOL     OW15485   6.815   7.588   1.275 -0.1053  0.3372  0.1446
36550SOL    HW115486   6.896   7.638   1.276  0.1218  0.0394 -1.1142
36550SOL    HW215487   6.775   7.608   1.190 -0.5679 -0.7122  0.0920
36551SOL     OW15488   5.635   7.165   6.906  0.1406  0.2293 -0.2202
36551SOL    HW115489   5.662   7.250   6.871  1.0016  1.8082  3.8228
36551SOL    HW215490   5.711   7.133   6.953 -0.6333 -2.2067 -0.5166
36552SOL     OW15491  10.029   2.209   5.259  0.6209  0.0022 -0.2767
36552SOL    HW115492   9.937   2.232   5.246  0.9785  1.4667 -0.3482
36552SOL    HW215493  10.048   2.147   5.188 -0.7001 -1.5524  0.6697
36553SOL     OW15494   0.576   4.185   6.786 -0.3381  0.4265  0.6857
36553SOL    HW115495   0.504   4.141   6.741 -0.1274  1.8100 -1.1152
36553SOL    HW215496   0.592   4.132   6.864 -0.5503 -2.2478 -0.9851
36554SOL     OW15497   3.009   4.203   6.174  0.2811 -0.3466  0.7335
36554SOL    HW115498   3.101   4.220   6.192  0.8880  1.1530 -2.9483
36554SOL    HW215499   3.004   4.108   6.163  1.1787 -0.5265  1.7152
36555SOL     OW15500   9.729   0.270   5.248 -0.0352  0.0921  0.6161
36555SOL    HW115501   9.663   0.257   5.180  0.7717 -0.7033 -0.0457
36555SOL    HW215502   9.801   0.213   5.222  0.1307 -0.5680  2.3872
36556SOL     OW15503   4.386  10.073   7.538  0.0120 -0.3595 -0.2658
36556SOL    HW115504   4.355  10.016   7.608  1.3561  0.3235  0.9552
36556SOL    HW215505   4.440  10.017   7.483  0.7323 -0.4514  0.5157
36557SOL     OW15506   0.120  10.430   4.706  0.2533  0.0626  0.5647
36557SOL    HW115507   0.034  10.418   4.665  0.7605  0.1491 -0.5800
36557SOL    HW215508   0.114  10.384   4.789 -1.5593  1.7123  1.4390
36558SOL     OW15509   2.564   2.943   2.807 -0.3973 -0.3545 -0.0973
36558SOL    HW115510   2.652   2.910   2.787 -0.0822  0.6847 -0.5058
36558SOL    HW215511   2.548   2.914   2.896  0.3038 -0.6945 -0.0708
36559SOL     OW15512   5.147   4.850   3.486 -0.3632  0.9925  0.0616
36559SOL    HW115513   5.135   4.841   3.392 -0.2953  1.2902  0.0226
36559SOL    HW215514   5.114   4.938   3.506 -0.3581  0.9384  0.3117
36560SOL     OW15515   4.237   5.102   1.170 -0.3090  0.1069 -0.4048
36560SOL    HW115516   4.312   5.159   1.155  0.2786  0.7612  3.8060
36560SOL    HW215517   4.275   5.016   1.191 -0.8896 -0.1840 -0.5055
36561SOL     OW15518   9.898   0.793   8.288 -0.1033 -0.2846  0.2620
36561SOL    HW115519   9.972   0.768   8.344 -0.9594 -2.4382  0.5399
36561SOL    HW215520   9.874   0.713   8.242 -0.5696  1.0092 -1.9042
36562SOL     OW15521   6.471   1.727  10.257 -0.1598  0.0799  0.1193
36562SOL    HW115522   6.413   1.770  10.194 -0.6779 -0.9395 -0.1190
36562SOL    HW215523   6.441   1.760  10.342 -1.4554 -0.8250  0.0412
36563SOL     OW15524   8.413   8.077   2.216  0.0425  0.5317 -0.2338
36563SOL    HW115525   8.352   8.115   2.153  0.0094  0.3169 -0.3294
36563SOL    HW215526   8.497   8.119   2.196 -0.3204  1.8101  0.7249
36564SOL     OW15527   2.858   9.551  10.462 -0.1856  0.1340  0.0627
36564SOL    HW115528   2.877   9.599  10.543  0.6487  1.0484 -0.6544
36564SOL    HW215529   2.896   9.465  10.477 -1.0029 -0.0796  1.0565
36565SOL     OW15530   4.331   2.356   8.626  0.1340  0.1203  0.0092
36565SOL    HW115531   4.409   2.404   8.653 -0.0070  0.7475 -0.6755
36565SOL    HW215532   4.284   2.339   8.708  0.6558  0.3130  0.3534
36566SOL     OW15533   7.229   1.470   8.888  0.4123  0.1637  0.2648
36566SOL    HW115534   7.322   1.454   8.871  0.2636 -0.9865  0.4259
36566SOL    HW215535   7.196   1.505   8.805  0.4021 -2.2447 -0.8649
36567SOL     OW15536   7.952  10.367   5.366  0.5412  0.6098  0.3455
36567SOL    HW115537   7.903  10.449   5.363  0.1083  0.3501 -2.1676
36567SOL    HW215538   7.928  10.328   5.450  1.2498  3.2760  1.9096
36568SOL     OW15539   4.549  10.086   9.991 -0.8860  0.5126  0.9724
36568SOL    HW115540   4.562  10.064  10.083  0.3763 -1.5845  0.3536
36568SOL    HW215541   4.562  10.004   9.944  0.5608  1.8896 -1.2408
36569SOL     OW15542   2.817   0.961   6.980 -0.0592  0.1577  0.5923
36569SOL    HW115543   2.821   0.977   6.885  0.3383 -2.1651  0.1549
36569SOL    HW215544   2.863   1.035   7.018 -0.2793  1.1851 -1.0235
36570SOL     OW15545   1.957   6.542   1.121 -0.3578  0.4341 -0.2574
36570SOL    HW115546   1.996   6.457   1.142  0.7887  1.0999  0.4127
36570SOL    HW215547   1.864   6.524   1.113 -0.0128 -1.0835 -1.2118
36571SOL     OW15548   2.022   4.971   3.147  0.2129 -0.1065  0.0408
36571SOL    HW115549   1.933   4.935   3.140  0.1924 -0.1173  0.3295
36571SOL    HW215550   2.044   4.998   3.058  0.2168 -0.8004 -0.1745
36572SOL     OW15551   5.378   8.486   6.066 -0.5686 -0.3028  0.5440
36572SOL    HW115552   5.319   8.472   5.992  0.2670 -0.6511 -0.0642
36572SOL    HW215553   5.460   8.515   6.026 -0.4965  0.7568  1.4158
36573SOL     OW15554   1.021   7.653   2.019 -0.5299 -0.5561  0.3671
36573SOL    HW115555   1.065   7.734   2.043 -0.8863  0.0848 -1.0496
36573SOL    HW215556   1.092   7.590   2.004 -0.1674 -0.0032 -0.2585
36574SOL     OW15557   7.584   6.676   1.122 -0.3289  0.0507  0.0421
36574SOL    HW115558   7.499   6.688   1.165  0.3255  2.0375  0.8750
36574SOL    HW215559   7.584   6.739   1.050  0.6145  0.4091  0.3394
36575SOL     OW15560   5.138   1.873   4.326 -0.5245  1.0859 -0.1680
36575SOL    HW115561   5.075   1.918   4.269 -0.7656  0.4720 -0.3949
36575SOL    HW215562   5.208   1.845   4.267 -1.2231 -0.3686 -0.3414
36576SOL     OW15563   5.771   8.037   2.011  0.3079 -0.0971 -0.0969
36576SOL    HW115564   5.803   7.965   1.957 -0.3948  0.1142 -0.8115
36576SOL    HW215565   5.824   8.113   1.983  0.7153 -0.2256  0.3134
36577SOL     OW15566   2.106   3.060   0.982  0.0337  0.1190  0.3361
36577SOL    HW115567   2.096   3.155   0.975  0.2104  0.0654 -0.9713
36577SOL    HW215568   2.017   3.026   0.978  0.0201  0.1952 -0.1546
36578SOL     OW15569   8.990   5.425   9.848  0.0964  0.0396  0.4091
36578SOL    HW115570   8.981   5.485   9.774 -0.4406  0.1990  0.5928
36578SOL    HW215571   8.929   5.353   9.828 -1.3204  0.8864  1.4532
36579SOL     OW15572   3.714   1.103   7.690 -0.5424  0.3283 -0.1059
36579SOL    HW115573   3.714   1.187   7.736  2.8489  0.4328 -0.0380
36579SOL    HW215574   3.716   1.126   7.597  2.1423  0.4784 -0.0751
36580SOL     OW15575   4.574   5.739  10.459 -0.0371 -0.8023 -0.2291
36580SOL    HW115576   4.598   5.723  10.368 -0.6012  0.7517 -0.6805
36580SOL    HW215577   4.650   5.783  10.497 -0.5490  0.3671 -0.5211
36581SOL     OW15578   1.990   9.606  10.599  0.6480 -0.4972  0.0313
36581SOL    HW115579   2.056   9.673  10.583 -0.0342  0.2123  0.1395
36581SOL    HW215580   2.025   9.527  10.557 -0.9433  1.1452 -5.1582
36582SOL     OW15581   3.908   9.961   4.182  0.2368 -0.6277  0.2074
36582SOL    HW115582   3.930   9.979   4.091 -1.6773  0.9840 -0.0089
36582SOL    HW215583   3.960  10.024   4.232  0.5351 -0.8378  0.1656
36583SOL     OW15584   3.419   5.041   6.493 -0.2098  0.2294 -0.0472
36583SOL    HW115585   3.337   5.003   6.463  0.1546 -0.7175  0.1325
36583SOL    HW215586   3.436   4.999   6.577 -1.1578  2.7663  1.5268
36584SOL     OW15587   1.863   5.230  10.623 -0.0123  0.2499  0.1134
36584SOL    HW115588   1.949   5.267  10.605  0.2564 -0.6828 -0.6128
36584SOL    HW215589   1.871   5.138  10.597 -1.2697  0.1971 -0.1417
36585SOL     OW15590   0.899   1.029   2.877 -0.1611  0.3320 -0.3172
36585SOL    HW115591   0.806   1.034   2.899 -0.5151  0.2469 -1.6768
36585SOL    HW215592   0.923   1.118   2.854  0.0404  0.3132 -0.1828
36586SOL     OW15593   0.697   3.536   5.469 -0.2285 -0.6533 -0.0779
36586SOL    HW115594   0.699   3.542   5.373  1.0350 -1.4884 -0.1275
36586SOL    HW215595   0.662   3.449   5.487  0.4898 -0.8958  0.1859
36587SOL     OW15596   0.614   5.606   1.769  0.1399 -0.1280  0.6455
36587SOL    HW115597   0.533   5.628   1.722 -0.6243 -1.0429  1.5026
36587SOL    HW215598   0.621   5.673   1.837 -0.4851 -0.6522  1.2438
36588SOL     OW15599   7.972   2.052   7.228  0.4558 -0.3229  0.9034
36588SOL    HW115600   7.991   2.056   7.134 -2.6253  1.8137  0.2056
36588SOL    HW215601   7.894   1.997   7.235 -0.3475  0.8791  1.9357
36589SOL     OW15602   6.988   9.942   0.192  0.1026 -0.2585  0.2711
36589SOL    HW115603   6.967   9.857   0.230  0.1609 -0.6552 -0.5738
36589SOL    HW215604   6.979   9.930   0.098  0.2785  0.6265  0.1287
36590SOL     OW15605   2.240   4.473   1.737 -0.9385  0.1895 -0.1855
36590SOL    HW115606   2.204   4.527   1.667  1.0966  0.6441 -0.9465
36590SOL    HW215607   2.236   4.384   1.703  0.2679  0.4329 -1.0235
36591SOL     OW15608   8.241   0.435   7.380  0.6782 -0.6085 -0.2789
36591SOL    HW115609   8.149   0.457   7.362  0.2715 -0.3961  1.8285
36591SOL    HW215610   8.276   0.513   7.423  1.8715 -0.6803 -1.0818
36592SOL     OW15611   3.999   0.667   7.378  0.0283 -0.3781  0.3888
36592SOL    HW115612   4.014   0.746   7.430  0.5718 -0.2959  0.1151
36592SOL    HW215613   4.081   0.618   7.384  0.6499  0.3160 -1.5458
36593SOL     OW15614   7.255   7.247   2.048 -0.4374 -0.0195 -0.4378
36593SOL    HW115615   7.273   7.219   2.138 -0.7390 -2.0056 -0.9339
36593SOL    HW215616   7.283   7.338   2.045  0.8832 -0.3049  1.2892
36594SOL     OW15617   5.476   2.470   5.514  0.0221 -0.6485 -0.2175
36594SOL    HW115618   5.496   2.414   5.439 -1.8393  1.0437 -2.1178
36594SOL    HW215619   5.424   2.542   5.477 -2.2820 -0.4815  2.9056
36595SOL     OW15620   5.443   9.420   5.492 -0.6600  0.0981  0.0949
36595SOL    HW115621   5.374   9.395   5.553 -1.2315  0.4044 -0.4108
36595SOL    HW215622   5.405   9.493   5.442 -0.1067  0.0289 -0.4384
36596SOL     OW15623   9.262   8.650   9.258 -0.4602 -0.5247 -0.1222
36596SOL    HW115624   9.317   8.637   9.181  1.0699  1.5251  0.5552
36596SOL    HW215625   9.200   8.718   9.232 -1.4896 -1.4684 -0.2451
36597SOL     OW15626   5.248   1.051   6.343 -0.0768 -1.5059  0.2499
36597SOL    HW115627   5.182   1.004   6.394 -1.0818 -1.1698 -0.6821
36597SOL    HW215628   5.247   1.140   6.378 -1.7390 -0.9025 -1.1327
36598SOL     OW15629   9.863   8.773   1.335  0.8610  0.1246 -0.5506
36598SOL    HW115630   9.810   8.814   1.267  0.2927  0.4630  0.0835
36598SOL    HW215631   9.913   8.705   1.289 -0.0690 -0.1493 -1.1760
36599SOL     OW15632   0.429  10.083   5.507 -0.0316  0.2587  0.1808
36599SOL    HW115633   0.505  10.065   5.452 -0.0732 -1.6178  0.6520
36599SOL    HW215634   0.449  10.039   5.590 -1.0411  0.9261  0.8079
36600SOL     OW15635   7.356   9.617   1.069  0.1248  0.4797  0.6480
36600SOL    HW115636   7.306   9.642   1.146  1.3088 -0.2439  1.6927
36600SOL    HW215637   7.392   9.531   1.091  1.2023  0.6496 -0.3482
36601SOL     OW15638   5.017   4.576   6.553  0.8295 -0.2801  0.2674
36601SOL    HW115639   4.994   4.543   6.640 -0.5531  0.1419  0.0792
36601SOL    HW215640   4.935   4.573   6.503  2.1367 -3.3219 -1.9771
36602SOL     OW15641   1.615   2.353   8.175  0.0415  0.1348 -0.3197
36602SOL    HW115642   1.633   2.261   8.154  1.5238 -0.3133  2.4089
36602SOL    HW215643   1.689   2.400   8.136  0.6606 -0.1820  0.4423
36603SOL     OW15644   4.814   5.395   2.779  0.1375 -0.1315 -0.3209
36603SOL    HW115645   4.865   5.321   2.811 -0.8928 -0.2041  1.2861
36603SOL    HW215646   4.744   5.355   2.726  0.5731 -0.1633 -0.8861
36604SOL     OW15647   6.882   5.754   0.094 -0.6663  0.3908 -0.1405
36604SOL    HW115648   6.904   5.785   0.182  0.9327  0.7861 -0.6534
36604SOL    HW215649   6.822   5.680   0.109  0.4241 -0.2411  1.3298
36605SOL     OW15650   6.424   2.303   6.625 -0.5254 -0.3798 -0.0493
36605SOL    HW115651   6.376   2.364   6.568 -2.3527 -2.1910 -0.5611
36605SOL    HW215652   6.429   2.348   6.709 -0.9943  0.8510 -0.6537
36606SOL     OW15653   4.491   8.035   4.306  0.4048  0.1345 -0.1477
36606SOL    HW115654   4.548   8.038   4.229  0.2379  2.1127 -0.2685
36606SOL    HW215655   4.530   7.969   4.362  1.4146 -0.2715 -1.2751
36607SOL     OW15656   0.118   1.386   1.804  0.6681  0.0950 -0.5952
36607SOL    HW115657   0.066   1.315   1.841 -2.5848  1.7888 -1.5541
36607SOL    HW215658   0.132   1.360   1.713  0.4453  0.1907 -0.6563
36608SOL     OW15659   1.953   8.590   2.632  0.1881 -0.3264 -0.4427
36608SOL    HW115660   1.940   8.619   2.723  0.8631  3.1422 -1.3052
36608SOL    HW215661   1.870   8.549   2.607  0.4537 -2.7191  2.0790
36609SOL     OW15662   1.829   4.314  10.239 -0.1580 -0.7236 -0.3194
36609SOL    HW115663   1.780   4.286  10.316  0.7185 -1.9880 -0.1946
36609SOL    HW215664   1.904   4.361  10.274 -1.1654  1.1220 -0.5079
36610SOL     OW15665   6.702   3.415   3.786  0.3739 -0.0474 -0.1628
36610SOL    HW115666   6.686   3.325   3.759  2.3125 -0.3866 -0.3356
36610SOL    HW215667   6.732   3.459   3.707 -0.2568  0.6887 -0.0061
36611SOL     OW15668   4.464   1.251   0.380  0.3116 -0.3335  0.2149
36611SOL    HW115669   4.475   1.189   0.452 -0.4497 -0.1069  0.5361
36611SOL    HW215670   4.388   1.218   0.331 -0.0622  0.2933  0.3525
36612SOL     OW15671   1.640   2.221   0.402  0.3000 -0.3994  0.3459
36612SOL    HW115672   1.595   2.229   0.486  0.5452 -0.2328  0.4636
36612SOL    HW215673   1.681   2.306   0.389 -0.8594  0.0415 -0.5955
36613SOL     OW15674  10.188   4.270   8.802 -0.2362  0.6741  0.1023
36613SOL    HW115675  10.226   4.193   8.846  3.3872  1.6327 -1.0473
36613SOL    HW215676  10.146   4.234   8.724  1.5685 -0.2358 -0.5182
36614SOL     OW15677   0.026   0.945   7.803 -0.8544  0.2670  0.4027
36614SOL    HW115678   0.088   0.880   7.771  0.2365  0.8903  1.2011
36614SOL    HW215679   0.071   1.029   7.795 -1.7891  0.7947  0.5065
36615SOL     OW15680   5.779   1.923   5.543  0.3234  0.3179  0.0679
36615SOL    HW115681   5.716   1.995   5.541 -0.1981 -0.1482 -0.7948
36615SOL    HW215682   5.790   1.898   5.452 -1.1057 -2.0641  0.4620
36616SOL     OW15683   4.159   0.299   0.563  0.2221 -0.3784  0.1304
36616SOL    HW115684   4.220   0.309   0.636  0.7277 -0.7567 -0.2321
36616SOL    HW215685   4.075   0.278   0.604  0.7426 -1.7159  0.5687
36617SOL     OW15686   5.806  10.058   0.111 -0.2387  0.3634  0.3727
36617SOL    HW115687   5.801  10.134   0.169 -0.3251  1.1534 -0.6533
36617SOL    HW215688   5.743  10.076   0.042  0.3265 -0.2687 -0.3224
36618SOL     OW15689   2.320   4.789   8.068  0.5730 -0.1649  0.2712
36618SOL    HW115690   2.332   4.702   8.107 -1.3605 -0.6915 -0.1716
36618SOL    HW215691   2.325   4.849   8.141  0.7716 -0.7620  0.7577
36619SOL     OW15692   2.727   2.916   0.153  0.3807  0.4921  0.2451
36619SOL    HW115693   2.718   2.843   0.091  0.5230  0.9848 -0.3644
36619SOL    HW215694   2.651   2.972   0.135 -1.0555 -0.6770  2.3337
36620SOL     OW15695   8.210   8.197   1.947  0.7899  0.1466 -0.6014
36620SOL    HW115696   8.289   8.208   1.895  1.2200  0.1296  0.0328
36620SOL    HW215697   8.187   8.286   1.976  0.0124  0.2828 -1.5760
36621SOL     OW15698   3.628   7.611   3.239 -0.0917  0.7285  0.4995
36621SOL    HW115699   3.534   7.593   3.241  0.2845 -1.5281  0.2624
36621SOL    HW215700   3.652   7.603   3.146  0.8369 -1.9183  0.9047
36622SOL     OW15701   7.995   2.349   2.372  0.4489  0.5598 -0.6277
36622SOL    HW115702   7.983   2.433   2.326 -2.5506  0.2856 -0.5743
36622SOL    HW215703   7.962   2.283   2.310 -2.0464  0.0091  1.1183
36623SOL     OW15704   8.426   6.716   2.896  0.0535 -0.2317 -0.2346
36623SOL    HW115705   8.428   6.803   2.936 -0.0322  0.4204 -1.5828
36623SOL    HW215706   8.470   6.728   2.812 -1.5330 -1.0795 -1.2322
36624SOL     OW15707   4.996   5.076   1.268  0.1330 -0.2179 -0.1165
36624SOL    HW115708   4.922   5.094   1.210  1.1891  0.9277 -1.1649
36624SOL    HW215709   4.973   4.994   1.312 -1.0241 -0.7340 -1.6153
36625SOL     OW15710   3.173   0.709   1.664 -0.4406  0.1596 -0.0322
36625SOL    HW115711   3.138   0.623   1.687 -0.8932  0.2903 -0.2243
36625SOL    HW215712   3.224   0.736   1.741  0.3674 -0.6226 -0.2724
36626SOL     OW15713   0.582  10.441   0.843 -0.3330  0.1779  1.2132
36626SOL    HW115714   0.513  10.465   0.904 -0.7772 -1.5046  1.4457
36626SOL    HW215715   0.561  10.350   0.818  0.8515  0.2076 -0.0234
36627SOL     OW15716   5.191   7.824   1.352 -0.3383  0.1757  0.8992
36627SOL    HW115717   5.150   7.743   1.382 -0.3209  0.7312  2.5489
36627SOL    HW215718   5.120   7.874   1.312 -0.1702 -0.9812 -0.9220
36628SOL     OW15719   0.946   5.807   1.994  0.1038 -0.5395 -0.1557
36628SOL    HW115720   0.942   5.900   1.972 -1.3027 -0.0216  1.9170
36628SOL    HW215721   0.898   5.764   1.924 -1.6528  0.6514  0.2468
36629SOL     OW15722   7.553   5.834   5.537  0.3014 -0.1539 -0.7922
36629SOL    HW115723   7.465   5.801   5.557  0.0221 -1.0964 -3.2232
36629SOL    HW215724   7.593   5.849   5.623 -1.9658 -0.3891  0.3814
36630SOL     OW15725  10.345   3.831   9.340 -0.3596  0.2170  0.1634
36630SOL    HW115726  10.265   3.870   9.375 -0.5906 -0.5715  0.5458
36630SOL    HW215727  10.336   3.738   9.359  0.0782 -0.0600 -0.9122
36631SOL     OW15728  10.326   3.951   7.581  0.0774  0.1099 -0.4545
36631SOL    HW115729  10.334   4.043   7.556  0.2053  0.7333  1.7427
36631SOL    HW215730  10.411   3.912   7.559  0.9377  1.1345  0.9387
36632SOL     OW15731   6.564   7.812   3.255  0.2140 -0.1828  0.2914
36632SOL    HW115732   6.585   7.837   3.165  0.8136  1.1246  0.7647
36632SOL    HW215733   6.470   7.794   3.254  0.4934 -1.7109 -0.9175
36633SOL     OW15734   4.408   1.100   3.892  0.3124  0.8918 -0.8094
36633SOL    HW115735   4.335   1.103   3.831 -1.3284 -1.0497  0.9051
36633SOL    HW215736   4.465   1.032   3.858 -0.1029  0.4887 -0.7043
36634SOL     OW15737   1.433   3.571   2.438 -0.8284 -0.4066  0.6970
36634SOL    HW115738   1.508   3.544   2.385 -1.2632  2.2681 -1.5088
36634SOL    HW215739   1.462   3.558   2.528  1.5129 -1.3279 -0.0977
36635SOL     OW15740   2.837   7.566   3.699  0.3167 -0.0855 -0.5439
36635SOL    HW115741   2.887   7.631   3.748 -0.0476  0.2255 -0.5776
36635SOL    HW215742   2.781   7.618   3.641 -0.5709 -0.4047  0.0072
36636SOL     OW15743   6.285   0.074   2.141 -0.5795 -0.2212  0.5011
36636SOL    HW115744   6.328   0.156   2.164 -0.5200  0.1056 -0.6865
36636SOL    HW215745   6.311   0.013   2.210  1.0574  0.2042  0.3051
36637SOL     OW15746   3.275   6.885   8.591 -0.0656  0.0274 -0.4346
36637SOL    HW115747   3.244   6.878   8.501 -1.0821 -0.4004 -0.0641
36637SOL    HW215748   3.263   6.797   8.627  1.6249 -0.1639 -0.2732
36638SOL     OW15749   2.053   8.824   2.488  0.0373  0.1027 -0.0888
36638SOL    HW115750   1.964   8.861   2.487  0.4877  1.2773  1.0661
36638SOL    HW215751   2.043   8.741   2.535 -0.2717  0.7966  1.1216
36639SOL     OW15752   7.748  10.713   5.962  0.3444  0.1722 -0.6282
36639SOL    HW115753   7.758  10.629   6.005 -2.1696  1.1487  2.2332
36639SOL    HW215754   7.661  10.711   5.923  0.7226  1.0408 -1.5908
36640SOL     OW15755   4.487  10.700   3.797 -0.4849  0.1091  0.0002
36640SOL    HW115756   4.581  10.692   3.814 -0.5011  0.0904  0.0814
36640SOL    HW215757   4.448  10.625   3.842 -0.5518  0.1862  0.0693
36641SOL     OW15758   6.976   3.064   2.804 -0.2273  0.0650  0.7133
36641SOL    HW115759   7.053   3.098   2.850 -1.0378  0.6743  1.6461
36641SOL    HW215760   6.977   3.109   2.719  1.1495 -0.9020  0.1773
36642SOL     OW15761   0.237   0.054  10.520  0.3360  0.6391  0.0709
36642SOL    HW115762   0.309   0.101  10.561 -0.3778  1.7804  0.0746
36642SOL    HW215763   0.191   0.012  10.592  1.1659 -0.3622  0.0361
36643SOL     OW15764   8.588   1.487   1.203 -0.1572  0.0868  0.4664
36643SOL    HW115765   8.608   1.553   1.137 -0.1963  0.5121  0.8724
36643SOL    HW215766   8.524   1.429   1.161 -0.7776  0.8062  0.4029
36644SOL     OW15767   9.529   9.482   7.224 -0.0142 -0.6554 -0.0493
36644SOL    HW115768   9.552   9.389   7.228 -0.3460 -0.7080  0.8878
36644SOL    HW215769   9.435   9.482   7.209  0.0923 -0.4605 -0.7317
36645SOL     OW15770   2.848   9.814   3.760  1.0642 -0.1423 -0.1801
36645SOL    HW115771   2.828   9.876   3.690 -0.9397  1.7664  1.8725
36645SOL    HW215772   2.787   9.742   3.747  0.4837  0.3534 -0.2765
36646SOL     OW15773   8.942   5.723   9.438  0.0260 -0.3281 -0.8081
36646SOL    HW115774   8.981   5.784   9.375  2.0057 -0.6865 -0.0143
36646SOL    HW215775   8.902   5.779   9.504 -2.5755  0.0607 -2.5799
36647SOL     OW15776   5.245   8.216   6.406  0.2025 -0.4709  0.2539
36647SOL    HW115777   5.241   8.296   6.355  2.1839 -0.8859 -0.6327
36647SOL    HW215778   5.292   8.240   6.486  0.1092 -0.5761  0.3414
36648SOL     OW15779   9.772   6.228   1.625  0.3500 -0.0618 -0.1006
36648SOL    HW115780   9.847   6.283   1.603  0.7693 -0.0976  1.1672
36648SOL    HW215781   9.778   6.215   1.719  0.2325 -2.2412 -0.3295
36649SOL     OW15782   7.856   7.247   1.941 -0.2235  0.3826 -0.4929
36649SOL    HW115783   7.892   7.166   1.906 -0.2662  0.7247 -1.3432
36649SOL    HW215784   7.836   7.227   2.033 -0.1035 -0.5194 -0.6593
36650SOL     OW15785   3.709   2.319   4.745  0.2539  0.3209 -0.1489
36650SOL    HW115786   3.762   2.370   4.683 -1.3960  1.9399 -0.3283
36650SOL    HW215787   3.726   2.359   4.830  1.4991 -1.0432  0.2783
36651SOL     OW15788   1.677   0.637   7.807  0.7730 -0.2047  0.0187
36651SOL    HW115789   1.617   0.698   7.764  0.5935  0.5979  1.3266
36651SOL    HW215790   1.642   0.551   7.786  1.9603 -0.0273 -3.2280
36652SOL     OW15791   6.877   7.834   2.869  0.2871 -0.1678  0.6185
36652SOL    HW115792   6.861   7.784   2.789 -3.0470 -0.6245  1.4123
36652SOL    HW215793   6.950   7.788   2.911  0.9894 -0.9291 -1.3074
36653SOL     OW15794   7.254   5.237   0.091 -0.2352 -0.5376  0.2817
36653SOL    HW115795   7.232   5.195   0.174  1.0635 -1.6292  0.1008
36653SOL    HW215796   7.293   5.168   0.039  2.0190  0.8823 -0.0215
36654SOL     OW15797   0.603   2.333   9.769 -0.4975 -0.2160 -0.2201
36654SOL    HW115798   0.570   2.245   9.751 -0.2559 -0.1937 -0.7817
36654SOL    HW215799   0.638   2.327   9.858  0.4709 -0.9724 -0.6355
36655SOL     OW15800   5.377   1.265   5.344  0.4921  0.2274 -0.1802
36655SOL    HW115801   5.456   1.319   5.347  0.4411  0.2610  1.1105
36655SOL    HW215802   5.399   1.194   5.284  1.8078 -0.2276  0.7917
36656SOL     OW15803   4.859   0.814   6.145  0.6691 -0.5108  0.3135
36656SOL    HW115804   4.880   0.905   6.120 -0.5785 -0.5892 -1.1364
36656SOL    HW215805   4.935   0.764   6.116  1.0152 -0.0361  0.3823
36657SOL     OW15806   5.068   3.125   4.246 -0.2326  0.0931 -0.3311
36657SOL    HW115807   5.035   3.119   4.157 -0.9018  1.4223 -0.1907
36657SOL    HW215808   4.992   3.148   4.299 -0.1183 -1.9064  0.8195
36658SOL     OW15809   4.352  10.573   7.693 -0.0262 -0.2084  0.5867
36658SOL    HW115810   4.372  10.501   7.752  1.0802  2.0473  3.2216
36658SOL    HW215811   4.264  10.601   7.717  0.4341  0.7283  1.2498
36659SOL     OW15812   8.883   4.865   0.401 -0.0012 -0.3127  0.1868
36659SOL    HW115813   8.881   4.900   0.312 -1.3225  2.7810  1.3010
36659SOL    HW215814   8.805   4.810   0.407  0.2015 -0.6972 -0.5977
36660SOL     OW15815   0.586   0.967   3.673  0.2009  0.5038 -1.0551
36660SOL    HW115816   0.584   0.871   3.679  1.3295  0.4582 -1.1634
36660SOL    HW215817   0.678   0.988   3.657  0.7129  1.8285  2.5973
36661SOL     OW15818   0.390   6.740   3.568  0.1625 -0.3980 -0.3602
36661SOL    HW115819   0.452   6.806   3.598 -0.2333 -0.1515 -0.0674
36661SOL    HW215820   0.438   6.689   3.503  0.4198  0.3069 -0.7392
36662SOL     OW15821   0.210   3.786   4.847 -0.0929 -0.4006 -0.1596
36662SOL    HW115822   0.168   3.845   4.784 -0.0275 -1.5049 -1.2726
36662SOL    HW215823   0.221   3.704   4.800  0.2404 -1.1790  1.2098
36663SOL     OW15824   2.980   9.448   4.393 -0.0737 -0.1107  0.0069
36663SOL    HW115825   2.980   9.541   4.371 -0.5053  0.1257  0.9454
36663SOL    HW215826   3.008   9.404   4.313 -1.2258  0.7314 -0.8908
36664SOL     OW15827   8.480   4.139   9.700 -0.0374  0.2489  0.2226
36664SOL    HW115828   8.411   4.077   9.679 -0.3726  0.1309  1.5961
36664SOL    HW215829   8.476   4.204   9.630  1.4530 -2.1065 -2.2509
36665SOL     OW15830   5.141   4.469   3.816  0.1410  0.1733  0.4279
36665SOL    HW115831   5.068   4.438   3.761  1.8899 -0.6751 -1.5485
36665SOL    HW215832   5.147   4.405   3.886 -0.8344  0.1055  0.4613
36666SOL     OW15833   3.747   3.692   2.256 -0.5086  0.1310 -0.4057
36666SOL    HW115834   3.737   3.786   2.240  0.2749  0.1340 -0.9481
36666SOL    HW215835   3.840   3.681   2.276 -0.4496 -0.6341 -1.0736
36667SOL     OW15836   0.732   1.848   2.233  0.6941  0.3854 -0.4445
36667SOL    HW115837   0.651   1.797   2.240  1.1721 -0.4522 -0.7800
36667SOL    HW215838   0.757   1.841   2.140  0.4522  1.7543 -0.6307
36668SOL     OW15839   1.940   6.764   3.780 -0.5453 -0.0381 -0.0295
36668SOL    HW115840   1.996   6.836   3.808  0.2689 -0.1296 -1.3374
36668SOL    HW215841   1.851   6.790   3.806 -0.0443  0.5818  1.1318
36669SOL     OW15842   7.933   5.458   1.252  0.5882 -0.0788 -0.0319
36669SOL    HW115843   7.919   5.401   1.176  0.9278  0.1509 -0.2721
36669SOL    HW215844   7.996   5.524   1.221 -0.4320  0.9304 -0.0337
36670SOL     OW15845   7.678   7.356   7.731 -0.0627 -0.0613 -0.4689
36670SOL    HW115846   7.583   7.371   7.728 -0.0830 -0.2533 -0.7476
36670SOL    HW215847   7.716   7.435   7.694 -0.0504  0.7056  1.0865
36671SOL     OW15848   5.745   5.750   0.925  0.5383  0.1506  0.2105
36671SOL    HW115849   5.768   5.663   0.960  3.9518  2.2688  4.1057
36671SOL    HW215850   5.809   5.765   0.855 -0.9949 -0.8495 -1.5182
36672SOL     OW15851  10.612   2.737   8.931 -0.2666  0.7093  0.6905
36672SOL    HW115852  10.595   2.756   9.024  2.5037  1.5737  1.1227
36672SOL    HW215853  10.663   2.656   8.932 -0.0422  0.8352 -0.0487
36673SOL     OW15854   3.068   7.439   9.854 -0.7685 -0.2258  0.4631
36673SOL    HW115855   3.124   7.458   9.778 -0.1550 -1.1325  0.6748
36673SOL    HW215856   3.107   7.361   9.893 -0.1810  1.0772  2.6018
36674SOL     OW15857   4.668   5.657   8.962 -0.1792 -0.3983  0.1991
36674SOL    HW115858   4.598   5.614   8.914 -1.4987  0.7200  1.0456
36674SOL    HW215859   4.706   5.719   8.899 -1.9600  1.1310  0.5403
36675SOL     OW15860   1.703   5.848   1.378 -0.6586  0.4573 -0.2475
36675SOL    HW115861   1.786   5.818   1.416  0.4780  2.5933 -0.8552
36675SOL    HW215862   1.722   5.859   1.285 -1.5782  1.1779 -0.3609
36676SOL     OW15863   5.308   6.280   8.212 -1.0359 -0.2112 -0.1797
36676SOL    HW115864   5.343   6.205   8.258 -1.5735  0.2040  0.9369
36676SOL    HW215865   5.384   6.336   8.196 -0.9444 -0.0055  0.8966
36677SOL     OW15866   4.625   3.326   8.449  0.3218  0.2922 -0.3191
36677SOL    HW115867   4.611   3.413   8.411  2.8521  0.2820 -1.4551
36677SOL    HW215868   4.704   3.335   8.502 -0.8462 -0.7389  1.6987
36678SOL     OW15869   7.479   7.775   2.871 -0.0205  0.3736  0.0484
36678SOL    HW115870   7.393   7.815   2.854 -0.7658 -0.7747  0.9843
36678SOL    HW215871   7.461   7.707   2.936  1.5948  0.0417  0.1704
36679SOL     OW15872   1.376   6.561   1.456  0.2034 -0.6814  0.8355
36679SOL    HW115873   1.409   6.563   1.546 -0.4752 -2.1225  1.1398
36679SOL    HW215874   1.358   6.469   1.440 -0.4647 -0.3279 -0.5020
36680SOL     OW15875   8.413   5.781   8.313  0.2585  0.0295  0.1630
36680SOL    HW115876   8.499   5.819   8.330  1.5769 -2.1057 -1.2074
36680SOL    HW215877   8.386   5.820   8.230  0.5789 -0.3514 -0.1235
36681SOL     OW15878   4.631   2.798   1.485  0.1132 -0.2576  0.0630
36681SOL    HW115879   4.630   2.867   1.551 -0.1360 -0.8723  0.7123
36681SOL    HW215880   4.563   2.824   1.422  0.0456  0.1027  0.2851
36682SOL     OW15881   9.656   7.636   6.741  0.9763 -0.0417 -0.0898
36682SOL    HW115882   9.683   7.668   6.655  0.0336 -1.2345 -0.8642
36682SOL    HW215883   9.561   7.629   6.735  1.0444 -1.8457  0.4150
36683SOL     OW15884   9.882   6.949   7.995 -0.2697 -0.2294 -0.2307
36683SOL    HW115885   9.828   7.021   8.027  0.6569 -0.6548  2.5793
36683SOL    HW215886   9.834   6.870   8.019  0.0221 -0.5805 -0.7804
36684SOL     OW15887   4.225   4.008   1.505  0.2740 -0.1638  0.4356
36684SOL    HW115888   4.232   3.926   1.455  1.5367 -0.8698  1.6704
36684SOL    HW215889   4.315   4.040   1.510 -0.1150  0.9248  0.5655
36685SOL     OW15890   0.510   9.593   7.492 -0.0699  0.1007 -0.6511
36685SOL    HW115891   0.446   9.661   7.513 -0.7728 -0.6490 -0.2969
36685SOL    HW215892   0.581   9.639   7.448 -0.1352  1.1924  0.3477
36686SOL     OW15893   5.825   3.523   2.997 -0.3046  0.3925 -0.2557
36686SOL    HW115894   5.793   3.499   2.910 -2.5771  0.0710  0.5714
36686SOL    HW215895   5.850   3.614   2.990 -0.8953  0.4984 -1.1600
36687SOL     OW15896  10.237   4.918   4.293  0.3970  0.1210  0.3388
36687SOL    HW115897  10.142   4.921   4.282  0.3432  0.8766  0.9235
36687SOL    HW215898  10.272   4.911   4.204 -0.2100 -0.5201  0.1404
36688SOL     OW15899   8.346   2.092   7.308 -0.2313 -0.3768 -0.1057
36688SOL    HW115900   8.278   2.031   7.280 -1.8278  0.2741  2.0087
36688SOL    HW215901   8.297   2.167   7.344  1.6107  0.4784  0.7551
36689SOL     OW15902   6.930   6.188   8.098  0.6385 -0.1761  0.4592
36689SOL    HW115903   6.897   6.252   8.161  0.0669 -0.2002  0.1965
36689SOL    HW215904   6.883   6.208   8.017  1.9500  0.3613 -0.1877
36690SOL     OW15905   5.603   3.491   2.359  0.5886 -0.6831  0.6364
36690SOL    HW115906   5.666   3.420   2.356 -1.2099 -2.4300  1.6560
36690SOL    HW215907   5.622   3.538   2.441  1.0864 -0.6587  0.5086
36691SOL     OW15908   3.474   1.056  10.696  0.7267 -0.2194 -0.4099
36691SOL    HW115909   3.504   0.967  10.678  2.7633  0.5728 -1.3552
36691SOL    HW215910   3.542   1.093  10.753 -0.8258  0.3069  1.1673
36692SOL     OW15911   0.721   3.785   0.512 -0.3319  0.5763 -0.0237
36692SOL    HW115912   0.741   3.696   0.484 -0.2228  0.8383 -0.7851
36692SOL    HW215913   0.806   3.828   0.518 -0.5562  1.6021 -2.9647
36693SOL     OW15914   5.561   0.040   9.310 -0.0899  0.6520 -0.4061
36693SOL    HW115915   5.571  -0.031   9.246  0.7843 -0.7298  1.1745
36693SOL    HW215916   5.488   0.092   9.277  0.5634  0.2033 -2.6930
36694SOL     OW15917   5.002   5.883   4.392  0.3995 -0.8038  0.1604
36694SOL    HW115918   4.932   5.879   4.326  0.1126 -1.2259  0.4855
36694SOL    HW215919   4.985   5.808   4.449  0.3113 -0.1195  1.0446
36695SOL     OW15920   1.908   8.749   0.719 -0.2400  0.4288  0.2573
36695SOL    HW115921   1.827   8.798   0.708 -0.6006 -0.3693 -0.9281
36695SOL    HW215922   1.977   8.813   0.704 -0.7021  0.5738 -1.5932
36696SOL     OW15923   0.794   2.078   1.304 -0.9154 -0.4459 -0.5485
36696SOL    HW115924   0.821   2.154   1.355  1.6815 -1.2655 -0.5755
36696SOL    HW215925   0.743   2.025   1.365 -0.2459 -0.0740  0.3517
36697SOL     OW15926   5.978   9.374   3.921  0.0322 -0.7072  0.1412
36697SOL    HW115927   6.028   9.381   3.840 -1.6827 -0.9175 -0.9806
36697SOL    HW215928   5.907   9.438   3.911 -0.0755 -0.5606  1.5907
36698SOL     OW15929   9.821   9.102   8.561 -0.7303  0.5076  0.4563
36698SOL    HW115930   9.858   9.056   8.485  0.9657  1.3236  0.7373
36698SOL    HW215931   9.843   9.194   8.546 -1.1650  0.7934  1.5036
36699SOL     OW15932   5.771   8.206  10.440  0.7337 -0.0635  0.2651
36699SOL    HW115933   5.851   8.179  10.485 -0.2070 -2.3519  0.6896
36699SOL    HW215934   5.735   8.125  10.405  0.2843  1.3161 -2.8199
36700SOL     OW15935   9.556   7.364   0.346  0.3493  0.3929 -0.3554
36700SOL    HW115936   9.531   7.273   0.363  2.2908  0.0991  1.3920
36700SOL    HW215937   9.475   7.407   0.317 -0.9141 -1.5742  0.0860
36701SOL     OW15938   8.816  10.035   1.662 -0.6386  0.1994 -0.0061
36701SOL    HW115939   8.724  10.008   1.667 -0.7534  0.4774 -0.5847
36701SOL    HW215940   8.842  10.016   1.572 -0.0763 -0.0447  0.2071
36702SOL     OW15941   6.464   5.217   0.035 -0.0717  0.2025 -0.5340
36702SOL    HW115942   6.430   5.298  -0.002  0.1375  0.8452  0.6324
36702SOL    HW215943   6.446   5.224   0.129  1.3901 -0.3706 -0.1807
36703SOL     OW15944   9.981   6.238   6.725 -0.2087  0.1733 -0.4517
36703SOL    HW115945  10.021   6.321   6.749 -0.0332  0.0970 -0.4739
36703SOL    HW215946  10.048   6.194   6.672 -1.2117  1.0712 -2.5927
36704SOL     OW15947   8.391   3.875   6.777 -0.3420  0.3914  0.7413
36704SOL    HW115948   8.308   3.893   6.732  0.1911  1.0951 -0.0020
36704SOL    HW215949   8.400   3.780   6.774 -0.8911  0.3458  0.3988
36705SOL     OW15950   2.620   9.613  10.023  0.2892 -0.7130 -0.3506
36705SOL    HW115951   2.688   9.570   9.972  0.0034 -1.0638 -0.4352
36705SOL    HW215952   2.540   9.604   9.971  0.4084  0.7608 -0.8327
36706SOL     OW15953   9.170   7.089   1.929 -0.1538  0.4223 -0.6305
36706SOL    HW115954   9.139   7.180   1.927 -2.9447 -0.3736  0.7313
36706SOL    HW215955   9.163   7.063   2.020  1.4289 -0.9430 -0.8594
36707SOL     OW15956   1.348   9.651   5.530  0.7512  0.0718  0.4180
36707SOL    HW115957   1.385   9.676   5.614  1.7542  0.1327 -0.0250
36707SOL    HW215958   1.287   9.580   5.550  2.1035 -0.9576  1.0389
36708SOL     OW15959   6.071   3.684   5.808  0.5209 -0.0149 -0.3722
36708SOL    HW115960   6.119   3.747   5.862  2.0508 -0.5599 -1.0254
36708SOL    HW215961   6.111   3.599   5.829 -0.3880 -0.5419 -0.7186
36709SOL     OW15962   3.095   3.001   0.684 -0.1622  0.2019  0.0391
36709SOL    HW115963   3.083   2.912   0.652 -0.3790  0.1276  0.3287
36709SOL    HW215964   3.179   2.999   0.730 -0.6402 -0.1004  0.9094
36710SOL     OW15965   4.452   1.568   5.893 -0.3490 -0.5377 -0.0359
36710SOL    HW115966   4.391   1.623   5.844 -1.1673 -0.9730  0.4721
36710SOL    HW215967   4.474   1.620   5.971 -1.8299 -1.2595  0.9025
36711SOL     OW15968   8.764   4.268   7.104  0.6455  0.2633 -0.4409
36711SOL    HW115969   8.676   4.271   7.065  0.6063 -0.9259 -0.4942
36711SOL    HW215970   8.823   4.268   7.028  0.5919 -1.2884 -0.5259
36712SOL     OW15971   0.274   9.519   3.848 -0.0178  0.2017  0.2328
36712SOL    HW115972   0.191   9.552   3.813 -1.5058 -0.6635  2.7016
36712SOL    HW215973   0.273   9.546   3.939  0.6396 -2.9563  1.2871
36713SOL     OW15974   2.773   5.840   4.700  0.2256  0.3495  0.1463
36713SOL    HW115975   2.825   5.785   4.641 -2.7052  0.6024 -3.0096
36713SOL    HW215976   2.803   5.929   4.681  1.0381  0.2551  0.9695
36714SOL     OW15977   8.110   3.620   8.274 -0.0094 -1.2181  0.2449
36714SOL    HW115978   8.196   3.641   8.239 -0.6463  2.1440  0.3317
36714SOL    HW215979   8.066   3.572   8.204  1.5877 -2.2072 -0.1224
36715SOL     OW15980   0.093   6.183   2.285 -0.9052  0.2280  0.3181
36715SOL    HW115981   0.112   6.277   2.279 -0.9008  0.3401  1.7630
36715SOL    HW215982   0.169   6.141   2.245  0.7122  0.7944  2.5699
36716SOL     OW15983   7.472   2.365   8.378 -0.0988  0.1217 -0.1357
36716SOL    HW115984   7.467   2.383   8.472 -0.8697  0.9709 -0.3294
36716SOL    HW215985   7.498   2.273   8.373 -3.4465 -1.0488  0.9960
36717SOL     OW15986   9.317  10.472   2.896 -0.5152  0.1904 -0.4499
36717SOL    HW115987   9.262  10.433   2.964  0.1541  1.1285  0.6641
36717SOL    HW215988   9.265  10.465   2.816 -3.2924  2.9474  0.8739
36718SOL     OW15989   6.813   0.600   5.761 -0.4176  0.4518 -0.1222
36718SOL    HW115990   6.833   0.566   5.849 -1.8444  1.0392  0.4668
36718SOL    HW215991   6.736   0.655   5.774  0.5198  2.1603 -1.4184
36719SOL     OW15992   3.559   9.699  10.569  0.1879 -0.1400  0.2189
36719SOL    HW115993   3.562   9.782  10.615  1.9916 -0.3830  0.6208
36719SOL    HW215994   3.586   9.720  10.479 -1.0173 -0.0485 -0.1436
36720SOL     OW15995   8.096   8.013   4.883  0.2731  0.3648 -0.1669
36720SOL    HW115996   8.032   8.059   4.829  1.1891  1.6285 -0.2371
36720SOL    HW215997   8.062   8.018   4.972 -0.3854 -0.1811 -0.3833
36721SOL     OW15998   3.022   0.535   2.644 -0.1032 -0.1898 -0.2390
36721SOL    HW115999   3.108   0.496   2.628  0.5284  1.2702 -0.6334
36721SOL    HW216000   3.001   0.513   2.735  0.7112 -0.5018 -0.1234
36722SOL     OW16001   5.311   2.165   3.403  0.3428  0.2144  0.0162
36722SOL    HW116002   5.247   2.099   3.430 -0.1666  0.5712 -0.2971
36722SOL    HW216003   5.325   2.148   3.310  0.8920 -0.0128  0.1360
36723SOL     OW16004   2.211   9.225   6.718 -0.4715 -0.0736 -0.7945
36723SOL    HW116005   2.264   9.295   6.681 -0.8848  0.4103 -0.4741
36723SOL    HW216006   2.266   9.186   6.786 -0.4298  0.2618 -0.6350
36724SOL     OW16007   5.002   2.536   6.105 -0.0831 -1.0357  0.0595
36724SOL    HW116008   4.979   2.613   6.155  0.2763 -1.4065  0.8047
36724SOL    HW216009   5.069   2.566   6.043 -1.1933 -0.3688 -0.8722
36725SOL     OW16010   7.518   6.018   6.124 -0.8762  0.7315  0.1852
36725SOL    HW116011   7.522   5.925   6.100 -1.4613  1.0552 -1.2611
36725SOL    HW216012   7.563   6.023   6.209  0.5009 -0.6403 -0.4162
36726SOL     OW16013   0.857   8.279   4.300 -0.2499 -0.0471 -0.5073
36726SOL    HW116014   0.795   8.242   4.237 -1.1492 -0.9284  0.8344
36726SOL    HW216015   0.919   8.209   4.317  0.6803  0.5750 -1.2534
36727SOL     OW16016   1.150   4.069   5.549  0.1238 -0.9987 -0.0368
36727SOL    HW116017   1.211   4.073   5.622  1.1160  1.6912 -0.8955
36727SOL    HW216018   1.150   3.977   5.522  1.0404 -1.7183  2.2052
36728SOL     OW16019   0.622   0.662   7.291  0.1348 -0.3122  0.0904
36728SOL    HW116020   0.705   0.649   7.245  0.1176 -2.0056  0.4657
36728SOL    HW216021   0.635   0.620   7.376 -0.2612  1.6684  1.1972
36729SOL     OW16022   5.238   2.303   9.184 -0.1567  0.1592 -0.6875
36729SOL    HW116023   5.210   2.347   9.105 -0.8490  1.4024  0.2183
36729SOL    HW216024   5.163   2.248   9.209 -0.0053 -0.0968 -0.7862
36730SOL     OW16025   9.289   9.333   9.787 -0.2060 -0.5687 -0.1261
36730SOL    HW116026   9.237   9.335   9.706  0.6711 -0.3489 -0.7016
36730SOL    HW216027   9.267   9.416   9.831 -1.7937 -1.3258  0.6093
36731SOL     OW16028   4.001   5.932   2.077 -0.4042  0.0537  0.2983
36731SOL    HW116029   3.984   5.901   1.988  1.2433  0.9051 -0.3607
36731SOL    HW216030   3.935   6.000   2.092 -1.1710 -0.6160  0.0438
36732SOL     OW16031   3.950   8.603   4.076  0.0719 -0.0132  0.3311
36732SOL    HW116032   4.009   8.605   4.151 -0.6424  0.3561  0.8919
36732SOL    HW216033   3.908   8.517   4.081 -0.7663  0.4211  0.9876
36733SOL     OW16034  10.397   7.043   1.169  0.4479 -0.3311 -0.7995
36733SOL    HW116035  10.483   7.021   1.203 -0.0922 -0.6774  0.3843
36733SOL    HW216036  10.389   7.138   1.183 -0.0855 -0.5840  0.8726
36734SOL     OW16037   4.895   4.240   3.972  0.7307  0.2311  0.3506
36734SOL    HW116038   4.810   4.248   3.928  1.1634 -0.1848 -0.5908
36734SOL    HW216039   4.909   4.145   3.979  2.5568  0.1758 -2.4498
36735SOL     OW16040   2.534   8.181  10.541 -0.1379 -0.1467 -0.2747
36735SOL    HW116041   2.564   8.263  10.581 -0.6350  0.5216 -1.2086
36735SOL    HW216042   2.520   8.204  10.449  0.9868 -1.6237 -0.8605
36736SOL     OW16043   5.444   8.931   7.209  0.1244 -0.1686 -0.1147
36736SOL    HW116044   5.486   8.984   7.141 -0.1852 -0.4449 -0.5237
36736SOL    HW216045   5.393   8.866   7.161 -1.3430  0.5942  0.3328
36737SOL     OW16046   1.214   8.186   0.660  0.2906  0.1861  0.1480
36737SOL    HW116047   1.141   8.240   0.690  1.1815  0.7685  1.3154
36737SOL    HW216048   1.189   8.097   0.683  0.0358  0.4063  0.7370
36738SOL     OW16049   8.779   1.011   1.241  0.1668  0.3199  0.0096
36738SOL    HW116050   8.716   1.055   1.299 -0.9825  1.6872 -2.1447
36738SOL    HW216051   8.864   1.025   1.283 -0.8715 -2.1833  3.3800
36739SOL     OW16052   0.138   4.978   9.235  0.3788  0.2671 -0.2181
36739SOL    HW116053   0.189   4.902   9.264  1.3766  0.6349 -0.9684
36739SOL    HW216054   0.047   4.948   9.239  0.6836 -0.6199  0.4992
36740SOL     OW16055   0.372   1.251   2.311  0.0107  0.1861  0.0314
36740SOL    HW116056   0.361   1.180   2.248 -0.5445  0.4379 -0.1647
36740SOL    HW216057   0.365   1.208   2.396  1.3753 -0.2453 -0.0620
36741SOL     OW16058   9.582   8.769   4.847  0.1559 -0.0724  0.1156
36741SOL    HW116059   9.652   8.771   4.781  0.5251 -2.3038  0.3725
36741SOL    HW216060   9.571   8.677   4.869 -4.1236 -0.0749 -1.1655
36742SOL     OW16061   3.355   0.039   7.646 -0.6989  0.9115  0.2184
36742SOL    HW116062   3.385   0.117   7.692  0.6047  0.7423 -0.3036
36742SOL    HW216063   3.410   0.034   7.567 -0.8042 -0.4837  0.1957
36743SOL     OW16064   1.004   4.209   0.408 -0.2459  0.4150 -0.2069
36743SOL    HW116065   1.028   4.137   0.350  2.0140 -0.1593  1.2991
36743SOL    HW216066   1.005   4.171   0.496 -0.3992  1.9597  0.5043
36744SOL     OW16067   8.755   1.464  10.537  0.7198  0.0687  0.1972
36744SOL    HW116068   8.737   1.482  10.445 -1.7871 -2.2262  0.1352
36744SOL    HW216069   8.699   1.524  10.585 -1.2611 -1.5886  0.0889
36745SOL     OW16070   3.645   7.790   2.532  0.1030 -0.3179 -0.0371
36745SOL    HW116071   3.615   7.836   2.453  0.6985  0.3287  0.0967
36745SOL    HW216072   3.591   7.826   2.602  0.2481 -0.1572 -0.0053
36746SOL     OW16073   5.522   8.489   1.380  0.0821  0.0756  0.6260
36746SOL    HW116074   5.603   8.463   1.424 -0.7633  0.4496  2.4978
36746SOL    HW216075   5.453   8.443   1.426 -0.9096  0.8804  0.0028
36747SOL     OW16076   8.755   1.896   8.793 -0.8698  0.0380  0.1751
36747SOL    HW116077   8.805   1.961   8.843  0.4272 -1.3629  0.7823
36747SOL    HW216078   8.729   1.830   8.858 -0.1669 -1.2147 -0.7661
36748SOL     OW16079   9.449   9.366   2.649 -0.1732  0.0724  0.0630
36748SOL    HW116080   9.428   9.375   2.556  0.8431  1.6753 -0.0447
36748SOL    HW216081   9.368   9.332   2.688 -1.1635  0.9168 -1.1575
36749SOL     OW16082   1.086   0.424   4.193  0.0297  0.4083 -0.0376
36749SOL    HW116083   1.047   0.444   4.108  1.6757 -0.0643 -0.9335
36749SOL    HW216084   1.016   0.443   4.256 -2.2530 -2.0538 -1.6493
36750SOL     OW16085   6.200   7.810   4.283 -0.4794 -0.4823 -0.3345
36750SOL    HW116086   6.263   7.745   4.314 -2.3369 -1.6397  1.2471
36750SOL    HW216087   6.187   7.787   4.190  1.4596 -0.1196 -0.7372
36751SOL     OW16088   5.543   7.112   6.243 -0.0501  0.0972  0.4826
36751SOL    HW116089   5.509   7.161   6.318  1.6502 -0.9812  2.0696
36751SOL    HW216090   5.638   7.109   6.258  0.3313 -0.2501 -1.6906
36752SOL     OW16091   4.642   9.083   3.472  0.0028  0.4922 -0.3499
36752SOL    HW116092   4.617   8.995   3.499 -0.3391  0.8444  0.5177
36752SOL    HW216093   4.564   9.136   3.488  0.9601  1.4361  1.5563
36753SOL     OW16094   9.350   4.020  10.213  0.1780 -0.1905 -0.7700
36753SOL    HW116095   9.325   4.023  10.306  2.2853 -0.1748 -0.1584
36753SOL    HW216096   9.341   4.110  10.183  1.1242  0.1386 -0.0953
36754SOL     OW16097   0.559   4.854   9.137 -1.1602 -0.1226  0.9185
36754SOL    HW116098   0.544   4.885   9.226 -2.5408  1.1886  0.2649
36754SOL    HW216099   0.572   4.759   9.147 -0.8916  0.0611  2.5375
36755SOL     OW16100   7.633   4.327   9.747 -0.3483 -0.1999 -0.0555
36755SOL    HW116101   7.690   4.270   9.695  0.6413 -0.7499  1.5715
36755SOL    HW216102   7.589   4.382   9.682  0.9735 -0.7216 -1.4578
36756SOL     OW16103   0.342   3.270   5.750  0.1717  0.0055  0.3660
36756SOL    HW116104   0.248   3.282   5.763  0.1051 -0.3579  0.2414
36756SOL    HW216105   0.353   3.175   5.742  0.5919  0.0213  0.7029
36757SOL     OW16106  10.541   8.147   4.637  0.2292  0.1880  0.1084
36757SOL    HW116107  10.500   8.172   4.720 -0.3818  0.4299 -0.2636
36757SOL    HW216108  10.509   8.058   4.620  0.4572  0.0891  0.1957
36758SOL     OW16109   0.983   8.108   2.118  0.0562 -0.5972 -0.5982
36758SOL    HW116110   0.903   8.145   2.154  1.2203  0.2857  1.2681
36758SOL    HW216111   0.993   8.149   2.032 -0.3145  1.0730  0.1243
36759SOL     OW16112   8.952  10.398   5.598 -0.6788 -0.7105  0.0909
36759SOL    HW116113   8.961  10.459   5.524 -1.5230  0.8075  1.1694
36759SOL    HW216114   8.863  10.363   5.590 -1.0757  0.0932  0.8132
36760SOL     OW16115   4.654   1.117   1.940  0.3295 -0.6960  0.2756
36760SOL    HW116116   4.634   1.176   1.868  0.4911 -1.8102 -0.6979
36760SOL    HW216117   4.673   1.176   2.014 -1.1088  0.4382 -0.2200
36761SOL     OW16118   0.695   2.464   5.139 -0.7436  0.7169  0.1728
36761SOL    HW116119   0.666   2.527   5.204  0.2230  1.8246 -0.4423
36761SOL    HW216120   0.649   2.383   5.162 -0.8653  1.2360  1.8567
36762SOL     OW16121   0.611   8.380   5.537 -0.4290 -0.1169 -0.0608
36762SOL    HW116122   0.652   8.466   5.521  0.9435 -0.8563 -0.7186
36762SOL    HW216123   0.637   8.357   5.626  2.8711 -1.6812 -1.2583
36763SOL     OW16124   6.854   7.713   2.616  0.0936  0.4029  0.1994
36763SOL    HW116125   6.763   7.708   2.586 -0.2635  2.1652  0.8578
36763SOL    HW216126   6.902   7.748   2.541  0.2218 -0.3994 -0.1031
36764SOL     OW16127   6.193   6.462   5.496 -0.2392 -0.2078 -0.0859
36764SOL    HW116128   6.119   6.405   5.475 -2.0757  2.2785 -0.8192
36764SOL    HW216129   6.206   6.449   5.590 -0.7620 -1.6003 -0.1737
36765SOL     OW16130   8.803   9.095  10.697  0.3492 -0.1450 -0.6046
36765SOL    HW116131   8.710   9.105  10.676  0.2153  2.1805  0.7146
36765SOL    HW216132   8.804   9.055  10.784  0.5649  0.1706 -0.4607
36766SOL     OW16133   2.418   7.562   9.817  0.3855  0.3119 -1.1821
36766SOL    HW116134   2.420   7.506   9.740  1.0065 -2.9469  1.0232
36766SOL    HW216135   2.476   7.635   9.794  2.5299 -1.7687 -2.9708
36767SOL     OW16136   5.122   5.945   6.047 -0.2251  0.2912  0.5555
36767SOL    HW116137   5.027   5.932   6.043 -0.3174 -0.2020  2.8829
36767SOL    HW216138   5.136   5.999   6.124  1.4608 -0.7383  1.0368
36768SOL     OW16139   9.614   9.041   6.054  0.3439  0.5309 -0.3165
36768SOL    HW116140   9.675   9.091   5.999 -0.4593  0.2274 -1.5201
36768SOL    HW216141   9.539   9.024   5.997  0.6506 -2.2157 -0.0698
36769SOL     OW16142  10.022   0.969   9.716  0.4286  0.3998  0.3793
36769SOL    HW116143  10.059   0.949   9.630 -1.5699 -2.5930  0.0363
36769SOL    HW216144   9.951   1.031   9.697 -0.1138 -0.3717 -0.2316
36770SOL     OW16145   6.778   4.636   1.653 -0.1929  0.0068 -0.3282
36770SOL    HW116146   6.867   4.665   1.634 -0.6655  0.7151 -1.6040
36770SOL    HW216147   6.763   4.562   1.594 -1.3233  1.5689 -2.1163
36771SOL     OW16148   4.634   4.871   8.981 -0.1057 -0.2931 -0.0598
36771SOL    HW116149   4.543   4.894   8.962 -0.4838 -0.4748  1.4342
36771SOL    HW216150   4.634   4.775   8.986 -0.1492 -0.2301  1.3841
36772SOL     OW16151   5.403  10.719   1.856  0.7434  0.1159 -0.0844
36772SOL    HW116152   5.338  10.671   1.907  0.2751  1.1298  0.3028
36772SOL    HW216153   5.382  10.699   1.765 -1.6536  2.2099 -0.1202
36773SOL     OW16154   5.533   5.117   6.354  0.4268 -0.2502 -0.7662
36773SOL    HW116155   5.571   5.204   6.349  0.5603 -0.1673  0.9683
36773SOL    HW216156   5.569   5.070   6.279  1.9892  0.5724 -0.5572
36774SOL     OW16157   6.127   4.303   7.788  0.2429 -0.1377 -0.1499
36774SOL    HW116158   6.086   4.323   7.703  0.6918 -0.1042 -0.3600
36774SOL    HW216159   6.131   4.208   7.790  0.1163 -0.1430 -0.1084
36775SOL     OW16160   4.174   8.396   6.719 -0.1315 -0.0783  0.3671
36775SOL    HW116161   4.166   8.452   6.796  1.3817 -0.4333  0.8164
36775SOL    HW216162   4.203   8.311   6.753 -0.4310 -0.5475 -0.5036
36776SOL     OW16163   6.276   1.803   8.944  0.0785 -1.0578  0.3175
36776SOL    HW116164   6.203   1.831   8.889 -0.6151  0.4403  1.9065
36776SOL    HW216165   6.338   1.763   8.883 -1.5968 -1.4534 -1.2208
36777SOL     OW16166  10.126   3.187   9.816  0.6811 -0.1112  0.6516
36777SOL    HW116167  10.048   3.204   9.868 -1.1915 -0.5612 -1.7756
36777SOL    HW216168  10.141   3.268   9.768 -1.3847 -1.3696 -2.4806
36778SOL     OW16169   4.635   2.969   1.699 -0.0371 -0.3595 -0.3068
36778SOL    HW116170   4.665   2.979   1.789  0.0737  2.6135 -0.5965
36778SOL    HW216171   4.541   2.949   1.707 -0.6050  2.2813  0.5287
36779SOL     OW16172   7.071   7.489   2.363  0.1454  0.1904  0.3952
36779SOL    HW116173   7.145   7.517   2.310 -0.8007  0.2206 -0.9738
36779SOL    HW216174   7.012   7.445   2.301 -0.9953  0.2031  1.4237
36780SOL     OW16175   0.531   5.449   9.780  0.5511 -0.0534  0.2480
36780SOL    HW116176   0.580   5.410   9.852  1.1412  0.7706  0.3086
36780SOL    HW216177   0.569   5.410   9.701  1.2895  0.5287  0.2987
36781SOL     OW16178   6.077   1.910  10.380 -0.4353 -0.0330  0.1494
36781SOL    HW116179   6.056   1.835  10.324 -2.7973  0.0469  0.8491
36781SOL    HW216180   6.015   1.904  10.452  1.0039  1.2082  1.5446
36782SOL     OW16181   1.378   0.920   3.788 -0.1416  0.1394 -0.0257
36782SOL    HW116182   1.397   1.011   3.767  1.6201  0.0407  0.8987
36782SOL    HW216183   1.318   0.925   3.863  0.4178  0.5733  0.4090
36783SOL     OW16184   6.304   3.304   9.360 -0.1792  1.0212 -0.3119
36783SOL    HW116185   6.383   3.255   9.384 -1.1426 -0.6691 -0.4680
36783SOL    HW216186   6.331   3.396   9.363  1.7847  0.4867 -0.3426
36784SOL     OW16187   2.525   6.945   7.390 -0.3289  0.2839  0.7391
36784SOL    HW116188   2.587   6.986   7.450  0.6492  0.5880 -0.4435
36784SOL    HW216189   2.576   6.877   7.345 -0.8021  0.6102 -0.3342
36785SOL     OW16190   3.960  10.119   5.878 -0.2041  0.6543 -0.1443
36785SOL    HW116191   3.916  10.183   5.822  0.7774  1.3112 -0.1735
36785SOL    HW216192   3.985  10.168   5.956 -0.9830 -0.1034  0.6094
36786SOL     OW16193   3.088   5.183   9.299 -0.0144  0.5109  0.2335
36786SOL    HW116194   3.010   5.131   9.321  0.6299 -1.2658 -1.3816
36786SOL    HW216195   3.059   5.244   9.232  0.4175 -1.9289 -2.3521
36787SOL     OW16196   8.545   9.465   4.264  0.3611 -0.1780  0.1287
36787SOL    HW116197   8.574   9.374   4.254  1.0081 -0.2654  2.3037
36787SOL    HW216198   8.467   9.459   4.319  0.0494  0.5639 -0.2154
36788SOL     OW16199  10.446   2.276   0.432 -0.0607 -0.2671 -0.2369
36788SOL    HW116200  10.529   2.282   0.385  0.5051 -0.4533  0.7033
36788SOL    HW216201  10.460   2.324   0.514 -1.2312  0.6105 -0.5222
36789SOL     OW16202  10.448   7.877   1.895  0.7219 -0.6953 -0.1453
36789SOL    HW116203  10.458   7.892   1.989  0.1509  1.0936 -0.3449
36789SOL    HW216204  10.534   7.897   1.858  0.5531 -0.0082 -0.1657
36790SOL     OW16205   1.874   7.652   8.755  0.1441  0.3030  0.2363
36790SOL    HW116206   1.848   7.649   8.663 -0.2163 -0.2849  0.3538
36790SOL    HW216207   1.970   7.652   8.753  0.1467 -0.8894 -0.1086
36791SOL     OW16208   7.129   5.723   0.658  0.3344 -0.5091  0.3778
36791SOL    HW116209   7.168   5.752   0.741  0.3394  0.2975  0.1066
36791SOL    HW216210   7.126   5.802   0.605 -1.1387 -0.6816  0.1736
36792SOL     OW16211   2.023   8.258   8.227  0.2530 -0.3339 -0.3618
36792SOL    HW116212   2.078   8.261   8.149  0.1097  1.6405 -0.4289
36792SOL    HW216213   2.054   8.181   8.275  2.1846 -0.0428 -1.0373
36793SOL     OW16214   7.358   5.773   7.487 -0.3162  0.3193 -0.1012
36793SOL    HW116215   7.285   5.834   7.472 -1.0526 -0.0848  1.6358
36793SOL    HW216216   7.346   5.704   7.422 -2.0766 -0.2389  0.7687
36794SOL     OW16217   6.434   6.042   7.173 -0.1278  0.2880  0.2504
36794SOL    HW116218   6.485   5.971   7.135  1.1264 -0.0570  2.4091
36794SOL    HW216219   6.493   6.083   7.237 -0.3970  4.0081 -1.6195
36795SOL     OW16220   8.081   0.984   7.436 -0.3275  0.0737 -0.2046
36795SOL    HW116221   8.069   0.891   7.453  0.1869  0.1047  0.3676
36795SOL    HW216222   8.171   0.992   7.404 -0.2318  0.4179  0.1369
36796SOL     OW16223   7.322   5.441   9.725 -0.4617  0.2205  0.1039
36796SOL    HW116224   7.386   5.498   9.769 -0.0759  0.2421 -0.4724
36796SOL    HW216225   7.360   5.426   9.639 -0.8383 -0.4540  0.0549
36797SOL     OW16226   6.483   0.645   9.916  0.1838  0.2154 -0.0706
36797SOL    HW116227   6.546   0.715   9.929 -1.4204  1.4272  1.5401
36797SOL    HW216228   6.517   0.572   9.967  1.2709  0.1592 -0.8368
36798SOL     OW16229  10.614   5.745   1.250  0.0717  0.0148  0.1055
36798SOL    HW116230  10.623   5.779   1.339 -0.1614  0.0132  0.1304
36798SOL    HW216231  10.575   5.818   1.200  1.2321  0.4162 -0.2570
36799SOL     OW16232   8.786   9.729   5.122 -0.0730  0.3492  0.1963
36799SOL    HW116233   8.743   9.653   5.162  0.1042  0.2019  0.1094
36799SOL    HW216234   8.743   9.805   5.161  0.2534  0.2075  0.8303
36800SOL     OW16235   8.923   8.503   3.109  0.1435  0.1867 -0.1418
36800SOL    HW116236   8.989   8.499   3.040  0.9186 -1.0076  0.6223
36800SOL    HW216237   8.939   8.425   3.161 -1.1835  0.4555  0.7106
36801SOL     OW16238   4.460   5.076   6.674  0.1443 -0.3361 -0.8077
36801SOL    HW116239   4.410   4.994   6.676  1.0044 -0.8837 -1.1161
36801SOL    HW216240   4.410   5.133   6.617 -0.3113 -0.7557 -0.8337
36802SOL     OW16241   0.794   1.396   3.437  0.1541  0.6042  0.3857
36802SOL    HW116242   0.799   1.319   3.492 -0.9291  1.0889  1.1892
36802SOL    HW216243   0.880   1.400   3.394 -0.8735 -3.0407 -2.4871
36803SOL     OW16244   2.842   9.111   8.704 -0.1409  0.6076 -0.1170
36803SOL    HW116245   2.778   9.053   8.663  2.5951 -2.4207 -0.5407
36803SOL    HW216246   2.839   9.089   8.797  2.3611 -2.0426 -0.5321
36804SOL     OW16247   7.111   0.453   0.707  0.4594  0.5159  0.1295
36804SOL    HW116248   7.036   0.442   0.765  0.1529  0.0475 -0.3508
36804SOL    HW216249   7.162   0.523   0.748  0.7917 -0.4878  1.5359
36805SOL     OW16250   4.044   8.394   0.012  0.0721 -0.0133  0.0162
36805SOL    HW116251   4.099   8.449  -0.044  0.1964  0.0755  0.2248
36805SOL    HW216252   3.972   8.452   0.040  1.9052  1.0954  2.9110
36806SOL     OW16253   1.358   3.781   6.143 -0.4967 -0.0549  0.2256
36806SOL    HW116254   1.283   3.806   6.090  0.0642 -0.7625 -0.9334
36806SOL    HW216255   1.324   3.778   6.233 -1.1161  2.5903  0.1601
36807SOL     OW16256   5.792   5.043   0.230  0.4295  0.4475 -0.1095
36807SOL    HW116257   5.794   5.102   0.155  0.0523  2.0823  1.1169
36807SOL    HW216258   5.801   4.956   0.192 -0.6249  1.1537 -2.1142
36808SOL     OW16259   5.002   0.231   7.070  0.1819  0.1343  0.4151
36808SOL    HW116260   5.011   0.326   7.072 -0.4965  0.1883  1.6316
36808SOL    HW216261   5.091   0.199   7.052  0.6147  0.9660  1.0176
36809SOL     OW16262   5.136   7.306   2.949 -0.2387 -0.3484  0.2601
36809SOL    HW116263   5.054   7.309   2.900  0.7072  0.2487 -1.3532
36809SOL    HW216264   5.165   7.215   2.940 -0.7498 -0.5866  0.9177
36810SOL     OW16265   6.185   5.931   7.079 -0.0003  0.2852 -0.4779
36810SOL    HW116266   6.268   5.978   7.086 -0.6825  1.7703 -1.7053
36810SOL    HW216267   6.142   5.969   7.002 -2.8883  1.3696  1.4501
36811SOL     OW16268   1.816   2.418   9.269 -0.4646  0.4834 -0.2001
36811SOL    HW116269   1.721   2.405   9.277 -0.4004 -0.3691 -0.6730
36811SOL    HW216270   1.826   2.462   9.184 -0.3807 -0.1901 -0.5428
36812SOL     OW16271   1.804   3.401   9.289 -0.0261  0.0008 -0.7108
36812SOL    HW116272   1.720   3.411   9.335  1.7150  0.8547  2.5794
36812SOL    HW216273   1.804   3.473   9.226 -2.2252 -0.7689 -1.7068
36813SOL     OW16274  10.192   4.953   1.271  0.0092 -0.5303  0.0838
36813SOL    HW116275  10.181   5.018   1.341  1.7879 -1.1390  1.0061
36813SOL    HW216276  10.285   4.957   1.250 -0.4257 -0.5948 -2.0789
36814SOL     OW16277   5.743  10.001   3.440 -0.2437  0.1103  0.4003
36814SOL    HW116278   5.678  10.002   3.510 -0.3161  0.9019  0.3336
36814SOL    HW216279   5.763   9.909   3.427 -1.0399 -0.1164  0.7143
36815SOL     OW16280   4.333   5.097   6.328  0.2039  0.3973 -0.5631
36815SOL    HW116281   4.246   5.112   6.366  0.2692 -1.9795  0.7472
36815SOL    HW216282   4.385   5.173   6.354 -0.4813  0.0936  1.9345
36816SOL     OW16283   8.727  10.083   9.072 -0.3830  0.1141  0.6968
36816SOL    HW116284   8.707  10.175   9.090  0.0870  0.4758 -0.5413
36816SOL    HW216285   8.653  10.035   9.109 -0.6660  0.9848  1.3080
36817SOL     OW16286   2.856   2.482   2.652  0.2167 -0.1428 -0.9510
36817SOL    HW116287   2.902   2.409   2.694  1.6346  0.7408 -0.8910
36817SOL    HW216288   2.764   2.467   2.672  0.5821 -1.3552 -0.0557
36818SOL     OW16289   0.072   0.706   0.127 -0.4088  0.2430  0.1324
36818SOL    HW116290   0.002   0.757   0.168 -0.7916  0.3354 -0.6092
36818SOL    HW216291   0.039   0.616   0.126  0.5482 -0.1758  2.0562
36819SOL     OW16292   0.640   6.393  10.004 -0.3671 -0.2559  0.0368
36819SOL    HW116293   0.714   6.448  10.030  1.5710 -2.5277 -0.3603
36819SOL    HW216294   0.611   6.353  10.085 -0.6020 -0.0478  0.0579
36820SOL     OW16295   4.822   2.439   3.480 -0.3510  0.3107 -0.0180
36820SOL    HW116296   4.822   2.458   3.386 -1.2272 -0.7121 -0.2375
36820SOL    HW216297   4.914   2.427   3.502 -0.0908  1.1154 -0.6200
36821SOL     OW16298  10.186   9.892   9.709  0.0646 -0.1398  0.0699
36821SOL    HW116299  10.105   9.842   9.719 -1.6512  1.9216 -2.3433
36821SOL    HW216300  10.245   9.832   9.664 -0.0110 -1.6970  1.9042
36822SOL     OW16301   6.790   2.885   6.590 -0.0485 -0.1653  0.0755
36822SOL    HW116302   6.853   2.941   6.547 -0.6720  0.6909  0.2614
36822SOL    HW216303   6.765   2.932   6.669 -0.8973 -0.5047  0.0236
36823SOL     OW16304   2.540   7.535   7.851  0.0847  0.5463  0.0608
36823SOL    HW116305   2.564   7.501   7.764 -0.2518 -1.4863  0.6960
36823SOL    HW216306   2.505   7.459   7.897 -1.8997  2.0777  1.2346
36824SOL     OW16307   2.723  10.071   0.111 -0.3294 -0.6008 -0.0090
36824SOL    HW116308   2.663  10.085   0.184 -0.6703  2.6553 -0.7241
36824SOL    HW216309   2.667  10.070   0.034  0.2555 -0.9868 -0.4334
36825SOL     OW16310   3.845   5.474   5.247  0.2932 -0.6123 -0.3509
36825SOL    HW116311   3.865   5.430   5.164 -1.2413  0.1749 -1.1807
36825SOL    HW216312   3.893   5.423   5.313  1.4972 -1.2975 -1.6873
36826SOL     OW16313   5.257   3.567   9.200  0.1376  0.0803  1.0060
36826SOL    HW116314   5.193   3.608   9.258 -0.2545  1.3228 -0.2446
36826SOL    HW216315   5.230   3.475   9.196 -1.1338  0.4385  1.0670
36827SOL     OW16316   0.609   0.203   0.446 -0.9123  0.1908 -0.0755
36827SOL    HW116317   0.625   0.165   0.532 -0.6063  1.2662  0.3617
36827SOL    HW216318   0.659   0.149   0.386  0.5660  0.6508  0.6816
36828SOL     OW16319  10.592   3.817   2.576  0.1020 -0.2048  0.4579
36828SOL    HW116320  10.524   3.844   2.638  0.5632 -1.3520  1.5255
36828SOL    HW216321  10.563   3.852   2.492 -1.3235  0.1233  1.0430
36829SOL     OW16322   3.938   3.818   3.451  0.4265  0.0807  0.0588
36829SOL    HW116323   4.006   3.873   3.412  0.5211  0.6510  0.9848
36829SOL    HW216324   3.878   3.798   3.378  1.1603  0.2173 -0.5951
36830SOL     OW16325   8.996   4.002   6.544 -0.1743  0.6582  0.2984
36830SOL    HW116326   9.048   4.082   6.555  1.0161  0.1501 -1.2514
36830SOL    HW216327   9.046   3.950   6.481 -0.4129 -1.7675  1.9883
36831SOL     OW16328   1.355   1.052   2.346 -0.5544 -0.0044 -0.3630
36831SOL    HW116329   1.364   1.147   2.357 -0.7967  0.2671 -2.1654
36831SOL    HW216330   1.343   1.040   2.251 -0.4370 -1.8457 -0.1792
36832SOL     OW16331   7.924   5.361   5.174 -0.1739 -0.7037 -0.3749
36832SOL    HW116332   8.008   5.400   5.197 -0.0523 -0.4127 -1.2462
36832SOL    HW216333   7.870   5.435   5.148 -1.1765 -0.7349  1.5072
36833SOL     OW16334   2.286   9.260   5.589 -0.4263 -0.4709 -0.3190
36833SOL    HW116335   2.340   9.331   5.625 -1.3722  0.2878 -0.3558
36833SOL    HW216336   2.350   9.195   5.558  0.4897  0.6759 -0.9368
36834SOL     OW16337   1.620   7.004   9.489 -0.3511 -0.1040 -0.0522
36834SOL    HW116338   1.633   6.954   9.569  2.7110  0.6177  0.0158
36834SOL    HW216339   1.541   7.055   9.505 -0.5172 -0.9084  1.9924
36835SOL     OW16340   3.131   0.848  10.565 -0.4020  0.3139 -0.1608
36835SOL    HW116341   3.192   0.897  10.620 -0.5255  0.2706  0.0196
36835SOL    HW216342   3.176   0.766  10.546 -1.0375 -0.4259  1.3478
36836SOL     OW16343   0.019   7.908   3.019  0.4871  0.2060 -0.3400
36836SOL    HW116344  -0.066   7.869   3.040  0.9240 -1.8740 -2.0950
36836SOL    HW216345   0.083   7.852   3.063  1.1115 -0.9763 -2.5840
36837SOL     OW16346   3.529   0.333   4.940 -0.9706 -0.2292 -0.6919
36837SOL    HW116347   3.567   0.361   4.856 -0.9916 -0.3461 -0.7403
36837SOL    HW216348   3.593   0.272   4.976 -0.0882  1.1607  0.2228
36838SOL     OW16349   4.454   3.587   3.216  0.3919  0.3691 -0.1433
36838SOL    HW116350   4.401   3.544   3.149 -0.5340  0.8240  0.2809
36838SOL    HW216351   4.533   3.533   3.222 -0.9568 -1.6165  0.7304
36839SOL     OW16352   6.535   6.302   4.263 -0.6706 -0.2940  0.2130
36839SOL    HW116353   6.568   6.255   4.186 -0.4439  1.0272 -0.5219
36839SOL    HW216354   6.440   6.296   4.256 -0.6395 -1.0773  0.4057
36840SOL     OW16355   1.740   0.655  10.394 -0.5887  0.1395  0.1866
36840SOL    HW116356   1.778   0.721  10.336  0.1091 -0.2620  0.1711
36840SOL    HW216357   1.787   0.574  10.372 -0.2603 -0.0082  1.3471
36841SOL     OW16358   5.548   8.155   0.777  0.1599  0.7451 -0.4746
36841SOL    HW116359   5.471   8.211   0.786  1.0252  1.9789 -0.5004
36841SOL    HW216360   5.513   8.070   0.748 -1.1731  1.2801 -0.4913
36842SOL     OW16361   9.107   1.173   8.956 -0.0976  0.2882  0.4544
36842SOL    HW116362   9.051   1.214   8.890  1.6490 -1.1766 -2.1294
36842SOL    HW216363   9.172   1.240   8.978 -0.2157  0.5437  0.0452
36843SOL     OW16364   8.095  10.182   5.584  0.2324 -0.0968 -0.1800
36843SOL    HW116365   8.106  10.119   5.655 -1.4522 -0.0764  0.1347
36843SOL    HW216366   8.001  10.183   5.567  0.6713 -1.1058 -3.3466
36844SOL     OW16367   8.093   5.070   5.376  0.5534  0.2446 -0.0947
36844SOL    HW116368   8.180   5.031   5.383 -0.0945 -1.6234 -1.5667
36844SOL    HW216369   8.048   5.044   5.457  0.1819 -2.1298 -0.9744
36845SOL     OW16370   5.776   0.950   7.136  0.0008  0.7287  0.5299
36845SOL    HW116371   5.848   0.895   7.166 -0.5323 -0.2666  0.0387
36845SOL    HW216372   5.817   1.034   7.114  1.2600 -0.2467 -1.0634
36846SOL     OW16373   0.592   4.255  10.414 -0.1389  0.0619  0.7567
36846SOL    HW116374   0.548   4.171  10.423  2.8191 -1.7867 -0.5742
36846SOL    HW216375   0.647   4.262  10.492  2.1487 -0.9590 -0.6828
36847SOL     OW16376   4.427   0.483   8.564 -0.2816 -0.2296 -0.4711
36847SOL    HW116377   4.471   0.550   8.617 -0.4202  0.5641 -1.3303
36847SOL    HW216378   4.478   0.479   8.483  0.3648 -1.9591 -0.0206
36848SOL     OW16379   3.726   3.791   9.364 -0.5620  0.1871  0.0107
36848SOL    HW116380   3.819   3.810   9.374 -0.8887  0.5824  4.8138
36848SOL    HW216381   3.712   3.710   9.412 -2.6658 -0.1767 -1.0662
36849SOL     OW16382   6.754   4.372   0.080  0.4488  0.5010 -0.2853
36849SOL    HW116383   6.809   4.437   0.037  0.7146  1.2065  1.0643
36849SOL    HW216384   6.711   4.420   0.151  0.1234 -0.6311  0.3134
36850SOL     OW16385   2.037   3.939   1.852 -0.0870 -0.0858 -0.1312
36850SOL    HW116386   2.074   3.963   1.937 -0.6494 -2.4667  0.8745
36850SOL    HW216387   1.967   4.003   1.836 -0.4798 -0.0540  1.5910
36851SOL     OW16388   8.512   8.651   2.759 -0.6843  0.1619  0.0963
36851SOL    HW116389   8.567   8.573   2.768  0.4506  0.9964  0.7745
36851SOL    HW216390   8.483   8.670   2.848 -0.8229  0.5970 -0.0422
36852SOL     OW16391   2.155   9.663   2.270  0.1744  0.2402  0.8337
36852SOL    HW116392   2.233   9.652   2.216  0.9607  3.1094  1.2166
36852SOL    HW216393   2.091   9.704   2.213 -0.1944  0.1041  1.1475
36853SOL     OW16394   2.846   7.119   3.551 -0.2641  0.1765  0.2210
36853SOL    HW116395   2.884   7.079   3.629 -0.0262  2.0991  1.1365
36853SOL    HW216396   2.763   7.157   3.582 -2.1813 -2.3935 -1.3501
36854SOL     OW16397   7.135   3.948   9.185 -0.5015 -0.1429 -0.1971
36854SOL    HW116398   7.127   3.948   9.281  0.5590  0.7134 -0.0903
36854SOL    HW216399   7.200   4.016   9.167  1.1022 -1.8897 -1.3777
36855SOL     OW16400   4.499   5.718   4.206 -0.5672 -0.0246  0.7506
36855SOL    HW116401   4.480   5.669   4.126 -0.0909  0.3995  0.3699
36855SOL    HW216402   4.425   5.700   4.263 -1.3940  0.4147 -0.1481
36856SOL     OW16403   3.331   9.534   0.480 -0.1259  0.1354  0.2713
36856SOL    HW116404   3.384   9.487   0.544 -1.7191 -1.3801  0.5523
36856SOL    HW216405   3.325   9.473   0.406 -0.7136  0.6695 -0.1234
36857SOL     OW16406   3.003   7.737   2.097 -0.0708  0.0438  0.1247
36857SOL    HW116407   3.067   7.752   2.028 -1.5288 -0.8727 -1.4985
36857SOL    HW216408   3.013   7.812   2.156  0.7151  1.2443 -1.4702
36858SOL     OW16409   9.309   1.261   1.340 -0.4825 -0.0524  0.4920
36858SOL    HW116410   9.288   1.313   1.263  1.7463 -2.5788 -2.0366
36858SOL    HW216411   9.379   1.311   1.384 -0.3847  0.4681 -0.2303
36859SOL     OW16412   6.460   9.620   6.391 -0.6431  0.0222  0.0513
36859SOL    HW116413   6.489   9.687   6.329  0.3226 -0.9141 -0.5521
36859SOL    HW216414   6.429   9.548   6.336  2.2104 -1.7037  0.5088
36860SOL     OW16415  10.107  10.203   3.302  0.5542  0.1359 -0.4633
36860SOL    HW116416  10.198  10.175   3.291  1.1165  0.5101  2.4350
36860SOL    HW216417  10.055  10.135   3.259  2.1521  0.3688 -2.9820
36861SOL     OW16418   1.209   2.688   3.814 -0.0225  0.1232 -0.2140
36861SOL    HW116419   1.213   2.747   3.890 -0.6403  0.2638 -0.2863
36861SOL    HW216420   1.283   2.628   3.827 -0.8154 -0.6220  1.1468
36862SOL     OW16421   4.083   2.524   2.826  0.1235 -0.2987  0.1479
36862SOL    HW116422   4.060   2.531   2.918  1.6279  1.3172  0.4540
36862SOL    HW216423   4.140   2.447   2.821 -0.2159 -0.5732  0.5096
36863SOL     OW16424   5.704   2.849   0.354 -0.0410 -0.3173 -0.6048
36863SOL    HW116425   5.680   2.875   0.443  0.8885  1.2629 -0.7779
36863SOL    HW216426   5.643   2.779   0.332 -0.3323 -0.6900  1.2402
36864SOL     OW16427   0.937   4.266   4.794  0.5103  0.1288 -0.2756
36864SOL    HW116428   0.916   4.344   4.845  0.6279  1.2330 -1.8690
36864SOL    HW216429   0.949   4.197   4.860 -0.0640  1.3249  1.1291
36865SOL     OW16430   4.705   9.954   2.740  0.4002  0.1076 -0.0722
36865SOL    HW116431   4.714   9.862   2.715  1.2078 -0.5047  2.2741
36865SOL    HW216432   4.762   9.965   2.815 -0.7115  2.2073  0.5595
36866SOL     OW16433   7.782   5.252   4.675  0.0216  0.1523  0.0500
36866SOL    HW116434   7.864   5.294   4.648  0.3446 -0.0472  0.6952
36866SOL    HW216435   7.797   5.228   4.766 -0.5081 -0.5107 -0.0326
36867SOL     OW16436   2.833   7.183   0.964 -0.3082  0.3439  0.1680
36867SOL    HW116437   2.901   7.119   0.984 -0.7173  0.2513  1.3365
36867SOL    HW216438   2.866   7.231   0.888  0.2332 -0.9142 -0.4185
36868SOL     OW16439   1.807   1.249   1.698  0.2266  0.0922  0.5751
36868SOL    HW116440   1.717   1.235   1.668  0.5094 -1.2888  0.3070
36868SOL    HW216441   1.798   1.281   1.788 -0.5288 -0.3358  0.6610
36869SOL     OW16442   9.769   1.481   3.336 -0.2787 -0.9216  0.1131
36869SOL    HW116443   9.818   1.526   3.405  2.0308 -1.7858 -0.8520
36869SOL    HW216444   9.746   1.396   3.374 -1.5138 -0.3333  0.7324
36870SOL     OW16445   4.895   1.896   5.501 -0.2317 -0.3539 -0.2049
36870SOL    HW116446   4.866   1.811   5.469 -0.7777  0.1187 -1.0108
36870SOL    HW216447   4.973   1.916   5.450 -1.1089  0.4048 -1.3085
36871SOL     OW16448   6.959   8.001  10.423  0.6219  0.2134 -0.0688
36871SOL    HW116449   6.868   8.031  10.423 -0.2604 -2.1998  1.8169
36871SOL    HW216450   6.970   7.960  10.337 -0.4124 -0.3800  0.0615
36872SOL     OW16451   2.908   5.737   5.441  0.4662 -0.9292 -1.0108
36872SOL    HW116452   2.880   5.662   5.494 -0.2309  0.4265  0.6260
36872SOL    HW216453   2.928   5.806   5.504  0.9846  0.3323 -2.4676
36873SOL     OW16454   8.059   5.568  10.490  0.1485 -0.0045 -0.4920
36873SOL    HW116455   8.032   5.540  10.402 -1.8193  1.1105 -0.2951
36873SOL    HW216456   8.090   5.658  10.478  0.8107 -0.1871 -0.1876
36874SOL     OW16457   8.115   5.118   7.689 -0.2496  0.5233  0.7002
36874SOL    HW116458   8.077   5.157   7.611  0.7977  2.0419  0.9069
36874SOL    HW216459   8.164   5.042   7.657  0.8260  1.5824 -0.2647
36875SOL     OW16460  10.619   1.626   4.081 -0.5641 -0.0754 -0.2881
36875SOL    HW116461  10.530   1.590   4.079 -0.1892 -1.0391 -0.1446
36875SOL    HW216462  10.607   1.720   4.068 -1.7974  0.1544  1.9398
36876SOL     OW16463   6.252   4.423   5.455 -0.2275  0.7024  0.2981
36876SOL    HW116464   6.176   4.366   5.450 -0.1640  0.6764 -0.5050
36876SOL    HW216465   6.243   4.469   5.538 -0.6988  0.1133  0.5747
36877SOL     OW16466   7.459   0.871   6.316  0.3420  0.1874  0.9872
36877SOL    HW116467   7.463   0.890   6.410 -1.5277 -0.2521  1.1886
36877SOL    HW216468   7.528   0.806   6.302  0.1998 -0.2432  2.1818
36878SOL     OW16469   1.750   1.453   7.997  0.0392  0.0844  0.2332
36878SOL    HW116470   1.689   1.526   8.008 -1.1999 -0.6053 -1.6294
36878SOL    HW216471   1.721   1.388   8.061 -2.6661 -1.1094 -1.9977
36879SOL     OW16472  10.088   6.913   2.787 -0.2045 -0.3698  0.1319
36879SOL    HW116473  10.039   6.837   2.820 -0.3215 -0.2454  0.2422
36879SOL    HW216474  10.040   6.940   2.709 -0.2138 -0.3521  0.1442
36880SOL     OW16475   9.286   8.450   2.830 -0.2558  0.2574  0.2269
36880SOL    HW116476   9.309   8.410   2.915 -0.6306 -0.2328  0.1005
36880SOL    HW216477   9.370   8.468   2.789 -0.0585  0.9392  0.9042
36881SOL     OW16478   5.130   6.598   6.657  0.2569 -0.4790 -0.7346
36881SOL    HW116479   5.076   6.613   6.579 -1.8767 -1.2689  0.5229
36881SOL    HW216480   5.186   6.524   6.634 -0.7860 -1.1070 -1.3433
36882SOL     OW16481   6.365   9.561  10.051 -0.0795 -0.2009 -0.3340
36882SOL    HW116482   6.393   9.627  10.114  1.6736  1.0516 -2.2532
36882SOL    HW216483   6.445   9.514  10.029 -1.0792 -2.1572  0.0351
36883SOL     OW16484  10.719   8.620   4.126  0.3496  0.0910  0.2540
36883SOL    HW116485  10.637   8.666   4.144  0.2915  0.5708 -1.1167
36883SOL    HW216486  10.787   8.687   4.140  0.4553 -0.1013  0.6743
36884SOL     OW16487   5.294   4.338   7.306 -0.1564 -0.7261 -0.0133
36884SOL    HW116488   5.235   4.302   7.372 -0.4827 -0.1811 -0.0062
36884SOL    HW216489   5.237   4.388   7.248  0.0404 -1.6460 -1.0322
36885SOL     OW16490   7.474   2.054   0.549  0.3829  0.2937 -0.0878
36885SOL    HW116491   7.421   1.987   0.505  0.1693  0.3689  0.0515
36885SOL    HW216492   7.557   2.054   0.501  0.5061 -0.2927  0.1117
36886SOL     OW16493   7.767   6.092  10.144  0.3563 -0.0129 -0.2714
36886SOL    HW116494   7.775   6.064  10.053  0.0768 -2.1060  0.2894
36886SOL    HW216495   7.697   6.157  10.144 -0.6329 -1.0473 -1.3445
36887SOL     OW16496   3.018   0.433   9.924 -0.1277 -0.3743  0.2491
36887SOL    HW116497   3.009   0.439   9.829 -1.1368 -1.4419  0.2494
36887SOL    HW216498   3.054   0.345   9.939 -0.9916 -0.6262  0.9002
36888SOL     OW16499   7.210   9.220   2.535 -0.0333  0.4566  0.2964
36888SOL    HW116500   7.297   9.210   2.574 -0.5387 -0.6856  1.1973
36888SOL    HW216501   7.203   9.148   2.473 -1.2558 -1.0969  2.0983
36889SOL     OW16502   6.075   1.447   9.214 -0.0094 -0.8658 -0.0340
36889SOL    HW116503   6.148   1.498   9.249 -1.0611 -0.8258  2.3239
36889SOL    HW216504   6.024   1.423   9.291 -2.8777 -0.3294 -1.6245
36890SOL     OW16505   3.672   9.524   9.418  0.1812  0.2901  0.1466
36890SOL    HW116506   3.678   9.463   9.491 -0.1263 -0.1006 -0.1459
36890SOL    HW216507   3.763   9.539   9.391  0.2110 -1.6723 -1.0888
36891SOL     OW16508   2.257   2.649   7.337 -0.3666 -0.0273  0.4094
36891SOL    HW116509   2.268   2.692   7.422 -1.0766  0.6278  0.1793
36891SOL    HW216510   2.162   2.642   7.325 -0.2770 -1.6452  0.4134
36892SOL     OW16511   6.474   5.084   3.964  0.1264  0.0135  0.1226
36892SOL    HW116512   6.493   5.092   4.057 -3.0121 -0.4875  0.9240
36892SOL    HW216513   6.488   4.991   3.944  0.3333  0.0244  0.2213
36893SOL     OW16514   2.039  10.432   8.492 -0.5404  0.2156  0.4398
36893SOL    HW116515   2.017  10.411   8.583 -1.2034 -3.8086 -0.4480
36893SOL    HW216516   2.123  10.478   8.497 -0.9614  0.8199  3.0965
36894SOL     OW16517   5.507   0.411   1.154 -0.1304  1.0379  0.0078
36894SOL    HW116518   5.581   0.367   1.196 -0.9888 -1.6016 -1.0442
36894SOL    HW216519   5.537   0.429   1.065 -0.6490  0.1537 -0.3577
36895SOL     OW16520   2.017   9.870   9.835 -0.0434 -0.3826  0.4316
36895SOL    HW116521   2.103   9.911   9.838 -0.0329 -0.2567 -0.9283
36895SOL    HW216522   2.011   9.819   9.916  1.2397 -0.2685  0.6086
36896SOL     OW16523   7.672   8.405   4.870 -0.0323  0.0045 -0.4331
36896SOL    HW116524   7.589   8.452   4.861  0.1594  0.3297 -0.4879
36896SOL    HW216525   7.685   8.364   4.784 -1.6371 -2.5521  0.4175
36897SOL     OW16526   9.799   4.634   5.462 -0.7826  0.0126  0.5818
36897SOL    HW116527   9.880   4.585   5.475 -0.2903  0.8443  0.6720
36897SOL    HW216528   9.826   4.726   5.460 -2.0148  0.5705  3.5176
36898SOL     OW16529   3.137   2.862   7.516  0.2536  0.1072 -0.0309
36898SOL    HW116530   3.219   2.818   7.495  0.6923  2.0612 -2.9866
36898SOL    HW216531   3.071   2.793   7.513  1.3995 -0.9883 -0.5495
36899SOL     OW16532   8.168   8.373  10.193 -0.3304  0.0226  0.1679
36899SOL    HW116533   8.169   8.358  10.099  0.6133  0.5294  0.0791
36899SOL    HW216534   8.120   8.455  10.204 -0.0307  0.2097  0.0857
36900SOL     OW16535   8.824  10.690   4.431 -0.3565 -0.2716  0.5067
36900SOL    HW116536   8.741  10.648   4.406 -1.3062  1.0879  1.2417
36900SOL    HW216537   8.889  10.621   4.421 -1.6574 -1.5510  0.4504
36901SOL     OW16538   2.986   2.622   4.247 -0.1791  0.3658 -0.0344
36901SOL    HW116539   2.953   2.599   4.333  0.7896 -1.3820 -0.0918
36901SOL    HW216540   2.975   2.542   4.195 -0.9960  1.4572 -1.6337
36902SOL     OW16541   4.718   9.871   1.307 -0.2437  0.0471 -0.3191
36902SOL    HW116542   4.745   9.962   1.312 -2.5612  0.7344  1.3833
36902SOL    HW216543   4.735   9.846   1.216  1.8219  1.6657 -0.4491
36903SOL     OW16544   1.014   0.557   9.515  0.1565 -0.2221 -0.1096
36903SOL    HW116545   0.921   0.564   9.495 -0.3151  2.4741  2.3081
36903SOL    HW216546   1.050   0.643   9.491  1.2049  0.0855  2.2988
36904SOL     OW16547   8.801   5.486   4.047  0.0354 -0.5637 -0.3375
36904SOL    HW116548   8.812   5.511   4.138 -0.6797 -0.3820 -0.2937
36904SOL    HW216549   8.839   5.558   3.997 -1.1034  0.1756 -0.1971
36905SOL     OW16550   7.369   9.013   4.759  0.0611  0.0024 -0.0424
36905SOL    HW116551   7.311   8.960   4.704  0.8882 -0.8835 -0.0978
36905SOL    HW216552   7.322   9.024   4.841  0.1347 -1.4015  0.2093
36906SOL     OW16553   7.773   5.047   8.875  0.3754  0.1994  0.4643
36906SOL    HW116554   7.815   5.064   8.960  0.5727  2.2167  0.0071
36906SOL    HW216555   7.834   4.990   8.829  0.2214 -1.0109  1.6894
36907SOL     OW16556   1.288   6.661   2.136  0.2790 -0.3201  0.3371
36907SOL    HW116557   1.301   6.567   2.125 -0.7389 -0.4333  0.0358
36907SOL    HW216558   1.234   6.687   2.061  0.8601  0.5733  0.2120
36908SOL     OW16559   0.383   7.591  10.073 -0.1826 -0.0762  0.1640
36908SOL    HW116560   0.348   7.632   9.994  1.2181 -0.5749 -0.7621
36908SOL    HW216561   0.429   7.513  10.041  1.2123  0.2087  1.3489
36909SOL     OW16562   1.695   8.456   1.998  1.0950 -0.5072 -0.5957
36909SOL    HW116563   1.664   8.412   2.077  0.3609  0.0449 -0.5599
36909SOL    HW216564   1.679   8.394   1.928 -2.8961  0.7242 -1.0470
36910SOL     OW16565   0.955   7.152   9.893  0.4939 -0.0634  0.2038
36910SOL    HW116566   0.987   7.236   9.924 -0.7967  1.4330 -2.1765
36910SOL    HW216567   0.909   7.114   9.968 -2.2387  3.1834  0.4104
36911SOL     OW16568   3.791   4.450  10.440 -0.1174  0.1069 -0.2419
36911SOL    HW116569   3.743   4.523  10.400  1.8838  2.0638  0.6797
36911SOL    HW216570   3.883   4.469  10.421  0.4261 -2.8951 -0.9911
36912SOL     OW16571   9.666   5.052   5.589 -0.0506 -0.0292 -0.1469
36912SOL    HW116572   9.621   5.028   5.508  0.3279 -0.4243 -0.2452
36912SOL    HW216573   9.745   4.998   5.589 -1.1072 -1.6390  1.5537
36913SOL     OW16574   7.257   0.594   5.071  0.2567 -0.4751 -0.1212
36913SOL    HW116575   7.178   0.568   5.119  0.2574 -2.4341 -1.1066
36913SOL    HW216576   7.240   0.685   5.045 -1.1234 -0.4485  0.7364
36914SOL     OW16577   5.165   3.139   1.476  0.0673 -0.1289  0.0917
36914SOL    HW116578   5.172   3.136   1.571 -0.5165 -0.9980  0.1264
36914SOL    HW216579   5.251   3.113   1.444  0.5240  0.9885  0.3612
36915SOL     OW16580   2.234   8.713   8.206 -0.7360  0.6000 -0.1216
36915SOL    HW116581   2.255   8.764   8.284  0.8171 -0.5671  0.2784
36915SOL    HW216582   2.169   8.649   8.237  0.0468 -0.0113  0.3086
36916SOL     OW16583   5.861  10.522  10.381 -0.0791 -0.2547  0.1819
36916SOL    HW116584   5.773  10.552  10.358  0.1483 -0.8067 -1.5517
36916SOL    HW216585   5.918  10.596  10.361  0.0791 -0.6223 -0.8004
36917SOL     OW16586   5.893   4.974  10.320  0.4753  0.6021  0.3276
36917SOL    HW116587   5.843   5.013  10.248 -0.7088  0.3819  0.9881
36917SOL    HW216588   5.964   4.926  10.277 -0.2650  0.3846 -0.6979
36918SOL     OW16589   1.207   0.910  10.359  0.5265 -0.2883  0.0876
36918SOL    HW116590   1.172   0.895  10.271 -1.7622  0.1583  0.8372
36918SOL    HW216591   1.217   0.823  10.396  1.6049 -0.4858 -0.6302
36919SOL     OW16592   2.961   4.197   4.519 -0.0446 -0.5293 -0.7897
36919SOL    HW116593   2.898   4.255   4.477 -0.1836 -0.4661 -0.5012
36919SOL    HW216594   2.916   4.168   4.599 -0.3073 -1.6994 -1.3426
36920SOL     OW16595  10.573   2.004  10.140 -0.3916  0.7263  0.0945
36920SOL    HW116596  10.546   1.963  10.222 -1.2614  0.2660 -0.3950
36920SOL    HW216597  10.571   2.098  10.158 -0.7857  0.6367  0.5383
36921SOL     OW16598   6.151   4.588   5.021  0.3712  0.5352 -0.1484
36921SOL    HW116599   6.096   4.660   5.052 -0.1989  0.1923 -0.3561
36921SOL    HW216600   6.220   4.580   5.088  0.6205  1.4645 -0.2726
36922SOL     OW16601   0.529   2.557   6.980  0.4233 -0.0490 -0.7879
36922SOL    HW116602   0.572   2.641   6.993  2.3474 -1.1100  0.1451
36922SOL    HW216603   0.554   2.530   6.892  0.5809 -0.0873 -0.7303
36923SOL     OW16604   7.335  10.351   9.849 -0.2298 -0.1844  0.7515
36923SOL    HW116605   7.398  10.376   9.782  0.0531 -0.3304  0.9581
36923SOL    HW216606   7.382  10.365   9.932 -0.5888  0.0324  0.9187
36924SOL     OW16607   4.090   2.826   9.182  0.3459 -0.2883  0.2481
36924SOL    HW116608   4.129   2.880   9.113 -1.5311  1.6349  0.5629
36924SOL    HW216609   4.112   2.872   9.263 -0.4955 -0.5068  0.6104
36925SOL     OW16610   9.039   2.664   2.908  0.2964  0.0457 -0.4913
36925SOL    HW116611   9.071   2.685   2.820  0.9659  0.8070 -0.0832
36925SOL    HW216612   8.944   2.664   2.899  0.3403  0.6117 -1.1172
36926SOL     OW16613  10.457   1.955  10.420 -0.1822  0.0454  0.3851
36926SOL    HW116614  10.427   1.864  10.416 -1.3237  0.4280 -0.1030
36926SOL    HW216615  10.513   1.958  10.497 -0.3828 -0.9936  0.5905
36927SOL     OW16616   7.334   4.648   9.754  0.3343 -0.0402 -0.3135
36927SOL    HW116617   7.374   4.659   9.668  1.4957 -1.0942  0.0592
36927SOL    HW216618   7.330   4.736   9.791  1.1651  0.2413 -0.8798
36928SOL     OW16619   4.794   8.586   9.506  0.1136 -0.5721  0.0592
36928SOL    HW116620   4.726   8.617   9.446 -0.3799  0.8045  1.2515
36928SOL    HW216621   4.861   8.654   9.503 -0.2587 -0.0945  1.5754
36929SOL     OW16622   3.633   9.645   3.862  0.1390  0.0148  0.2742
36929SOL    HW116623   3.626   9.726   3.812 -0.1211 -1.0618 -1.5112
36929SOL    HW216624   3.714   9.604   3.831  1.4642  0.5618  2.7309
36930SOL     OW16625   8.239   7.826   8.940  0.0125  0.4460 -0.1860
36930SOL    HW116626   8.208   7.740   8.912  0.3519 -0.1563  1.1991
36930SOL    HW216627   8.160   7.872   8.970  0.1656 -0.5045  1.8467
36931SOL     OW16628   2.523   2.759   1.234  0.0936  0.8991  0.0776
36931SOL    HW116629   2.517   2.683   1.291 -0.7206  0.3822 -0.6704
36931SOL    HW216630   2.444   2.755   1.180  0.6603  1.5564 -0.8415
36932SOL     OW16631   1.087  10.239   9.565  0.1929 -0.2216  0.5230
36932SOL    HW116632   1.042  10.163   9.603  1.4666 -0.8005  0.9324
36932SOL    HW216633   1.023  10.278   9.506  0.1154 -2.7492 -1.2305
36933SOL     OW16634   6.202   6.525  10.309  0.4857 -0.3926  0.5550
36933SOL    HW116635   6.134   6.495  10.249  0.1563 -1.1793  1.2996
36933SOL    HW216636   6.252   6.590  10.259 -0.4639 -0.2188 -0.1893
36934SOL     OW16637   3.376   9.212   2.915 -0.1207 -0.6161 -0.7605
36934SOL    HW116638   3.413   9.197   3.003 -0.5481  0.0703 -0.4621
36934SOL    HW216639   3.384   9.306   2.901 -0.6116 -0.6380 -1.2143
36935SOL     OW16640  10.174   4.534   9.962  0.5543  0.8173 -0.4625
36935SOL    HW116641  10.087   4.547   9.923  0.8588  0.3370 -1.3095
36935SOL    HW216642  10.210   4.622   9.969  0.4701  0.9173 -1.2071
36936SOL     OW16643   5.714   1.012  10.598  0.0338  0.1684 -0.0990
36936SOL    HW116644   5.633   1.002  10.648  1.0715 -0.3398  1.5831
36936SOL    HW216645   5.781   1.026  10.665  1.6910 -1.7781 -1.2352
36937SOL     OW16646  10.076   0.941   1.593  0.1239 -0.4653  0.4397
36937SOL    HW116647  10.024   0.869   1.559 -2.2785  1.9252 -1.2862
36937SOL    HW216648  10.062   0.939   1.688  1.2245 -2.9776  0.6182
36938SOL     OW16649   8.355   9.464   8.513 -0.6077 -0.1441 -1.1334
36938SOL    HW116650   8.293   9.410   8.464  0.5766  0.9308 -4.0332
36938SOL    HW216651   8.441   9.439   8.479  0.5172 -0.5316  1.7139
36939SOL     OW16652   3.147   7.665   3.397  0.0662  0.4750  0.1820
36939SOL    HW116653   3.105   7.631   3.476  1.2998  0.9136  1.0812
36939SOL    HW216654   3.103   7.748   3.380  0.5692  0.9516  1.1305
36940SOL     OW16655   2.293   3.764   9.960  0.0747 -0.2533 -0.0721
36940SOL    HW116656   2.245   3.810  10.029  0.5461 -1.1561  0.8822
36940SOL    HW216657   2.336   3.692  10.005  1.4875 -0.0853 -1.0909
36941SOL     OW16658   8.497   0.584   5.787 -0.6266 -0.1245 -0.1240
36941SOL    HW116659   8.569   0.615   5.731 -0.2323  0.0627  0.4685
36941SOL    HW216660   8.481   0.494   5.759  0.0084 -0.2470 -0.1077
36942SOL     OW16661   7.710   7.020   2.124 -0.1149 -0.0665 -0.2949
36942SOL    HW116662   7.684   6.997   2.035 -0.9730 -1.4061  0.2744
36942SOL    HW216663   7.750   6.940   2.158 -0.9477  0.0220  0.9393
36943SOL     OW16664   4.451   4.102   5.735  0.0780 -0.0524  0.0065
36943SOL    HW116665   4.472   4.188   5.772  1.9747 -0.3184 -0.3498
36943SOL    HW216666   4.407   4.122   5.652 -1.5787  0.5400  0.9847
36944SOL     OW16667   2.335   3.783   7.533 -0.1184  0.2411 -0.3571
36944SOL    HW116668   2.323   3.700   7.488  0.3815 -0.1974  0.3013
36944SOL    HW216669   2.279   3.778   7.610 -0.2921  0.6276 -0.4525
36945SOL     OW16670   4.074   0.675   4.175  1.0749 -0.2338  0.1197
36945SOL    HW116671   4.072   0.614   4.101  0.6086 -0.5825  0.4127
36945SOL    HW216672   3.982   0.697   4.190  0.9207 -1.7683  1.8859
36946SOL     OW16673   2.528  10.659   4.154  0.6215 -0.0747 -0.2438
36946SOL    HW116674   2.444  10.635   4.114 -0.7973  0.9103  1.9265
36946SOL    HW216675   2.594  10.625   4.094 -1.2582 -3.8143 -0.4678
36947SOL     OW16676   9.337   1.026   8.353 -0.4894  0.3847 -0.7820
36947SOL    HW116677   9.418   0.987   8.387 -1.8367  0.0651  2.4274
36947SOL    HW216678   9.346   1.021   8.258  1.5092 -3.3669 -0.5786
36948SOL     OW16679   4.106   1.913   9.721  0.0572  0.4479 -0.2791
36948SOL    HW116680   4.138   1.938   9.808 -1.0120  1.1466 -0.0738
36948SOL    HW216681   4.165   1.958   9.660  0.6337  0.1844  0.0738
36949SOL     OW16682  10.254   2.350   6.392 -0.1610  0.5159  0.0138
36949SOL    HW116683  10.343   2.382   6.408  0.8827 -2.6324  1.4561
36949SOL    HW216684  10.263   2.296   6.313 -0.1542 -1.6790  1.4375
36950SOL     OW16685   3.041   8.630   5.671  0.1538  1.1485 -0.0957
36950SOL    HW116686   2.950   8.603   5.687 -0.0852  1.2609 -1.1892
36950SOL    HW216687   3.048   8.635   5.576  1.7365 -0.3038 -0.0914
36951SOL     OW16688   3.571   5.142  10.142  0.1064  0.5649  0.0313
36951SOL    HW116689   3.597   5.231  10.165  0.3770  0.6183 -0.4766
36951SOL    HW216690   3.536   5.150  10.053  0.2695  0.1416 -0.0700
36952SOL     OW16691   7.726   2.741  10.120 -0.0731 -0.0948  0.5953
36952SOL    HW116692   7.649   2.795  10.134 -1.7387 -2.0821 -0.4902
36952SOL    HW216693   7.702   2.654  10.153  0.9623 -1.2520 -1.4625
36953SOL     OW16694   2.402   0.140   6.670 -0.1981 -0.0579 -0.3054
36953SOL    HW116695   2.328   0.184   6.629 -1.6112 -1.9627  0.0506
36953SOL    HW216696   2.386   0.148   6.764  0.5081  0.2366 -0.2069
36954SOL     OW16697   4.119  10.449   4.552 -0.7090 -0.0598 -0.5935
36954SOL    HW116698   4.036  10.426   4.595  0.1081 -0.5566  0.7551
36954SOL    HW216699   4.182  10.385   4.584  0.0297 -0.2526 -2.3040
36955SOL     OW16700   1.721   2.517   4.313 -0.1015  0.3257  0.4121
36955SOL    HW116701   1.636   2.477   4.299  0.0823  0.4456 -1.3218
36955SOL    HW216702   1.736   2.510   4.407 -2.4541  1.1975  0.9273
36956SOL     OW16703   2.159   9.060   7.826 -0.8236  0.2715 -0.2196
36956SOL    HW116704   2.211   9.088   7.901  0.4972 -0.0684 -0.9610
36956SOL    HW216705   2.148   8.965   7.838 -2.2029  0.5024  0.4664
36957SOL     OW16706   0.957   9.293   8.445  0.7383 -0.0982  0.4636
36957SOL    HW116707   0.965   9.310   8.539 -0.6390 -2.4032  1.0832
36957SOL    HW216708   0.976   9.200   8.436 -0.0336 -0.1125 -1.4189
36958SOL     OW16709   0.049   2.057   7.214  0.0889 -0.3942 -0.5783
36958SOL    HW116710   0.081   2.145   7.235 -0.3736 -0.3768  0.0887
36958SOL    HW216711   0.049   2.011   7.298 -1.4855 -0.4425 -0.5701
36959SOL     OW16712   4.190   1.295   8.805 -0.0137  0.3194  0.2289
36959SOL    HW116713   4.104   1.331   8.785 -0.3779  0.0438  1.2799
36959SOL    HW216714   4.206   1.231   8.735  0.4042  2.0583 -1.3473
36960SOL     OW16715   0.593   3.453   2.297  0.1838 -0.0401 -0.1775
36960SOL    HW116716   0.668   3.393   2.299 -0.0706 -0.3593 -0.0970
36960SOL    HW216717   0.527   3.407   2.246 -0.3046 -0.1822  0.5612
36961SOL     OW16718   6.132   8.335   9.964  0.1419 -0.1913 -1.1383
36961SOL    HW116719   6.044   8.300   9.950 -0.2706  0.5587 -0.5049
36961SOL    HW216720   6.134   8.415   9.911  0.2558  0.0643 -0.7517
36962SOL     OW16721   5.542  10.311   6.907  0.3791 -0.5903  0.0132
36962SOL    HW116722   5.499  10.268   6.981  1.0863 -1.4333 -0.0502
36962SOL    HW216723   5.634  10.318   6.932  0.5741 -0.6344 -0.6623
36963SOL     OW16724   7.880   2.396   2.642 -0.3614  0.3977  0.0275
36963SOL    HW116725   7.817   2.464   2.618  0.9940  1.4362 -0.7183
36963SOL    HW216726   7.921   2.371   2.560  0.3761 -0.0745  0.5227
36964SOL     OW16727   3.049   5.182   8.403  0.1215 -0.0574 -0.3004
36964SOL    HW116728   3.132   5.179   8.356  0.7104 -0.7581  0.7409
36964SOL    HW216729   2.986   5.218   8.340  1.1313  0.1357 -1.2154
36965SOL     OW16730   1.950   8.585   2.902 -0.0773  0.1199  0.4285
36965SOL    HW116731   1.902   8.502   2.909 -0.2536  0.1297 -0.4812
36965SOL    HW216732   1.933   8.630   2.984  1.3519 -1.4369  1.6567
36966SOL     OW16733   7.235   5.572   3.216 -0.1334 -0.1451  0.2061
36966SOL    HW116734   7.297   5.623   3.267 -0.5624  0.9332 -0.3168
36966SOL    HW216735   7.239   5.484   3.254  0.5161  0.3054  1.2185
36967SOL     OW16736   3.426  10.339   9.005 -0.3491  0.0103 -0.3203
36967SOL    HW116737   3.442  10.248   8.981 -1.5703  0.0776 -1.5164
36967SOL    HW216738   3.512  10.372   9.032  0.4420 -1.0289 -1.4670
36968SOL     OW16739   9.996  10.359   8.740  0.2059  0.0250 -0.1017
36968SOL    HW116740   9.970  10.397   8.824 -1.8366 -0.8852 -0.2693
36968SOL    HW216741   9.959  10.417   8.674  1.7802  0.7200 -0.4357
36969SOL     OW16742   9.299   4.373   6.799 -0.3837 -0.4804  0.1087
36969SOL    HW116743   9.385   4.355   6.836 -1.0086  0.3179  2.0608
36969SOL    HW216744   9.247   4.295   6.820 -0.4801 -0.4423  0.0119
36970SOL     OW16745   1.447   1.696   5.814  0.3569  0.8445  0.2722
36970SOL    HW116746   1.506   1.633   5.856  0.6138  0.9403  0.0579
36970SOL    HW216747   1.471   1.694   5.722  1.1560  2.0942  0.4325
36971SOL     OW16748   0.502   1.776   1.895  0.2347  0.2950 -0.2763
36971SOL    HW116749   0.579   1.800   1.947  0.1978  2.1794 -1.0189
36971SOL    HW216750   0.537   1.726   1.822  0.5513 -0.3103  0.2806
36972SOL     OW16751   2.066   9.401   1.825  0.0652  0.0367 -0.1156
36972SOL    HW116752   2.005   9.426   1.894  2.2170  2.2553  1.1285
36972SOL    HW216753   2.085   9.308   1.843  0.4098  0.4913  2.2285
36973SOL     OW16754   0.515   2.095   9.791  0.8053 -0.5878  0.3539
36973SOL    HW116755   0.432   2.054   9.767  0.0389  1.5470 -0.9853
36973SOL    HW216756   0.581   2.033   9.762 -0.3031 -1.5382 -0.2239
36974SOL     OW16757   0.569   5.527   9.378  0.1559  0.2231 -0.6041
36974SOL    HW116758   0.622   5.605   9.364 -0.0338  0.2179 -1.3946
36974SOL    HW216759   0.622   5.472   9.436 -0.4832  1.6925  1.4716
36975SOL     OW16760   4.223   2.875   2.046 -0.5583 -0.8261 -0.1262
36975SOL    HW116761   4.128   2.874   2.036 -0.6338  1.6003 -0.1540
36975SOL    HW216762   4.252   2.953   1.998  1.3140 -0.8410  0.8725
36976SOL     OW16763  10.339   9.509   2.624 -0.4017 -0.1025 -0.2678
36976SOL    HW116764  10.254   9.471   2.644 -0.9474  0.6102 -1.1391
36976SOL    HW216765  10.358   9.481   2.534  0.1117  0.0387 -0.2071
36977SOL     OW16766   9.076   3.537   1.852  0.4162 -0.3553  0.7214
36977SOL    HW116767   9.033   3.466   1.899 -1.9885  2.0986  2.5141
36977SOL    HW216768   9.008   3.604   1.843  1.8640  0.8628 -2.9953
36978SOL     OW16769   5.466   5.121   8.960  0.0087 -0.1039 -0.2018
36978SOL    HW116770   5.390   5.176   8.942  0.2636  0.5728  0.7149
36978SOL    HW216771   5.429   5.033   8.970 -0.8006  0.3377  1.0772
36979SOL     OW16772   2.608   7.769   6.640  0.3634  0.0080  0.5012
36979SOL    HW116773   2.662   7.762   6.561  1.2831 -1.1350  1.1997
36979SOL    HW216774   2.564   7.854   6.632  1.3886  0.4569 -0.6360
36980SOL     OW16775   1.987   8.285   0.958  0.1685 -0.0627  0.6426
36980SOL    HW116776   2.023   8.353   1.015 -2.0764  0.7915  1.1310
36980SOL    HW216777   1.916   8.328   0.910  1.2684 -1.0403 -2.0707
36981SOL     OW16778   4.574  10.406   6.707 -0.6620 -0.3749 -0.2395
36981SOL    HW116779   4.629  10.439   6.778 -0.4132  0.3677 -0.7732
36981SOL    HW216780   4.596  10.313   6.702 -0.6522 -0.4288  0.6229
36982SOL     OW16781   1.688   6.609   5.683  0.4183  0.8884  0.1199
36982SOL    HW116782   1.767   6.571   5.720  0.0905  0.4775  0.4163
36982SOL    HW216783   1.694   6.703   5.701 -0.7069  0.4847  3.1394
36983SOL     OW16784   3.199   8.865   7.644  0.0118  0.1077 -0.3971
36983SOL    HW116785   3.112   8.848   7.680  0.6333 -1.6209  0.4047
36983SOL    HW216786   3.238   8.930   7.703 -1.1415  1.8630 -1.4803
36984SOL     OW16787   9.174   4.578   3.180  0.1218 -0.0066 -0.0196
36984SOL    HW116788   9.168   4.655   3.122 -0.0537 -0.8127 -1.0941
36984SOL    HW216789   9.135   4.608   3.262 -0.5794  0.8555 -0.6435
36985SOL     OW16790   1.050   2.453   9.601 -0.5230  0.1379  0.5366
36985SOL    HW116791   0.955   2.445   9.598 -0.4274 -2.0545  1.0440
36985SOL    HW216792   1.066   2.529   9.657 -2.0147 -0.4033  1.7994
36986SOL     OW16793   9.767   9.461   3.338 -0.2347  0.2658  0.6642
36986SOL    HW116794   9.748   9.555   3.340 -1.0626  0.1560 -0.6267
36986SOL    HW216795   9.692   9.420   3.380 -0.6110  0.1068 -0.1419
36987SOL     OW16796   2.343   6.483   3.325 -0.3444  0.6451 -0.0128
36987SOL    HW116797   2.359   6.461   3.416  0.7015  0.3357 -0.2570
36987SOL    HW216798   2.248   6.479   3.315 -0.4342  0.2728  0.9510
36988SOL     OW16799   4.729   4.081   2.520  1.0662 -0.0601  0.6732
36988SOL    HW116800   4.639   4.061   2.547  0.0908  0.1417 -2.0621
36988SOL    HW216801   4.734   4.176   2.522  0.5102  0.0355 -1.0374
36989SOL     OW16802   9.005   1.781   0.952  0.0076  0.5530  0.3334
36989SOL    HW116803   8.967   1.719   0.890  1.0533 -0.0675  0.2964
36989SOL    HW216804   8.966   1.757   1.036 -0.4213  0.5524  0.1379
36990SOL     OW16805   2.696   5.552   9.855 -0.2438 -0.6682 -0.4312
36990SOL    HW116806   2.698   5.623   9.791  0.0394 -0.8385 -0.6095
36990SOL    HW216807   2.769   5.571   9.914  0.2957 -1.2139 -0.9119
36991SOL     OW16808  10.138   8.701   7.939 -1.1510  0.2711  0.6473
36991SOL    HW116809  10.046   8.676   7.943 -1.2269  0.5327  0.5795
36991SOL    HW216810  10.155   8.712   7.845 -0.4806 -1.8579  0.4720
36992SOL     OW16811   4.132   7.786   6.520  0.2552  0.2947  0.6623
36992SOL    HW116812   4.171   7.870   6.546 -0.4441  1.3420 -1.3845
36992SOL    HW216813   4.189   7.753   6.451 -1.8438  1.4613 -1.8184
36993SOL     OW16814   7.663   4.893   9.245  0.1526 -0.2698 -0.6109
36993SOL    HW116815   7.675   4.988   9.252  3.2789 -0.6697  0.8316
36993SOL    HW216816   7.736   4.863   9.192  1.0587 -2.1618  1.5424
36994SOL     OW16817  10.590   4.971   0.714 -0.7947 -0.3455  0.8830
36994SOL    HW116818  10.654   5.036   0.743 -1.3152  1.1945 -1.1345
36994SOL    HW216819  10.511   4.990   0.765 -0.7545  0.2292  0.7375
36995SOL     OW16820   9.584   6.911   8.243  0.1321  0.1671  0.1046
36995SOL    HW116821   9.590   6.993   8.193 -1.8082  0.7805  0.7741
36995SOL    HW216822   9.610   6.843   8.182  1.2541  1.2329 -0.6426
36996SOL     OW16823   4.042   2.193   6.274 -0.0294 -0.0410  0.5759
36996SOL    HW116824   4.012   2.277   6.239 -1.0414 -1.4576 -2.2267
36996SOL    HW216825   4.137   2.200   6.272 -0.0897  0.9534  0.1257
36997SOL     OW16826   7.496   1.044   2.925  0.5720  0.3002  0.5170
36997SOL    HW116827   7.511   1.083   2.839 -1.3954  3.0405  1.2953
36997SOL    HW216828   7.425   0.981   2.911  1.7175 -0.8924 -0.1891
36998SOL     OW16829   9.148  10.198   9.587  0.4940 -0.1292 -0.6682
36998SOL    HW116830   9.124  10.106   9.596  0.5301 -0.0791 -0.0424
36998SOL    HW216831   9.223  10.209   9.646 -0.5930  0.7110  0.6034
36999SOL     OW16832   6.883   1.737   8.679 -0.0307  0.2816  0.3470
36999SOL    HW116833   6.810   1.734   8.617  0.2562 -0.8955  0.0515
36999SOL    HW216834   6.916   1.827   8.672  1.6686 -0.4517 -3.1852
37000SOL     OW16835   7.499   8.089   2.239 -0.2580  0.6364  0.2925
37000SOL    HW116836   7.586   8.128   2.233 -0.5542  1.0868 -2.1092
37000SOL    HW216837   7.478   8.062   2.150 -1.8424 -1.1677  1.1279
37001SOL     OW16838   4.913   2.397   6.552 -0.6523  0.4653 -0.2573
37001SOL    HW116839   4.935   2.329   6.616 -0.3659  0.0750 -0.7715
37001SOL    HW216840   4.944   2.363   6.468 -0.7516  1.1110 -0.5614
37002SOL     OW16841   5.313   2.836   0.924  0.0399 -0.1291 -0.1562
37002SOL    HW116842   5.326   2.741   0.920  0.0598 -0.1184 -0.3834
37002SOL    HW216843   5.349   2.862   1.008  0.1312 -0.3105 -0.1393
37003SOL     OW16844   7.194   8.407   3.716 -0.2915 -0.0212 -0.3007
37003SOL    HW116845   7.281   8.445   3.708 -0.2057 -0.4147 -1.4820
37003SOL    HW216846   7.135   8.473   3.680 -0.4777  0.2190  0.4385
37004SOL     OW16847   7.536   2.389   9.329  0.0937  0.1488  0.0711
37004SOL    HW116848   7.615   2.442   9.326 -1.1857  2.1309 -0.0817
37004SOL    HW216849   7.479   2.426   9.262 -1.9195  0.3768  1.8124
37005SOL     OW16850   7.922   0.993   2.188 -0.3547  0.3578  0.2012
37005SOL    HW116851   7.884   0.953   2.109  1.4690  0.1886 -0.6410
37005SOL    HW216852   7.895   0.935   2.259 -0.5781 -0.4844 -0.5467
37006SOL     OW16853   9.372   5.901   2.413 -0.2781 -0.2978  0.2079
37006SOL    HW116854   9.395   5.994   2.419  0.8499 -0.4815 -0.9583
37006SOL    HW216855   9.409   5.862   2.491  1.5893 -0.2057 -0.5890
37007SOL     OW16856   8.099   8.757   5.705 -0.3558 -0.2965  0.2372
37007SOL    HW116857   8.154   8.712   5.642  1.6433  1.9560  0.2057
37007SOL    HW216858   8.159   8.785   5.774 -2.2352 -1.5033  2.5253
37008SOL     OW16859   9.766   5.039   7.839 -0.2454 -0.6948 -0.5184
37008SOL    HW116860   9.781   5.114   7.781  1.3900  0.6517  1.5122
37008SOL    HW216861   9.771   4.963   7.781 -0.9263  0.6924 -2.4837
37009SOL     OW16862   2.695   3.010   6.537 -0.0060  0.3710  0.3267
37009SOL    HW116863   2.646   2.950   6.593 -0.3981 -0.6112 -1.0317
37009SOL    HW216864   2.781   3.017   6.580 -1.3452  2.4746  2.9941
37010SOL     OW16865   3.445   8.735   3.457  0.2459  0.2201 -0.1016
37010SOL    HW116866   3.408   8.717   3.543  1.3336  1.0507  0.5668
37010SOL    HW216867   3.441   8.831   3.449 -1.6463  0.0765 -1.8248
37011SOL     OW16868   1.180   7.054   3.292 -0.0380  0.3552 -0.1203
37011SOL    HW116869   1.155   7.061   3.200  2.1135 -0.7732 -0.8598
37011SOL    HW216870   1.215   7.140   3.315 -1.1573  0.8341 -0.1237
37012SOL     OW16871   6.421   7.550   8.174 -0.9058 -0.4208 -0.8334
37012SOL    HW116872   6.450   7.584   8.259 -0.4112 -2.3312 -0.1767
37012SOL    HW216873   6.376   7.624   8.132 -0.5645  0.7662  0.7918
37013SOL     OW16874   6.920   3.016   3.174  0.3031 -0.5629  0.2036
37013SOL    HW116875   6.919   2.937   3.119  0.8053 -0.9982  0.7955
37013SOL    HW216876   7.011   3.023   3.203  0.6172  1.0922 -1.0192
37014SOL     OW16877   9.185   4.700   8.940 -0.3021  0.0816 -0.0345
37014SOL    HW116878   9.227   4.617   8.961 -0.6525 -0.1634 -0.3055
37014SOL    HW216879   9.101   4.676   8.900 -1.8466  0.5648  2.7154
37015SOL     OW16880   5.360   5.443   9.287 -0.1296  0.7808 -0.1182
37015SOL    HW116881   5.284   5.410   9.239 -0.1803 -0.2668  0.6373
37015SOL    HW216882   5.352   5.538   9.282 -1.0546  0.6835 -0.7331
37016SOL     OW16883   0.224   8.148   0.966 -0.2361 -0.2080  0.5713
37016SOL    HW116884   0.141   8.168   0.923 -0.1743  2.1100  1.3779
37016SOL    HW216885   0.206   8.156   1.059  0.5461 -1.2112  0.8228
37017SOL     OW16886   3.399   5.680   9.023 -0.2398 -0.2346  0.1384
37017SOL    HW116887   3.452   5.759   9.009 -1.8699  0.4737 -2.6591
37017SOL    HW216888   3.336   5.704   9.091 -0.9673  1.0451 -0.9612
37018SOL     OW16889   8.919   0.963   4.515 -0.8993 -0.3014  0.3540
37018SOL    HW116890   8.990   0.967   4.450 -0.4728 -1.5465  0.7085
37018SOL    HW216891   8.917   1.051   4.553 -1.5072  0.6276 -1.6759
37019SOL     OW16892   3.615   9.178   0.328  0.4321 -0.0984  0.1828
37019SOL    HW116893   3.659   9.142   0.405 -2.0924 -2.4233  0.7258
37019SOL    HW216894   3.639   9.119   0.257 -1.2274 -1.0800  0.3772
37020SOL     OW16895   8.310   8.464   8.000 -0.1005 -0.1588  0.2813
37020SOL    HW116896   8.303   8.535   8.063  0.3287 -0.2277  0.4098
37020SOL    HW216897   8.330   8.387   8.053  0.0196 -0.2641  0.0845
37021SOL     OW16898   7.099   2.667   2.278 -0.4783  0.2614 -0.5801
37021SOL    HW116899   7.026   2.609   2.260 -0.6528  0.1715  0.3882
37021SOL    HW216900   7.076   2.749   2.233 -0.9581  0.0890 -0.6512
37022SOL     OW16901   4.703   6.215  10.086 -0.0626  0.0671 -0.7661
37022SOL    HW116902   4.693   6.212  10.182  2.3030 -1.2753 -0.4789
37022SOL    HW216903   4.622   6.177  10.053 -1.6620  2.1009  0.5887
37023SOL     OW16904   4.823   9.179   0.077  0.1285 -0.5530  0.1911
37023SOL    HW116905   4.742   9.228   0.090  0.7515  0.2259  1.2235
37023SOL    HW216906   4.802   9.117   0.007 -0.8905  0.6815 -0.6335
37024SOL     OW16907   9.491   9.873   6.424  0.2598 -0.2106 -0.2263
37024SOL    HW116908   9.465   9.847   6.336  1.8836  1.5431 -1.3073
37024SOL    HW216909   9.580   9.908   6.414 -0.0126  1.3314  1.8399
37025SOL     OW16910   2.677   6.601   7.376 -0.1816 -0.1973  0.4011
37025SOL    HW116911   2.682   6.655   7.298 -0.4783 -1.1392 -0.2836
37025SOL    HW216912   2.723   6.652   7.443  2.7411 -0.6380 -1.1006
37026SOL     OW16913   2.401   1.814   5.493 -0.2984 -0.0400  0.0937
37026SOL    HW116914   2.323   1.819   5.548 -0.0862  0.7583  0.3383
37026SOL    HW216915   2.369   1.779   5.410 -0.7309 -0.6837  0.5205
37027SOL     OW16916   3.293   2.438   6.125 -0.1631 -0.1818  0.8474
37027SOL    HW116917   3.311   2.345   6.141  0.1124 -0.5396 -1.2300
37027SOL    HW216918   3.293   2.446   6.029 -3.1251  1.3895  0.8577
37028SOL     OW16919   4.741   8.998  10.610  0.0696  0.2697  0.4341
37028SOL    HW116920   4.705   8.911  10.591  0.2264 -0.1106  1.7805
37028SOL    HW216921   4.714   9.052  10.535  0.3977 -1.0461 -0.6640
37029SOL     OW16922   5.738   0.367   0.317 -0.0584 -0.3391  0.0159
37029SOL    HW116923   5.774   0.292   0.270 -2.2394 -0.8248 -0.9668
37029SOL    HW216924   5.806   0.390   0.381  0.1181 -4.0595  1.3807
37030SOL     OW16925   1.047   3.629   4.008  0.0263 -0.2001  0.4259
37030SOL    HW116926   1.069   3.665   4.094  1.8644  0.5564 -0.3078
37030SOL    HW216927   0.954   3.648   3.997  0.1517  1.2011  1.5480
37031SOL     OW16928   1.775   4.090   5.853 -0.5152  0.1451  0.6183
37031SOL    HW116929   1.768   4.016   5.913 -2.0609 -0.3133 -0.0916
37031SOL    HW216930   1.712   4.154   5.886  0.8839  1.2423  1.2889
37032SOL     OW16931   5.201   3.745   5.405 -0.2737  0.1315  0.0233
37032SOL    HW116932   5.275   3.713   5.352 -0.0977  0.6747 -0.0687
37032SOL    HW216933   5.237   3.820   5.453 -1.2064  1.5310 -1.3694
37033SOL     OW16934   4.263   8.605  10.605  0.3137  0.2634  0.5090
37033SOL    HW116935   4.312   8.641  10.532 -2.8870  2.3573 -0.8502
37033SOL    HW216936   4.317   8.623  10.682  2.7043  0.1549 -1.0515
37034SOL     OW16937   6.582  10.249   3.164  0.3264 -0.6222 -0.0447
37034SOL    HW116938   6.625  10.334   3.156  0.1182 -0.5910 -0.9822
37034SOL    HW216939   6.580  10.231   3.258  1.6804 -0.2725  0.0652
37035SOL     OW16940   9.615   8.452   9.815 -0.6080 -0.2466  0.2280
37035SOL    HW116941   9.642   8.543   9.805 -1.5346  0.0535  0.2865
37035SOL    HW216942   9.671   8.404   9.754  1.4117  0.0206  1.7772
37036SOL     OW16943   3.978   9.029   4.885  0.0186  0.6474  0.4153
37036SOL    HW116944   3.964   9.111   4.838 -2.0123 -0.2182 -0.5717
37036SOL    HW216945   4.053   8.988   4.841  0.9351  1.8299  0.8037
37037SOL     OW16946   6.546   2.078   6.510  0.1467  0.2817  0.0874
37037SOL    HW116947   6.504   2.159   6.539 -0.8338  0.2448 -1.1238
37037SOL    HW216948   6.514   2.011   6.571  1.5808  0.8978  1.5808
37038SOL     OW16949   6.531   1.192   7.050 -0.3819  0.2277 -0.0085
37038SOL    HW116950   6.516   1.147   7.133 -0.8082  0.5036  0.0665
37038SOL    HW216951   6.598   1.140   7.006 -0.4657 -0.1612  0.3221
37039SOL     OW16952   3.922   5.840   0.911  0.5917 -0.2950  0.2262
37039SOL    HW116953   3.933   5.859   1.004  1.0166 -0.7471  0.2713
37039SOL    HW216954   3.850   5.778   0.907  0.1590  0.2075  0.2002
37040SOL     OW16955   0.522  10.679   5.032  0.3090  0.0929 -0.0580
37040SOL    HW116956   0.451  10.720   5.081  0.6434  1.6256 -0.7886
37040SOL    HW216957   0.485  10.664   4.945 -0.4144 -2.9791  0.6630
37041SOL     OW16958   4.680   6.827   0.233  0.8091  0.1142 -0.2036
37041SOL    HW116959   4.724   6.756   0.186 -2.2550 -2.3643  0.3053
37041SOL    HW216960   4.647   6.786   0.313  0.1471  2.5366  0.8413
37042SOL     OW16961   1.116   0.721   3.004  0.0629 -0.5459  0.3971
37042SOL    HW116962   1.146   0.742   2.915 -0.1845 -0.2355  0.3862
37042SOL    HW216963   1.194   0.688   3.048  0.4092  0.1808  0.3436
37043SOL     OW16964   7.751  10.082   7.900  1.1620  1.0980  0.1618
37043SOL    HW116965   7.806  10.122   7.833  2.2012  0.4852  0.6174
37043SOL    HW216966   7.676  10.140   7.908  0.4332  0.6365 -2.3157
37044SOL     OW16967   6.183   2.681   6.499  0.1841  0.4771 -0.8243
37044SOL    HW116968   6.107   2.653   6.550  1.4426 -1.8441 -0.0754
37044SOL    HW216969   6.147   2.707   6.414 -1.3852 -1.6414 -0.8880
37045SOL     OW16970   1.960   8.723   2.226 -0.3219  0.6196  0.1605
37045SOL    HW116971   1.951   8.789   2.295 -0.1087  1.7187 -0.8328
37045SOL    HW216972   2.039   8.749   2.178  1.2166 -1.7749  1.2060
37046SOL     OW16973   0.482   8.662   2.089  0.0826 -0.5478  0.1399
37046SOL    HW116974   0.561   8.715   2.100  1.4097 -1.7319 -2.6255
37046SOL    HW216975   0.423   8.719   2.039  0.7076 -0.8898 -1.0398
37047SOL     OW16976   4.029   7.412   2.878  0.1581 -0.1713  0.0078
37047SOL    HW116977   4.003   7.351   2.948  0.5632  0.4753  0.7311
37047SOL    HW216978   4.074   7.357   2.814 -0.3386 -0.7956  0.1809
37048SOL     OW16979   1.067   1.240   4.600 -0.5587 -0.4362  0.0871
37048SOL    HW116980   1.020   1.209   4.522  0.4344 -1.5151 -0.1097
37048SOL    HW216981   1.061   1.335   4.595  2.9640 -0.1070 -3.6561
37049SOL     OW16982   2.822   8.046   7.687 -0.1615  0.2316 -0.3743
37049SOL    HW116983   2.783   8.087   7.765 -0.1384  0.0582 -0.2697
37049SOL    HW216984   2.860   7.965   7.720  0.2579  0.3804 -0.4814
37050SOL     OW16985   6.807   2.194   1.668  0.1968  0.0744 -0.0994
37050SOL    HW116986   6.761   2.238   1.597  0.3329 -0.0937 -0.2934
37050SOL    HW216987   6.869   2.136   1.624 -1.1636 -1.6141  0.1082
37051SOL     OW16988   9.199   3.470   1.348  0.1941  0.3071  0.2631
37051SOL    HW116989   9.152   3.439   1.425  0.0832  2.1620  1.0002
37051SOL    HW216990   9.190   3.399   1.284 -1.8834 -0.2367  1.0685
37052SOL     OW16991   9.012  10.345   2.122 -0.1150 -0.0171 -0.0816
37052SOL    HW116992   9.077  10.277   2.141 -0.7925 -0.8073 -0.5281
37052SOL    HW216993   8.935  10.297   2.093 -0.9319  0.9092  0.5067
37053SOL     OW16994   3.305   1.694   8.737  0.4142 -0.1496  0.5740
37053SOL    HW116995   3.343   1.607   8.722 -0.7596 -0.6462  0.4298
37053SOL    HW216996   3.254   1.685   8.817 -0.0891  0.2762  0.3084
37054SOL     OW16997   8.126   2.379   6.170 -0.3088  0.0718 -0.5246
37054SOL    HW116998   8.101   2.365   6.262 -0.3766  1.3024 -0.3405
37054SOL    HW216999   8.076   2.313   6.122 -0.3865 -0.4965  0.3052
37055SOL     OW17000   9.998   3.180   8.979  0.3559 -0.1200  0.2015
37055SOL    HW117001   9.963   3.251   8.925 -1.3097 -1.7878 -1.0053
37055SOL    HW217002  10.073   3.147   8.931  0.7914  0.4392  0.4889
37056SOL     OW17003   1.904   3.165   5.436 -0.3946 -0.1649  0.1172
37056SOL    HW117004   1.846   3.166   5.512  0.0179  2.0932  0.4519
37056SOL    HW217005   1.846   3.144   5.362 -1.0425 -1.0303  0.8487
37057SOL     OW17006   8.335   4.439   9.172  0.1084 -0.7794  1.0849
37057SOL    HW117007   8.272   4.471   9.107  0.2464 -0.6181  1.0333
37057SOL    HW217008   8.374   4.518   9.209  1.1574 -0.8928  0.2722
37058SOL     OW17009   6.985   4.426   2.297  0.1625 -0.4276  0.0038
37058SOL    HW117010   6.988   4.503   2.241  0.5277  0.2059  0.8782
37058SOL    HW217011   6.940   4.455   2.376 -0.3986 -1.3270  0.0213
37059SOL     OW17012   3.768   4.571   6.260 -0.0500 -0.2554  0.1750
37059SOL    HW117013   3.841   4.518   6.226 -0.1234 -0.2219 -0.0347
37059SOL    HW217014   3.693   4.546   6.206 -0.0673  0.1256  0.0178
37060SOL     OW17015   8.351   2.666   9.800  1.6197  0.1972  0.6766
37060SOL    HW117016   8.292   2.685   9.727  1.7894  0.2521  0.5524
37060SOL    HW217017   8.312   2.591   9.844  0.8113  0.9630  1.3104
37061SOL     OW17018   6.073   0.982   8.808  0.0862  0.6352  0.3940
37061SOL    HW117019   6.156   1.022   8.835  0.6711 -0.3656  0.1324
37061SOL    HW217020   6.007   1.024   8.863  1.0885 -0.4193  2.4891
37062SOL     OW17021   6.358   2.222   4.010 -0.0158  0.1773 -0.3583
37062SOL    HW117022   6.290   2.184   4.066  0.6922 -1.4886 -0.5682
37062SOL    HW217023   6.410   2.277   4.069  0.6473 -1.4513  0.6748
37063SOL     OW17024   1.484   7.440   9.964  0.2025 -0.0580  0.7518
37063SOL    HW117025   1.476   7.509  10.030  1.5117  0.1529  0.7173
37063SOL    HW217026   1.469   7.359  10.012  3.6223 -0.1346  1.9620
37064SOL     OW17027   7.732   4.902   3.783 -0.3509 -0.3962  0.2653
37064SOL    HW117028   7.810   4.957   3.795 -0.1297 -0.4781 -0.7432
37064SOL    HW217029   7.766   4.813   3.779 -0.5588 -0.4818  0.3730
37065SOL     OW17030   3.957   0.888   7.731  0.0000 -0.1342  0.6923
37065SOL    HW117031   3.926   0.842   7.809  0.0885 -1.9596 -0.2829
37065SOL    HW217032   3.896   0.961   7.720  0.0277  0.2039  2.4716
37066SOL     OW17033   9.673   2.358   7.879  0.5091 -0.3360 -0.6058
37066SOL    HW117034   9.660   2.414   7.802  0.1910 -0.8275 -0.9193
37066SOL    HW217035   9.753   2.391   7.920 -0.4102  1.2272  0.0106
37067SOL     OW17036   1.898  10.720   1.740 -0.0793 -0.2540 -0.1397
37067SOL    HW117037   1.821  10.722   1.684 -1.3920  0.2667  1.5989
37067SOL    HW217038   1.968  10.758   1.687 -2.0046  3.2973 -0.4192
37068SOL     OW17039   7.992   9.042   0.180 -0.0651  0.4375 -0.2411
37068SOL    HW117040   8.001   9.107   0.111 -0.3662 -2.5940 -3.4626
37068SOL    HW217041   7.920   8.986   0.150 -1.1167 -0.3639  3.2776
37069SOL     OW17042   4.401   4.330   2.312 -0.2932 -0.1089  0.0721
37069SOL    HW117043   4.340   4.256   2.315  0.2265 -0.5269  0.4156
37069SOL    HW217044   4.389   4.367   2.225 -1.8921  0.5412  0.5310
37070SOL     OW17045   2.335   8.298   5.832 -0.2588  0.3045 -0.3738
37070SOL    HW117046   2.250   8.276   5.794 -0.2357  0.4581 -0.5150
37070SOL    HW217047   2.397   8.285   5.760 -0.0490 -0.6625 -0.0247
37071SOL     OW17048   1.237   1.349   3.710  0.1743 -0.5889 -0.6814
37071SOL    HW117049   1.259   1.417   3.774  1.7834 -2.4326  0.8230
37071SOL    HW217050   1.271   1.383   3.627 -0.4976  1.1216 -0.3002
37072SOL     OW17051   5.928   6.655   3.235  0.1926 -0.3612  0.0083
37072SOL    HW117052   5.911   6.573   3.189  0.0199  0.1218 -0.8193
37072SOL    HW217053   5.865   6.717   3.198  0.1594  0.0890  0.7894
37073SOL     OW17054   1.655   8.163   7.371 -0.0291  0.8101 -0.0156
37073SOL    HW117055   1.738   8.201   7.398 -1.0047  1.7954  1.7760
37073SOL    HW217056   1.642   8.090   7.431 -1.1683  1.6206  0.7587
37074SOL     OW17057   2.289   5.614   0.121  0.4619 -0.2886 -0.5320
37074SOL    HW117058   2.208   5.623   0.171 -0.3990 -0.3125 -1.8591
37074SOL    HW217059   2.295   5.520   0.101  1.1237 -0.3734  0.0370
37075SOL     OW17060   6.241   2.618  10.062  0.1460 -0.0526 -0.4929
37075SOL    HW117061   6.319   2.668  10.038  0.0284  0.6485  0.5307
37075SOL    HW217062   6.270   2.526  10.060  0.7418  0.1376 -1.0085
37076SOL     OW17063   0.399   0.480  10.625 -0.0466  0.0416 -0.0310
37076SOL    HW117064   0.478   0.507  10.671  0.9164 -1.6196 -0.6134
37076SOL    HW217065   0.370   0.558  10.579  0.4569  1.0437  1.2719
37077SOL     OW17066   4.268   5.041   9.940  0.4708 -0.6171 -0.0016
37077SOL    HW117067   4.344   5.099   9.950  0.6700 -0.9471  0.4047
37077SOL    HW217068   4.250   5.009  10.028 -1.2319  0.8143  0.2301
37078SOL     OW17069   8.699   9.442   9.129 -0.2807 -0.3575 -0.2276
37078SOL    HW117070   8.778   9.446   9.075  0.8659  1.3849  1.4287
37078SOL    HW217071   8.633   9.490   9.079 -0.3424 -1.8297 -1.6252
37079SOL     OW17072   3.152   0.176   9.913  0.1948 -0.6506  0.7586
37079SOL    HW117073   3.214   0.152   9.981  1.9806  1.1940 -0.1435
37079SOL    HW217074   3.206   0.206   9.840 -1.6259 -2.5840 -1.5509
37080SOL     OW17075   1.693   9.207   1.258  0.0772  0.3343 -0.3590
37080SOL    HW117076   1.703   9.300   1.238 -1.7601  0.3810 -1.2849
37080SOL    HW217077   1.733   9.196   1.344  2.1891  1.5267 -1.1236
37081SOL     OW17078   2.043   0.933  10.675  0.2871 -0.3168 -0.0756
37081SOL    HW117079   2.021   1.026  10.665  1.6980  0.2599  1.6650
37081SOL    HW217080   1.959   0.890  10.692 -0.3141  0.7266 -0.3084
37082SOL     OW17081   9.235  10.699   9.453  0.0138 -0.2291  0.2071
37082SOL    HW117082   9.210  10.753   9.378 -0.2381 -2.0980 -1.1274
37082SOL    HW217083   9.301  10.751   9.499 -2.5180  2.6278  0.9189
37083SOL     OW17084  10.246   8.644   5.681  0.3039 -1.0300 -0.0845
37083SOL    HW117085  10.188   8.673   5.610  0.4646 -1.0779 -0.2350
37083SOL    HW217086  10.186   8.626   5.754  0.1834 -0.5193 -0.0526
37084SOL     OW17087   5.512   9.904   1.420 -0.0219 -0.1440 -0.0841
37084SOL    HW117088   5.459   9.962   1.474 -0.4519 -1.3436  0.8202
37084SOL    HW217089   5.548   9.840   1.481  0.9181 -0.4956 -0.9681
37085SOL     OW17090  10.447   9.805   9.318 -0.3494  0.3355  0.0247
37085SOL    HW117091  10.509   9.759   9.374  0.1719  0.8128 -0.1486
37085SOL    HW217092  10.362   9.768   9.342 -0.2204  0.9402  1.5554
37086SOL     OW17093   6.835  10.241   7.371  0.2442  0.1009 -0.0495
37086SOL    HW117094   6.792  10.192   7.301  0.5164 -1.5517  0.8938
37086SOL    HW217095   6.926  10.209   7.370  0.2111 -0.0656  1.1453
37087SOL     OW17096   7.489   5.976   1.715  0.6379 -0.1058 -0.4308
37087SOL    HW117097   7.471   6.000   1.624 -0.0502  0.7558 -0.0886
37087SOL    HW217098   7.564   5.917   1.710  0.1465 -0.6613 -1.6114
37088SOL     OW17099   8.765   2.422   0.800  0.3457  0.2650  0.2360
37088SOL    HW117100   8.750   2.483   0.728 -2.2919  0.0510  0.5203
37088SOL    HW217101   8.857   2.397   0.791  0.9473  2.6392 -1.1421
37089SOL     OW17102   1.849   6.693   3.162  0.1234  0.3281  0.4176
37089SOL    HW117103   1.874   6.752   3.233  0.8092  0.4192  0.1158
37089SOL    HW217104   1.797   6.748   3.103 -0.8790  0.1209  1.0858
37090SOL     OW17105   3.914   0.630   7.135 -0.1020  0.1040  0.0139
37090SOL    HW117106   3.935   0.651   7.226  0.8800  0.0749 -0.1985
37090SOL    HW217107   3.855   0.555   7.141 -2.3035  1.7809  0.7174
37091SOL     OW17108   6.125   7.573   8.297 -0.2954  0.1874  0.0730
37091SOL    HW117109   6.064   7.502   8.277  0.0424 -0.7255  2.0785
37091SOL    HW217110   6.201   7.530   8.336  0.9452  1.4632 -0.8279
37092SOL     OW17111   6.613   8.286   7.233 -0.4271 -0.2154  0.1309
37092SOL    HW117112   6.673   8.212   7.250  1.2045  0.9087 -0.4587
37092SOL    HW217113   6.583   8.313   7.319  0.3088 -0.4978  0.4854
37093SOL     OW17114   7.220   9.264   0.426  0.0614 -0.5156  0.1685
37093SOL    HW117115   7.231   9.337   0.365 -0.0385 -1.3136 -0.8422
37093SOL    HW217116   7.130   9.272   0.456  0.0138 -0.2850 -0.0229
37094SOL     OW17117   5.552   3.777   0.165  0.4330  0.2617  0.3654
37094SOL    HW117118   5.552   3.808   0.074 -0.0597 -2.0788 -0.4966
37094SOL    HW217119   5.590   3.689   0.160 -0.8093 -0.4331  2.2276
37095SOL     OW17120   4.609   1.173   9.808  0.1337 -0.2920 -0.0247
37095SOL    HW117121   4.545   1.243   9.818  0.8999  0.4552 -0.2052
37095SOL    HW217122   4.679   1.196   9.869  0.4962 -0.7835 -0.2538
37096SOL     OW17123   9.703   3.020   4.977 -0.5241  0.3495  0.1920
37096SOL    HW117124   9.673   2.983   4.894 -0.3043 -0.6761  0.5452
37096SOL    HW217125   9.672   2.958   5.043  1.9695 -0.5971  0.6159
37097SOL     OW17126   6.627   3.302   0.151 -0.2724  0.1698 -0.4222
37097SOL    HW117127   6.675   3.383   0.169 -0.0026  0.3319 -1.7845
37097SOL    HW217128   6.679   3.257   0.085 -0.7566 -0.8155 -0.1538
37098SOL     OW17129   6.435   0.822   3.792  0.2046  0.1625 -0.4369
37098SOL    HW117130   6.420   0.743   3.842  2.0459  0.4601  0.6514
37098SOL    HW217131   6.397   0.803   3.706  0.9260 -2.0269 -0.3280
37099SOL     OW17132   1.024   2.566   8.645  0.3008  0.2234 -0.0252
37099SOL    HW117133   1.103   2.563   8.699  0.1173  0.4566  0.2640
37099SOL    HW217134   1.000   2.474   8.633 -0.3702  0.1934  1.3686
37100SOL     OW17135   5.353   8.356   0.671 -0.4534 -0.1606  0.0241
37100SOL    HW117136   5.325   8.266   0.651 -1.5407  0.3007 -0.5672
37100SOL    HW217137   5.448   8.354   0.658 -0.1868 -1.6369  1.6388
37101SOL     OW17138   3.984   6.046   8.250  0.1145  0.3228  0.3701
37101SOL    HW117139   3.956   5.956   8.237 -0.3170  0.5377 -0.2295
37101SOL    HW217140   4.079   6.043   8.244  0.0345  0.1039 -0.9272
37102SOL     OW17141   0.191   6.237   9.719 -0.7239  0.5145 -0.1628
37102SOL    HW117142   0.129   6.190   9.773 -1.7085  1.4396 -0.4484
37102SOL    HW217143   0.138   6.274   9.648  0.1200  1.4353 -0.3367
37103SOL     OW17144   0.686   6.959   2.906 -0.4878 -0.1041  0.3380
37103SOL    HW117145   0.628   7.030   2.879  0.9573  1.2543  0.5928
37103SOL    HW217146   0.766   6.972   2.855  0.1758 -0.9435  1.1130
37104SOL     OW17147   5.063   2.816   9.274  0.2959  0.1734  0.1544
37104SOL    HW117148   5.016   2.790   9.195 -0.0066  3.8994 -1.0445
37104SOL    HW217149   4.998   2.808   9.344 -0.7105  0.7751 -0.6867
37105SOL     OW17150   0.471   1.279   8.448  0.0846 -0.3848 -0.3788
37105SOL    HW117151   0.454   1.187   8.467 -0.2936 -0.1387  0.5130
37105SOL    HW217152   0.391   1.324   8.473  0.1297  0.1525 -1.1637
37106SOL     OW17153   1.573   7.206   5.258  0.5388  0.6475 -0.1453
37106SOL    HW117154   1.501   7.251   5.216  0.8886  0.3824 -1.0514
37106SOL    HW217155   1.644   7.270   5.259 -0.2134  1.5704  2.4291
37107SOL     OW17156   7.352   2.801   1.488 -0.0625  0.0469 -0.5227
37107SOL    HW117157   7.297   2.792   1.410  0.8094 -2.5100 -0.9282
37107SOL    HW217158   7.310   2.744   1.552  0.4087  0.5062  0.1983
37108SOL     OW17159   7.930   5.123   2.296  0.2050  0.1441  0.2424
37108SOL    HW117160   7.872   5.195   2.323  2.5660  2.1741  0.2824
37108SOL    HW217161   7.894   5.093   2.213 -0.7645  1.5330  0.1197
37109SOL     OW17162   9.929   8.235  10.248  0.1607  0.4347  0.3050
37109SOL    HW117163   9.963   8.162  10.300 -0.5513 -1.6079 -1.9075
37109SOL    HW217164   9.834   8.232  10.263 -0.0426 -0.1428 -1.0223
37110SOL     OW17165   5.371   4.901   0.102  0.6381  0.2724  0.2583
37110SOL    HW117166   5.432   4.862   0.039 -1.5584  1.1267 -2.6087
37110SOL    HW217167   5.417   4.976   0.137  2.2704 -0.7603  0.4261
37111SOL     OW17168   0.708   7.149   0.125  0.3116  0.3971 -0.1171
37111SOL    HW117169   0.652   7.226   0.122  1.1129  0.9729 -0.3832
37111SOL    HW217170   0.688   7.109   0.210 -1.1940  0.0568 -0.5950
37112SOL     OW17171   8.599   6.074   2.436  0.1339 -0.6159  0.1384
37112SOL    HW117172   8.544   6.121   2.499 -0.3731  0.2824 -0.9494
37112SOL    HW217173   8.542   6.006   2.401  0.7389 -1.8165  1.4009
37113SOL     OW17174   6.884   0.610   8.457  0.6188  0.4481  0.0230
37113SOL    HW117175   6.873   0.572   8.370  0.2317 -0.3021  0.3922
37113SOL    HW217176   6.872   0.704   8.444 -1.9864  0.1394 -0.3353
37114SOL     OW17177   9.018   9.630   3.787 -0.1062 -0.5006  0.6332
37114SOL    HW117178   8.966   9.692   3.736  0.1307 -1.5381 -0.9578
37114SOL    HW217179   8.972   9.622   3.870 -1.7112 -0.3222 -0.1984
37115SOL     OW17180   3.505   6.829   4.349 -0.3242  0.2799  0.2238
37115SOL    HW117181   3.483   6.825   4.256  3.3318 -2.0781 -0.8025
37115SOL    HW217182   3.498   6.921   4.372 -0.9610  1.0044 -2.5110
37116SOL     OW17183   0.217   9.118   9.006 -0.3894 -0.8802 -0.4233
37116SOL    HW117184   0.240   9.198   9.053  0.6337 -0.7046 -1.1780
37116SOL    HW217185   0.301   9.087   8.971 -0.6696 -2.6201  0.3684
37117SOL     OW17186   9.198  10.332   6.043  0.3872  0.4751  0.2823
37117SOL    HW117187   9.283  10.333   6.000  0.4398  0.6089  0.3896
37117SOL    HW217188   9.148  10.401   6.000 -0.1596 -0.5539 -0.7729
37118SOL     OW17189   3.797   4.163   6.132 -0.3257  0.0025  0.4032
37118SOL    HW117190   3.881   4.202   6.110  0.1388 -0.8206  0.6826
37118SOL    HW217191   3.732   4.224   6.096  0.2908  2.2003  2.7427
37119SOL     OW17192   0.995  10.491   8.126  0.3164  0.2780  0.4187
37119SOL    HW117193   1.082  10.492   8.165  1.5797  1.8591 -2.1326
37119SOL    HW217194   1.005  10.542   8.045 -2.9728  0.4500 -0.0039
37120SOL     OW17195   5.272   8.995   7.757 -0.2820 -0.4481 -0.3729
37120SOL    HW117196   5.275   8.900   7.759 -0.0768 -0.4367  1.0069
37120SOL    HW217197   5.326   9.020   7.683 -1.5093 -1.4277 -1.6392
37121SOL     OW17198   5.326   5.742   9.472 -0.1384 -0.0788 -0.1055
37121SOL    HW117199   5.330   5.742   9.376 -1.7512  0.5623 -0.2161
37121SOL    HW217200   5.234   5.724   9.492  0.0396  0.4398  1.3088
37122SOL     OW17201   7.993   5.940   2.394  0.2770 -0.2375 -0.3253
37122SOL    HW117202   7.967   5.982   2.476 -0.0697 -0.0853 -0.5110
37122SOL    HW217203   8.045   5.864   2.421 -1.4478 -1.3209  0.1139
37123SOL     OW17204   1.566   6.008   9.849 -0.6106  0.0119 -0.5236
37123SOL    HW117205   1.570   6.082   9.910  0.0725 -0.9307  0.6171
37123SOL    HW217206   1.523   6.044   9.771  0.0417  1.7101 -0.1577
37124SOL     OW17207   4.911   9.369   4.973 -0.4386 -0.4093 -0.4946
37124SOL    HW117208   4.884   9.403   5.058 -0.4903 -1.8604  0.0984
37124SOL    HW217209   4.922   9.447   4.918  1.7799  0.7758  1.4243
37125SOL     OW17210   8.174   5.622   1.202  0.2725  0.5548  0.8517
37125SOL    HW117211   8.210   5.534   1.202 -2.4131 -0.7084 -1.4190
37125SOL    HW217212   8.233   5.673   1.145  0.7587 -0.2980  0.5830
37126SOL     OW17213   8.573   5.233   2.704  0.0663  0.2977  0.5534
37126SOL    HW117214   8.494   5.286   2.688 -0.1196 -0.1461 -0.0115
37126SOL    HW217215   8.570   5.164   2.638  0.0287 -0.7474  1.6036
37127SOL     OW17216   9.267   0.294   1.732  0.1482 -0.4790 -0.0278
37127SOL    HW117217   9.304   0.291   1.644 -1.6217  0.5548 -0.8444
37127SOL    HW217218   9.296   0.379   1.767 -0.9843  0.1085 -0.4802
37128SOL     OW17219   5.259   4.781   3.738 -0.9328  0.4002 -0.3646
37128SOL    HW117220   5.243   4.797   3.645  0.7445  2.4189 -0.3814
37128SOL    HW217221   5.302   4.695   3.741  0.0351  0.8104 -1.6118
37129SOL     OW17222   2.888   8.057   7.395 -0.0711 -0.5627  0.3680
37129SOL    HW117223   2.883   8.032   7.487  0.3762  0.4479  0.6907
37129SOL    HW217224   2.978   8.036   7.369  0.5720  1.3322  0.8745
37130SOL     OW17225   6.482   3.055   2.229  0.1554  0.2221 -0.7443
37130SOL    HW117226   6.531   3.084   2.305 -1.8628 -0.0373  0.7383
37130SOL    HW217227   6.522   2.971   2.205  0.1228 -0.2598  0.7707
37131SOL     OW17228   4.038   6.701   5.879  0.3879  0.1166  0.9110
37131SOL    HW117229   4.037   6.678   5.972  2.0711  0.7230  1.1038
37131SOL    HW217230   4.014   6.794   5.877  1.2654  0.3457  0.8302
37132SOL     OW17231  10.069   8.557   7.477  0.4349 -0.0032 -0.2113
37132SOL    HW117232  10.075   8.611   7.556  3.0312  0.6379 -0.7862
37132SOL    HW217233   9.988   8.587   7.434 -0.0636  0.8973  1.2644
37133SOL     OW17234   5.300   7.684   5.852 -0.0056 -0.2715 -0.2340
37133SOL    HW117235   5.226   7.625   5.868 -0.8679  0.6214 -0.8240
37133SOL    HW217236   5.344   7.691   5.937 -0.8987 -0.4224  0.2474
37134SOL     OW17237  10.469   7.001   0.144  0.1859 -0.2096  0.7811
37134SOL    HW117238  10.414   6.933   0.183 -0.9204  1.5703  2.4599
37134SOL    HW217239  10.443   7.002   0.052 -0.4930 -1.3864  0.9401
37135SOL     OW17240   9.028   3.084   4.569  0.7822 -0.2080  0.1677
37135SOL    HW117241   9.069   3.052   4.490  2.2415 -1.3915  1.3501
37135SOL    HW217242   9.032   3.180   4.562  1.1652 -0.3054 -1.0118
37136SOL     OW17243   8.833  10.152   4.061 -0.4683  0.6227  0.3994
37136SOL    HW117244   8.788  10.079   4.018 -0.7372  0.3035  1.1888
37136SOL    HW217245   8.794  10.154   4.149  2.0022 -0.5217  1.5990
37137SOL     OW17246   3.483   0.671   9.733 -0.4077 -0.2822 -0.8797
37137SOL    HW117247   3.535   0.601   9.694 -2.6338 -2.0445 -0.8867
37137SOL    HW217248   3.494   0.659   9.827  0.2978  0.2404 -0.8918
37138SOL     OW17249   3.146   4.997   4.995 -0.1132 -0.2788 -0.2557
37138SOL    HW117250   3.226   4.969   5.040  0.1775  0.0371 -0.5744
37138SOL    HW217251   3.092   5.035   5.064 -0.1010 -0.7218  0.0070
37139SOL     OW17252   7.654   8.862   7.670  0.6482  0.1362  0.4449
37139SOL    HW117253   7.707   8.933   7.706 -0.2315  0.8454  0.3656
37139SOL    HW217254   7.595   8.905   7.609  0.2860 -0.7068  0.1898
37140SOL     OW17255   3.405   1.292   3.340 -0.7914 -0.0469  0.0599
37140SOL    HW117256   3.341   1.224   3.358 -1.8795  0.7352 -0.6753
37140SOL    HW217257   3.403   1.302   3.244  0.5444 -0.1123  0.0189
37141SOL     OW17258   4.441   4.852  10.384  0.4619  0.3263 -0.2131
37141SOL    HW117259   4.532   4.825  10.397  0.1719 -0.6194 -0.1296
37141SOL    HW217260   4.390   4.771  10.389 -0.5527  1.0160  1.2459
37142SOL     OW17261   9.312   3.683   0.462  0.0867 -0.0903  0.3524
37142SOL    HW117262   9.317   3.774   0.431  1.3860 -0.0577  0.5967
37142SOL    HW217263   9.334   3.688   0.555  0.4894 -0.6839  0.2967
37143SOL     OW17264   7.659   3.515   8.004 -0.2659 -0.0127  0.4588
37143SOL    HW117265   7.576   3.548   8.038 -2.5180 -1.7369 -2.8842
37143SOL    HW217266   7.669   3.428   8.044 -0.6119 -0.2278  0.0784
37144SOL     OW17267   2.861   1.582   7.383  0.6123 -0.1122 -0.0240
37144SOL    HW117268   2.787   1.643   7.378 -1.0087 -1.8571  1.3277
37144SOL    HW217269   2.879   1.573   7.476  1.6756 -0.7201 -0.2714
37145SOL     OW17270   8.371   1.876   2.852 -0.2625 -0.3501  0.0757
37145SOL    HW117271   8.387   1.927   2.932  0.5201 -1.7629  0.8695
37145SOL    HW217272   8.342   1.940   2.788 -0.4564  0.9029  1.3635
37146SOL     OW17273   8.087   1.431   7.690 -0.2627 -0.1715  0.0503
37146SOL    HW117274   8.108   1.341   7.665 -1.4197 -0.2048 -0.8863
37146SOL    HW217275   8.025   1.424   7.761 -0.2271 -0.1084  0.0891
37147SOL     OW17276  10.569   8.256   2.896 -0.2629  0.2701 -0.1225
37147SOL    HW117277  10.578   8.177   2.844  0.3482  0.7930 -0.8304
37147SOL    HW217278  10.475   8.276   2.893 -0.5962 -1.0067  0.9656
37148SOL     OW17279  10.280   8.589   1.809  0.2552  0.0240 -0.3007
37148SOL    HW117280  10.280   8.571   1.715  2.7053  0.9899 -0.5613
37148SOL    HW217281  10.282   8.503   1.850  1.5956 -0.4236 -1.2245
37149SOL     OW17282   1.557   6.965   5.407 -0.3728 -0.0272 -0.1227
37149SOL    HW117283   1.576   7.050   5.368 -1.0815  0.6141  0.8907
37149SOL    HW217284   1.554   6.905   5.333  0.9864  0.6546 -0.7779
37150SOL     OW17285  10.429   0.582   0.500  0.1510 -0.0160 -0.2208
37150SOL    HW117286  10.351   0.560   0.449  0.8298  0.2197 -1.3956
37150SOL    HW217287  10.477   0.643   0.444 -0.0647  1.8542  1.5570
37151SOL     OW17288  10.521   1.260   6.875  0.0533 -0.2484  0.2414
37151SOL    HW117289  10.487   1.263   6.964 -0.8541 -1.2051 -0.0442
37151SOL    HW217290  10.501   1.346   6.839  0.5516  0.1915  0.9997
37152SOL     OW17291   6.559   2.335  10.339  0.3955  0.4192  0.0090
37152SOL    HW117292   6.469   2.305  10.348 -0.0029  1.1471 -1.3361
37152SOL    HW217293   6.554   2.412  10.283  2.1285 -1.3598 -2.8415
37153SOL     OW17294   3.748   7.852   3.876 -0.0352  0.4006 -0.2571
37153SOL    HW117295   3.771   7.903   3.798  0.5763  1.7748  0.7915
37153SOL    HW217296   3.721   7.767   3.841 -0.0230  1.0583 -1.9861
37154SOL     OW17297   3.754   6.047   1.365  0.1448  0.3325 -0.4021
37154SOL    HW117298   3.716   5.972   1.410  1.4289  0.2768  0.6584
37154SOL    HW217299   3.837   6.063   1.410 -0.2653  2.6419 -0.3293
37155SOL     OW17300   9.943   2.658   1.953 -0.0117  0.2295  0.2374
37155SOL    HW117301   9.867   2.712   1.975 -0.7145 -0.3251 -0.7365
37155SOL    HW217302   9.908   2.570   1.944  0.5634  0.1034 -1.0966
37156SOL     OW17303   5.409   2.938   7.188 -0.8075  0.3593  0.1176
37156SOL    HW117304   5.468   2.993   7.238 -1.0953  0.3394  0.4790
37156SOL    HW217305   5.407   2.855   7.235 -1.5473  0.5397  0.4099
37157SOL     OW17306  10.444   4.069   5.856 -0.3695  0.3220  0.6036
37157SOL    HW117307  10.376   4.135   5.844  1.1122  1.7197 -0.6132
37157SOL    HW217308  10.522   4.119   5.881  0.4497 -1.1266  1.0659
37158SOL     OW17309   3.381   0.759   3.469  0.4147 -0.9523 -0.2044
37158SOL    HW117310   3.392   0.688   3.405 -0.9488 -2.1035  0.8090
37158SOL    HW217311   3.347   0.832   3.417  2.8786 -0.5671 -1.4825
37159SOL     OW17312   2.781   5.854   8.214  0.2999 -0.4047  0.0943
37159SOL    HW117313   2.762   5.810   8.297  0.4712  1.2730  1.0583
37159SOL    HW217314   2.699   5.896   8.190 -0.2427 -2.2251 -1.5015
37160SOL     OW17315   6.185   0.845   5.361  0.0539 -0.5439  0.1093
37160SOL    HW117316   6.170   0.923   5.414  1.3121 -0.1721 -0.0477
37160SOL    HW217317   6.166   0.772   5.420 -0.4060 -0.1327  0.4779
37161SOL     OW17318   1.063   1.790   7.647  0.2813 -0.3659  0.5101
37161SOL    HW117319   1.096   1.817   7.561 -0.0329 -0.1443  0.4593
37161SOL    HW217320   1.061   1.871   7.699 -1.2088 -0.1715  0.1833
37162SOL     OW17321   5.064   1.403   3.416  0.2446 -0.1109 -0.2512
37162SOL    HW117322   4.989   1.462   3.410  0.4311  0.0172 -1.5401
37162SOL    HW217323   5.064   1.355   3.333  2.4278  0.9171 -0.8994
37163SOL     OW17324   2.470   8.866   0.396 -0.4523 -0.4186 -0.7545
37163SOL    HW117325   2.430   8.850   0.482 -0.9112 -1.0173 -1.0664
37163SOL    HW217326   2.442   8.791   0.343  0.1822 -0.2735 -1.3037
37164SOL     OW17327   8.810   8.322   4.918 -0.2421 -0.0252  0.5120
37164SOL    HW117328   8.787   8.401   4.869  1.8088 -0.2679 -0.9460
37164SOL    HW217329   8.890   8.344   4.965 -1.4155 -0.2535  2.7510
37165SOL     OW17330   7.910   4.038   4.032  0.6785 -0.2596  0.2738
37165SOL    HW117331   7.851   4.069   4.101  1.0075 -1.4476  1.1259
37165SOL    HW217332   7.945   4.118   3.992 -1.4225  0.4812 -0.2217
37166SOL     OW17333   6.303   2.258  10.019  0.4935  0.4085  0.6875
37166SOL    HW117334   6.213   2.281   9.996  0.5850 -0.8916 -1.1849
37166SOL    HW217335   6.296   2.219  10.106 -0.5305  1.5983  1.1672
37167SOL     OW17336   8.313   9.306  10.366 -0.3057  0.4940 -0.5337
37167SOL    HW117337   8.381   9.328  10.430  0.6136  0.0658 -1.3342
37167SOL    HW217338   8.242   9.367  10.385 -0.5258 -0.3172  1.6031
37168SOL     OW17339   7.059   2.225   8.035 -0.0667  0.2384 -0.3882
37168SOL    HW117340   7.140   2.273   8.019  0.1920  0.3053  1.0320
37168SOL    HW217341   7.071   2.142   7.989  1.4772 -0.3966  1.0737
37169SOL     OW17342   9.256   3.315   2.123 -0.4868  0.4728 -0.0594
37169SOL    HW117343   9.223   3.405   2.132 -1.4071  0.0599  0.7849
37169SOL    HW217344   9.275   3.287   2.213  1.7095  0.5012 -0.4562
37170SOL     OW17345   0.225  10.318   8.358 -0.3730 -0.5749 -0.0507
37170SOL    HW117346   0.246  10.277   8.274  0.7940 -2.4403  1.0748
37170SOL    HW217347   0.130  10.319   8.361 -0.4347 -0.7473 -1.2557
37171SOL     OW17348   3.614   0.934   6.334  0.3911  0.2164 -0.0864
37171SOL    HW117349   3.673   0.985   6.388  1.8105  1.3346 -2.5321
37171SOL    HW217350   3.546   0.996   6.307  0.0229 -0.1710 -0.0593
37172SOL     OW17351   4.557   7.573  10.384 -0.1163 -0.2811  0.2983
37172SOL    HW117352   4.555   7.641  10.317 -1.8690 -0.9100 -0.3619
37172SOL    HW217353   4.530   7.618  10.464  2.1744  0.5154  0.6973
37173SOL     OW17354  10.177   0.171   7.570 -0.5476 -0.5124 -0.3948
37173SOL    HW117355  10.243   0.225   7.614 -1.8089  0.5162  0.2919
37173SOL    HW217356  10.117   0.234   7.529 -0.6163 -1.4379 -1.7737
37174SOL     OW17357   4.913   6.449   9.351 -0.4973  0.7286 -0.3346
37174SOL    HW117358   4.857   6.371   9.362 -1.0481  1.0654 -0.6882
37174SOL    HW217359   4.965   6.453   9.432  0.7675 -0.9658 -1.0099
37175SOL     OW17360   4.768  10.397   0.607  0.1561 -0.0824 -0.2556
37175SOL    HW117361   4.717  10.457   0.661  0.7660  0.6032 -0.4265
37175SOL    HW217362   4.762  10.432   0.519  1.6865  0.5716 -0.1374
37176SOL     OW17363   6.504   9.860   3.362  0.6965 -0.2053  0.0399
37176SOL    HW117364   6.439   9.867   3.433 -0.4995 -0.3271 -0.9963
37176SOL    HW217365   6.547   9.776   3.377  0.1091 -0.4583  0.3504
37177SOL     OW17366   3.493   3.260   8.598 -0.0273  0.2868 -0.3571
37177SOL    HW117367   3.452   3.345   8.584  0.0334 -0.0699 -3.5163
37177SOL    HW217368   3.525   3.263   8.688  1.8489  4.4328 -0.9421
37178SOL     OW17369   8.307   8.627   7.357 -0.0660  0.3587 -0.6859
37178SOL    HW117370   8.366   8.564   7.399 -0.0524  0.7036 -0.1745
37178SOL    HW217371   8.235   8.638   7.419  0.6615  1.9650 -0.0488
37179SOL     OW17372   8.191   2.414   2.777 -0.4732  0.4433 -0.3338
37179SOL    HW117373   8.274   2.462   2.787  0.9165 -1.9814  0.6582
37179SOL    HW217374   8.199   2.370   2.692 -1.4922  1.4529 -0.9809
37180SOL     OW17375   7.176   3.662   8.079 -0.3959 -0.3556 -0.2886
37180SOL    HW117376   7.219   3.740   8.113 -0.2507 -0.0751 -1.0875
37180SOL    HW217377   7.131   3.693   8.000 -0.4658 -1.0473 -0.5212
37181SOL     OW17378   5.256   1.161   0.628 -0.0709 -0.2757  0.4067
37181SOL    HW117379   5.259   1.066   0.618 -1.4912 -0.4941  1.7777
37181SOL    HW217380   5.320   1.194   0.564 -0.0230 -2.1044 -0.5373
37182SOL     OW17381   6.905   6.609   4.544 -0.2915  0.3474 -0.0447
37182SOL    HW117382   6.923   6.518   4.521  2.5306  1.0333 -0.9790
37182SOL    HW217383   6.855   6.643   4.469  0.9657  0.2150 -0.9722
37183SOL     OW17384   6.230   2.741   5.159  0.1742  0.3251 -0.5269
37183SOL    HW117385   6.318   2.761   5.129  1.7210 -2.6749  1.4259
37183SOL    HW217386   6.233   2.755   5.254 -0.9972 -1.1370 -0.2270
37184SOL     OW17387   7.055   1.074   4.772  0.4944 -0.3442 -1.0397
37184SOL    HW117388   7.102   1.099   4.852 -1.1096 -0.3243 -0.0568
37184SOL    HW217389   7.058   1.153   4.718  0.0966  0.2435 -0.2368
37185SOL     OW17390   5.385   6.439   2.941  0.2371  0.1511  0.0025
37185SOL    HW117391   5.303   6.398   2.968  0.2488  0.7103  0.9183
37185SOL    HW217392   5.361   6.491   2.864 -0.3455  0.5737  0.4587
37186SOL     OW17393   8.594   0.408  10.139 -0.2554 -0.1671  0.0313
37186SOL    HW117394   8.543   0.350  10.196 -0.8572 -0.6006 -0.9058
37186SOL    HW217395   8.676   0.361  10.124 -0.3033 -0.2850  0.1399
37187SOL     OW17396   2.339  10.207   8.928  0.3832  0.1157  0.7445
37187SOL    HW117397   2.285  10.157   8.989  0.7544 -2.5917 -0.9490
37187SOL    HW217398   2.393  10.141   8.884  0.2724  1.8949 -2.3736
37188SOL     OW17399   4.079   6.977   9.006  0.2166  0.6280  0.1993
37188SOL    HW117400   4.031   7.040   9.060  0.2944 -0.7589  1.9617
37188SOL    HW217401   4.059   7.004   8.916 -2.5082  1.1420  0.8418
37189SOL     OW17402   6.059   6.015   3.913  0.1554 -0.4884  0.0770
37189SOL    HW117403   6.056   5.920   3.913  2.7309 -0.6279  0.8195
37189SOL    HW217404   6.152   6.037   3.906 -0.4826  2.0226 -2.4240
37190SOL     OW17405   3.943   1.036   6.051 -0.3213  0.4020  0.2029
37190SOL    HW117406   3.907   1.031   5.962  0.0945  2.3070 -0.1033
37190SOL    HW217407   3.981   0.949   6.065 -1.1288 -0.2166 -1.1419
37191SOL     OW17408   0.400   9.076   1.248  0.6117 -0.1109 -0.1504
37191SOL    HW117409   0.454   9.088   1.171  0.0197 -0.9700 -0.7095
37191SOL    HW217410   0.327   9.137   1.237  0.4332 -0.3593 -0.3699
37192SOL     OW17411   9.773  10.696   7.723  0.3937 -0.3410  0.0409
37192SOL    HW117412   9.745  10.776   7.679  0.6594  0.2430  0.9220
37192SOL    HW217413   9.869  10.696   7.715  0.3761 -0.7472 -0.2382
37193SOL     OW17414   6.864   8.186   4.544 -0.6447 -0.0099  0.3343
37193SOL    HW117415   6.960   8.187   4.551 -0.6277 -0.8284  0.3046
37193SOL    HW217416   6.844   8.103   4.501 -1.3876  0.0125  0.6227
37194SOL     OW17417   9.119   8.116   0.300  0.1830 -0.0321  0.3289
37194SOL    HW117418   9.159   8.190   0.254 -1.6218  0.6766 -0.2060
37194SOL    HW217419   9.025   8.130   0.289 -0.3136 -3.6515 -1.9161
37195SOL     OW17420   3.281   0.868   7.549  0.5867 -0.1164  0.0430
37195SOL    HW117421   3.313   0.782   7.576 -0.4496 -0.3462  0.5939
37195SOL    HW217422   3.187   0.856   7.537  0.4633  0.8842 -0.0916
37196SOL     OW17423   9.581   7.682   8.774  0.0531  0.5030  0.6241
37196SOL    HW117424   9.627   7.655   8.694 -2.2428 -1.0148 -0.2865
37196SOL    HW217425   9.607   7.617   8.840  1.7164  1.5858  1.1003
37197SOL     OW17426   8.733   8.969   1.278 -0.9917  0.4505  0.4514
37197SOL    HW117427   8.694   9.043   1.323 -0.6315  0.2253  1.1413
37197SOL    HW217428   8.770   8.914   1.347  0.6837  0.7356 -0.1639
37198SOL     OW17429   1.126   1.043   0.667  0.5106 -0.0934  0.6305
37198SOL    HW117430   1.038   1.051   0.706  0.7262  1.6150  0.8149
37198SOL    HW217431   1.118   0.968   0.608 -0.7420 -0.7022  1.5027
37199SOL     OW17432   2.578  10.095   6.115  0.1786 -0.3440 -0.7186
37199SOL    HW117433   2.604  10.080   6.206 -1.1749 -1.0336 -0.4246
37199SOL    HW217434   2.483  10.091   6.116  0.1465 -0.5930 -2.2089
37200SOL     OW17435   3.494   5.904   5.942 -0.3938  0.2148 -0.1349
37200SOL    HW117436   3.454   5.928   5.858  1.4130  2.0856 -0.5531
37200SOL    HW217437   3.457   5.966   6.005 -0.4433 -0.0596  0.1082
37201SOL     OW17438   4.478   8.033  10.470 -0.0107 -0.3394  0.0179
37201SOL    HW117439   4.464   8.017  10.376 -0.3951 -0.6567  0.1282
37201SOL    HW217440   4.543   7.968  10.496 -0.1549 -0.4711  0.0476
37202SOL     OW17441   6.919   2.149   9.396 -0.0572  0.6916  0.2817
37202SOL    HW117442   6.992   2.184   9.343  1.6996 -0.9755  1.4464
37202SOL    HW217443   6.915   2.207   9.472  0.8041  0.1979  0.7250
37203SOL     OW17444   2.353   3.508   0.894 -0.0094 -0.1616  0.7389
37203SOL    HW117445   2.354   3.504   0.989  0.1491  1.6999  0.8522
37203SOL    HW217446   2.420   3.574   0.872 -0.1388 -0.4555 -0.6448
37204SOL     OW17447  10.310   9.458   8.298  0.0402 -0.0594 -0.5857
37204SOL    HW117448  10.287   9.427   8.210  1.7177  0.3519 -1.2101
37204SOL    HW217449  10.254   9.535   8.312 -3.9946 -2.9378  0.8781
37205SOL     OW17450   9.704   9.522  10.447 -0.3322  0.2494 -0.4113
37205SOL    HW117451   9.783   9.498  10.399 -1.6709  0.2251 -2.7811
37205SOL    HW217452   9.680   9.443  10.495  0.7947  0.1253 -0.0146
37206SOL     OW17453   9.918   1.561   0.802  0.9154 -0.1173 -0.0802
37206SOL    HW117454   9.840   1.536   0.751  0.1555 -1.9069  1.8405
37206SOL    HW217455   9.935   1.652   0.776 -2.2006  0.5622 -0.1404
37207SOL     OW17456   7.518   7.120  10.368 -0.2356 -0.2958 -0.2388
37207SOL    HW117457   7.491   7.203  10.406  2.4973  0.6101 -0.0361
37207SOL    HW217458   7.525   7.060  10.443  0.7555  0.2079  0.0953
37208SOL     OW17459   6.811   1.824   8.278 -0.4997 -0.0601  0.0315
37208SOL    HW117460   6.782   1.736   8.254  0.4911 -0.5908  0.7580
37208SOL    HW217461   6.842   1.862   8.196  1.5877 -1.3775  0.1446
37209SOL     OW17462   2.883   3.759   2.825 -0.4523 -0.7213 -0.3647
37209SOL    HW117463   2.863   3.764   2.732 -2.8119 -1.1837  0.0544
37209SOL    HW217464   2.800   3.736   2.866  0.6139 -0.9068  1.8291
37210SOL     OW17465   2.556   7.063   9.728 -0.0628 -0.1175  0.0202
37210SOL    HW117466   2.547   6.970   9.748  1.0724 -0.1009  0.6802
37210SOL    HW217467   2.566   7.066   9.633  1.5692 -0.8336  0.1405
37211SOL     OW17468   8.916   6.438   8.660 -0.5302 -0.2478 -0.7197
37211SOL    HW117469   8.839   6.396   8.620 -1.8111  1.7023 -0.4340
37211SOL    HW217470   8.979   6.444   8.588 -2.0656  1.4253 -2.0508
37212SOL     OW17471   5.754  10.053   3.096  0.7528 -0.0375 -0.4314
37212SOL    HW117472   5.834  10.019   3.137  0.0751  0.7195  1.6817
37212SOL    HW217473   5.685   9.993   3.125  0.4082 -0.1617 -1.4735
37213SOL     OW17474   6.734   2.980   7.799  0.0819 -0.1071  0.1746
37213SOL    HW117475   6.806   2.917   7.799  1.1122  1.0363 -0.0829
37213SOL    HW217476   6.655   2.927   7.788  0.7772 -1.4794  1.4664
37214SOL     OW17477   7.807   4.868   2.500  0.0068  0.2653 -0.0312
37214SOL    HW117478   7.766   4.793   2.543  0.0917  0.8174  1.0616
37214SOL    HW217479   7.794   4.852   2.406 -0.1709 -0.9905  0.1845
37215SOL     OW17480  10.122  10.426   0.498 -0.1251  0.1590  0.4717
37215SOL    HW117481  10.185  10.375   0.447  0.9261 -0.3423  2.1698
37215SOL    HW217482  10.080  10.361   0.555 -1.6211  0.6205 -0.0608
37216SOL     OW17483   0.062   9.876   2.140 -0.1145  0.3774 -0.1986
37216SOL    HW117484   0.123   9.808   2.168 -0.6276 -0.4704 -1.0746
37216SOL    HW217485   0.037   9.850   2.051 -2.9792 -0.1638  0.6969
37217SOL     OW17486   8.523   4.128   4.689  0.0721  0.2878  0.0012
37217SOL    HW117487   8.530   4.195   4.756  2.3261 -1.4490  1.6640
37217SOL    HW217488   8.604   4.135   4.638 -1.5240  1.4764 -2.5883
37218SOL     OW17489   5.450   1.601   5.911 -0.4110  0.5283 -0.2026
37218SOL    HW117490   5.387   1.531   5.929  0.0690  0.1396 -0.0009
37218SOL    HW217491   5.404   1.682   5.932 -1.0685  0.2891 -0.7099
37219SOL     OW17492   7.276   8.722   0.510 -0.5746 -0.3031  0.1828
37219SOL    HW117493   7.342   8.655   0.526  1.5817  1.7783  0.6768
37219SOL    HW217494   7.310   8.772   0.435 -1.6125  0.7989  0.4088
37220SOL     OW17495  10.067   4.348  10.367  0.2905  0.5765  0.3389
37220SOL    HW117496  10.160   4.329  10.383  0.3098  0.3659 -0.0234
37220SOL    HW217497  10.023   4.264  10.378  0.5596 -0.0613 -2.7426
37221SOL     OW17498   5.777   2.554   0.634 -0.3817 -0.3270 -0.0247
37221SOL    HW117499   5.684   2.574   0.637  0.0979  2.4472 -1.0525
37221SOL    HW217500   5.800   2.556   0.541  0.9534  0.4049  0.2889
37222SOL     OW17501   7.966   1.989   9.989 -0.2500 -0.2519 -0.0161
37222SOL    HW117502   8.029   1.917   9.991 -1.0185 -1.0415 -1.6047
37222SOL    HW217503   7.903   1.968  10.058  0.1287 -0.5127  0.2543
37223SOL     OW17504   7.052   3.047   8.255  0.5657  0.1677 -0.0678
37223SOL    HW117505   7.049   3.061   8.161  1.1194 -1.1988 -0.3098
37223SOL    HW217506   7.136   3.003   8.271  0.4087  0.2287  1.0322
37224SOL     OW17507   7.764   1.037   6.371 -0.2486  0.3244 -0.5994
37224SOL    HW117508   7.759   1.003   6.460  1.1437 -0.8988 -0.9348
37224SOL    HW217509   7.694   0.990   6.324  0.1252 -0.3295 -0.5194
37225SOL     OW17510   6.954  10.569   5.283  0.7095  0.6625 -0.8833
37225SOL    HW117511   6.972  10.644   5.226  0.7754  0.1193 -1.5925
37225SOL    HW217512   6.931  10.498   5.223 -0.0976  0.3164 -0.1817
37226SOL     OW17513   2.359   3.858   7.955 -0.3793  0.3579 -0.2812
37226SOL    HW117514   2.364   3.952   7.976  1.5823  0.0392  0.9234
37226SOL    HW217515   2.287   3.852   7.893 -1.3753  2.4981  0.5330
37227SOL     OW17516   7.571   4.738  10.694  0.4691 -0.2474 -0.2747
37227SOL    HW117517   7.653   4.786  10.710  0.9091 -0.9060 -0.4935
37227SOL    HW217518   7.586   4.652  10.733 -0.9012  0.2818  1.5168
37228SOL     OW17519  10.460   0.408   4.270 -0.2376  0.4853  0.2037
37228SOL    HW117520  10.472   0.349   4.345  0.8317  0.9676  0.4322
37228SOL    HW217521  10.415   0.484   4.307 -0.0560  0.5597  0.2707
37229SOL     OW17522  10.270   1.304   2.327  0.1090  0.6069 -0.2337
37229SOL    HW117523  10.247   1.258   2.408  0.0352  2.5485  0.9047
37229SOL    HW217524  10.214   1.263   2.261  0.2176 -1.0806  0.6402
37230SOL     OW17525   8.950   1.569   8.780 -0.2993 -0.2258  0.0352
37230SOL    HW117526   8.950   1.624   8.702 -0.2988  1.1957  1.0190
37230SOL    HW217527   9.042   1.546   8.793 -0.1460  0.5431  0.3159
37231SOL     OW17528   0.008   3.413   7.586  0.2067  0.3332  0.1420
37231SOL    HW117529  -0.057   3.462   7.535  0.8951  1.2936  0.1454
37231SOL    HW217530   0.092   3.454   7.562  0.4663  1.6364  2.9051
37232SOL     OW17531   4.244   6.290   0.457  0.3179  0.1752  0.2757
37232SOL    HW117532   4.270   6.377   0.425  2.9635 -0.2412  1.0785
37232SOL    HW217533   4.287   6.229   0.398 -1.7040 -0.6697 -0.4120
37233SOL     OW17534   0.502   8.532   3.840 -0.1279  0.4794 -0.0796
37233SOL    HW117535   0.484   8.586   3.916  1.0775  0.0162  0.5714
37233SOL    HW217536   0.417   8.518   3.799 -1.1162 -0.8227  2.2246
37234SOL     OW17537   3.600   7.808   8.856  0.3133 -0.9029 -0.0586
37234SOL    HW117538   3.527   7.822   8.795 -0.8236  1.4389  1.6890
37234SOL    HW217539   3.678   7.828   8.805 -0.5891  0.8744 -0.8406
37235SOL     OW17540   5.425   6.760   0.965 -0.1085 -0.4212 -0.2227
37235SOL    HW117541   5.504   6.777   0.914  0.0994  0.9888  0.5131
37235SOL    HW217542   5.367   6.834   0.945 -1.4195 -1.6221 -1.0447
37236SOL     OW17543   7.192   3.481  10.107  0.1110 -0.4403 -0.2537
37236SOL    HW117544   7.222   3.465  10.197  1.5963  0.9807 -0.4556
37236SOL    HW217545   7.269   3.467  10.053 -0.6253 -0.6965 -1.2788
37237SOL     OW17546   8.103   0.651   2.152  0.2376 -0.3902  0.1244
37237SOL    HW117547   8.142   0.636   2.238 -1.9174 -2.3931  0.8636
37237SOL    HW217548   8.148   0.728   2.118  1.1519  0.4856  3.0462
37238SOL     OW17549   9.192   4.127   1.418  0.0632  0.0471 -0.1534
37238SOL    HW117550   9.116   4.181   1.401  0.4079  0.2709 -1.0786
37238SOL    HW217551   9.230   4.162   1.498  0.4007  1.3318 -0.8414
37239SOL     OW17552   1.781   2.977   1.556 -0.6900 -0.3706  0.2783
37239SOL    HW117553   1.714   3.044   1.545 -1.7441 -1.2645  1.0435
37239SOL    HW217554   1.732   2.897   1.573  0.4982 -1.5795 -1.6717
37240SOL     OW17555   2.008   5.637   9.205  0.1229  0.5129  0.5219
37240SOL    HW117556   2.015   5.572   9.135 -0.7421  1.5808 -0.5998
37240SOL    HW217557   1.951   5.597   9.270 -2.0668  0.8674 -1.0708
37241SOL     OW17558   5.030   8.793   9.500 -0.3971  0.1531 -0.1120
37241SOL    HW117559   5.038   8.875   9.549 -0.8948  0.2060 -0.1088
37241SOL    HW217560   5.102   8.796   9.437  0.6398 -0.2239  1.0313
37242SOL     OW17561   2.278   7.493  10.285 -0.1240 -0.4167 -0.3620
37242SOL    HW117562   2.342   7.468  10.219 -0.7393  0.8645 -1.4869
37242SOL    HW217563   2.326   7.549  10.346  0.5526 -1.9410  0.5868
37243SOL     OW17564   6.718   5.105   9.160 -0.2023 -0.5100 -0.3353
37243SOL    HW117565   6.780   5.112   9.088  1.0361 -2.2314  0.5052
37243SOL    HW217566   6.632   5.104   9.117  0.4908 -1.3034 -1.7798
37244SOL     OW17567   0.940   8.580   1.818 -0.3216 -0.4667  0.8223
37244SOL    HW117568   0.935   8.558   1.725  1.5006  0.4059  0.4622
37244SOL    HW217569   0.852   8.609   1.841 -0.5926  0.2103 -0.8955
37245SOL     OW17570  10.202   4.650   8.882 -0.1486 -0.1864 -0.3353
37245SOL    HW117571  10.199   4.652   8.786 -0.4593 -1.2482 -0.3703
37245SOL    HW217572  10.224   4.739   8.908  0.7243 -0.0601 -1.4259
37246SOL     OW17573   4.935   4.902   9.271  0.2211  0.1733 -0.0242
37246SOL    HW117574   4.914   4.813   9.241 -0.4046  0.2173  0.2517
37246SOL    HW217575   4.858   4.953   9.246  0.6499  0.6702 -0.3246
37247SOL     OW17576   0.099   0.684   4.005 -0.6130 -0.0284  0.7340
37247SOL    HW117577   0.029   0.711   4.064  0.8653 -0.1620  2.6424
37247SOL    HW217578   0.146   0.766   3.985 -0.0204 -0.2349  1.2483
37248SOL     OW17579   8.325   2.441   3.428 -0.0304 -0.5072  0.1200
37248SOL    HW117580   8.374   2.521   3.409 -2.1798  1.0982  0.8903
37248SOL    HW217581   8.374   2.399   3.498  0.1420  1.2148  1.1030
37249SOL     OW17582   2.467   1.828   9.684 -0.2290 -0.5206 -0.3202
37249SOL    HW117583   2.384   1.870   9.709 -1.2037 -1.5493 -1.6712
37249SOL    HW217584   2.450   1.734   9.693  0.3838 -0.7984 -1.7490
37250SOL     OW17585  10.041   6.981   7.785  0.5304 -0.3591  0.2470
37250SOL    HW117586   9.982   6.985   7.861  0.5203  0.8528  0.1974
37250SOL    HW217587   9.982   6.978   7.710  0.5156  0.5976  0.2084
37251SOL     OW17588   0.220   5.053   7.249 -0.0606  0.1583  0.7184
37251SOL    HW117589   0.312   5.080   7.250 -0.0052 -0.0322  1.3288
37251SOL    HW217590   0.197   5.044   7.342 -0.6583  0.0800  0.5659
37252SOL     OW17591   3.806   0.722   1.410  1.4102 -0.2705  0.1564
37252SOL    HW117592   3.860   0.729   1.489  1.4043 -1.4211  0.2915
37252SOL    HW217593   3.862   0.678   1.346  0.7150 -1.3834  0.2647
37253SOL     OW17594   0.282   6.140   5.703 -0.2802 -0.6167  0.2669
37253SOL    HW117595   0.377   6.140   5.705 -0.2834 -1.3743  1.2379
37253SOL    HW217596   0.259   6.074   5.637 -0.1486 -0.1170 -0.2911
37254SOL     OW17597   2.354   4.970   3.196 -0.3472 -0.0694  0.2644
37254SOL    HW117598   2.264   4.958   3.165 -0.1596 -2.0735  0.3901
37254SOL    HW217599   2.403   4.897   3.159  1.0251  0.4209  1.0183
37255SOL     OW17600   3.289   1.417   5.448 -0.4326  0.2186 -0.1986
37255SOL    HW117601   3.235   1.363   5.390  0.9525  0.0345 -1.3464
37255SOL    HW217602   3.329   1.354   5.509 -0.5272  0.2177 -0.1360
37256SOL     OW17603   9.098   7.551   3.898 -0.1495 -0.0853 -1.1011
37256SOL    HW117604   9.132   7.636   3.926 -0.8420  0.3918 -1.6856
37256SOL    HW217605   9.124   7.491   3.968  0.2001  0.6340 -0.5998
37257SOL     OW17606   0.409   1.997   2.370 -0.0166 -0.3036  0.1854
37257SOL    HW117607   0.425   1.952   2.288  0.3968 -0.6714  0.4642
37257SOL    HW217608   0.383   1.928   2.431 -3.2012  0.2825 -0.3295
37258SOL     OW17609   6.690   1.825   8.506 -0.4098  0.0469  0.1894
37258SOL    HW117610   6.738   1.812   8.425 -2.1545 -2.1808 -0.5755
37258SOL    HW217611   6.625   1.892   8.485 -0.2162  0.1886  0.0412
37259SOL     OW17612   3.111   1.325   3.924 -0.6183  0.0462  0.2859
37259SOL    HW117613   3.122   1.420   3.929 -0.2097  0.1514 -1.9092
37259SOL    HW217614   3.064   1.309   3.843  1.8045 -1.7648 -0.9080
37260SOL     OW17615   7.107   7.699   4.077 -0.2125 -0.3590  0.2590
37260SOL    HW117616   7.024   7.652   4.067  0.8552 -2.3117 -0.0197
37260SOL    HW217617   7.093   7.756   4.152 -1.3156 -1.8758  1.2762
37261SOL     OW17618   5.301   7.288  10.557  0.3126 -0.7245  0.1823
37261SOL    HW117619   5.326   7.372  10.518  0.2568 -0.4745  0.6658
37261SOL    HW217620   5.270   7.235  10.484 -0.0924 -0.1575 -0.0650
37262SOL     OW17621   8.254  10.476   8.480 -0.4127 -0.5782 -0.0444
37262SOL    HW117622   8.291  10.552   8.435 -0.5451  0.4802  1.5778
37262SOL    HW217623   8.180  10.450   8.425  0.1740 -0.1067 -1.0938
37263SOL     OW17624   7.377   8.438   8.411 -0.2167 -0.4342 -0.4796
37263SOL    HW117625   7.427   8.398   8.483 -0.9231 -0.3422  0.0774
37263SOL    HW217626   7.290   8.398   8.418  0.0020 -1.2429 -1.9650
37264SOL     OW17627   6.162   0.484   8.931  0.2157 -0.4381  0.0664
37264SOL    HW117628   6.134   0.473   8.841  1.0166  1.4732 -0.4614
37264SOL    HW217629   6.100   0.547   8.968 -0.1824 -1.2958  0.9061
37265SOL     OW17630   8.093   6.370   9.345 -0.9169 -1.0184  0.1614
37265SOL    HW117631   8.083   6.449   9.399  2.0661 -0.4171  0.0075
37265SOL    HW217632   8.052   6.393   9.262  0.1397  0.5057  0.0262
37266SOL     OW17633   7.329   8.326   6.158 -0.7055  0.0041  0.3534
37266SOL    HW117634   7.369   8.304   6.074  1.3004  1.0609  0.9781
37266SOL    HW217635   7.349   8.419   6.171 -2.1004  0.1949  1.4257
37267SOL     OW17636  10.217   8.991   8.484  0.0644  0.3010  0.9076
37267SOL    HW117637  10.257   8.909   8.454 -0.2214  0.4436  0.1118
37267SOL    HW217638  10.213   9.045   8.406 -0.4503  0.7981  1.2725
37268SOL     OW17639   7.414   1.694   2.470  0.4607  0.5690  0.1615
37268SOL    HW117640   7.505   1.672   2.452  0.0592  0.2713 -1.7059
37268SOL    HW217641   7.366   1.612   2.458  0.2520 -0.2921  4.7802
37269SOL     OW17642   0.228  10.627   1.636 -0.5921 -0.3820 -0.3467
37269SOL    HW117643   0.138  10.602   1.656 -0.6646 -1.2912 -1.6769
37269SOL    HW217644   0.222  10.719   1.609 -0.7089  0.3791  2.0410
37270SOL     OW17645   5.316   5.029   2.790 -0.2134 -0.0183  0.1844
37270SOL    HW117646   5.373   5.105   2.801 -0.4823  0.2580 -0.2905
37270SOL    HW217647   5.276   5.041   2.704 -1.5474  0.1779  0.7943
37271SOL     OW17648   2.615   7.971   2.439 -0.3477  0.0500 -0.3831
37271SOL    HW117649   2.560   8.044   2.468 -1.6425 -1.4981  1.3326
37271SOL    HW217650   2.627   7.918   2.518 -1.2933 -2.7042 -1.9380
37272SOL     OW17651   2.470   4.678   1.792 -0.1249  0.0071 -0.0554
37272SOL    HW117652   2.553   4.656   1.749  0.3650  0.7263  0.5129
37272SOL    HW217653   2.409   4.610   1.762  0.3289  0.2007 -1.4889
37273SOL     OW17654  10.616   1.379   6.482  0.2543  0.2501  0.1811
37273SOL    HW117655  10.577   1.431   6.553 -0.2461  0.0392  0.0670
37273SOL    HW217656  10.642   1.443   6.416  0.0826  0.3937  0.2533
37274SOL     OW17657   2.337   0.118   4.255  0.2515  0.5936 -0.0455
37274SOL    HW117658   2.362   0.102   4.163 -0.1196  1.5485 -0.3288
37274SOL    HW217659   2.318   0.031   4.290  1.8302  0.0473 -0.4446
37275SOL     OW17660   1.595   9.700   8.048  0.2064  0.0227 -0.0537
37275SOL    HW117661   1.591   9.768   7.982 -0.8141  0.5973  0.5786
37275SOL    HW217662   1.505   9.690   8.079  0.6641 -0.1718  1.2950
37276SOL     OW17663   3.852   4.125   8.381  0.3440  0.1927 -0.2809
37276SOL    HW117664   3.799   4.153   8.306  0.1569 -0.8322 -0.5406
37276SOL    HW217665   3.939   4.109   8.344  1.0227  2.3118  0.2226
37277SOL     OW17666   5.597   0.017   6.997  0.1042 -0.2390 -0.3935
37277SOL    HW117667   5.566   0.087   7.055 -0.0962 -0.3184 -0.4040
37277SOL    HW217668   5.553  -0.062   7.028 -0.5864 -0.1483 -1.1183
37278SOL     OW17669   2.585   1.318   7.730  0.3290 -0.0597  0.0255
37278SOL    HW117670   2.549   1.331   7.818  1.2996  0.2882  0.3764
37278SOL    HW217671   2.673   1.284   7.744  0.6181  0.3184 -0.8060
37279SOL     OW17672   2.005   5.937   2.854 -0.4573  0.7255  0.4586
37279SOL    HW117673   2.006   5.860   2.911 -0.8710 -0.1308 -0.6261
37279SOL    HW217674   2.022   6.011   2.911  0.7200 -0.2569  1.4246
37280SOL     OW17675   7.754   2.603   9.418  0.1725  0.0882  0.2018
37280SOL    HW117676   7.707   2.666   9.363  0.2314 -1.1074 -1.2800
37280SOL    HW217677   7.690   2.574   9.483 -0.3202  0.4839 -0.1070
37281SOL     OW17678  10.264   3.795   3.489 -0.4502 -0.2853 -0.0258
37281SOL    HW117679  10.264   3.801   3.585  0.1451  0.3726 -0.0625
37281SOL    HW217680  10.260   3.702   3.471  0.9749 -0.4993  0.6486
37282SOL     OW17681  10.596   3.077   5.116  0.8171 -0.2020 -0.5419
37282SOL    HW117682  10.597   2.995   5.165 -0.1283  0.1733  0.1353
37282SOL    HW217683  10.607   3.145   5.183  0.7470  0.2614 -0.9929
37283SOL     OW17684   1.834   6.619   2.210 -0.3852  0.6898 -0.1326
37283SOL    HW117685   1.753   6.655   2.246 -0.9940  1.3165 -2.0074
37283SOL    HW217686   1.868   6.689   2.154  1.8191  0.6861  1.1198
37284SOL     OW17687   7.370   0.858   1.858  0.3214 -0.2970  0.0858
37284SOL    HW117688   7.429   0.783   1.846  0.0802 -0.3988 -0.4601
37284SOL    HW217689   7.301   0.825   1.915  0.6622 -0.2400  0.5477
37285SOL     OW17690   3.945   4.112   7.285  0.2153  0.1548 -0.3886
37285SOL    HW117691   3.990   4.034   7.319 -1.0609 -0.1284  0.7264
37285SOL    HW217692   3.975   4.118   7.194 -1.3544 -3.0298 -1.2913
37286SOL     OW17693   4.018   9.151   7.951  0.4919  0.2731  0.1319
37286SOL    HW117694   4.088   9.214   7.930  2.0374 -1.4179 -0.0816
37286SOL    HW217695   3.949   9.171   7.888  0.6117  2.1964  0.5331
37287SOL     OW17696   9.246   3.156   1.818  0.4862  0.7870  0.0696
37287SOL    HW117697   9.189   3.081   1.831  0.3752  0.7524 -0.5912
37287SOL    HW217698   9.274   3.181   1.906 -1.0319  1.1759  0.4576
37288SOL     OW17699  10.271   2.904   5.612 -0.2728 -0.0484  0.7839
37288SOL    HW117700  10.322   2.845   5.557 -0.7412 -1.0679  1.3871
37288SOL    HW217701  10.185   2.908   5.571 -0.3361 -0.0444  0.9139
37289SOL     OW17702   6.320   0.024   9.731 -0.6816 -0.7060  0.6516
37289SOL    HW117703   6.286   0.027   9.642 -1.3562 -2.0410  0.8317
37289SOL    HW217704   6.363  -0.061   9.738 -0.0729 -0.3499  1.4047
37290SOL     OW17705   7.724   6.006   0.509 -0.9155 -0.6897  0.4526
37290SOL    HW117706   7.762   5.918   0.502 -2.7299 -1.3808 -1.8903
37290SOL    HW217707   7.772   6.058   0.445 -1.1275 -0.4762  0.4642
37291SOL     OW17708   1.155  10.671   2.314 -0.5986  0.1160 -0.2077
37291SOL    HW117709   1.224  10.655   2.250  0.6928  2.1208  0.6139
37291SOL    HW217710   1.081  10.704   2.263  0.3680  1.5575 -0.7104
37292SOL     OW17711   4.533   4.214   7.738 -0.6304 -0.0120 -0.3700
37292SOL    HW117712   4.485   4.176   7.664 -1.3777 -0.1263  0.1539
37292SOL    HW217713   4.464   4.254   7.792 -0.0997  0.0422  0.2743
37293SOL     OW17714   6.590   2.601   2.654  0.1221 -0.5235 -0.1193
37293SOL    HW117715   6.515   2.544   2.670 -0.7167  0.1361 -1.5321
37293SOL    HW217716   6.560   2.688   2.678  0.3617 -0.2271 -0.8555
37294SOL     OW17717   1.866   7.113   3.990 -0.8688 -0.1827 -0.7289
37294SOL    HW117718   1.771   7.117   4.001 -1.0824  1.8432 -2.6914
37294SOL    HW217719   1.901   7.142   4.075 -1.8528 -2.9631  0.7640
37295SOL     OW17720  10.416   0.203  10.630  0.0992 -0.4845  0.2903
37295SOL    HW117721  10.476   0.225  10.559  1.2650 -0.6366  1.1811
37295SOL    HW217722  10.395   0.287  10.672  1.0874 -0.5808  1.0251
37296SOL     OW17723   2.133   4.918   7.198  0.1421  0.4057  0.0670
37296SOL    HW117724   2.218   4.876   7.185 -0.3564 -0.5906 -0.0608
37296SOL    HW217725   2.137   4.996   7.143  1.1572  0.6427  0.4495
37297SOL     OW17726   2.682   4.661   1.631 -0.5358  0.5139  0.0872
37297SOL    HW117727   2.679   4.683   1.538 -1.1859  0.3482  0.0701
37297SOL    HW217728   2.722   4.574   1.634 -0.2318  0.6477 -0.0118
37298SOL     OW17729   7.380   2.682   3.109 -0.5361 -0.0738  0.0723
37298SOL    HW117730   7.452   2.744   3.123 -0.3461 -0.3546  0.3632
37298SOL    HW217731   7.311   2.713   3.168 -1.2350  1.0870 -1.3061
37299SOL     OW17732   7.260   2.165   0.195  0.2411  0.5479 -0.8681
37299SOL    HW117733   7.305   2.081   0.197  1.2347  1.0752 -0.6513
37299SOL    HW217734   7.250   2.184   0.102  0.2677  0.3360 -0.9153
37300SOL     OW17735   1.665   4.034   3.117  0.3629  0.2840 -0.4440
37300SOL    HW117736   1.691   3.995   3.034 -1.4784  0.3256 -1.0753
37300SOL    HW217737   1.642   3.960   3.172 -0.4725  0.3412 -0.7070
37301SOL     OW17738   4.157   9.613   0.557 -0.8971 -0.0892  0.2958
37301SOL    HW117739   4.144   9.554   0.632  0.0102  0.8173  1.2093
37301SOL    HW217740   4.220   9.567   0.501 -1.3576 -0.6485  0.2367
37302SOL     OW17741   0.589  10.302   6.721 -0.0485 -0.2901  0.3483
37302SOL    HW117742   0.635  10.219   6.733  0.0380 -0.2116  0.5515
37302SOL    HW217743   0.577  10.309   6.626  0.0920 -0.4541  0.3191
37303SOL     OW17744   5.841   6.023  10.537 -0.0450  0.6478  0.4510
37303SOL    HW117745   5.849   6.015  10.442 -1.8449  1.8933  0.1488
37303SOL    HW217746   5.920   6.068  10.564  0.4805  0.2915 -0.4535
37304SOL     OW17747   9.445   3.342   4.227 -0.0229 -0.0325 -0.9384
37304SOL    HW117748   9.521   3.313   4.278 -0.1760  0.7350 -0.2468
37304SOL    HW217749   9.448   3.438   4.233 -1.7320 -0.0008  0.1497
37305SOL     OW17750   8.414   5.564   7.638  0.1193 -0.6393  0.2574
37305SOL    HW117751   8.415   5.472   7.666 -2.3917 -0.6384  0.5709
37305SOL    HW217752   8.435   5.613   7.717  3.0377 -0.8797 -0.2277
37306SOL     OW17753   5.979   4.106   0.287  0.0696  0.0762  0.3477
37306SOL    HW117754   5.979   4.151   0.372 -0.7732 -1.2476  1.0794
37306SOL    HW217755   5.887   4.085   0.271  0.2748 -0.0588 -0.7050
37307SOL     OW17756   7.865   3.474   2.072  0.3256  0.2954  0.0685
37307SOL    HW117757   7.839   3.412   2.004 -0.2283  1.3141 -0.6830
37307SOL    HW217758   7.945   3.514   2.039  0.8586 -0.2157  0.6977
37308SOL     OW17759  10.091   0.547   2.271  0.6791 -0.3454  0.2629
37308SOL    HW117760  10.165   0.575   2.324  1.1557  1.0690 -1.0465
37308SOL    HW217761  10.015   0.558   2.328  1.3329 -0.4148  1.1621
37309SOL     OW17762   6.762   9.373   9.294 -0.5783 -0.0398  0.0325
37309SOL    HW117763   6.709   9.453   9.290  0.4718  0.8276  1.9833
37309SOL    HW217764   6.844   9.397   9.252 -0.7263 -0.5108 -0.5303
37310SOL     OW17765   2.756   0.862   5.787  0.2075 -0.1716 -0.0306
37310SOL    HW117766   2.798   0.948   5.781  0.1432 -0.1337  0.0587
37310SOL    HW217767   2.668   0.875   5.752  0.5957 -0.4840 -1.1605
37311SOL     OW17768   6.144   9.985   1.306  0.2401 -0.1283 -0.2915
37311SOL    HW117769   6.192   9.968   1.225  0.2928  0.3579 -0.3660
37311SOL    HW217770   6.057   9.948   1.291 -0.9121  2.8838 -1.9056
37312SOL     OW17771   3.933   7.956  10.571  1.0194 -0.4044  0.2659
37312SOL    HW117772   4.010   8.001  10.537  1.1162 -1.3244 -0.7721
37312SOL    HW217773   3.893   8.019  10.631  2.3438  0.2407  0.5041
37313SOL     OW17774   0.305   5.132  10.148  0.5237  0.2276  0.0257
37313SOL    HW117775   0.368   5.163  10.084 -0.4447 -1.0519 -1.6233
37313SOL    HW217776   0.313   5.036  10.144  1.0629  0.0954  2.5021
37314SOL     OW17777   7.784   8.660   7.535 -0.3297  0.1655 -0.1218
37314SOL    HW117778   7.749   8.736   7.581 -0.6249 -0.1754  0.2218
37314SOL    HW217779   7.857   8.695   7.483 -0.0890  0.5775  0.4819
37315SOL     OW17780   9.756   9.981  10.682 -0.0515 -0.4534 -0.0528
37315SOL    HW117781   9.664   9.994  10.656 -0.9925  0.7921  3.3921
37315SOL    HW217782   9.788  10.069  10.702  1.4774 -1.0287  0.1556
37316SOL     OW17783   3.532   1.275   8.298 -0.1978 -0.2325  0.6942
37316SOL    HW117784   3.546   1.278   8.392 -0.0138 -0.8964  0.6904
37316SOL    HW217785   3.591   1.342   8.263 -0.2134 -0.0361  1.0460
37317SOL     OW17786   5.656   1.306   0.616 -0.0000  0.6298 -0.4992
37317SOL    HW117787   5.670   1.398   0.593  1.9458 -0.0179 -2.1878
37317SOL    HW217788   5.743   1.274   0.641 -0.2591 -1.1836 -1.7214
37318SOL     OW17789   1.239   7.657   4.249  0.0109 -0.3825 -0.5104
37318SOL    HW117790   1.330   7.630   4.245  0.1034 -0.1042 -0.2755
37318SOL    HW217791   1.241   7.743   4.290 -0.5758 -1.4789  2.0438
37319SOL     OW17792   1.799   2.190   0.790  0.5311 -0.3817  0.0927
37319SOL    HW117793   1.737   2.208   0.719  0.7166 -0.9627 -0.2278
37319SOL    HW217794   1.791   2.264   0.849  0.9167  0.4888 -0.9280
37320SOL     OW17795   5.653   2.689   1.044  0.1278  0.0976  0.1115
37320SOL    HW117796   5.659   2.776   1.082 -0.6889  0.2528 -0.1053
37320SOL    HW217797   5.696   2.696   0.959  1.4501 -0.1091  0.7360
37321SOL     OW17798   7.070   7.717   0.857 -0.3835  0.6264 -0.4577
37321SOL    HW117799   6.993   7.773   0.874 -3.0286 -2.4389 -1.3154
37321SOL    HW217800   7.083   7.723   0.763  1.5447  2.3134 -0.1447
37322SOL     OW17801   8.174   2.069   4.143  0.2151 -0.0439  0.0834
37322SOL    HW117802   8.125   1.991   4.168 -1.0508  0.3773 -0.9145
37322SOL    HW217803   8.214   2.100   4.224 -0.0564 -1.1772  0.6753
37323SOL     OW17804   4.423   7.946   3.496  0.2225 -0.0018  0.2073
37323SOL    HW117805   4.347   7.936   3.440 -1.6142 -0.7813  2.6538
37323SOL    HW217806   4.431   8.040   3.510 -1.0537  0.0282  0.8429
37324SOL     OW17807   6.347   7.177   5.614 -0.6084 -0.0448  0.0984
37324SOL    HW117808   6.362   7.271   5.611  0.5129 -0.1456  1.5760
37324SOL    HW217809   6.427   7.139   5.576 -1.6434 -0.4068 -1.8414
37325SOL     OW17810   4.531   2.594   2.345  0.1446 -0.2556 -0.7231
37325SOL    HW117811   4.568   2.575   2.431  0.6877  1.4704 -0.5444
37325SOL    HW217812   4.449   2.639   2.363 -0.0649 -0.4713 -1.1182
37326SOL     OW17813   1.468   9.355   5.466  0.0342  0.3192 -0.5948
37326SOL    HW117814   1.460   9.386   5.556  0.4666  1.0036 -0.7815
37326SOL    HW217815   1.503   9.267   5.473  0.2735  0.4514 -0.0969
37327SOL     OW17816   9.525  10.319   4.067  0.4176  0.2175 -0.2668
37327SOL    HW117817   9.510  10.225   4.068  3.2644 -0.3282 -0.5311
37327SOL    HW217818   9.533  10.343   4.159 -1.2725  0.4417 -0.1438
37328SOL     OW17819   2.988   1.977   2.153  0.2989  0.3220 -0.5517
37328SOL    HW117820   2.966   2.067   2.177  0.9624  0.6459 -1.1295
37328SOL    HW217821   3.076   1.982   2.116  0.1274 -0.4775 -1.1014
37329SOL     OW17822   0.624   6.107  10.699 -0.1474 -0.3408  0.0284
37329SOL    HW117823   0.621   6.062  10.615  0.3121 -1.3816  0.5570
37329SOL    HW217824   0.615   6.037  10.764 -1.2974  0.5252  0.8394
37330SOL     OW17825   3.961   3.541   7.107 -0.1000  0.1070 -0.4758
37330SOL    HW117826   3.929   3.628   7.132  1.9886  1.1554 -1.2269
37330SOL    HW217827   4.040   3.528   7.160 -0.8205 -1.7566  0.2542
37331SOL     OW17828   6.530   6.776   9.703  0.6968  0.3729  0.1083
37331SOL    HW117829   6.609   6.791   9.754  1.1401 -1.1038 -0.1296
37331SOL    HW217830   6.458   6.788   9.766  1.1529  0.4498  0.6146
37332SOL     OW17831   9.729   2.831   2.725  0.1531  0.2719 -0.2256
37332SOL    HW117832   9.784   2.777   2.781 -0.0397 -0.8255 -1.0519
37332SOL    HW217833   9.652   2.851   2.779  0.6705  0.5760  0.4203
37333SOL     OW17834   7.994   4.953   3.765  0.0335 -0.5419 -0.7078
37333SOL    HW117835   8.081   4.984   3.791 -0.1953 -0.4129 -0.0866
37333SOL    HW217836   7.995   4.958   3.669  0.5287 -0.0579 -0.6841
37334SOL     OW17837   5.506  10.318   4.907 -0.0051  0.5413 -0.0850
37334SOL    HW117838   5.474  10.284   4.991 -0.8455  0.2315 -0.5252
37334SOL    HW217839   5.557  10.246   4.870 -2.1529 -0.4673 -1.2242
37335SOL     OW17840   4.271   8.502   5.200 -0.4933  0.2740 -0.3720
37335SOL    HW117841   4.264   8.468   5.111  0.3459  0.9054 -0.6930
37335SOL    HW217842   4.355   8.548   5.202 -0.1437 -0.3639  0.9739
37336SOL     OW17843   9.139   6.316   9.168 -0.1594 -0.0429  0.1650
37336SOL    HW117844   9.122   6.258   9.243  1.7718 -1.3853 -0.3438
37336SOL    HW217845   9.092   6.275   9.095  2.1133 -1.8110 -0.4658
37337SOL     OW17846   6.638   9.659   9.096  0.0325  0.1902  0.3695
37337SOL    HW117847   6.673   9.728   9.153 -0.5196  1.6384 -0.9813
37337SOL    HW217848   6.694   9.662   9.018 -0.4103 -0.4587  0.0184
37338SOL     OW17849   4.392   2.395   2.776  0.1050 -0.0758 -0.7023
37338SOL    HW117850   4.465   2.333   2.777 -0.4025 -0.7006 -1.4866
37338SOL    HW217851   4.374   2.411   2.869  1.0193 -0.1550 -0.4929
37339SOL     OW17852   8.746   2.733   5.820 -0.0256  0.2720  0.3895
37339SOL    HW117853   8.713   2.668   5.882 -0.5904 -0.4357 -0.6242
37339SOL    HW217854   8.667   2.773   5.784  0.2991  0.6702  0.1089
37340SOL     OW17855   2.799   2.836   2.734  0.0962 -0.5444  0.0849
37340SOL    HW117856   2.892   2.858   2.742  0.7915 -3.3618  0.8755
37340SOL    HW217857   2.794   2.781   2.656 -1.0196 -0.0356 -0.2238
37341SOL     OW17858   0.866   9.017   4.288 -0.4611 -0.0073  0.2397
37341SOL    HW117859   0.850   9.104   4.250  0.9978 -0.0858 -0.6114
37341SOL    HW217860   0.850   9.030   4.382 -0.7438  1.0595  0.0654
37342SOL     OW17861   9.667   0.914   2.755 -0.1879 -0.1755  0.2302
37342SOL    HW117862   9.627   0.968   2.687 -2.6987 -0.7166  1.1670
37342SOL    HW217863   9.625   0.942   2.836  1.6569 -0.5563  1.3638
37343SOL     OW17864   2.312   4.108   5.934  0.0135 -0.0301 -0.4745
37343SOL    HW117865   2.358   4.032   5.899 -0.7784 -0.9019  0.3117
37343SOL    HW217866   2.226   4.074   5.958 -0.2883  1.0829  0.0659
37344SOL     OW17867   3.356   4.798   2.487  0.0557 -0.7017 -0.3968
37344SOL    HW117868   3.402   4.757   2.560  2.4576  2.5055  0.1253
37344SOL    HW217869   3.408   4.775   2.410  0.4738  0.0378 -0.3371
37345SOL     OW17870   9.636   2.415   7.551  0.2002 -0.5337 -0.5127
37345SOL    HW117871   9.685   2.385   7.474  0.8379 -0.9248  0.0347
37345SOL    HW217872   9.698   2.470   7.598 -0.8329  1.4175 -1.3217
37346SOL     OW17873   1.024   0.728   2.225 -0.3702 -0.4640  0.3978
37346SOL    HW117874   1.100   0.767   2.182 -0.8792 -0.8309 -0.8857
37346SOL    HW217875   1.033   0.634   2.209 -1.1424 -0.5003  0.1321
37347SOL     OW17876   5.446   2.594   2.702  0.1190 -0.3402  0.2152
37347SOL    HW117877   5.519   2.643   2.663  0.1409  0.0015  0.6738
37347SOL    HW217878   5.424   2.527   2.637  0.8149 -0.4175  0.0502
37348SOL     OW17879   7.617   2.079   3.119 -0.4187  0.2190  0.1809
37348SOL    HW117880   7.557   2.100   3.048 -1.4378  1.6660  1.3958
37348SOL    HW217881   7.561   2.068   3.196  0.7062 -0.5210  0.9257
37349SOL     OW17882   6.083   8.456   6.841  0.1024 -0.0841  0.1601
37349SOL    HW117883   6.092   8.465   6.936 -0.1354 -0.4833  0.2211
37349SOL    HW217884   6.173   8.458   6.808  0.1392  1.0366  0.2996
37350SOL     OW17885   1.442  10.413   1.657  0.1278  0.5852  0.4767
37350SOL    HW117886   1.423  10.385   1.567  1.7843 -0.2753  0.3492
37350SOL    HW217887   1.393  10.494   1.668 -1.2858 -0.0561 -0.6910
37351SOL     OW17888  10.424   4.465   3.731  0.4967 -0.1028  0.1572
37351SOL    HW117889  10.501   4.453   3.675  0.0401 -0.6316 -0.3744
37351SOL    HW217890  10.351   4.430   3.679  0.0643 -0.6300  1.1024
37352SOL     OW17891   6.042   2.908   6.851 -0.2753 -0.3762 -0.4052
37352SOL    HW117892   5.949   2.888   6.852 -0.1707 -0.8242  0.4662
37352SOL    HW217893   6.074   2.884   6.937  0.8784 -1.3092 -1.0583
37353SOL     OW17894   4.725   5.974   5.863  0.3434 -0.1820  0.3377
37353SOL    HW117895   4.661   5.909   5.834  0.5271 -0.4857  0.6028
37353SOL    HW217896   4.746   6.024   5.784  3.0497 -2.8590 -0.8019
37354SOL     OW17897   0.655   0.521   4.989  0.2680 -0.0478 -0.4770
37354SOL    HW117898   0.688   0.590   5.046 -0.5833  0.4681 -0.5920
37354SOL    HW217899   0.584   0.480   5.039 -0.4708  0.3959 -1.1370
37355SOL     OW17900   4.861   3.731   8.467  0.4322 -0.1610 -0.8179
37355SOL    HW117901   4.948   3.693   8.457  0.4070 -0.1136 -1.2616
37355SOL    HW217902   4.873   3.824   8.446  0.8702  0.5188  2.1226
37356SOL     OW17903   8.171   1.583   1.239 -0.8459  0.1270  0.5405
37356SOL    HW117904   8.243   1.583   1.302  0.0697 -2.2461 -0.3632
37356SOL    HW217905   8.193   1.654   1.178  0.4045 -0.1193  0.6719
37357SOL     OW17906   4.885   6.688   8.136 -0.5493 -0.2324 -0.2098
37357SOL    HW117907   4.866   6.779   8.113  0.3099 -0.1500 -0.6301
37357SOL    HW217908   4.904   6.691   8.230 -1.6900 -0.1850  0.0413
37358SOL     OW17909   9.730   6.473   2.797  0.0547 -0.0443  0.3516
37358SOL    HW117910   9.768   6.425   2.871 -0.3168  0.1294  0.6567
37358SOL    HW217911   9.671   6.537   2.837 -0.4973 -0.2511 -0.1085
37359SOL     OW17912   5.257   8.190   7.344  0.6119 -0.4584  0.7693
37359SOL    HW117913   5.327   8.234   7.393 -1.0845  1.5133  1.5626
37359SOL    HW217914   5.179   8.202   7.398 -1.2062  1.1510 -1.9995
37360SOL     OW17915   1.905   2.653   7.729  0.0603 -0.0542  0.6451
37360SOL    HW117916   1.967   2.715   7.691 -1.8571  1.0399 -0.8778
37360SOL    HW217917   1.959   2.580   7.758  2.0927  1.0787 -0.1013
37361SOL     OW17918   8.623   1.760   7.127  0.0790  0.6298 -0.1914
37361SOL    HW117919   8.591   1.839   7.083  0.9507  1.4634  0.6098
37361SOL    HW217920   8.545   1.718   7.161 -0.4497  0.8690 -1.0852
37362SOL     OW17921   4.720   2.179   5.699  0.4662  0.8053 -0.0249
37362SOL    HW117922   4.711   2.084   5.703  0.5227  0.8347  1.0317
37362SOL    HW217923   4.647   2.212   5.751  0.1972  1.3621 -0.7369
37363SOL     OW17924   2.803   4.600   3.642  0.7250  0.0599  0.0392
37363SOL    HW117925   2.751   4.528   3.606  0.0770  0.7332 -0.4139
37363SOL    HW217926   2.885   4.560   3.668  1.0747 -0.5565 -1.8167
37364SOL     OW17927   1.747   0.054   2.753 -0.3486 -0.2455  0.2084
37364SOL    HW117928   1.814  -0.014   2.743 -0.1337  0.0168 -0.1214
37364SOL    HW217929   1.772   0.101   2.833 -0.2133 -0.2268  0.1536
37365SOL     OW17930   1.702   1.663   8.634 -0.1907  0.1837  0.1272
37365SOL    HW117931   1.611   1.680   8.610  0.0783 -0.3650 -1.4208
37365SOL    HW217932   1.697   1.607   8.711 -1.2079 -0.7116 -0.5559
37366SOL     OW17933   4.268   1.642   5.595 -0.1952  0.3365  0.2543
37366SOL    HW117934   4.202   1.617   5.531  1.0259  2.3146 -1.9286
37366SOL    HW217935   4.351   1.610   5.558  0.5243  1.4363  0.8594
37367SOL     OW17936   3.020   0.013   8.649  0.2523  0.1705  0.3021
37367SOL    HW117937   2.989   0.030   8.738  0.8491 -0.0421  0.5515
37367SOL    HW217938   3.081   0.084   8.631 -0.8441  0.9661 -0.4357
37368SOL     OW17939   9.279   1.610   4.826 -0.0094  0.5752 -0.1841
37368SOL    HW117940   9.255   1.517   4.830  0.4028  0.4761  0.1190
37368SOL    HW217941   9.197   1.657   4.837 -0.1897  0.2432 -0.1054
37369SOL     OW17942   8.449   6.210   1.316  0.3302  0.2421  0.0766
37369SOL    HW117943   8.391   6.133   1.314  1.3124 -0.5706  1.3449
37369SOL    HW217944   8.467   6.228   1.223  1.0277 -1.8177 -0.2451
37370SOL     OW17945   1.746   5.538   2.356  0.4383  0.0143 -0.5857
37370SOL    HW117946   1.760   5.629   2.329 -0.6559  0.8087  1.3341
37370SOL    HW217947   1.830   5.510   2.392  0.4091  0.7583  0.0897
37371SOL     OW17948   5.595   6.894   4.805  0.0709  0.1976  0.3612
37371SOL    HW117949   5.555   6.846   4.878  1.5997 -0.1156  1.0349
37371SOL    HW217950   5.678   6.849   4.789 -0.3642  0.0721 -1.8075
37372SOL     OW17951   3.123   5.723   1.746 -0.0850  0.3904 -0.5134
37372SOL    HW117952   3.118   5.793   1.811  0.4178 -0.7644  0.8244
37372SOL    HW217953   3.033   5.709   1.719 -0.4197  0.3355  0.5673
37373SOL     OW17954  10.305   3.860   5.439 -0.1403  0.0307  0.4129
37373SOL    HW117955  10.334   3.772   5.464  1.5100  0.4779  0.1758
37373SOL    HW217956  10.366   3.919   5.484 -0.9026  1.0438  0.1524
37374SOL     OW17957   9.054  10.512   9.378 -0.0055 -0.5714 -0.3441
37374SOL    HW117958   9.049  10.444   9.445  1.5102 -2.0842 -1.6763
37374SOL    HW217959   9.119  10.574   9.412  0.4927 -1.1421 -0.2468
37375SOL     OW17960   9.218   0.259   5.668 -0.5982 -0.1873 -0.0864
37375SOL    HW117961   9.162   0.331   5.640  0.7628  0.8664 -0.1831
37375SOL    HW217962   9.299   0.300   5.695  1.0376 -1.7971 -2.1507
37376SOL     OW17963   6.113   1.425   4.851  0.2604  0.1325 -0.6312
37376SOL    HW117964   6.040   1.387   4.802  0.7498 -0.7251 -0.7202
37376SOL    HW217965   6.106   1.388   4.939  0.4362  0.2446 -0.5686
37377SOL     OW17966   3.116  10.647   3.859  0.1587  0.2314  0.3578
37377SOL    HW117967   3.173  10.655   3.936 -0.1061  0.4071  0.5351
37377SOL    HW217968   3.034  10.688   3.885  0.2812  0.8617 -0.2374
37378SOL     OW17969   4.364   5.654   7.623 -0.0939 -0.1692 -0.0996
37378SOL    HW117970   4.418   5.683   7.696 -0.4397  1.1153 -0.3393
37378SOL    HW217971   4.426   5.645   7.550  0.0180 -0.0410 -0.0219
37379SOL     OW17972   2.248   7.934   1.610  0.0838  0.1297 -0.3295
37379SOL    HW117973   2.206   7.938   1.696  0.0396 -1.4699 -0.2488
37379SOL    HW217974   2.196   7.992   1.555 -0.3984  0.5110  0.5116
37380SOL     OW17975   9.932   3.827   6.067  0.5243 -0.2760 -0.0174
37380SOL    HW117976  10.020   3.796   6.089 -0.6771 -2.4330  2.2926
37380SOL    HW217977   9.914   3.787   5.982  0.9641 -1.8132  0.5670
37381SOL     OW17978   8.361   6.213   2.499  0.5078 -0.6637 -0.6219
37381SOL    HW117979   8.358   6.274   2.426  0.2093 -2.0251 -1.7901
37381SOL    HW217980   8.291   6.241   2.557  1.0000  0.6724 -0.6458
37382SOL     OW17981   5.488   4.667   9.365 -0.1346 -0.7512 -0.1040
37382SOL    HW117982   5.415   4.626   9.319 -1.0365  0.7548 -0.0718
37382SOL    HW217983   5.500   4.751   9.322  0.9825 -0.5850  0.4919
37383SOL     OW17984   1.946   3.897   8.173 -0.0813 -0.2126 -0.4004
37383SOL    HW117985   1.906   3.880   8.088  1.0708 -0.5922 -0.8856
37383SOL    HW217986   2.027   3.846   8.172 -0.8416 -1.5959  1.5995
37384SOL     OW17987   5.586  10.622   4.263  0.8793 -0.1945 -0.2368
37384SOL    HW117988   5.545  10.542   4.296  3.1760 -1.5254 -0.4172
37384SOL    HW217989   5.622  10.596   4.178 -0.0568  1.6319 -1.2575
37385SOL     OW17990   4.611   9.647   5.753  0.3296  0.0036  0.2127
37385SOL    HW117991   4.519   9.657   5.726  0.0817 -1.5920  0.4048
37385SOL    HW217992   4.657   9.622   5.673 -0.2127 -3.6123  0.8947
37386SOL     OW17993   0.430   3.310   2.092  0.3305  0.1413 -0.0215
37386SOL    HW117994   0.420   3.233   2.148  1.2073  1.8656  2.7276
37386SOL    HW217995   0.341   3.343   2.081  0.0640 -0.6600 -0.3327
37387SOL     OW17996   9.588   2.177   3.560  0.1092 -0.3704  0.8002
37387SOL    HW117997   9.540   2.096   3.577  2.2169 -1.6408  1.1181
37387SOL    HW217998   9.569   2.232   3.636 -2.2432 -0.0601  0.0519
37388SOL     OW17999   1.880  10.581   1.986  0.4424 -0.1040  0.0562
37388SOL    HW118000   1.874  10.621   1.899 -2.6189  0.2155  0.3233
37388SOL    HW218001   1.930  10.500   1.971 -0.2782 -0.2102 -2.0686
37389SOL     OW18002   2.829   3.195   0.279  0.2310  0.0535  0.1148
37389SOL    HW118003   2.783   3.261   0.330 -0.1254  1.1788 -1.5687
37389SOL    HW218004   2.761   3.155   0.225  0.3288 -2.1933  1.5283
37390SOL     OW18005   1.158  10.328   8.565  0.4425  0.3198 -0.0315
37390SOL    HW118006   1.107  10.306   8.487  1.4779  1.5369 -1.1065
37390SOL    HW218007   1.202  10.246   8.588 -0.7987 -0.3520  0.0084
37391SOL     OW18008   9.346  10.672   2.124 -0.3372 -0.4937  0.0096
37391SOL    HW118009   9.270  10.658   2.181 -1.0979 -0.2034 -0.9011
37391SOL    HW218010   9.308  10.702   2.042  0.8387  0.7596 -0.1061
37392SOL     OW18011   6.598   0.331   3.408  0.2401 -0.0259  0.1887
37392SOL    HW118012   6.623   0.289   3.326  0.5763 -1.5573  1.0375
37392SOL    HW218013   6.666   0.397   3.423  1.9493 -1.8065  0.7327
37393SOL     OW18014  10.010  10.690   0.448 -0.2873 -0.0168 -0.1481
37393SOL    HW118015  10.026  10.598   0.467 -0.7841  0.4336  2.9692
37393SOL    HW218016  10.096  10.726   0.427  0.4168 -0.6389  1.5101
37394SOL     OW18017   8.999   8.125   5.833 -0.3290  0.0185 -0.3158
37394SOL    HW118018   9.032   8.076   5.908  3.1789  1.7309 -0.5372
37394SOL    HW218019   8.979   8.212   5.868 -0.2801  0.3359 -1.0450
37395SOL     OW18020   9.662   1.448   9.124  0.5106 -0.3045  0.2807
37395SOL    HW118021   9.733   1.391   9.152  1.2936  0.7537  0.5130
37395SOL    HW218022   9.647   1.506   9.198 -0.2827 -0.2109  0.0596
37396SOL     OW18023   3.020   5.301   2.663  0.0989  0.0781  0.1056
37396SOL    HW118024   3.040   5.217   2.622  3.4080  0.6602  0.2902
37396SOL    HW218025   3.008   5.280   2.756 -1.0273 -0.3952 -0.1285
37397SOL     OW18026   0.174   9.151   8.566  0.0393  0.1674 -0.6151
37397SOL    HW118027   0.090   9.187   8.594  0.4672  0.1524  0.7374
37397SOL    HW218028   0.152   9.068   8.524 -0.5729 -0.1399  0.2812
37398SOL     OW18029   9.987   2.932   5.947  0.3025  0.3323 -0.0512
37398SOL    HW118030   9.958   2.951   6.036 -2.0872 -2.1294 -0.1892
37398SOL    HW218031  10.043   2.854   5.957 -2.8444 -2.2444 -0.8735
37399SOL     OW18032   3.089   7.099   9.781  0.1636 -0.3468 -0.3647
37399SOL    HW118033   3.048   7.159   9.719 -1.0628 -1.2775 -0.5002
37399SOL    HW218034   3.097   7.150   9.862  0.3702  0.4044 -0.8472
37400SOL     OW18035   0.891   5.108   8.643  0.9541 -0.1023 -0.2117
37400SOL    HW118036   0.903   5.021   8.681 -0.0431 -0.1346  0.0586
37400SOL    HW218037   0.813   5.142   8.686  0.2281  0.1630 -1.6685
37401SOL     OW18038   6.274  10.696   9.466 -0.1054  0.3262 -0.2383
37401SOL    HW118039   6.323  10.620   9.433  0.6819 -0.4049  2.4022
37401SOL    HW218040   6.274  10.758   9.393  0.2638 -1.7146 -2.0738
37402SOL     OW18041   0.299   0.686   6.308 -0.2861 -0.8094 -0.2921
37402SOL    HW118042   0.204   0.684   6.299 -0.2396 -1.2543 -0.6926
37402SOL    HW218043   0.314   0.691   6.402 -0.7280  0.9599 -0.2801
37403SOL     OW18044   6.427   2.850   3.990  0.2061  0.4609 -0.0178
37403SOL    HW118045   6.421   2.891   4.077  1.3735  0.3452  0.1350
37403SOL    HW218046   6.337   2.825   3.969 -0.0253  0.0121  1.3968
37404SOL     OW18047   3.624   7.686   4.761  0.4004  0.0999  0.1290
37404SOL    HW118048   3.561   7.614   4.763  1.9542 -1.3237  0.1944
37404SOL    HW218049   3.674   7.673   4.680  0.6244  1.1924  0.0725
37405SOL     OW18050   3.597   8.418   2.775  0.0054  0.5944  0.1159
37405SOL    HW118051   3.648   8.499   2.773  0.3297  0.3667 -0.8004
37405SOL    HW218052   3.532   8.429   2.706  0.3256 -0.1069 -0.3069
37406SOL     OW18053   6.012   5.100   2.945  0.3936 -0.0645 -0.2089
37406SOL    HW118054   6.058   5.136   2.869  0.3981  0.5756  0.0904
37406SOL    HW218055   5.971   5.020   2.912  0.0174  0.4464 -1.0134
37407SOL     OW18056   2.598   1.474   1.335  0.0929  0.3983  0.7880
37407SOL    HW118057   2.529   1.477   1.401  0.6706  0.5366  1.3977
37407SOL    HW218058   2.601   1.563   1.300 -1.4746 -0.1118 -0.7764
37408SOL     OW18059   4.140   3.920  10.600 -0.4416  0.1766  0.1755
37408SOL    HW118060   4.089   3.840  10.610 -1.8138  0.9531 -0.3480
37408SOL    HW218061   4.179   3.914  10.513 -0.0630 -0.1791  0.3669
37409SOL     OW18062   5.244   0.123  10.330 -0.4334 -0.2685  0.1832
37409SOL    HW118063   5.201   0.191  10.382 -0.5930  0.1543 -0.4950
37409SOL    HW218064   5.204   0.041  10.361  0.0899 -0.1144  1.3273
37410SOL     OW18065   3.264   9.740   7.595  0.3919 -0.4875  0.0899
37410SOL    HW118066   3.287   9.826   7.560  0.9734  0.1043  1.8292
37410SOL    HW218067   3.174   9.750   7.626  0.1193 -0.8072 -0.5793
37411SOL     OW18068   6.598   9.308   6.860 -0.1173 -0.4133 -0.4722
37411SOL    HW118069   6.574   9.388   6.814 -0.2574 -0.6538 -0.8267
37411SOL    HW218070   6.558   9.238   6.809 -0.2135 -0.6927 -0.0197
37412SOL     OW18071   8.014   0.846   3.311  0.3514 -0.1366  0.3557
37412SOL    HW118072   8.099   0.806   3.293  1.1204  0.5525  2.2448
37412SOL    HW218073   7.997   0.826   3.403 -0.5820  1.4511  0.5641
37413SOL     OW18074   1.912   3.238   2.673 -0.0950  0.1494 -0.0500
37413SOL    HW118075   1.886   3.177   2.604 -3.3301  1.9669 -0.6482
37413SOL    HW218076   1.909   3.324   2.632  1.3849  1.0255  1.5319
37414SOL     OW18077   4.337   4.818   6.648 -0.4426 -0.5717 -0.1774
37414SOL    HW118078   4.296   4.795   6.565 -1.9332  0.2179  0.2999
37414SOL    HW218079   4.268   4.864   6.697  0.0815 -1.8805  1.8980
37415SOL     OW18080   6.292   4.650   2.472 -0.3480 -0.6990 -0.2814
37415SOL    HW118081   6.347   4.676   2.399  0.5742 -0.7223  0.3916
37415SOL    HW218082   6.255   4.566   2.445  1.2177 -1.4812 -0.1104
37416SOL     OW18083   4.858   9.193   6.299 -0.6075 -0.4182  0.1563
37416SOL    HW118084   4.865   9.287   6.319 -1.1356 -0.4392  0.4389
37416SOL    HW218085   4.783   9.163   6.349 -0.6228 -0.9336 -0.1696
37417SOL     OW18086   5.123   5.001  10.680 -0.2762 -0.1224 -0.0305
37417SOL    HW118087   5.140   5.077  10.624  1.2373 -0.8520 -0.6194
37417SOL    HW218088   5.208   4.979  10.718 -0.9026 -0.8555  1.0131
37418SOL     OW18089   1.507   6.870  10.502  0.2382  0.0851 -0.1139
37418SOL    HW118090   1.484   6.959  10.530 -0.3718 -0.3415  0.7997
37418SOL    HW218091   1.467   6.813  10.568  1.1741 -0.8455 -0.3278
37419SOL     OW18092   2.044   8.824   4.678 -0.1876 -0.0316  0.1397
37419SOL    HW118093   2.117   8.879   4.705 -0.3887 -0.3074  1.2906
37419SOL    HW218094   1.966   8.871   4.708 -0.6228  0.9798 -2.3242
37420SOL     OW18095   4.314   3.240   5.287 -0.2678 -0.2834  0.6523
37420SOL    HW118096   4.325   3.260   5.194  0.8782  1.6183  1.1548
37420SOL    HW218097   4.400   3.207   5.314 -0.2021  0.4126  1.3102
37421SOL     OW18098   0.343   5.877   3.184  0.4733 -0.3657  0.1700
37421SOL    HW118099   0.249   5.866   3.199  0.1488  1.8637  0.1107
37421SOL    HW218100   0.355   5.860   3.091  0.0728 -0.4264  0.1290
37422SOL     OW18101   3.783   5.078   0.872 -0.0044  0.6264  0.4660
37422SOL    HW118102   3.832   5.112   0.947  0.2527  0.1830  0.5068
37422SOL    HW218103   3.830   4.998   0.848  0.5863  1.3613 -0.8980
37423SOL     OW18104   9.992  10.634   3.546  0.3518 -0.1458 -0.7480
37423SOL    HW118105  10.061  10.615   3.609  0.2289  1.3304 -0.1247
37423SOL    HW218106   9.924  10.570   3.566  1.5199 -1.6466 -1.4031
37424SOL     OW18107   9.603   8.652   5.223 -0.8205 -0.0977 -0.1114
37424SOL    HW118108   9.674   8.605   5.179  0.0517  0.1809  0.9244
37424SOL    HW218109   9.526   8.596   5.214 -0.2955 -0.7362 -0.6735
37425SOL     OW18110   4.190   2.090   4.774 -0.0129  0.5588  0.0786
37425SOL    HW118111   4.160   2.170   4.818 -1.3139 -0.8921  1.9941
37425SOL    HW218112   4.246   2.047   4.839  1.9248  0.5765 -1.4830
37426SOL     OW18113  10.480   4.174   1.486 -0.1002  0.2296  0.1946
37426SOL    HW118114  10.554   4.114   1.495 -0.4157 -0.1522  0.2540
37426SOL    HW218115  10.485   4.230   1.564  1.0110  1.2114 -0.5387
37427SOL     OW18116   1.094   0.650   1.569  0.2538 -0.1639 -0.1895
37427SOL    HW118117   1.155   0.723   1.559  1.2077 -0.6906  1.4380
37427SOL    HW218118   1.049   0.667   1.652  2.0183 -2.4229  1.3584
37428SOL     OW18119   4.026   5.426   4.316 -0.0450 -0.0204  0.6205
37428SOL    HW118120   3.990   5.438   4.228 -1.4006 -1.3737  0.9511
37428SOL    HW218121   3.950   5.403   4.370  0.6536  1.3647  2.3018
37429SOL     OW18122   4.338   6.365   6.442 -0.2975 -0.3068  0.0189
37429SOL    HW118123   4.312   6.322   6.360  0.4977 -0.4471 -0.1651
37429SOL    HW218124   4.261   6.358   6.498 -0.5107 -1.0895 -0.3620
37430SOL     OW18125   6.403   6.010   5.394  0.1232 -0.5892 -0.3984
37430SOL    HW118126   6.452   5.968   5.324  1.0863  1.8839 -1.3323
37430SOL    HW218127   6.356   6.081   5.350 -1.0572 -0.3704  1.1375
37431SOL     OW18128   6.768   7.672   5.114  0.5899  0.5264 -0.5264
37431SOL    HW118129   6.826   7.597   5.131  1.1313  0.7305 -1.3663
37431SOL    HW218130   6.729   7.692   5.198  2.5422  1.0349  0.3198
37432SOL     OW18131   1.537   2.812   4.748 -0.1693 -0.4167  0.0999
37432SOL    HW118132   1.507   2.729   4.786 -0.9912  0.1815  0.8110
37432SOL    HW218133   1.627   2.795   4.720  0.5324 -0.8871  2.4256
37433SOL     OW18134   5.454   4.302   5.797  0.4577 -0.6149 -0.1728
37433SOL    HW118135   5.415   4.389   5.788  0.2658 -0.7053 -0.2331
37433SOL    HW218136   5.389   4.252   5.846 -0.0305 -1.0909 -1.2534
37434SOL     OW18137   0.047   9.635   9.035  0.1456 -0.3035  0.1192
37434SOL    HW118138   0.039   9.689   9.114  1.3355  0.6965 -0.4148
37434SOL    HW218139  -0.008   9.679   8.970  1.9316  0.9490 -0.6322
37435SOL     OW18140  10.122   2.691   4.913 -0.0728 -0.0277  0.2325
37435SOL    HW118141  10.038   2.706   4.870  0.1427  1.7219  0.3563
37435SOL    HW218142  10.101   2.638   4.989 -1.0604  0.3420  0.2268
37436SOL     OW18143   0.364   3.099   4.887  0.6238  0.2644 -0.0371
37436SOL    HW118144   0.377   3.039   4.813  1.3562 -0.6668  0.8183
37436SOL    HW218145   0.371   3.186   4.849 -0.7462 -0.1568 -1.3747
37437SOL     OW18146   3.290   5.328   8.222  0.2256 -0.4758  0.2699
37437SOL    HW118147   3.271   5.249   8.170 -0.6029 -0.9806  1.3055
37437SOL    HW218148   3.381   5.350   8.199  0.3218 -1.4612 -0.3749
37438SOL     OW18149   6.772   1.781   1.501 -1.3179  0.0735  0.3400
37438SOL    HW118150   6.801   1.691   1.494 -1.4256 -0.0319  1.1915
37438SOL    HW218151   6.853   1.832   1.505 -1.1909  0.2610 -2.4892
37439SOL     OW18152   8.550   4.188   5.668 -0.6804 -0.0737  0.4121
37439SOL    HW118153   8.618   4.215   5.606 -1.0115 -0.3099 -0.0496
37439SOL    HW218154   8.573   4.098   5.690  1.2876  0.9194  3.0773
37440SOL     OW18155   2.031   6.351   6.785  0.2596 -0.1490 -0.2628
37440SOL    HW118156   2.071   6.433   6.814 -0.6941 -0.0871  1.0008
37440SOL    HW218157   2.048   6.347   6.691  0.5795  1.3504 -0.2901
37441SOL     OW18158   0.754   3.733   6.447 -0.1694  0.2588 -0.1822
37441SOL    HW118159   0.760   3.816   6.494 -0.0300  0.4698 -0.5672
37441SOL    HW218160   0.662   3.709   6.452 -0.1797  0.3469  0.0779
37442SOL     OW18161   6.178   2.885   9.059 -0.0607 -0.0997 -0.3829
37442SOL    HW118162   6.237   2.854   8.990 -0.3793 -0.4143 -0.5213
37442SOL    HW218163   6.232   2.943   9.113  0.7774 -1.4454  0.3021
37443SOL     OW18164   9.040   2.453   5.079 -0.0850 -0.9787 -0.0474
37443SOL    HW118165   8.966   2.397   5.057 -0.4333 -0.8309  0.7207
37443SOL    HW218166   9.001   2.530   5.121  0.2055  0.8283 -2.8430
37444SOL     OW18167   7.574   0.875   3.605  0.4093 -0.2198  0.3080
37444SOL    HW118168   7.661   0.915   3.600  0.3833 -0.3120 -1.6919
37444SOL    HW218169   7.583   0.806   3.672  0.7259  2.3138  3.1027
37445SOL     OW18170   0.706  10.025   2.336 -0.7622  0.3058  0.0913
37445SOL    HW118171   0.759   9.970   2.394 -0.9218 -0.0560 -0.1049
37445SOL    HW218172   0.714  10.113   2.373 -0.7308  0.1058  0.5699
37446SOL     OW18173   9.436   5.032   9.500  0.1461 -0.1550 -1.0533
37446SOL    HW118174   9.359   4.986   9.465  1.2295 -1.6100 -1.6306
37446SOL    HW218175   9.422   5.032   9.595 -0.7694 -0.0046 -1.1747
37447SOL     OW18176   6.456   9.403   4.322 -0.2445 -0.2186  0.6533
37447SOL    HW118177   6.389   9.463   4.288  2.2140  2.1148 -0.3788
37447SOL    HW218178   6.462   9.335   4.255  1.6941  2.1885 -1.8896
37448SOL     OW18179  10.253   8.066   3.760  0.7876 -0.2518  0.2040
37448SOL    HW118180  10.323   8.010   3.725  1.7018  1.5830 -1.1314
37448SOL    HW218181  10.292   8.154   3.760 -0.4174  0.3502  2.6504
37449SOL     OW18182   2.271   9.097   9.095 -0.2528  0.0842 -0.4822
37449SOL    HW118183   2.203   9.158   9.067 -0.0752  0.4809 -0.0683
37449SOL    HW218184   2.348   9.151   9.108 -0.2273 -0.1394  0.3972
37450SOL     OW18185   6.817   7.993   4.338 -0.0285 -0.0489  0.1063
37450SOL    HW118186   6.762   7.981   4.261 -1.4441 -1.8363  1.3027
37450SOL    HW218187   6.891   7.933   4.325 -0.0880 -0.0977  0.0012
37451SOL     OW18188   3.621   7.283   7.809  0.2733  0.0195 -0.0951
37451SOL    HW118189   3.671   7.275   7.728 -0.7726 -0.4571 -0.7198
37451SOL    HW218190   3.546   7.339   7.786 -0.8990 -1.4137  0.0665
37452SOL     OW18191   6.590   4.981   2.814  0.1328  0.3206  0.2750
37452SOL    HW118192   6.511   5.034   2.821  0.2036  0.2630  2.6038
37452SOL    HW218193   6.558   4.891   2.807 -0.0531  0.3093  1.0787
37453SOL     OW18194   2.728   8.683   6.587 -0.1283  0.2564  0.0954
37453SOL    HW118195   2.728   8.713   6.496 -1.7550  1.2313  0.3841
37453SOL    HW218196   2.687   8.754   6.636 -2.2990 -1.5789  1.1188
37454SOL     OW18197   4.654   7.855  10.580 -0.2375 -0.6335  0.0089
37454SOL    HW118198   4.675   7.921  10.646  0.7395 -0.6252 -0.2847
37454SOL    HW218199   4.739   7.832  10.542 -0.7115 -1.1210 -0.7856
37455SOL     OW18200   3.378   0.261   9.711  0.0272  0.8790 -0.1341
37455SOL    HW118201   3.404   0.179   9.754 -1.0766  0.6553  0.1230
37455SOL    HW218202   3.453   0.282   9.655  0.4592 -0.1480  0.0215
37456SOL     OW18203   7.962   1.489   5.123  0.1107 -0.2897 -0.2328
37456SOL    HW118204   7.922   1.519   5.205 -2.4814 -2.5099 -0.5405
37456SOL    HW218205   7.943   1.558   5.060  1.6214  1.1700  0.8136
37457SOL     OW18206   7.970   1.941   4.343  0.2066  0.0833  0.5605
37457SOL    HW118207   7.976   1.861   4.292 -0.0534 -0.4123  1.2971
37457SOL    HW218208   7.877   1.964   4.341 -0.3062 -1.4373  3.0252
37458SOL     OW18209   8.760  10.127   1.062 -0.1314  0.0343 -0.0517
37458SOL    HW118210   8.794  10.105   1.149 -2.0504  0.7684  0.9524
37458SOL    HW218211   8.806  10.207   1.038 -0.1790  0.2987  0.6927
37459SOL     OW18212   9.506  10.425   1.190  0.8119 -0.1408  0.3037
37459SOL    HW118213   9.594  10.404   1.156  0.7933 -0.1784  0.2784
37459SOL    HW218214   9.456  10.344   1.176  0.1106  0.6026 -1.8486
37460SOL     OW18215   1.068   0.921   8.014 -0.5186  0.2533 -0.3574
37460SOL    HW118216   1.088   0.915   8.107  0.7468 -1.9511 -0.7142
37460SOL    HW218217   0.974   0.943   8.011 -0.2478  1.9533  1.3723
37461SOL     OW18218   6.784   6.249   6.531 -0.2185  0.1706  0.0438
37461SOL    HW118219   6.736   6.192   6.592  0.1096  1.2076  1.3301
37461SOL    HW218220   6.876   6.232   6.551 -0.0471 -0.8264 -1.4814
37462SOL     OW18221   4.239   5.895   1.631  0.4394  0.3354 -0.1167
37462SOL    HW118222   4.301   5.843   1.580 -1.3650  0.0220 -2.1043
37462SOL    HW218223   4.183   5.831   1.674  0.2169  0.6227  0.0247
37463SOL     OW18224   2.931   1.771   2.523 -0.2691 -0.6188  0.3391
37463SOL    HW118225   2.896   1.727   2.601 -0.1258 -1.1626  0.1037
37463SOL    HW218226   2.860   1.828   2.493  0.0733  0.4648  1.5211
37464SOL     OW18227   0.161   6.967  10.320 -0.2881  0.1336 -0.5048
37464SOL    HW118228   0.132   6.875  10.317  0.0271  0.0415 -0.7096
37464SOL    HW218229   0.245   6.967  10.276 -0.1080  0.4583 -0.1642
37465SOL     OW18230   2.147   9.465   6.301  0.3186  0.7114 -0.2673
37465SOL    HW118231   2.202   9.389   6.319 -2.2234 -1.4883 -1.0616
37465SOL    HW218232   2.161   9.524   6.375  2.1978 -0.6240  0.4933
37466SOL     OW18233   5.060   9.199   0.189  0.3901  0.2330 -0.4393
37466SOL    HW118234   5.122   9.169   0.123  1.7013 -0.8575  1.2226
37466SOL    HW218235   4.977   9.205   0.141  1.5129  0.6897 -2.4614
37467SOL     OW18236   7.369   2.978   0.215  0.2268 -0.1265  0.1546
37467SOL    HW118237   7.440   2.940   0.266  0.0918  1.8787  1.9964
37467SOL    HW218238   7.355   2.917   0.143  2.3707 -1.6336  0.9304
37468SOL     OW18239   4.826   5.217   8.183  0.2504  0.5797 -0.4652
37468SOL    HW118240   4.755   5.280   8.198  0.3569  0.0981  2.9798
37468SOL    HW218241   4.788   5.149   8.128 -1.5484  1.0366  0.1414
37469SOL     OW18242   7.474   8.552   0.349  0.4732  0.1584 -0.0883
37469SOL    HW118243   7.389   8.518   0.320  0.4623 -0.8789  1.0784
37469SOL    HW218244   7.512   8.480   0.400  1.0240  1.4461  1.3869
37470SOL     OW18245   3.799  10.147   1.908 -0.0534  0.2260 -0.2978
37470SOL    HW118246   3.840  10.192   1.834 -0.1809  1.4920  0.3846
37470SOL    HW218247   3.745  10.079   1.867 -1.4152  1.9320 -1.4922
37471SOL     OW18248   0.436   6.718   1.860 -0.2519  0.5272 -0.7733
37471SOL    HW118249   0.412   6.629   1.885 -0.1186  1.1394  1.7933
37471SOL    HW218250   0.524   6.709   1.823 -0.3257 -0.4277 -0.7460
37472SOL     OW18251   7.133   4.395   0.615 -0.5281 -0.6317  0.6130
37472SOL    HW118252   7.043   4.426   0.619 -0.1469  0.5191  0.6104
37472SOL    HW218253   7.154   4.370   0.705 -1.1009 -1.6711  0.4674
37473SOL     OW18254   8.546   5.718   2.721  0.0603 -0.2207 -0.2389
37473SOL    HW118255   8.461   5.754   2.696 -0.9259 -1.3217  1.2853
37473SOL    HW218256   8.533   5.688   2.811  1.3714 -2.5337 -0.7366
37474SOL     OW18257   8.905   1.070  10.076  0.4211 -0.1018  0.6614
37474SOL    HW118258   8.948   1.125  10.011  1.5369 -1.2304  0.4030
37474SOL    HW218259   8.977   1.030  10.126 -0.3208 -1.5291  0.6519
37475SOL     OW18260   2.346   0.898   1.149 -0.5790  0.9208 -0.0008
37475SOL    HW118261   2.291   0.921   1.224  0.1536  2.6337  0.0543
37475SOL    HW218262   2.383   0.981   1.120 -0.4828  0.2330 -2.0007
37476SOL     OW18263   6.934   3.184   9.285  0.0658  0.3166  0.1749
37476SOL    HW118264   6.943   3.209   9.193 -1.2694 -0.1417 -0.1049
37476SOL    HW218265   6.909   3.091   9.282  0.8306  0.0679  1.0334
37477SOL     OW18266   5.823   8.118   5.074 -0.0097 -0.3059  0.0979
37477SOL    HW118267   5.839   8.205   5.111  1.6816 -0.9344  0.9836
37477SOL    HW218268   5.781   8.069   5.144  1.1739 -0.8508  0.4622
37478SOL     OW18269   6.736   3.159   6.380 -0.0324  0.4059  0.7000
37478SOL    HW118270   6.679   3.138   6.455 -0.1825  0.0268  0.4839
37478SOL    HW218271   6.676   3.177   6.308  0.1105 -0.9836  0.2019
37479SOL     OW18272   7.348   9.640   8.168  0.9405  0.9165  0.3081
37479SOL    HW118273   7.339   9.545   8.165  1.3273  0.7961  1.8742
37479SOL    HW218274   7.421   9.660   8.109  1.1129  0.1946  0.2754
37480SOL     OW18275   4.560   8.197   9.133  0.4126 -0.1701  0.2221
37480SOL    HW118276   4.625   8.247   9.182  0.2134  1.1966 -0.8488
37480SOL    HW218277   4.499   8.165   9.199  1.6111 -0.6470  1.1307
37481SOL     OW18278   3.028   5.265   6.016 -0.0225  0.2860 -0.3217
37481SOL    HW118279   3.059   5.335   6.074 -2.6279  0.7149  0.6696
37481SOL    HW218280   2.968   5.308   5.955 -0.2484 -0.7922 -0.8904
37482SOL     OW18281   7.913   2.825   6.782 -0.0266 -0.0310 -0.1018
37482SOL    HW118282   7.910   2.875   6.701 -0.9818 -1.3074 -0.8828
37482SOL    HW218283   7.992   2.772   6.775  1.8238  2.2902  1.3717
37483SOL     OW18284   4.292   0.557   5.590  0.1803 -0.2213 -0.0694
37483SOL    HW118285   4.312   0.634   5.537  1.3736  0.7504  1.6752
37483SOL    HW218286   4.265   0.490   5.527  1.7743  0.7777 -1.9139
37484SOL     OW18287   7.166   4.387   5.246 -0.3159  0.1639  0.5391
37484SOL    HW118288   7.110   4.317   5.214  0.8498 -0.7596  0.4630
37484SOL    HW218289   7.188   4.362   5.336 -0.6046  0.8899  0.8235
37485SOL     OW18290   8.025   7.820   9.927 -0.3906 -0.1042 -0.0391
37485SOL    HW118291   8.016   7.776  10.012 -2.3813 -0.6736 -0.4833
37485SOL    HW218292   8.114   7.854   9.927 -0.2017 -0.4336  2.1110
37486SOL     OW18293   2.776   5.357   3.101 -0.0543 -0.5073  0.1679
37486SOL    HW118294   2.843   5.313   3.154  1.2102 -2.6366 -2.9238
37486SOL    HW218295   2.707   5.292   3.090 -0.6036  0.1347 -0.3042
37487SOL     OW18296  10.039   2.114  10.587 -0.8972 -0.6856  0.0887
37487SOL    HW118297  10.066   2.130  10.677 -0.7884 -2.3154  0.3756
37487SOL    HW218298  10.003   2.025  10.588  0.8349 -1.4736 -1.8314
37488SOL     OW18299   3.717   9.367  10.399 -0.4074 -0.4825 -0.7217
37488SOL    HW118300   3.706   9.285  10.351  1.0564 -0.7662 -0.6350
37488SOL    HW218301   3.686   9.435  10.339 -0.1366 -0.9688 -1.4301
37489SOL     OW18302   9.709   9.390   4.297 -0.1875  0.1729 -0.0560
37489SOL    HW118303   9.627   9.439   4.307 -0.6529 -0.5717 -0.1118
37489SOL    HW218304   9.777   9.450   4.327 -0.9236  0.2348  1.6393
37490SOL     OW18305   9.171   6.649   1.582  0.3486 -0.3714 -0.3291
37490SOL    HW118306   9.171   6.729   1.635 -1.6986  0.6354 -1.6638
37490SOL    HW218307   9.241   6.662   1.518  0.3073  0.1948 -0.2631
37491SOL     OW18308   5.427   3.029   6.624 -0.5808  0.2302  0.3231
37491SOL    HW118309   5.409   3.110   6.575  1.4759  0.9605  0.6579
37491SOL    HW218310   5.413   2.959   6.561  0.3528  1.0430 -0.8409
37492SOL     OW18311   8.266   5.737   5.513  0.0675  0.0762 -0.1676
37492SOL    HW118312   8.324   5.672   5.551 -0.6286  0.5751  1.8458
37492SOL    HW218313   8.191   5.741   5.572 -0.5974  1.6504 -1.0303
37493SOL     OW18314   2.176   4.919   4.117  0.0039  0.0166 -0.3111
37493SOL    HW118315   2.191   4.985   4.184  1.3351  0.2019 -0.7621
37493SOL    HW218316   2.263   4.891   4.090 -0.4988 -2.7618  0.6388
37494SOL     OW18317   6.241   5.237  10.077  0.5818  0.5986 -0.1023
37494SOL    HW118318   6.270   5.328  10.081 -0.3895  0.9111  3.2542
37494SOL    HW218319   6.249   5.205  10.167 -1.7866 -1.7328 -0.5722
37495SOL     OW18320   3.924   3.332   9.461 -0.4769  0.4487  0.3606
37495SOL    HW118321   3.857   3.279   9.503 -0.0076 -1.2781 -0.9383
37495SOL    HW218322   4.006   3.306   9.503 -0.4899  1.9464  1.3739
37496SOL     OW18323   9.991   0.041   2.719  0.4152  0.2046  0.0389
37496SOL    HW118324   9.986   0.054   2.625 -0.3562 -0.8147 -0.0670
37496SOL    HW218325   9.918  -0.016   2.740  0.6839  0.2722  1.2332
37497SOL     OW18326   6.104   8.994   6.145  0.4494 -0.3301  0.2949
37497SOL    HW118327   6.149   9.003   6.229  0.0105 -1.0198  0.6072
37497SOL    HW218328   6.098   9.083   6.111  1.2982 -0.1311  0.6412
37498SOL     OW18329  10.631   5.972   2.042  0.0658  0.2288  0.0054
37498SOL    HW118330  10.608   5.879   2.035 -0.0440  0.2597 -0.0337
37498SOL    HW218331  10.707   5.982   1.984  0.8809 -0.1133  0.9699
37499SOL     OW18332   9.183   2.430   0.432  0.0565  0.3305  0.0104
37499SOL    HW118333   9.108   2.373   0.416 -0.7922  0.7092  2.3222
37499SOL    HW218334   9.170   2.503   0.371 -0.0714 -0.7967 -1.3602
37500SOL     OW18335   0.206   2.049   4.519  0.0286  0.5887  0.0492
37500SOL    HW118336   0.195   1.967   4.471 -1.9932  1.1557 -0.5672
37500SOL    HW218337   0.252   2.107   4.458  0.1241  0.3845 -0.0736
37501SOL     OW18338   0.095   1.095   5.267 -0.6145 -0.2518 -0.1517
37501SOL    HW118339   0.062   1.034   5.200 -0.7171  0.0764 -0.4012
37501SOL    HW218340   0.138   1.164   5.217 -2.0008  0.7933  0.0469
37502SOL     OW18341   1.176   1.538  10.368  0.3675  0.3103 -0.3488
37502SOL    HW118342   1.253   1.520  10.313 -0.0191  0.7663 -1.0564
37502SOL    HW218343   1.103   1.544  10.306 -0.5692 -1.7662  0.4512
37503SOL     OW18344   8.665   9.735   4.553 -0.4524 -0.0385  0.0700
37503SOL    HW118345   8.577   9.699   4.567 -0.3005 -0.2877  0.3944
37503SOL    HW218346   8.690   9.771   4.638  0.5998 -1.8352  0.5793
37504SOL     OW18347   7.230   1.875   9.621 -0.7688  0.3297  0.8015
37504SOL    HW118348   7.220   1.830   9.537 -0.0361 -0.0093  0.8800
37504SOL    HW218349   7.227   1.968   9.600 -2.3143  0.2718  0.6327
37505SOL     OW18350   4.869   1.712   8.981 -0.5358  0.1217 -0.2039
37505SOL    HW118351   4.842   1.665   8.902 -0.7167  0.7807 -0.5391
37505SOL    HW218352   4.868   1.805   8.956  0.0555  0.2940  0.3760
37506SOL     OW18353   4.028   2.376   6.522 -0.6353  0.0547 -0.2125
37506SOL    HW118354   4.109   2.372   6.574 -0.4781 -0.2173 -0.4762
37506SOL    HW218355   4.049   2.436   6.450 -0.1661 -1.1817 -1.1337
37507SOL     OW18356   7.815   6.336   8.590 -0.4821 -0.6611  0.2178
37507SOL    HW118357   7.751   6.401   8.620 -0.6898 -0.9322  0.3691
37507SOL    HW218358   7.872   6.322   8.666 -0.1415 -0.2976  0.0313
37508SOL     OW18359  10.010   6.063  10.343 -0.5209 -0.2919 -0.0024
37508SOL    HW118360  10.043   6.110  10.267 -1.3355 -0.2753 -0.3631
37508SOL    HW218361   9.930   6.111  10.367  0.2445  0.3035  1.4712
37509SOL     OW18362   8.469   4.823   9.676  0.4330 -0.3319 -0.0890
37509SOL    HW118363   8.421   4.794   9.754 -0.2078  1.5930  0.3053
37509SOL    HW218364   8.478   4.745   9.622 -0.4918 -1.3827  1.2155
37510SOL     OW18365   0.058   7.420   2.563  0.0191  0.1599 -0.3456
37510SOL    HW118366   0.014   7.427   2.478  0.2576  0.8437 -0.4197
37510SOL    HW218367   0.122   7.350   2.550  0.8420  1.0024 -1.1108
37511SOL     OW18368   5.640   8.776   6.348 -0.4035  0.0162  0.2153
37511SOL    HW118369   5.580   8.850   6.343  0.6597  0.9643  0.8786
37511SOL    HW218370   5.652   8.747   6.258  0.7700  2.0203 -0.3333
37512SOL     OW18371   7.928   6.452   7.465 -0.2109  0.3366  0.4205
37512SOL    HW118372   7.870   6.517   7.506  0.7578  0.9010  0.9287
37512SOL    HW218373   7.868   6.392   7.421 -1.1322  1.9336 -0.6402
37513SOL     OW18374   9.897   1.066   4.594 -0.0893 -0.0951 -0.3859
37513SOL    HW118375   9.988   1.040   4.575 -0.8826 -1.6799 -2.4658
37513SOL    HW218376   9.902   1.159   4.613  2.0277 -0.2502  0.0497
37514SOL     OW18377   9.311   0.615   0.760  0.3475  0.0114 -0.1011
37514SOL    HW118378   9.244   0.574   0.815  1.1978 -0.6444  0.4523
37514SOL    HW218379   9.290   0.583   0.671 -0.5468  0.4537 -0.0676
37515SOL     OW18380  10.505   3.539   6.207  0.3631  0.3298  0.5341
37515SOL    HW118381  10.452   3.459   6.202 -1.2117  1.3962 -0.6860
37515SOL    HW218382  10.586   3.511   6.250  0.5024 -2.2708 -1.1781
37516SOL     OW18383   4.800   7.193   0.698  0.5500  0.8747  0.0060
37516SOL    HW118384   4.758   7.208   0.613  0.0254 -0.8285 -0.0732
37516SOL    HW218385   4.880   7.246   0.694  0.1907  1.3636 -1.2740
37517SOL     OW18386   3.191   9.619   8.882  0.5013 -0.2424  0.1803
37517SOL    HW118387   3.219   9.662   8.964  2.4094 -2.2828  0.6822
37517SOL    HW218388   3.125   9.679   8.846 -0.4343  0.7455  3.1904
37518SOL     OW18389   4.502   7.521   3.649  0.8399 -0.4013  0.2704
37518SOL    HW118390   4.573   7.539   3.588  1.5315 -0.4450  1.0400
37518SOL    HW218391   4.423   7.549   3.603  1.3883 -0.0246 -0.4639
37519SOL     OW18392   9.089   0.567   9.081 -0.1710 -0.8725 -0.2679
37519SOL    HW118393   9.147   0.496   9.107 -1.9626 -2.7801 -1.1508
37519SOL    HW218394   9.141   0.647   9.092  2.4924 -2.4218 -0.7711
37520SOL     OW18395   8.152   8.274   8.512  0.3887 -0.4891 -0.4820
37520SOL    HW118396   8.142   8.185   8.545 -0.7103  0.1348  0.9912
37520SOL    HW218397   8.233   8.306   8.553 -0.0881 -0.2730  0.3013
37521SOL     OW18398   7.320   0.091   4.006 -0.0126  0.2401  0.2173
37521SOL    HW118399   7.342   0.170   3.957  0.1679  0.4577  0.6369
37521SOL    HW218400   7.367   0.021   3.961 -0.1095  0.3854 -0.1097
37522SOL     OW18401   2.231   0.956   2.609  0.0875  0.1234  0.0187
37522SOL    HW118402   2.294   0.984   2.543  0.5796  0.1269  0.4896
37522SOL    HW218403   2.280   0.956   2.691 -0.2960 -0.6777  0.2569
37523SOL     OW18404   1.117  10.185   3.225 -0.3641  0.2618 -0.3325
37523SOL    HW118405   1.051  10.132   3.270 -1.0108  1.1037 -0.2692
37523SOL    HW218406   1.067  10.254   3.181  0.3611  0.0986 -1.4413
37524SOL     OW18407   3.231   1.918   4.403 -0.4847  0.0456 -0.1727
37524SOL    HW118408   3.311   1.970   4.401 -0.5726  0.1732 -2.3972
37524SOL    HW218409   3.180   1.956   4.475  0.2043  1.8913 -0.6022
37525SOL     OW18410   8.066   0.320   1.476 -0.2259 -0.0779 -0.6057
37525SOL    HW118411   8.027   0.331   1.563  1.9859 -0.6858  0.5322
37525SOL    HW218412   8.063   0.407   1.437 -1.0000  0.2652  0.1910
37526SOL     OW18413   5.186   2.953   7.016  0.0634  0.1643 -0.2306
37526SOL    HW118414   5.201   3.047   7.007  0.6062  0.1667  0.6397
37526SOL    HW218415   5.270   2.917   7.045  0.2518 -0.7969 -1.8030
37527SOL     OW18416   7.968   3.096   0.812  0.9525  0.4588  0.8033
37527SOL    HW118417   8.059   3.103   0.841  0.9312  0.8217  0.7837
37527SOL    HW218418   7.918   3.145   0.878  0.7628  0.1904  0.8599
37528SOL     OW18419   1.257   5.686   3.836  0.0732 -0.0026 -0.1262
37528SOL    HW118420   1.264   5.674   3.931  0.9706 -2.2432 -0.4043
37528SOL    HW218421   1.166   5.710   3.821  0.3765  2.4545  1.4291
37529SOL     OW18422   9.161   8.719  10.016  0.2490  0.7595 -0.2290
37529SOL    HW118423   9.083   8.728  10.072 -1.6386 -2.3433 -2.0638
37529SOL    HW218424   9.195   8.632  10.037 -0.1766 -0.2751 -3.2892
37530SOL     OW18425   8.159  10.680   9.173 -0.3612  0.0327  0.6193
37530SOL    HW118426   8.185  10.685   9.265  0.8184 -0.1740  0.3123
37530SOL    HW218427   8.218  10.740   9.128 -2.9726  2.6424  0.3633
37531SOL     OW18428   1.855  10.646   0.747 -0.3261 -0.1803  0.0151
37531SOL    HW118429   1.906  10.582   0.798 -1.3271 -1.0674 -0.0722
37531SOL    HW218430   1.895  10.730   0.769  0.4439 -0.7329  0.8345
37532SOL     OW18431   3.683  10.696  10.242 -0.1003 -0.0502  0.4479
37532SOL    HW118432   3.668  10.754  10.167 -1.3228 -0.8054  0.0978
37532SOL    HW218433   3.746  10.632  10.211  0.5425  0.5107  0.5521
37533SOL     OW18434   2.258   8.421   7.431 -0.2482  0.5921  0.3728
37533SOL    HW118435   2.168   8.446   7.410 -0.4341  0.0418  0.5042
37533SOL    HW218436   2.283   8.479   7.504 -1.0336 -0.2870  1.3591
37534SOL     OW18437   3.721   4.229   2.277 -0.3347  0.1584  0.4168
37534SOL    HW118438   3.736   4.256   2.368 -0.7929  2.9324 -0.2259
37534SOL    HW218439   3.654   4.290   2.245 -1.0350 -1.5068 -1.4571
37535SOL     OW18440   8.173   1.401   1.454  0.5758 -0.1103 -0.3084
37535SOL    HW118441   8.102   1.383   1.517  0.7914 -3.0202 -0.7593
37535SOL    HW218442   8.130   1.448   1.383 -0.3728  0.3022  0.5053
37536SOL     OW18443   3.945   9.455   8.691 -0.4031 -0.2955 -0.0274
37536SOL    HW118444   3.879   9.515   8.727  0.4031  0.1393  0.7805
37536SOL    HW218445   3.950   9.385   8.756  2.4527  1.4524  1.8379
37537SOL     OW18446   5.150   5.258   0.291  0.0313 -0.0163  0.0425
37537SOL    HW118447   5.190   5.305   0.364  1.8895 -0.5878 -0.5548
37537SOL    HW218448   5.201   5.285   0.215 -1.2061 -0.2392 -0.8902
37538SOL     OW18449   2.309   6.778   3.670  0.3672  0.4805 -0.0667
37538SOL    HW118450   2.250   6.709   3.638  1.7999 -0.8403 -0.0022
37538SOL    HW218451   2.367   6.796   3.596 -1.3655  3.3012 -0.8629
37539SOL     OW18452  10.459   0.138   0.918  0.5722 -0.0517 -0.1832
37539SOL    HW118453  10.470   0.084   0.840  2.3715 -2.0847  1.3584
37539SOL    HW218454  10.415   0.080   0.981 -0.8195  1.5249  0.3557
37540SOL     OW18455   7.445   3.100   9.681  0.1500 -0.6643  0.6859
37540SOL    HW118456   7.436   3.119   9.588  0.4480  0.3263  0.8428
37540SOL    HW218457   7.392   3.167   9.725  1.2660 -0.1287  1.2699
37541SOL     OW18458   7.252   9.003   5.012 -0.2216 -0.8463 -0.1549
37541SOL    HW118459   7.347   8.992   5.015  0.0448  0.7279 -1.6458
37541SOL    HW218460   7.230   9.043   5.097  0.3685 -1.5543  0.3486
37542SOL     OW18461   0.062   7.364   5.783 -0.4030 -0.2557  0.1948
37542SOL    HW118462   0.087   7.400   5.698 -1.5559 -1.4642 -0.7050
37542SOL    HW218463  -0.012   7.417   5.810 -0.8828 -0.6999 -0.2152
37543SOL     OW18464   6.932   6.450   6.259 -0.1290  0.7102  0.2918
37543SOL    HW118465   6.946   6.365   6.218 -1.0014  0.2336  0.9622
37543SOL    HW218466   6.927   6.431   6.353 -1.4710  1.3259  0.3710
37544SOL     OW18467   5.525   6.151   3.641  0.0643 -0.3881  0.1252
37544SOL    HW118468   5.562   6.189   3.720 -0.7748 -1.1301  0.8927
37544SOL    HW218469   5.504   6.060   3.665 -0.8661 -0.4151 -0.7194
37545SOL     OW18470   2.415   0.282   2.512 -0.4549  0.6178  0.6006
37545SOL    HW118471   2.430   0.374   2.534 -0.7919  0.4681  1.5118
37545SOL    HW218472   2.451   0.234   2.586 -1.2481  0.0708  0.6471
37546SOL     OW18473   2.511   5.783  10.634 -0.0048  0.6127  0.2510
37546SOL    HW118474   2.558   5.860  10.665  0.5519  0.4786 -0.2281
37546SOL    HW218475   2.447   5.817  10.572  1.3517  0.5884 -1.2539
37547SOL     OW18476   6.486   4.866   1.022 -0.8765 -0.2403 -0.6495
37547SOL    HW118477   6.435   4.786   1.007 -0.7364 -0.5876  0.5479
37547SOL    HW218478   6.481   4.879   1.117  1.3061 -0.3284 -0.4754
37548SOL     OW18479   7.614   0.755   7.895 -0.5746 -0.8201 -0.0709
37548SOL    HW118480   7.643   0.807   7.970 -2.8079  1.3600 -0.5931
37548SOL    HW218481   7.682   0.689   7.884  2.1204  1.5390  1.0805
37549SOL     OW18482   5.798   7.534   8.082 -0.2197  0.4269 -1.0135
37549SOL    HW118483   5.891   7.515   8.067  0.3160 -1.0244  2.8554
37549SOL    HW218484   5.796   7.626   8.107  0.8715 -0.2121  1.9544
37550SOL     OW18485   7.243   0.396   8.612  0.3549  0.4297 -0.3882
37550SOL    HW118486   7.150   0.418   8.619  0.3913  0.5164 -0.1891
37550SOL    HW218487   7.278   0.409   8.700  0.9798  2.3298 -0.8586
37551SOL     OW18488   7.625   0.495   2.851 -0.4178  0.0321 -0.3284
37551SOL    HW118489   7.588   0.517   2.765  1.0146  0.2146 -0.9186
37551SOL    HW218490   7.718   0.483   2.834 -0.1644 -0.1859  1.1686
37552SOL     OW18491   7.596   4.681   2.856 -0.2385 -0.5361  0.6560
37552SOL    HW118492   7.511   4.637   2.864 -0.2767 -0.4137  0.9631
37552SOL    HW218493   7.623   4.665   2.766 -0.3990 -0.9192  0.6715
37553SOL     OW18494   0.749   2.779   1.060 -0.0141  0.1465  0.1390
37553SOL    HW118495   0.678   2.788   0.997  1.0260  0.4729 -1.0445
37553SOL    HW218496   0.719   2.825   1.138 -1.0156  0.4510 -0.4139
37554SOL     OW18497   5.395   9.106   1.147 -0.0237  0.5335  0.3031
37554SOL    HW118498   5.323   9.149   1.193  1.1844  1.2372  1.6295
37554SOL    HW218499   5.447   9.179   1.112  1.7011  0.2338  2.0273
37555SOL     OW18500   6.184   6.417   9.946  0.6838  0.1277  0.7565
37555SOL    HW118501   6.138   6.468  10.013 -0.7412 -1.1262  0.7708
37555SOL    HW218502   6.174   6.326   9.973 -1.1199 -0.5610 -1.7866
37556SOL     OW18503  10.652   1.152   2.744 -0.4572 -0.1322 -0.1773
37556SOL    HW118504  10.611   1.166   2.659  0.0974  0.0048 -0.4271
37556SOL    HW218505  10.745   1.164   2.728 -0.4123  0.7261  0.6208
37557SOL     OW18506   5.030   0.766   1.250  0.6677  0.0227  0.1001
37557SOL    HW118507   5.061   0.692   1.199 -0.6880  1.4280 -3.0962
37557SOL    HW218508   4.935   0.753   1.255  0.6595  0.4757  1.3859
37558SOL     OW18509   9.040   8.470   3.835  0.2256 -0.1958  0.8698
37558SOL    HW118510   9.111   8.407   3.849 -0.2590 -0.8305  0.5160
37558SOL    HW218511   8.961   8.426   3.867 -0.1625  0.1224  0.3721
37559SOL     OW18512   1.128   2.708   2.246 -0.5746 -0.2050  0.0504
37559SOL    HW118513   1.216   2.689   2.278 -0.3294  0.4563 -0.2322
37559SOL    HW218514   1.124   2.803   2.239 -1.0076 -0.2773 -0.8032
37560SOL     OW18515   8.682   4.603   5.381  0.2264  0.3682  0.3544
37560SOL    HW118516   8.729   4.546   5.441  0.8311  1.5325  1.0346
37560SOL    HW218517   8.637   4.544   5.320  2.2630 -0.8160 -0.0872
37561SOL     OW18518   9.692  10.239   6.334 -0.4651  0.0554 -0.6643
37561SOL    HW118519   9.629  10.253   6.405 -1.6578  0.6688 -1.8035
37561SOL    HW218520   9.739  10.160   6.359 -2.5824 -1.1834 -0.3881
37562SOL     OW18521   6.695   2.196  10.150 -0.3525 -0.3038  0.0729
37562SOL    HW118522   6.656   2.239  10.226  0.4706 -0.8607  0.8233
37562SOL    HW218523   6.632   2.127  10.126 -0.1332 -0.7857  0.8766
37563SOL     OW18524   2.109   0.138   8.100 -0.3158 -0.0674  0.2432
37563SOL    HW118525   2.150   0.215   8.139 -2.0965  1.4052 -0.5918
37563SOL    HW218526   2.104   0.074   8.171  1.8490  0.2749  0.7693
37564SOL     OW18527   5.780   1.771   0.215 -0.4457 -0.5234 -0.1472
37564SOL    HW118528   5.839   1.837   0.253  0.5142 -1.9035  0.8389
37564SOL    HW218529   5.822   1.746   0.133  0.9804 -2.2386  1.0212
37565SOL     OW18530   0.305   0.986   6.872  0.2741  0.4691  0.2513
37565SOL    HW118531   0.263   0.953   6.792  0.5316  0.9331 -0.0881
37565SOL    HW218532   0.232   1.017   6.926 -0.1026 -1.9731  1.2464
37566SOL     OW18533   3.342   7.851   6.835 -0.1770 -0.9098 -0.1570
37566SOL    HW118534   3.370   7.942   6.824 -1.8472 -0.4559 -1.1009
37566SOL    HW218535   3.294   7.851   6.918  0.8503 -1.2158  0.4429
37567SOL     OW18536   6.859   3.799   2.685  0.0219 -0.0354  0.4444
37567SOL    HW118537   6.763   3.803   2.685 -0.0323  0.5882 -2.0509
37567SOL    HW218538   6.886   3.891   2.687  0.5891 -0.2099  1.2047
37568SOL     OW18539  10.239   3.032  10.015  0.5209 -0.0798 -0.5985
37568SOL    HW118540  10.298   2.977   9.963  0.7279 -0.8468  0.4263
37568SOL    HW218541  10.183   3.075   9.950  1.6124 -0.0234 -1.5392
37569SOL     OW18542   0.643   0.847   7.812 -0.2983  0.0034  0.0447
37569SOL    HW118543   0.707   0.808   7.753 -1.7939 -0.2954 -1.4304
37569SOL    HW218544   0.644   0.940   7.790 -1.3853 -0.2154 -1.0183
37570SOL     OW18545   5.385   9.400   3.399  0.4733 -0.1869 -0.6324
37570SOL    HW118546   5.308   9.357   3.437 -0.4541  0.8744 -1.2340
37570SOL    HW218547   5.419   9.455   3.470  2.2258 -2.5146  0.4450
37571SOL     OW18548   9.122   0.863   4.888  0.0564  0.1696 -0.3722
37571SOL    HW118549   9.167   0.864   4.972 -1.2920  1.8049  0.3961
37571SOL    HW218550   9.191   0.879   4.823  1.2027 -1.6574  0.3095
37572SOL     OW18551  10.134   0.547   4.997  0.0982  0.0070  0.0588
37572SOL    HW118552  10.218   0.540   5.043  0.6037  0.8399 -0.7006
37572SOL    HW218553  10.109   0.639   5.007  0.3106  0.2531 -1.4448
37573SOL     OW18554   5.145   3.424   2.438 -0.2668 -0.1227 -0.5386
37573SOL    HW118555   5.064   3.437   2.389  0.6727  1.9606 -1.7079
37573SOL    HW218556   5.144   3.494   2.504  0.9430  0.5292 -1.1700
37574SOL     OW18557   1.616   6.430   2.466  0.6498 -0.2205 -0.6783
37574SOL    HW118558   1.618   6.492   2.540  0.7592 -2.3885  1.2533
37574SOL    HW218559   1.529   6.392   2.470  0.8585 -0.7772 -1.3286
37575SOL     OW18560   5.744   0.226   2.920  0.3569 -0.1030 -0.5386
37575SOL    HW118561   5.795   0.248   2.843  1.2552  0.0059  0.0786
37575SOL    HW218562   5.755   0.131   2.930  2.0310  0.1751  0.6785
37576SOL     OW18563   3.770   7.854   7.346  0.1833 -0.0357  0.4134
37576SOL    HW118564   3.829   7.876   7.274 -1.1329 -0.7975 -0.9687
37576SOL    HW218565   3.770   7.931   7.403  2.1764  0.1153  0.2653
37577SOL     OW18566   1.972   1.027  10.074  0.0749  0.2303 -0.3127
37577SOL    HW118567   1.938   1.036   9.985  0.3349 -0.4335 -0.4875
37577SOL    HW218568   2.067   1.039  10.065  0.2328 -0.8810 -0.3047
37578SOL     OW18569   7.230   2.660   1.972  0.1506 -0.2564 -0.3095
37578SOL    HW118570   7.148   2.615   1.951  0.2485 -0.6856  0.2195
37578SOL    HW218571   7.203   2.740   2.016  0.0386 -1.2512  1.5165
37579SOL     OW18572   3.741   2.892   3.844 -0.5710 -0.1316  0.7298
37579SOL    HW118573   3.761   2.902   3.751  3.4958  2.1375  1.5883
37579SOL    HW218574   3.677   2.961   3.862 -0.1448  0.4977 -0.0937
37580SOL     OW18575   5.747   4.227   7.764 -0.5838  0.0766 -0.4023
37580SOL    HW118576   5.731   4.157   7.826 -0.7296  1.3322  1.0225
37580SOL    HW218577   5.709   4.195   7.682  0.5294 -2.0415 -0.1591
37581SOL     OW18578   4.315   6.917   8.018 -0.2173  0.2655 -0.6090
37581SOL    HW118579   4.399   6.900   8.062  0.2604  0.4450 -1.4287
37581SOL    HW218580   4.335   6.909   7.925 -1.2796 -0.4219 -0.7990
37582SOL     OW18581   5.870  10.121   5.953  0.3021 -0.2990 -0.2018
37582SOL    HW118582   5.780  10.128   5.985  0.9717  1.8925  1.4225
37582SOL    HW218583   5.897  10.033   5.977 -0.6688 -0.1906  1.4311
37583SOL     OW18584  10.441   0.450   3.980  0.4261  0.0681  0.1124
37583SOL    HW118585  10.440   0.544   3.999  1.4484  0.3312 -1.0455
37583SOL    HW218586  10.423   0.409   4.065  0.1470  1.2974  0.6750
37584SOL     OW18587   8.201   4.209  10.321 -0.0794  0.1959 -0.0774
37584SOL    HW118588   8.266   4.261  10.275  1.0430  0.0806  1.3011
37584SOL    HW218589   8.138   4.184  10.253  0.9153  0.9080 -1.3137
37585SOL     OW18590   8.620   1.938   2.547 -0.0409 -0.1565  0.1008
37585SOL    HW118591   8.590   1.986   2.624 -2.2168 -0.0284 -0.7388
37585SOL    HW218592   8.646   1.852   2.580  0.4472  0.3837  1.1442
37586SOL     OW18593   6.258  10.154   9.435 -0.2745 -0.1632  0.1519
37586SOL    HW118594   6.297  10.138   9.349  0.7653 -0.6959  0.7061
37586SOL    HW218595   6.214  10.071   9.456 -1.6019  0.3728 -0.3898
37587SOL     OW18596   2.629   1.427   9.639 -0.5325  0.3779  0.0735
37587SOL    HW118597   2.663   1.501   9.588 -0.3958  1.1520  1.2670
37587SOL    HW218598   2.592   1.466   9.718 -2.9066 -0.5663 -0.4789
37588SOL     OW18599   3.675   3.774   4.659  0.0080 -0.5286  0.0370
37588SOL    HW118600   3.670   3.687   4.621 -0.0274 -0.1169 -0.9188
37588SOL    HW218601   3.743   3.819   4.608  1.3707 -0.5630  1.6906
37589SOL     OW18602  10.010   9.430   0.235  0.1014 -0.4094 -0.2283
37589SOL    HW118603   9.966   9.424   0.320 -1.7779  1.3265 -0.9975
37589SOL    HW218604   9.954   9.378   0.176  0.3917 -0.1269 -0.7598
37590SOL     OW18605   9.152   3.976   8.441 -0.3350  0.3374 -0.0685
37590SOL    HW118606   9.172   3.976   8.348 -0.2688  1.3199 -0.0612
37590SOL    HW218607   9.111   3.891   8.457  2.3889 -1.1413 -0.3721
37591SOL     OW18608   9.939   0.123   6.950  0.4112  0.3382 -0.3214
37591SOL    HW118609  10.029   0.155   6.955  1.0332 -1.2129 -1.0514
37591SOL    HW218610   9.905   0.133   7.039  1.7152 -0.1994  0.2563
37592SOL     OW18611   3.103   6.184   2.496  0.2896  0.3157  0.3327
37592SOL    HW118612   3.119   6.152   2.584  1.4269 -0.7355 -0.2213
37592SOL    HW218613   3.072   6.107   2.448  2.8421 -0.0228 -0.9655
37593SOL     OW18614   0.752   1.475   5.627  0.1205  0.3211  0.2133
37593SOL    HW118615   0.830   1.432   5.594  0.9985  1.2945  0.9385
37593SOL    HW218616   0.746   1.556   5.576 -0.0238  0.5708  0.6195
37594SOL     OW18617   1.450   4.417  10.658  0.2376 -0.3643  0.2754
37594SOL    HW118618   1.461   4.322  10.659 -1.2595 -0.6659 -2.5084
37594SOL    HW218619   1.401   4.436  10.739  0.0167 -2.0482  0.5672
37595SOL     OW18620   9.193   9.631   6.607  0.0424  0.1337 -0.5441
37595SOL    HW118621   9.186   9.726   6.616 -1.9826  0.1807 -2.0106
37595SOL    HW218622   9.208   9.617   6.514  0.0927 -1.0143 -0.3762
37596SOL     OW18623   7.660   1.089   0.758 -0.7243  0.2297  0.2717
37596SOL    HW118624   7.715   1.116   0.832  0.6886 -1.0490 -0.2523
37596SOL    HW218625   7.722   1.062   0.691 -1.9985  0.3175 -0.9920
37597SOL     OW18626   4.909   3.856   2.615 -0.0271  0.2193  0.2012
37597SOL    HW118627   4.835   3.808   2.653 -0.2917  1.0233  0.7495
37597SOL    HW218628   4.870   3.939   2.585  1.1811  2.4375  4.0098
37598SOL     OW18629   8.957   4.034   3.859  0.3655 -0.7716  0.0183
37598SOL    HW118630   8.924   3.945   3.843 -0.3972 -0.3498 -0.8272
37598SOL    HW218631   9.009   4.054   3.781 -0.0512 -0.2157 -0.1194
37599SOL     OW18632   7.915   0.758  10.587 -0.4754 -0.2147 -0.3639
37599SOL    HW118633   7.942   0.738  10.497  0.8357 -0.2021  0.0055
37599SOL    HW218634   7.846   0.693  10.607 -2.4983  1.2427 -2.1443
37600SOL     OW18635   1.012   3.317   6.754 -0.5548 -0.0559 -0.8624
37600SOL    HW118636   1.014   3.411   6.739 -1.9663 -0.0455 -1.1361
37600SOL    HW218637   0.928   3.289   6.718 -2.1586 -0.7563  2.9755
37601SOL     OW18638   5.961   8.674   9.991  0.0769  0.5148  0.1655
37601SOL    HW118639   6.025   8.738   9.959  0.8961  0.6377  1.9174
37601SOL    HW218640   5.968   8.601   9.929 -0.6430  1.9283 -1.6801
37602SOL     OW18641   0.001   4.644   9.458 -0.4800  0.1544 -0.6849
37602SOL    HW118642  -0.027   4.571   9.402 -1.1723 -0.6165  0.6199
37602SOL    HW218643  -0.043   4.629   9.541  1.7606  0.3647  0.6329
37603SOL     OW18644   8.617  10.191   7.345  0.1339 -0.5916  0.0400
37603SOL    HW118645   8.577  10.140   7.415 -0.2748 -0.4179 -0.0664
37603SOL    HW218646   8.683  10.132   7.307  0.9157 -0.4136  1.0788
37604SOL     OW18647   0.394   8.631   9.485  0.1864 -0.0121  0.1322
37604SOL    HW118648   0.314   8.676   9.513 -1.4653 -1.7155 -1.5462
37604SOL    HW218649   0.422   8.582   9.563 -0.9765 -0.1375  0.4998
37605SOL     OW18650   0.267   1.281   9.302  0.0320 -0.0090 -0.0867
37605SOL    HW118651   0.328   1.353   9.286  1.9992 -1.7458 -0.9533
37605SOL    HW218652   0.286   1.253   9.391  0.9016 -0.8149 -0.4929
37606SOL     OW18653   8.744   0.270   8.497  0.2265  0.2543  0.3344
37606SOL    HW118654   8.803   0.342   8.516 -0.4779  0.9138  0.0480
37606SOL    HW218655   8.801   0.193   8.491  0.9558  0.7467  0.8244
37607SOL     OW18656   4.463   2.849   8.797 -0.0713  0.0513 -0.2110
37607SOL    HW118657   4.507   2.925   8.759 -0.2869 -0.8110 -2.3172
37607SOL    HW218658   4.530   2.780   8.796 -0.3511 -0.2255  0.1666
37608SOL     OW18659   7.899   7.741   8.564  0.1585  0.3678 -0.2445
37608SOL    HW118660   7.864   7.778   8.645 -0.4604  0.2668 -0.4660
37608SOL    HW218661   7.838   7.670   8.541 -0.1287  0.9235 -1.2455
37609SOL     OW18662   1.220   2.342   9.428  0.8209 -0.2895 -0.1432
37609SOL    HW118663   1.158   2.387   9.487 -1.4511 -0.8097 -2.0029
37609SOL    HW218664   1.177   2.260   9.406  2.1993 -0.6851 -1.5197
37610SOL     OW18665   0.113   0.416   1.459  0.7245 -0.1725 -0.1335
37610SOL    HW118666   0.107   0.438   1.552 -0.7024  0.3701 -0.3319
37610SOL    HW218667   0.139   0.497   1.416 -1.7680  0.5191 -0.5322
37611SOL     OW18668   4.699   8.032   0.090 -0.3602  0.1251  0.0725
37611SOL    HW118669   4.653   7.968   0.145 -0.5830  0.1730 -0.0579
37611SOL    HW218670   4.772   8.062   0.144 -0.4833  0.0507  0.2814
37612SOL     OW18671   7.688   3.205   3.283  0.1016  0.1656  0.3605
37612SOL    HW118672   7.734   3.142   3.228 -0.5045 -0.2426  0.3058
37612SOL    HW218673   7.755   3.240   3.341  0.3774 -0.8396  0.6756
37613SOL     OW18674   3.688   9.574   5.302  0.3447  0.2368 -0.4597
37613SOL    HW118675   3.767   9.546   5.348  1.7367  2.5619 -1.2953
37613SOL    HW218676   3.622   9.584   5.371  1.1337 -0.4725  0.4194
37614SOL     OW18677   4.960   2.806   1.912  0.4335  0.5916  0.0391
37614SOL    HW118678   4.955   2.806   1.816 -0.2036 -0.0008  0.0593
37614SOL    HW218679   4.888   2.863   1.940  0.3290  0.4017  0.1655
37615SOL     OW18680   3.428   6.116   6.098  0.0148 -0.1823 -0.1512
37615SOL    HW118681   3.381   6.197   6.118 -1.6443 -1.2763  0.6417
37615SOL    HW218682   3.422   6.064   6.178  2.7222 -0.3787  0.0188
37616SOL     OW18683   4.781   8.453   8.809 -0.3341 -0.4908 -0.7228
37616SOL    HW118684   4.874   8.473   8.807 -0.8185  2.1148 -0.3672
37616SOL    HW218685   4.774   8.381   8.873  1.1932  1.0883  1.3867
37617SOL     OW18686   7.890  10.653   0.613  0.1513  0.7681 -0.1702
37617SOL    HW118687   7.841  10.735   0.604 -0.4384  0.5974  1.2633
37617SOL    HW218688   7.829  10.585   0.583 -0.4627  0.5759  1.4313
37618SOL     OW18689   6.261   8.273   6.112 -0.4166  0.0935  0.1482
37618SOL    HW118690   6.345   8.315   6.130 -0.9548  0.8784  0.8913
37618SOL    HW218691   6.261   8.195   6.166  0.5477 -0.8569 -1.1632
37619SOL     OW18692   7.288   8.555  10.320 -0.3690 -0.8319  0.5962
37619SOL    HW118693   7.332   8.546  10.404  2.2581  1.6270 -0.3547
37619SOL    HW218694   7.314   8.478  10.270 -0.3053 -1.2991  1.3403
37620SOL     OW18695   0.595   7.959   2.402 -0.2504  0.7953  0.1130
37620SOL    HW118696   0.528   7.891   2.400  0.4591  0.0573  0.9441
37620SOL    HW218697   0.571   8.015   2.476 -0.2029  0.7989  0.1259
37621SOL     OW18698   9.366   4.807   6.629 -0.0143 -0.2698  0.0630
37621SOL    HW118699   9.336   4.897   6.635  0.4227 -0.1727  0.9103
37621SOL    HW218700   9.296   4.755   6.668  1.0715  0.0028  2.5309
37622SOL     OW18701   5.098   1.958   1.530 -0.0031 -0.4327 -0.3819
37622SOL    HW118702   5.098   2.045   1.490  1.0721  0.0751  0.6618
37622SOL    HW218703   5.008   1.927   1.521 -1.0069  1.7457  1.2113
37623SOL     OW18704   5.641   0.897   5.031 -0.3505 -0.5706 -0.0808
37623SOL    HW118705   5.555   0.872   4.995 -1.6524  0.6471  1.9877
37623SOL    HW218706   5.663   0.825   5.091 -0.2352 -0.5774 -0.1319
37624SOL     OW18707   5.151   6.877   7.125  0.6379  0.5344 -0.0628
37624SOL    HW118708   5.057   6.895   7.132  0.8021  1.1488  0.7087
37624SOL    HW218709   5.160   6.826   7.045 -0.2761  1.0227 -0.4872
37625SOL     OW18710   7.216  10.377   0.830 -0.2415 -0.1273  0.4408
37625SOL    HW118711   7.290  10.338   0.784 -0.5016 -0.5063  0.3351
37625SOL    HW218712   7.235  10.471   0.831  0.1449 -0.2004  0.2471
37626SOL     OW18713   1.457   3.746   0.427 -0.2966  0.1849 -0.0086
37626SOL    HW118714   1.538   3.719   0.470 -0.1221 -1.5558 -1.3274
37626SOL    HW218715   1.389   3.690   0.466 -0.6989  0.8340  0.2559
37627SOL     OW18716   5.409   7.500   5.058  0.0416 -0.0432 -0.3185
37627SOL    HW118717   5.493   7.480   5.016 -0.2188 -0.4499 -0.6505
37627SOL    HW218718   5.363   7.416   5.062  1.0298 -0.5413  3.0197
37628SOL     OW18719   0.885   8.152   5.137 -0.5026  0.1411 -0.0956
37628SOL    HW118720   0.854   8.135   5.048  0.4445  2.3490 -0.9080
37628SOL    HW218721   0.818   8.112   5.193 -0.1546 -3.0257 -1.7132
37629SOL     OW18722   1.910   3.705   1.749  0.1466 -0.2589  0.1019
37629SOL    HW118723   1.980   3.770   1.753  1.3460 -1.5242  0.3053
37629SOL    HW218724   1.952   3.626   1.715 -1.2591 -0.9609 -0.0706
37630SOL     OW18725   4.877   9.734   6.676  0.3112 -0.3492  0.0818
37630SOL    HW118726   4.794   9.773   6.703 -0.7587 -2.7488  0.5202
37630SOL    HW218727   4.934   9.742   6.753  0.1037  0.2486  0.1791
37631SOL     OW18728   6.545   5.163   2.075 -0.5705 -0.2310 -0.4889
37631SOL    HW118729   6.552   5.081   2.026 -3.4662  0.5938 -2.5151
37631SOL    HW218730   6.456   5.163   2.109  0.5730  0.3816  2.9261
37632SOL     OW18731   3.624   3.681   6.616  0.1300  0.1041 -0.0523
37632SOL    HW118732   3.647   3.688   6.523  0.4504 -1.0626 -0.0743
37632SOL    HW218733   3.571   3.602   6.622  0.7149 -0.2389  0.8615
37633SOL     OW18734   7.585   2.184   4.973 -0.1195  0.7215 -0.1280
37633SOL    HW118735   7.590   2.263   4.919  1.2353  0.0646 -1.0463
37633SOL    HW218736   7.517   2.130   4.932  0.6374  0.3929 -0.9829
37634SOL     OW18737   6.469   0.085   7.963  0.0767  0.2732  0.2560
37634SOL    HW118738   6.508   0.011   7.916  0.2146  0.3836  0.1932
37634SOL    HW218739   6.420   0.046   8.034 -0.3259  0.0906 -0.1228
37635SOL     OW18740  10.680   2.113  10.575 -0.8490  0.1226  0.2806
37635SOL    HW118741  10.775   2.109  10.561 -0.9881 -2.7514 -0.3525
37635SOL    HW218742  10.660   2.036  10.628 -2.8264  0.8363  0.6445
37636SOL     OW18743   0.871   8.803   6.777 -0.6783 -0.2211 -0.8457
37636SOL    HW118744   0.883   8.834   6.867 -1.4077  0.2045 -0.8787
37636SOL    HW218745   0.777   8.816   6.760 -0.3632  0.6963 -2.0238
37637SOL     OW18746   0.626   9.216   8.749 -0.3504  0.1082 -0.2950
37637SOL    HW118747   0.545   9.266   8.747 -0.1120  0.5142  0.1147
37637SOL    HW218748   0.694   9.281   8.764  0.1453 -0.1125 -1.4886
37638SOL     OW18749   2.120   5.863   2.603 -0.0521 -0.3701  0.0689
37638SOL    HW118750   2.083   5.891   2.687  1.8531 -0.6525  1.0541
37638SOL    HW218751   2.204   5.823   2.626  1.8566  1.9900 -2.1775
37639SOL     OW18752   9.045   5.542   9.275  0.1343 -0.7403  0.0796
37639SOL    HW118753   9.014   5.617   9.325 -0.2437 -0.8252 -0.0205
37639SOL    HW218754   8.966   5.489   9.261 -0.0625  0.0257 -1.9062
37640SOL     OW18755   3.982   0.468   5.276  0.0429 -0.2408  0.0535
37640SOL    HW118756   4.063   0.456   5.324 -0.4721 -2.6142  0.4707
37640SOL    HW218757   3.994   0.550   5.227  0.5528  2.4547  4.1776
37641SOL     OW18758   5.681   0.431   0.914 -0.2381 -0.0823 -0.0273
37641SOL    HW118759   5.718   0.515   0.888  1.2673 -0.3073  1.2557
37641SOL    HW218760   5.718   0.368   0.852  0.0238 -0.0458  0.0934
37642SOL     OW18761   3.728   0.829   9.983  0.0033  0.5633  0.2400
37642SOL    HW118762   3.632   0.826   9.982 -0.0356 -0.2110  2.2188
37642SOL    HW218763   3.752   0.825   9.890 -1.8701  1.0979 -0.3252
37643SOL     OW18764   8.522   4.449   1.926  0.0616  0.4380  0.0440
37643SOL    HW118765   8.444   4.437   1.872 -0.5554 -1.1195  1.2103
37643SOL    HW218766   8.495   4.512   1.993 -0.2797 -0.1920  0.5211
37644SOL     OW18767   3.924   3.052   2.173 -0.2548 -0.3902  0.0099
37644SOL    HW118768   3.990   3.007   2.120 -0.7833 -1.9979  0.6537
37644SOL    HW218769   3.841   3.011   2.148 -0.6784 -0.2141  1.0778
37645SOL     OW18770   6.293   0.733   9.010  0.4956 -0.1677 -0.5899
37645SOL    HW118771   6.281   0.824   9.036  1.0349 -0.8354  2.4641
37645SOL    HW218772   6.205   0.698   9.001  0.2139  0.0053  1.1207
37646SOL     OW18773   2.283   5.926   3.965 -0.1646 -0.3837  0.3581
37646SOL    HW118774   2.367   5.905   3.923 -1.2112 -0.9637 -1.5583
37646SOL    HW218775   2.248   5.841   3.992 -1.3796 -0.4987 -1.4104
37647SOL     OW18776   8.753   0.020   3.234 -0.3476  0.1022 -0.2097
37647SOL    HW118777   8.730   0.061   3.151 -0.1989  2.1879  0.7012
37647SOL    HW218778   8.673   0.025   3.287  0.0222  0.3808  0.3394
37648SOL     OW18779   5.559   7.325   5.267 -0.1208 -0.1644  0.0431
37648SOL    HW118780   5.483   7.270   5.286  0.1199 -0.3839  0.3993
37648SOL    HW218781   5.572   7.317   5.173  0.3744 -1.3386  0.1950
37649SOL     OW18782   1.583   4.714   0.335  0.0434  0.4482  0.2139
37649SOL    HW118783   1.527   4.641   0.361 -0.3094 -0.0425 -1.8154
37649SOL    HW218784   1.671   4.677   0.332 -0.1585  0.0289 -0.9883
37650SOL     OW18785   8.569   9.830   9.346 -0.1898  0.0948  0.1318
37650SOL    HW118786   8.545   9.892   9.277  0.9719 -0.7352 -1.0583
37650SOL    HW218787   8.513   9.754   9.330  0.7993 -0.5000 -0.5367
37651SOL     OW18788   9.682   5.127   4.633 -0.4016  0.4310 -0.2816
37651SOL    HW118789   9.649   5.039   4.646 -0.3907  0.5298  0.4354
37651SOL    HW218790   9.613   5.184   4.667 -0.1173  0.6803 -0.1148
37652SOL     OW18791   3.980   0.943   3.379 -0.7948  0.2919  0.4219
37652SOL    HW118792   3.920   0.985   3.318 -0.6270  0.7824  0.5864
37652SOL    HW218793   3.985   0.852   3.350 -0.0556  0.7032 -0.8274
37653SOL     OW18794   4.493   5.229   3.896  0.1663 -0.4479  1.2270
37653SOL    HW118795   4.559   5.161   3.886 -0.3156 -0.8838  0.9466
37653SOL    HW218796   4.541   5.304   3.931  0.8624 -0.6614  0.7598
37654SOL     OW18797   7.464   0.331   0.281  0.2754 -0.2238 -0.3702
37654SOL    HW118798   7.478   0.325   0.376 -0.9631  0.3345 -0.1253
37654SOL    HW218799   7.547   0.363   0.246 -0.3439  3.3233  0.9922
37655SOL     OW18800   4.814   2.927   2.546  0.9471 -0.5730 -0.5669
37655SOL    HW118801   4.869   2.851   2.567  0.3990 -1.1405 -1.1135
37655SOL    HW218802   4.757   2.896   2.476  1.3890  0.6593 -1.5090
37656SOL     OW18803   3.137   7.004   6.868 -0.1039  0.0488 -0.2175
37656SOL    HW118804   3.193   7.030   6.795 -2.6003  0.5305 -2.0787
37656SOL    HW218805   3.080   7.080   6.882 -0.4283 -0.4703  1.5088
37657SOL     OW18806   6.919   2.834   1.305  0.7570  0.3876  0.3737
37657SOL    HW118807   6.911   2.929   1.306  1.8869  0.4982  0.1976
37657SOL    HW218808   6.861   2.805   1.235 -2.1364  0.6495  2.4735
37658SOL     OW18809   2.352   3.985   6.323  0.9435 -0.4634 -0.2733
37658SOL    HW118810   2.258   4.003   6.314  0.4106 -0.5889  3.3701
37658SOL    HW218811   2.356   3.900   6.366  2.7317 -0.4659 -0.3867
37659SOL     OW18812   9.462   3.694   6.476  0.3720  0.6371  0.1836
37659SOL    HW118813   9.445   3.608   6.514  0.9236  2.0272  3.9456
37659SOL    HW218814   9.557   3.695   6.463  0.1334 -0.0827 -2.2616
37660SOL     OW18815   7.964   2.295   8.328  0.4097  0.5077 -0.4504
37660SOL    HW118816   7.954   2.377   8.377 -0.0436 -0.7794  1.7159
37660SOL    HW218817   8.058   2.277   8.330  0.8507  2.0329 -2.8873
37661SOL     OW18818   5.533   2.737   8.144 -0.5854 -0.0562  0.6690
37661SOL    HW118819   5.529   2.722   8.049 -0.7493 -1.1328  0.8387
37661SOL    HW218820   5.479   2.815   8.157 -1.7230 -0.7102  0.0306
37662SOL     OW18821   8.280   7.198   2.011  0.1908 -0.0305 -0.2305
37662SOL    HW118822   8.322   7.137   2.071 -0.6785 -1.5058 -1.0386
37662SOL    HW218823   8.271   7.279   2.060 -0.0698 -1.0452  1.4593
37663SOL     OW18824   1.879   6.758   9.204 -0.3360 -0.3396  0.4035
37663SOL    HW118825   1.884   6.664   9.224 -3.4991 -0.3940  1.4936
37663SOL    HW218826   1.850   6.762   9.113 -0.9524 -0.4726  0.5871
37664SOL     OW18827   8.386   6.011   0.924 -0.1910  0.3650  0.2588
37664SOL    HW118828   8.337   6.071   0.869 -0.1085  1.1223  0.9953
37664SOL    HW218829   8.452   6.066   0.968  0.5156 -0.4189  0.2180
37665SOL     OW18830   3.281   5.461   3.885  0.2782  0.1876 -0.5267
37665SOL    HW118831   3.200   5.512   3.874  0.2511  0.0328 -1.0438
37665SOL    HW218832   3.256   5.372   3.860  0.7572  0.2527 -1.2691
37666SOL     OW18833   6.091   1.204   2.387 -0.5231  0.3464 -0.3788
37666SOL    HW118834   5.999   1.223   2.406 -0.4880  1.3059 -1.1144
37666SOL    HW218835   6.088   1.139   2.316 -0.6387  0.8953 -0.8828
37667SOL     OW18836   1.401   0.438   8.849 -0.4340 -0.2062  0.2364
37667SOL    HW118837   1.438   0.435   8.761 -1.8472 -2.0262 -0.3644
37667SOL    HW218838   1.401   0.346   8.878 -1.2543  0.1902  1.5701
37668SOL     OW18839   7.797   5.914  10.700 -0.2043 -0.8140  0.1538
37668SOL    HW118840   7.730   5.969  10.659 -0.4612 -2.2515 -1.5020
37668SOL    HW218841   7.754   5.829  10.711  0.5248 -1.0204  1.5752
37669SOL     OW18842   2.052   2.934  10.065 -0.3192 -0.2748  0.1500
37669SOL    HW118843   2.103   2.883  10.128  0.3238  0.0231 -0.1148
37669SOL    HW218844   2.027   2.872   9.997 -0.1340 -0.3851  0.1822
37670SOL     OW18845   1.035   4.149   6.108  0.1096 -0.2346 -0.0872
37670SOL    HW118846   1.061   4.137   6.017  1.3415 -1.3587  0.3752
37670SOL    HW218847   1.052   4.242   6.126 -1.1166  0.2508 -1.2593
37671SOL     OW18848   8.898   9.444   9.801 -0.1274 -0.4991 -0.2085
37671SOL    HW118849   8.959   9.457   9.873 -0.8442 -1.0524  0.5107
37671SOL    HW218850   8.949   9.465   9.722  0.5668  0.4141  0.4691
37672SOL     OW18851   2.159   2.473   6.685 -0.1246  0.9188  0.1309
37672SOL    HW118852   2.113   2.538   6.631  1.5753  1.7330 -0.4126
37672SOL    HW218853   2.214   2.425   6.623  0.7465  0.8704  0.9165
37673SOL     OW18854   1.603   8.069   8.885 -0.3681  0.2865  0.9982
37673SOL    HW118855   1.681   8.019   8.908 -1.1255 -1.6017 -0.2865
37673SOL    HW218856   1.597   8.136   8.953  2.4324  0.6120  1.0539
37674SOL     OW18857   5.440   2.759   8.717  0.5573 -0.2353  0.4205
37674SOL    HW118858   5.446   2.701   8.641  0.9387  0.7288 -0.2969
37674SOL    HW218859   5.530   2.768   8.747  0.2879 -1.5512  1.7350
37675SOL     OW18860   9.465  10.099   9.111  0.2002 -0.1135  0.2334
37675SOL    HW118861   9.458  10.008   9.081 -0.3500  0.4218 -1.3165
37675SOL    HW218862   9.554  10.125   9.087  0.5479 -0.3865  1.1649
37676SOL     OW18863   0.761   8.261   0.327 -0.7612  0.2058 -0.5185
37676SOL    HW118864   0.698   8.240   0.258 -0.9196 -2.3375  0.2693
37676SOL    HW218865   0.755   8.186   0.387 -0.3520  2.1197  2.0506
37677SOL     OW18866   2.627   6.250   0.468 -0.3469  0.2750  0.0878
37677SOL    HW118867   2.546   6.253   0.417  0.3351  0.0097 -1.0227
37677SOL    HW218868   2.689   6.203   0.413  0.0209 -1.2973  1.7386
37678SOL     OW18869   8.120   0.530   7.724 -0.1815  0.3328 -0.7149
37678SOL    HW118870   8.057   0.461   7.703 -0.0316  0.5144 -1.8480
37678SOL    HW218871   8.128   0.528   7.819 -0.2703 -1.1297 -0.7176
37679SOL     OW18872  10.101   7.207   1.912  0.1575  0.0600 -0.5802
37679SOL    HW118873  10.048   7.285   1.894  1.2931  0.5724 -1.8933
37679SOL    HW218874  10.041   7.133   1.896 -0.4011  0.6332 -1.2150
37680SOL     OW18875   5.350   0.895   0.594 -0.6751  0.3746 -0.3896
37680SOL    HW118876   5.428   0.840   0.580 -0.1071  0.9963  0.2543
37680SOL    HW218877   5.279   0.832   0.608 -0.0214 -0.2076  0.4342
37681SOL     OW18878   0.680   8.028   1.931 -1.0062  0.1767  0.1363
37681SOL    HW118879   0.610   7.963   1.918 -2.1988  1.4143  0.1954
37681SOL    HW218880   0.691   8.033   2.026 -1.3126  0.4731  0.1564
37682SOL     OW18881   0.009   3.132   7.626 -0.0299  0.0774  0.6253
37682SOL    HW118882   0.016   3.224   7.649  0.4747  0.0346  0.6446
37682SOL    HW218883  -0.085   3.113   7.632 -0.1891  0.6958  0.2076
37683SOL     OW18884   5.795   0.823   5.332  0.1404 -0.3774 -0.4092
37683SOL    HW118885   5.700   0.813   5.327 -0.0916  1.0175  0.6520
37683SOL    HW218886   5.829   0.739   5.301 -1.3967 -0.5624 -1.7665
37684SOL     OW18887   6.082   0.200   1.700  0.3041 -0.2286  0.6374
37684SOL    HW118888   5.987   0.210   1.692  0.4865  1.7107  0.3878
37684SOL    HW218889   6.102   0.232   1.787  0.8850  0.9886  0.0815
37685SOL     OW18890  10.614   1.208   0.954 -0.5833 -0.2151  0.2377
37685SOL    HW118891  10.626   1.299   0.926  1.5058 -0.7339 -0.7308
37685SOL    HW218892  10.641   1.207   1.045 -1.9549  0.3765  0.6774
37686SOL     OW18893   6.281  10.167   6.734 -0.1470 -0.3552  0.0497
37686SOL    HW118894   6.368  10.164   6.774  0.0036 -1.6391 -0.3310
37686SOL    HW218895   6.221  10.168   6.808  0.1765  0.0916  0.3124
37687SOL     OW18896   4.887   5.327   5.968 -0.3790  0.2605  1.1010
37687SOL    HW118897   4.899   5.232   5.962 -1.3985  0.1354  0.8042
37687SOL    HW218898   4.950   5.355   6.034 -1.7847 -0.9993  3.0835
37688SOL     OW18899   0.426   1.686   6.250 -0.4034  0.5556 -0.0525
37688SOL    HW118900   0.507   1.660   6.208  0.1262  1.6968  0.2156
37688SOL    HW218901   0.395   1.607   6.294 -0.3997 -0.3742 -1.6237
37689SOL     OW18902   2.926   6.169   4.203  0.0325 -0.0607 -0.3101
37689SOL    HW118903   3.020   6.172   4.224  0.0747 -1.0353 -0.3246
37689SOL    HW218904   2.899   6.261   4.205  0.2636  0.0567  2.9144
37690SOL     OW18905   9.494   2.140   0.138  0.3463  0.0057 -0.4972
37690SOL    HW118906   9.413   2.097   0.112 -0.0466  1.5624 -1.9826
37690SOL    HW218907   9.471   2.190   0.216  0.6822 -1.9447  0.9364
37691SOL     OW18908   5.822  10.556   3.694  0.0956 -0.1288  0.3902
37691SOL    HW118909   5.880  10.630   3.712  2.2677 -1.4559 -0.8019
37691SOL    HW218910   5.813  10.556   3.598 -2.3842  0.3335  0.5371
37692SOL     OW18911   0.593   6.172   1.012  0.1395  0.0576 -0.1166
37692SOL    HW118912   0.567   6.259   0.983 -0.4117 -0.3852 -1.0203
37692SOL    HW218913   0.686   6.179   1.030  0.2210  0.6974 -0.7387
37693SOL     OW18914   9.242   9.465   5.166  0.3083 -0.2987  0.1360
37693SOL    HW118915   9.166   9.501   5.119  0.0528  1.3047  1.6487
37693SOL    HW218916   9.204   9.416   5.239  0.7166 -0.2061  0.4153
37694SOL     OW18917  10.035   4.835  10.179  0.0815  0.0805 -0.3443
37694SOL    HW118918  10.075   4.758  10.219 -0.5379 -0.1193 -0.1059
37694SOL    HW218919  10.064   4.832  10.088 -0.2728 -0.6650 -0.4368
37695SOL     OW18920   6.741   9.189   4.930  0.4646  0.0639  0.3714
37695SOL    HW118921   6.732   9.254   4.860  1.5049  0.8748  0.9571
37695SOL    HW218922   6.806   9.127   4.898  0.7577  0.2962  0.5110
37696SOL     OW18923   4.313   9.706   3.361 -0.2799 -0.1717  0.1782
37696SOL    HW118924   4.241   9.643   3.351 -1.6598  1.5893 -1.6047
37696SOL    HW218925   4.391   9.651   3.371 -1.5313 -2.1500 -0.2899
37697SOL     OW18926   3.473   6.904   6.383 -0.2345  0.4127  0.2217
37697SOL    HW118927   3.401   6.964   6.360  0.0878  1.0699  0.8683
37697SOL    HW218928   3.460   6.888   6.476  0.9275  1.2034  0.5376
37698SOL     OW18929   4.651   2.781   6.428  0.0662 -0.2854  0.6169
37698SOL    HW118930   4.728   2.724   6.422 -0.0405 -0.2739 -1.5522
37698SOL    HW218931   4.583   2.725   6.467 -0.1526 -1.8582 -1.8207
37699SOL     OW18932   4.084   2.262   4.943 -0.0222 -0.0918 -0.1576
37699SOL    HW118933   4.127   2.291   5.024  0.9526 -0.7229 -0.4315
37699SOL    HW218934   3.994   2.294   4.951  0.1371  0.1100  1.0397
37700SOL     OW18935   8.895   2.500   4.521 -0.4360  0.2783  0.1548
37700SOL    HW118936   8.941   2.583   4.509  1.5893 -0.6837  0.9301
37700SOL    HW218937   8.882   2.492   4.616 -2.5158  0.6396 -0.0458
37701SOL     OW18938   9.881   8.534   6.068 -0.1427  0.3024 -0.4707
37701SOL    HW118939   9.868   8.461   6.129  0.4546 -0.2941 -1.0412
37701SOL    HW218940   9.810   8.594   6.088 -0.5640 -0.3656  0.1110
37702SOL     OW18941   9.538   3.254   5.034  1.2267 -0.2913 -0.1575
37702SOL    HW118942   9.528   3.247   5.128 -0.5812 -1.7653 -0.4080
37702SOL    HW218943   9.573   3.169   5.006  1.3590 -0.0145 -0.8749
37703SOL     OW18944   9.250   7.586  10.002  1.3513  0.6040  0.6901
37703SOL    HW118945   9.203   7.605   9.921  0.4553 -1.1169  0.7468
37703SOL    HW218946   9.203   7.636  10.069  1.3675  1.1157  0.3198
37704SOL     OW18947   5.132   2.161   9.574  0.6534 -0.1180 -0.0154
37704SOL    HW118948   5.095   2.078   9.546 -0.7992  0.2029  0.8451
37704SOL    HW218949   5.076   2.228   9.535 -0.0424  0.3750  1.6998
37705SOL     OW18950   0.749   1.438   6.585 -0.0668 -0.0022  0.4335
37705SOL    HW118951   0.830   1.425   6.635  0.6657 -3.1920 -1.3126
37705SOL    HW218952   0.767   1.516   6.531  1.7012 -0.3675  0.4302
37706SOL     OW18953   9.105   9.943   1.568  0.3828  0.3460  0.1246
37706SOL    HW118954   9.065   9.958   1.483  0.4455 -0.3128 -0.0243
37706SOL    HW218955   9.174  10.010   1.575  0.3043  0.4686 -0.2887
37707SOL     OW18956   1.401  10.522   6.716  0.4528 -0.2835  0.2740
37707SOL    HW118957   1.398  10.593   6.651 -0.0817 -0.9597 -0.4680
37707SOL    HW218958   1.422  10.566   6.798  1.3133  0.5855 -0.3761
37708SOL     OW18959   0.753   0.381   2.881  0.7973  0.4162  0.3094
37708SOL    HW118960   0.820   0.441   2.913  0.4381  0.2510  1.3871
37708SOL    HW218961   0.792   0.294   2.892  0.2288  0.2840  1.4261
37709SOL     OW18962   9.698  10.206   5.335  0.1902 -0.4959  0.1434
37709SOL    HW118963   9.608  10.213   5.304 -0.2093  1.8590  1.6015
37709SOL    HW218964   9.691  10.192   5.429  1.3943 -2.7251 -0.0282
37710SOL     OW18965   9.326   3.557   5.821 -0.2573 -0.4735 -0.4066
37710SOL    HW118966   9.302   3.636   5.870  1.3577  0.5765 -1.2082
37710SOL    HW218967   9.275   3.487   5.861 -0.4375  0.6791  1.4867
37711SOL     OW18968   1.473   0.402   9.729  0.6755 -0.4386  0.4571
37711SOL    HW118969   1.377   0.401   9.727  0.5934 -0.1959  2.2550
37711SOL    HW218970   1.495   0.490   9.759  1.6477  0.7830 -3.3502
37712SOL     OW18971   6.584   4.656   0.742 -0.6129  0.1950 -0.6916
37712SOL    HW118972   6.514   4.701   0.790 -1.3293 -0.5087 -1.0625
37712SOL    HW218973   6.555   4.565   0.737  1.6217 -0.7700  1.5961
37713SOL     OW18974   3.573   8.591   3.910 -0.5044  0.2585  0.0849
37713SOL    HW118975   3.649   8.634   3.951  0.9698 -1.7441 -0.3974
37713SOL    HW218976   3.515   8.664   3.885  1.3769  1.8909  0.1992
37714SOL     OW18977   2.465   5.874   2.602 -0.5370  0.5989 -0.7755
37714SOL    HW118978   2.447   5.781   2.589 -0.9967  0.3879  1.1251
37714SOL    HW218979   2.552   5.887   2.564 -0.5550 -0.5396 -1.2633
37715SOL     OW18980   6.345   8.660   6.226 -0.8756  0.3282  0.4027
37715SOL    HW118981   6.422   8.717   6.225 -0.8329  0.2774  0.6940
37715SOL    HW218982   6.303   8.674   6.141 -3.2063  4.0352  1.9108
37716SOL     OW18983   3.559   3.079   5.115  0.6925  0.1282 -0.3005
37716SOL    HW118984   3.593   2.989   5.107 -1.6184 -0.9019  0.4790
37716SOL    HW218985   3.602   3.113   5.194  0.4893 -0.8422  0.2426
37717SOL     OW18986   7.184   2.200   7.339 -0.0119 -0.2100  0.4156
37717SOL    HW118987   7.113   2.262   7.323  1.1015  0.9282 -0.2902
37717SOL    HW218988   7.263   2.254   7.346  1.0353 -1.5452 -0.4278
37718SOL     OW18989   0.108   1.973   6.935 -0.0366 -0.5925 -0.2890
37718SOL    HW118990   0.098   2.041   7.001 -0.8129 -0.6742 -0.3044
37718SOL    HW218991   0.076   1.893   6.978 -1.0806 -0.5373 -0.9266
37719SOL     OW18992   5.553   7.548   7.183  0.2483 -0.1898 -0.2594
37719SOL    HW118993   5.584   7.637   7.201 -0.8514  0.3677 -0.9762
37719SOL    HW218994   5.632   7.495   7.178  0.9508  0.8369 -0.2485
37720SOL     OW18995   9.969   4.674   1.623  0.4401 -0.6680 -0.3534
37720SOL    HW118996  10.039   4.681   1.688  1.2320 -0.3481 -1.2401
37720SOL    HW218997   9.985   4.744   1.561 -3.1195  2.3119  1.6676
37721SOL     OW18998   2.006   9.047   8.213 -0.0368 -0.0378 -0.3731
37721SOL    HW118999   2.100   9.050   8.231  0.2649 -2.6072 -1.0615
37721SOL    HW219000   1.968   9.009   8.293 -0.6220  1.6475  0.1807
37722SOL     OW19001  10.687   0.864   8.075 -0.4731  0.2057 -0.1014
37722SOL    HW119002  10.685   0.903   7.988 -0.3431  0.3358 -0.0460
37722SOL    HW219003  10.637   0.783   8.066 -0.3988  0.1833 -0.3143
37723SOL     OW19004   1.183   9.843   2.712  0.2576 -0.2930  0.6456
37723SOL    HW119005   1.128   9.855   2.790  0.6387 -0.9586  1.0322
37723SOL    HW219006   1.262   9.894   2.731  0.6737 -1.0533  1.0485
37724SOL     OW19007   2.511   7.952   1.694  0.1239  0.3956  0.4485
37724SOL    HW119008   2.530   8.043   1.672  0.0635  0.3602  0.2456
37724SOL    HW219009   2.426   7.935   1.653  0.1188  0.2577  0.5160
37725SOL     OW19010   9.261   5.369   0.277 -0.0407 -0.6784  0.1979
37725SOL    HW119011   9.333   5.424   0.245 -0.4721 -0.0976  0.2154
37725SOL    HW219012   9.221   5.334   0.197 -0.4684 -0.0601  0.1356
37726SOL     OW19013   3.972   3.964   6.249 -0.2271  0.3152 -0.2619
37726SOL    HW119014   3.904   4.032   6.242 -1.2994 -0.8116 -1.2332
37726SOL    HW219015   3.930   3.885   6.217  1.8118 -0.2535 -1.7041
37727SOL     OW19016   0.733   2.484   8.110  0.1740 -0.2580 -0.0047
37727SOL    HW119017   0.799   2.418   8.127  1.5979  0.7136 -1.4209
37727SOL    HW219018   0.771   2.565   8.144  0.4571  0.5981 -2.1837
37728SOL     OW19019   1.080   3.858   8.803  0.4051 -0.1476 -0.0142
37728SOL    HW119020   1.024   3.863   8.725  0.3546  1.4435  0.1029
37728SOL    HW219021   1.070   3.943   8.845  0.4390 -0.9725  1.7430
37729SOL     OW19022   5.327   5.889   1.523 -0.7025 -0.2204  0.0715
37729SOL    HW119023   5.398   5.950   1.543  0.1892 -0.5180 -1.8995
37729SOL    HW219024   5.332   5.821   1.591 -1.0134  1.2769  1.6455
37730SOL     OW19025   6.721   3.512   0.580  0.0711  0.1655  1.0217
37730SOL    HW119026   6.715   3.546   0.669 -0.2470 -1.0478  1.4846
37730SOL    HW219027   6.707   3.588   0.524  0.2275  0.9373  2.0042
37731SOL     OW19028  10.694   1.786   6.560 -0.4109  0.2599  0.1370
37731SOL    HW119029  10.657   1.874   6.570 -1.3076  0.4013 -3.1913
37731SOL    HW219030  10.788   1.800   6.551 -0.3884  0.7063  0.9757
37732SOL     OW19031   2.695   9.337   2.076  0.3224  0.0393 -0.0954
37732SOL    HW119032   2.616   9.286   2.096 -1.3345  1.7327 -1.9224
37732SOL    HW219033   2.702   9.399   2.148  0.6946 -0.8591  0.6676
37733SOL     OW19034  10.688   1.165  10.697 -0.2585  0.2920  0.3125
37733SOL    HW119035  10.754   1.235  10.697 -1.0617  1.0676  0.4174
37733SOL    HW219036  10.727   1.096  10.644  0.4845  0.8969  0.0463
37734SOL     OW19037   2.200   7.564   7.196 -0.1546 -0.5526 -0.4345
37734SOL    HW119038   2.212   7.622   7.121  0.0305 -0.2618 -0.1816
37734SOL    HW219039   2.122   7.599   7.240 -1.2812 -1.7262 -1.4182
37735SOL     OW19040   0.601   2.485  10.216 -0.3372 -0.4967  0.8574
37735SOL    HW119041   0.513   2.467  10.184  0.1539 -2.7217  0.5642
37735SOL    HW219042   0.608   2.580  10.216 -2.7424 -0.2543  0.9445
37736SOL     OW19043   5.774   1.277   6.857  0.0674  0.1090  0.1726
37736SOL    HW119044   5.820   1.347   6.812  0.4086 -0.2015  0.0302
37736SOL    HW219045   5.727   1.229   6.788  1.4603 -1.0273 -0.0288
37737SOL     OW19046   4.945   3.677   6.993 -0.0234 -0.3299 -0.4613
37737SOL    HW119047   5.009   3.744   7.015  1.2901 -2.0137  1.1464
37737SOL    HW219048   4.873   3.725   6.952  0.2188  2.2717  1.8841
37738SOL     OW19049   2.145  10.647   7.899 -0.3215  0.6239  0.1697
37738SOL    HW119050   2.161  10.729   7.947 -1.4685  1.5536 -0.9688
37738SOL    HW219051   2.129  10.675   7.809  1.3511 -1.0460 -0.7063
37739SOL     OW19052   5.694   5.523   9.489  0.5282 -0.1223  0.2272
37739SOL    HW119053   5.602   5.497   9.493  0.9430 -1.6284  0.7791
37739SOL    HW219054   5.727   5.483   9.409  1.0980 -1.0506  0.9061
37740SOL     OW19055   9.743   9.030   1.992 -0.6863  0.2895 -0.0562
37740SOL    HW119056   9.762   8.986   2.075  0.4881 -0.3888 -0.6636
37740SOL    HW219057   9.704   9.114   2.018 -2.2450 -0.7397  1.1292
37741SOL     OW19058   8.284   8.656   9.833 -0.4169  0.0578  0.5468
37741SOL    HW119059   8.334   8.579   9.804 -1.1752 -0.5660  0.8409
37741SOL    HW219060   8.346   8.706   9.886  0.3754  0.1698 -0.4617
37742SOL     OW19061   2.418   0.247   1.830  0.3076 -0.3022  0.2092
37742SOL    HW119062   2.467   0.170   1.857  0.6484 -0.7821 -1.6459
37742SOL    HW219063   2.332   0.213   1.806  0.1356  0.0464  0.3262
37743SOL     OW19064   8.207   4.488   1.268  0.2888  0.2219 -0.0771
37743SOL    HW119065   8.244   4.407   1.232  1.2080  0.2774  0.6946
37743SOL    HW219066   8.165   4.530   1.193  0.8522 -0.3856 -0.7556
37744SOL     OW19067   0.917   1.865   1.586 -0.4240 -0.4202  0.5078
37744SOL    HW119068   0.945   1.951   1.554 -0.5006 -0.0581  1.3820
37744SOL    HW219069   0.969   1.850   1.665  1.0526 -2.0929 -0.6946
37745SOL     OW19070   7.335   8.702   7.301  0.6300 -0.8052 -0.4327
37745SOL    HW119071   7.380   8.782   7.328  2.3934 -2.1673  0.8629
37745SOL    HW219072   7.251   8.706   7.347  1.4828 -0.5993  1.1784
37746SOL     OW19073   9.675   8.964  10.491 -0.8597 -0.5740 -0.2424
37746SOL    HW119074   9.739   8.920  10.435 -0.2574  1.2826 -1.0967
37746SOL    HW219075   9.684   8.921  10.576  0.9711 -0.8969 -0.5566
37747SOL     OW19076   2.218   9.244   7.549  0.0943 -0.1682  0.7682
37747SOL    HW119077   2.181   9.259   7.462 -1.9388 -2.5074  1.1128
37747SOL    HW219078   2.301   9.200   7.533  0.6163  1.0109  0.0448
37748SOL     OW19079   2.883   2.442   0.566  0.3641  0.3804  0.0368
37748SOL    HW119080   2.864   2.479   0.653 -0.3379 -0.8274  0.4271
37748SOL    HW219081   2.883   2.518   0.508 -2.1356  0.9499  0.6184
37749SOL     OW19082   6.872   1.740  10.191 -0.8537 -0.6845  1.0501
37749SOL    HW119083   6.895   1.648  10.178 -0.9625 -0.7363  1.2196
37749SOL    HW219084   6.833   1.743  10.279 -0.8589 -0.4789  1.0417
37750SOL     OW19085   2.404   0.559   1.602  0.3348 -0.2237 -0.1476
37750SOL    HW119086   2.411   0.615   1.524 -0.5874  0.7314  0.4126
37750SOL    HW219087   2.376   0.474   1.568 -1.3087  0.5198 -0.7872
37751SOL     OW19088   6.160   9.114   1.095 -0.1280  0.5157  0.0658
37751SOL    HW119089   6.174   9.185   1.032 -0.4258  2.3664  1.9376
37751SOL    HW219090   6.226   9.130   1.163 -0.8101 -0.4372  0.9904
37752SOL     OW19091   0.926  10.149   8.760  0.0997 -0.1665 -0.0003
37752SOL    HW119092   1.016  10.164   8.732  0.3298  0.6158  1.1022
37752SOL    HW219093   0.887  10.098   8.689  1.3411 -0.3223 -0.5952
37753SOL     OW19094   5.650   2.227  10.565 -0.5860 -0.1353 -0.1450
37753SOL    HW119095   5.708   2.258  10.496  0.4470 -2.2193 -0.2986
37753SOL    HW219096   5.707   2.211  10.639 -0.4669 -4.0479 -0.8780
37754SOL     OW19097   6.500  10.147   1.923  0.6179  0.1876 -0.1410
37754SOL    HW119098   6.460  10.062   1.940 -0.2336  0.0791 -2.4166
37754SOL    HW219099   6.568  10.155   1.990 -1.7564 -0.5528  2.5906
37755SOL     OW19100   5.057   6.719   7.658 -0.6900 -0.6584  0.1524
37755SOL    HW119101   5.084   6.798   7.705 -0.7021 -0.2866 -0.4517
37755SOL    HW219102   5.014   6.665   7.725  0.6535 -0.8313  0.9128
37756SOL     OW19103   7.923   9.726   8.035  0.1927 -0.0497  0.0319
37756SOL    HW119104   7.877   9.749   7.955  1.8913 -1.4023 -1.4283
37756SOL    HW219105   7.965   9.808   8.063  3.5693 -0.3986 -3.2989
37757SOL     OW19106   9.763   1.003   6.306 -0.0583  0.0968 -0.0769
37757SOL    HW119107   9.836   0.968   6.255 -1.2060 -0.9141 -1.0682
37757SOL    HW219108   9.736   0.931   6.363 -1.6326 -0.2955 -1.2473
37758SOL     OW19109  10.259   8.628   9.596 -0.2968  0.1544  0.2464
37758SOL    HW119110  10.273   8.709   9.645  0.5639  0.6193 -0.7266
37758SOL    HW219111  10.207   8.573   9.655 -0.0309  1.0150  1.3232
37759SOL     OW19112   8.616   0.843   1.683  0.0780 -0.6917  0.5590
37759SOL    HW119113   8.573   0.766   1.720 -3.4353  0.0746 -1.4548
37759SOL    HW219114   8.642   0.817   1.595 -0.2741  0.1498  0.1975
37760SOL     OW19115   1.482   5.639   0.150  0.4789 -0.1086 -0.1859
37760SOL    HW119116   1.552   5.574   0.153  0.0564 -0.6539 -1.4837
37760SOL    HW219117   1.407   5.594   0.189  0.9588  0.6819  1.7791
37761SOL     OW19118   4.500   9.356   0.997  0.5381  0.3572 -0.4811
37761SOL    HW119119   4.552   9.436   1.002  0.1156  0.5820  1.0713
37761SOL    HW219120   4.424   9.374   1.052 -1.6773  0.3447 -3.3066
37762SOL     OW19121   4.430   7.314   4.516 -0.2784 -0.0870 -0.3378
37762SOL    HW119122   4.526   7.312   4.520 -0.2290  1.8141  0.2770
37762SOL    HW219123   4.410   7.387   4.459 -1.3385  1.2159  1.5906
37763SOL     OW19124   4.595   3.316   6.669  0.5362 -0.1280  0.7784
37763SOL    HW119125   4.544   3.323   6.750  2.4624  0.6078  1.9855
37763SOL    HW219126   4.592   3.404   6.632 -1.1244 -0.6717 -0.5219
37764SOL     OW19127   5.741   2.071   9.954  0.1651 -0.0002  0.6125
37764SOL    HW119128   5.710   1.981   9.964 -0.5028 -0.6381 -4.4713
37764SOL    HW219129   5.824   2.063   9.906 -0.2512  2.0521 -0.5822
37765SOL     OW19130   3.287  10.722   6.859  0.0279  0.0649  0.4921
37765SOL    HW119131   3.364  10.698   6.807  0.3422  0.4674  0.7733
37765SOL    HW219132   3.306  10.691   6.947 -1.0743 -1.8495  0.1282
37766SOL     OW19133   3.706   6.899  10.424 -0.0309 -0.7195 -0.3894
37766SOL    HW119134   3.741   6.955  10.354  0.1215 -0.6687 -0.2712
37766SOL    HW219135   3.732   6.810  10.399 -2.3038 -1.0791 -1.8673
37767SOL     OW19136   3.903   5.737   6.584 -0.3182  0.5044 -0.4426
37767SOL    HW119137   3.949   5.786   6.653 -2.1014  1.4092  0.1581
37767SOL    HW219138   3.836   5.687   6.631  0.1243 -0.9010 -1.2844
37768SOL     OW19139   6.610   2.127   3.554  0.4845 -0.5186  0.5606
37768SOL    HW119140   6.684   2.188   3.551  1.3303 -1.4684  1.2524
37768SOL    HW219141   6.578   2.124   3.464  2.4899 -1.4833 -0.1840
37769SOL     OW19142   1.772   0.515   6.876  0.3407  0.1269 -0.2814
37769SOL    HW119143   1.753   0.503   6.783 -0.0614 -0.5703 -0.1136
37769SOL    HW219144   1.836   0.586   6.878  2.8051 -1.9113 -1.3189
37770SOL     OW19145   9.553   2.965   9.253  1.0567 -0.1061  0.2593
37770SOL    HW119146   9.646   2.946   9.241  0.9335  0.5457 -2.0836
37770SOL    HW219147   9.519   2.889   9.301  2.6916 -0.5397  0.7883
37771SOL     OW19148   5.287   8.109   8.727 -0.2185 -0.3595 -0.1276
37771SOL    HW119149   5.375   8.113   8.762 -0.1886  0.1515 -0.2533
37771SOL    HW219150   5.295   8.140   8.636 -0.0970 -2.7228 -0.9964
37772SOL     OW19151   5.669  10.073   7.443  0.2668  0.0344 -0.1062
37772SOL    HW119152   5.598  10.128   7.476 -0.1005 -0.2980 -0.3431
37772SOL    HW219153   5.625   9.999   7.402  0.7384 -1.8583  2.5023
37773SOL     OW19154   0.622   2.486   3.726  0.4543  0.3139  0.0062
37773SOL    HW119155   0.619   2.579   3.745 -0.4221  0.1587  0.7218
37773SOL    HW219156   0.679   2.449   3.794 -0.3403  0.1567  0.6153
37774SOL     OW19157   0.329   8.748   3.622  0.3419  0.0276 -0.2096
37774SOL    HW119158   0.292   8.676   3.672  1.2567 -0.7718 -0.6537
37774SOL    HW219159   0.400   8.709   3.572 -0.2531  0.8997 -1.7888
37775SOL     OW19160   4.837   7.594   7.098 -0.2978  0.1415 -0.1068
37775SOL    HW119161   4.895   7.670   7.093  0.5556 -0.4906  0.0090
37775SOL    HW219162   4.751   7.631   7.118  0.2946  1.0125  0.9763
37776SOL     OW19163   1.510  10.417   9.118 -0.2421 -0.0956 -0.5214
37776SOL    HW119164   1.520  10.344   9.057  1.8231 -0.0727 -0.2715
37776SOL    HW219165   1.523  10.495   9.064  0.3747 -0.0300 -0.2819
37777SOL     OW19166   2.666   3.155   6.914 -0.0863  0.1865  0.4574
37777SOL    HW119167   2.637   3.159   7.005 -0.6209  0.1947  0.2924
37777SOL    HW219168   2.589   3.126   6.865 -0.0220  0.8945 -0.0847
37778SOL     OW19169   7.526   2.954   1.066 -0.1266  0.2474 -0.6212
37778SOL    HW119170   7.564   3.025   1.013 -0.3977  0.2840 -0.7711
37778SOL    HW219171   7.495   2.890   1.001  0.3714 -0.1375 -0.4751
37779SOL     OW19172   5.142   0.283  10.526 -0.1650  0.5028  0.2216
37779SOL    HW119173   5.115   0.222  10.595  0.4925  0.6535  0.6187
37779SOL    HW219174   5.094   0.364  10.545 -2.1837 -0.2868 -1.1474
37780SOL     OW19175   5.478   4.937   7.561  0.2321 -0.0476 -0.1152
37780SOL    HW119176   5.439   4.967   7.479  0.0739  1.3319  0.4343
37780SOL    HW219177   5.432   4.986   7.628  2.2000  0.8893  0.6329
37781SOL     OW19178   2.535   5.778   3.314 -0.1463 -0.2672  0.3980
37781SOL    HW119179   2.445   5.764   3.345  0.0347 -0.7468  0.7239
37781SOL    HW219180   2.573   5.840   3.376 -0.6229  0.8980 -0.4410
37782SOL     OW19181   1.221   0.885   5.474 -0.3525  0.3830  0.2133
37782SOL    HW119182   1.203   0.805   5.523 -0.4323  0.7364  0.7692
37782SOL    HW219183   1.161   0.950   5.511 -1.3098  0.3456 -1.2054
37783SOL     OW19184   9.758   9.000   4.999 -0.3908 -0.1983  0.4154
37783SOL    HW119185   9.692   8.941   5.035  0.3423 -1.2314  0.1418
37783SOL    HW219186   9.766   8.973   4.907  0.7476 -0.4324  0.5703
37784SOL     OW19187  10.703   7.029   1.604  0.4706 -0.1129  0.4030
37784SOL    HW119188  10.780   6.988   1.566  0.4796 -1.3309  1.6308
37784SOL    HW219189  10.644   7.043   1.531  1.3650 -0.3170 -0.3738
37785SOL     OW19190   4.657   9.221   5.948  0.6065 -0.2224 -0.3402
37785SOL    HW119191   4.725   9.167   5.989  1.5697  1.1790 -0.0183
37785SOL    HW219192   4.627   9.279   6.019  1.8238  1.7847 -1.3758
37786SOL     OW19193   3.353   5.485   0.652 -0.2893  0.1756  0.2852
37786SOL    HW119194   3.275   5.528   0.616  0.2288  0.4752 -0.4982
37786SOL    HW219195   3.426   5.543   0.628  0.1153  0.2462  1.5950
37787SOL     OW19196   7.534   7.796   1.697 -0.5235  0.1726  0.5544
37787SOL    HW119197   7.475   7.761   1.629 -1.1203 -0.3729  1.3285
37787SOL    HW219198   7.476   7.844   1.756  0.3456  3.0234 -0.7618
37788SOL     OW19199   0.229   6.228   1.485  0.7289 -0.0881 -0.5337
37788SOL    HW119200   0.193   6.171   1.417 -0.2900  0.3924 -0.4041
37788SOL    HW219201   0.324   6.221   1.474  0.5836 -0.4677 -1.6297
37789SOL     OW19202   5.688   2.913   5.272 -0.4660  0.0664 -0.1041
37789SOL    HW119203   5.769   2.878   5.234  0.0393  1.9882 -0.9209
37789SOL    HW219204   5.622   2.900   5.205 -0.1132  1.2739 -0.7125
37790SOL     OW19205   5.693   9.875   0.516  0.0564 -0.2291 -0.1038
37790SOL    HW119206   5.671   9.837   0.600  1.9923 -0.3515  0.4028
37790SOL    HW219207   5.655   9.816   0.451 -1.2763 -0.2401  0.6535
37791SOL     OW19208   0.970   8.985   5.396 -0.3905  0.0516  0.0608
37791SOL    HW119209   1.058   8.947   5.393 -1.0004 -1.4438 -3.4747
37791SOL    HW219210   0.977   9.066   5.346 -1.0450 -0.1187 -0.3125
37792SOL     OW19211   0.928   2.897   8.354  0.3947  0.3740 -0.4233
37792SOL    HW119212   1.001   2.953   8.381  0.1533 -0.0730  1.3174
37792SOL    HW219213   0.967   2.811   8.341  0.0563 -0.1802  1.7786
37793SOL     OW19214   1.444   0.528   0.186  0.3536  0.2008  0.8368
37793SOL    HW119215   1.378   0.592   0.161 -1.2242 -1.1624  1.3092
37793SOL    HW219216   1.473   0.555   0.273  0.8961  1.1619  0.3653
37794SOL     OW19217   8.185   7.720   2.740  0.5647 -0.5436 -0.3743
37794SOL    HW119218   8.115   7.683   2.794  1.6684 -3.3445 -0.6880
37794SOL    HW219219   8.185   7.813   2.762 -1.1499 -0.9999  2.0047
37795SOL     OW19220   1.050   0.674   4.761 -0.5917  0.1735 -0.4062
37795SOL    HW119221   1.080   0.761   4.734  1.7708 -0.1593  0.8859
37795SOL    HW219222   0.997   0.643   4.687 -0.4215  2.1743 -1.4381
37796SOL     OW19223   9.770   3.898   6.521 -0.1177 -0.1497  0.5062
37796SOL    HW119224   9.857   3.937   6.533  0.3600 -1.3214  0.9676
37796SOL    HW219225   9.758   3.895   6.426 -0.3182  1.3866  0.4422
37797SOL     OW19226   2.043   1.413   3.096 -0.2867 -0.4380 -0.6603
37797SOL    HW119227   1.970   1.432   3.037  0.3509  1.7312 -0.8215
37797SOL    HW219228   2.022   1.327   3.134 -0.8820 -1.8034 -3.7655
37798SOL     OW19229   0.523   4.925   7.536 -0.6259  0.0283  0.2654
37798SOL    HW119230   0.530   4.831   7.521 -0.3033  0.3781 -2.3257
37798SOL    HW219231   0.614   4.955   7.541 -0.6856  0.4035 -0.7046
37799SOL     OW19232   1.294   8.555  10.564  0.2741 -0.1604 -0.4907
37799SOL    HW119233   1.382   8.589  10.581  0.4934  0.4455 -2.5070
37799SOL    HW219234   1.309   8.464  10.538  0.1657 -0.4397  0.4159
37800SOL     OW19235   1.181   9.614   2.284 -0.2303 -0.8856  1.0083
37800SOL    HW119236   1.237   9.641   2.357 -0.7609  2.3452  0.3691
37800SOL    HW219237   1.092   9.618   2.320 -0.4329 -0.0926  0.4404
37801SOL     OW19238   6.785   7.395   6.052 -0.3201 -0.0655  0.1837
37801SOL    HW119239   6.807   7.305   6.077 -0.4851  0.2530  1.5888
37801SOL    HW219240   6.855   7.422   5.993 -1.2999 -1.7516 -1.8730
37802SOL     OW19241   5.380   2.753   9.929 -0.0448 -0.2353 -0.3415
37802SOL    HW119242   5.421   2.768   9.844 -0.8249 -2.6606 -1.2468
37802SOL    HW219243   5.408   2.665   9.954 -2.0188 -0.6769  0.5453
37803SOL     OW19244   3.843   0.357   5.492  0.1089  0.1004 -0.2753
37803SOL    HW119245   3.873   0.395   5.409  2.0232  1.1789  0.8329
37803SOL    HW219246   3.749   0.347   5.481  0.4082 -0.6658 -2.9105
37804SOL     OW19247  10.711   5.176   5.851  0.1280 -0.2531 -0.0003
37804SOL    HW119248  10.735   5.101   5.906 -3.4548 -0.9756  0.8397
37804SOL    HW219249  10.722   5.145   5.761  0.2062 -1.1987  0.3295
37805SOL     OW19250   1.292   4.675   9.506  0.3010  0.1835 -0.3872
37805SOL    HW119251   1.316   4.599   9.454 -0.6927 -0.5669  0.2252
37805SOL    HW219252   1.241   4.730   9.446 -0.9276 -0.7219 -0.2059
37806SOL     OW19253   7.242   4.526   4.014 -0.2380  0.1416 -0.0219
37806SOL    HW119254   7.291   4.488   3.941 -2.7419 -2.0740 -0.7050
37806SOL    HW219255   7.199   4.451   4.055  1.1247  1.2758  3.9012
37807SOL     OW19256   1.251   7.186   5.432  0.1853 -0.2751  0.1937
37807SOL    HW119257   1.251   7.224   5.520  1.2818 -4.0615  2.0309
37807SOL    HW219258   1.177   7.124   5.433  0.7896 -1.0576 -1.2002
37808SOL     OW19259   8.953   2.489   9.782  0.0254 -0.0718 -0.4619
37808SOL    HW119260   8.861   2.502   9.802 -0.0339  0.8987 -1.3106
37808SOL    HW219261   8.955   2.424   9.713 -0.0763  0.4466 -0.9604
37809SOL     OW19262   8.693   7.405   9.833  0.2363  0.3150  0.1241
37809SOL    HW119263   8.663   7.314   9.837  0.6441  0.1562 -0.4010
37809SOL    HW219264   8.657   7.439   9.751 -2.5538  1.5953  1.7142
37810SOL     OW19265   2.704   9.542   0.810 -0.1232  0.0181 -0.1690
37810SOL    HW119266   2.670   9.630   0.797  1.3016  0.1473 -4.8893
37810SOL    HW219267   2.626   9.488   0.821 -1.1630  1.5180  0.1618
37811SOL     OW19268   8.229   8.868   4.419  0.3697  0.1031 -0.1733
37811SOL    HW119269   8.208   8.951   4.463  1.2163 -0.6990  1.8191
37811SOL    HW219270   8.155   8.811   4.440  0.7403 -0.2598  0.1419
37812SOL     OW19271   1.990  10.626  10.009 -0.3110  0.0959 -0.3370
37812SOL    HW119272   1.936  10.548  10.022  0.3368 -0.1159  1.3831
37812SOL    HW219273   1.964  10.685  10.079  1.7214 -0.0699  0.6483
37813SOL     OW19274   0.695   1.140   3.329  0.4990 -0.1025  0.0061
37813SOL    HW119275   0.753   1.138   3.405 -0.6790 -0.3132  0.9307
37813SOL    HW219276   0.666   1.049   3.320  0.7124 -0.0970 -0.7670
37814SOL     OW19277   2.771   9.341   2.609 -0.5746 -0.2063 -0.1612
37814SOL    HW119278   2.713   9.403   2.653  0.3204  0.2837  0.3557
37814SOL    HW219279   2.723   9.315   2.531 -1.4760  0.2073  0.2363
37815SOL     OW19280   1.252   8.880   5.343 -0.4100  0.2405  0.4258
37815SOL    HW119281   1.326   8.895   5.285  0.8630  3.6359  2.6436
37815SOL    HW219282   1.240   8.785   5.343  2.6243 -0.2639 -1.5357
37816SOL     OW19283   0.248   2.842   9.937 -0.2558  0.1065 -0.0414
37816SOL    HW119284   0.311   2.898   9.892 -0.9359 -1.0740 -2.6599
37816SOL    HW219285   0.177   2.901   9.962  0.1104  0.8049 -0.6154
37817SOL     OW19286   3.290   0.687   9.452  0.9048  0.0159  0.2941
37817SOL    HW119287   3.196   0.701   9.455  0.1350 -3.9483  0.1060
37817SOL    HW219288   3.322   0.723   9.535 -0.9152  0.6313  0.7778
37818SOL     OW19289   2.946   1.683  10.120  0.2187 -0.5041 -0.6053
37818SOL    HW119290   2.976   1.652  10.205  0.5935  0.0215 -0.5353
37818SOL    HW219291   2.949   1.606  10.063 -0.2169 -0.9012 -0.1001
37819SOL     OW19292   8.675   2.348   9.715  0.5673 -0.2047  0.2463
37819SOL    HW119293   8.675   2.362   9.620 -1.0558  0.1187  0.2644
37819SOL    HW219294   8.651   2.255   9.725  0.1215 -0.0858  0.3314
37820SOL     OW19295   8.615   5.449   5.507 -0.5796  0.0297 -0.1991
37820SOL    HW119296   8.541   5.391   5.524 -0.7096 -0.0857 -1.1472
37820SOL    HW219297   8.587   5.505   5.435  0.5353 -0.5347 -1.1058
37821SOL     OW19298   9.864   3.379   5.786 -0.0947  0.3238  0.3275
37821SOL    HW119299   9.866   3.361   5.692  1.2995 -1.2145  0.6022
37821SOL    HW219300   9.784   3.337   5.817 -0.0563 -0.0145 -0.0250
37822SOL     OW19301   4.245   1.260   9.470  0.5187  0.0876 -0.0063
37822SOL    HW119302   4.169   1.307   9.437  1.0708  1.3404  0.4721
37822SOL    HW219303   4.317   1.286   9.412  1.0036  0.4910  0.7581
37823SOL     OW19304   9.433   2.649   0.107 -0.0845 -0.1838 -0.2234
37823SOL    HW119305   9.503   2.676   0.168 -0.4501  0.1442  0.0535
37823SOL    HW219306   9.464   2.679   0.022 -0.6615  1.5026  0.1225
37824SOL     OW19307  10.357   6.916   5.914 -0.7019  0.1652 -0.1688
37824SOL    HW119308  10.379   6.891   5.824 -0.7620  0.4869 -0.2724
37824SOL    HW219309  10.441   6.916   5.960 -0.5347  0.9666 -0.4621
37825SOL     OW19310   9.629   0.331   7.183 -0.0161  0.4144 -0.3260
37825SOL    HW119311   9.571   0.349   7.257  1.4009 -0.5299  1.0721
37825SOL    HW219312   9.661   0.242   7.198  0.1293  0.0928 -2.2288
37826SOL     OW19313   0.239   2.202   3.654  0.0076 -0.2969  0.5106
37826SOL    HW119314   0.270   2.125   3.607  0.8286  0.0692  0.4217
37826SOL    HW219315   0.309   2.267   3.642  0.5204 -0.3584  2.6837
37827SOL     OW19316   5.098   9.287  10.389  0.1234 -0.3031 -0.7165
37827SOL    HW119317   5.145   9.208  10.416  0.6777 -0.4779 -2.0634
37827SOL    HW219318   5.144   9.359  10.432 -0.1645 -0.6703  0.2343
37828SOL     OW19319   5.092   4.786   6.395  0.1996  0.1912 -0.9005
37828SOL    HW119320   5.076   4.720   6.462  0.5030  0.8045 -0.2099
37828SOL    HW219321   5.073   4.742   6.312 -0.3560 -0.5191 -0.4016
37829SOL     OW19322   5.669   0.491   8.908  0.4606  0.2097 -0.2392
37829SOL    HW119323   5.581   0.502   8.872  0.0442 -0.4903  0.5598
37829SOL    HW219324   5.690   0.399   8.893  1.3351  0.5188 -1.0212
37830SOL     OW19325   6.217   3.319   9.938 -1.0077  0.0971 -0.9862
37830SOL    HW119326   6.237   3.226   9.936  1.4758  0.5148  0.2361
37830SOL    HW219327   6.227   3.347   9.847 -0.2911 -0.5823 -1.1286
37831SOL     OW19328   5.100   8.082   0.778  0.4674 -0.0419  0.3374
37831SOL    HW119329   5.013   8.101   0.741 -0.2544 -1.7730  1.0553
37831SOL    HW219330   5.100   8.127   0.862  0.7027  0.8619 -0.1338
37832SOL     OW19331   0.172   5.625   2.482  0.2419 -0.4169  0.1860
37832SOL    HW119332   0.202   5.714   2.464  0.6210 -0.7734 -1.0707
37832SOL    HW219333   0.224   5.570   2.423 -2.7576 -1.0957 -2.0394
37833SOL     OW19334   5.821   6.839   9.160 -0.1004  0.1561 -0.3854
37833SOL    HW119335   5.882   6.807   9.093  0.4472 -0.7700  0.5121
37833SOL    HW219336   5.776   6.761   9.191  0.6644  0.3329  1.2899
37834SOL     OW19337   6.648   8.898   8.573 -0.0887  0.4383  0.3735
37834SOL    HW119338   6.671   8.964   8.639 -0.5334 -0.1473  1.1373
37834SOL    HW219339   6.732   8.857   8.551 -0.1702 -0.9508  2.3444
37835SOL     OW19340   6.704   3.620   0.850  0.0946  0.1298 -0.5137
37835SOL    HW119341   6.733   3.711   0.856  0.2622  0.0405  0.0599
37835SOL    HW219342   6.613   3.622   0.879  0.6984 -0.1920  1.5381
37836SOL     OW19343   1.710   8.326   2.293 -0.2371  0.3085 -0.3433
37836SOL    HW119344   1.624   8.285   2.279  0.4982 -0.9452 -1.4039
37836SOL    HW219345   1.700   8.375   2.375 -1.8967  0.0245 -0.3397
37837SOL     OW19346   7.367  10.583   1.206 -0.2021 -0.3701 -0.4830
37837SOL    HW119347   7.280  10.561   1.239  0.4916 -1.5167  0.6951
37837SOL    HW219348   7.422  10.510   1.234  1.2388  0.5472 -0.8166
37838SOL     OW19349   0.094   2.899   5.143  0.6550  0.6801 -0.8043
37838SOL    HW119350   0.101   2.989   5.109 -0.7273  0.5601 -1.5026
37838SOL    HW219351   0.028   2.905   5.212  1.2509  0.3652 -0.2025
37839SOL     OW19352   5.686   1.508   9.163  0.5746  0.3845  0.1163
37839SOL    HW119353   5.611   1.531   9.217 -0.2214  1.3422 -1.3348
37839SOL    HW219354   5.654   1.439   9.105  1.0669  0.1831  0.0769
37840SOL     OW19355  10.665   4.233   0.667  0.3108 -0.7913 -0.2194
37840SOL    HW119356  10.618   4.268   0.742 -1.1839 -0.5798 -1.2224
37840SOL    HW219357  10.669   4.139   0.682 -0.7737 -0.8554 -0.3009
37841SOL     OW19358   2.996   8.916   8.328  0.3098  0.0432 -0.3217
37841SOL    HW119359   2.923   8.905   8.389 -0.0421  0.2124 -0.7085
37841SOL    HW219360   3.066   8.862   8.364 -0.6348 -1.6928 -0.9688
37842SOL     OW19361   2.915   5.705   2.019  0.4646 -0.0811  0.5662
37842SOL    HW119362   2.900   5.681   1.928  0.6387 -2.7646  1.1714
37842SOL    HW219363   2.933   5.623   2.064 -0.2565  1.0540  3.1712
37843SOL     OW19364   8.441   0.406   3.861  0.1745 -0.3700 -0.4287
37843SOL    HW119365   8.429   0.458   3.781  0.8715  0.6494  0.0985
37843SOL    HW219366   8.536   0.393   3.866  0.2150  0.2560  0.6404
37844SOL     OW19367   4.543   3.838   1.834 -0.3186 -0.5416  0.2212
37844SOL    HW119368   4.466   3.875   1.878 -0.5651 -1.2174  0.3733
37844SOL    HW219369   4.614   3.898   1.855 -0.5761 -0.4910  0.9826
37845SOL     OW19370   8.190   6.937   8.284  0.5003  0.1974 -0.2086
37845SOL    HW119371   8.127   6.906   8.348 -0.3852 -0.5349 -1.3992
37845SOL    HW219372   8.228   7.015   8.324  0.1221 -0.3440  1.2763
37846SOL     OW19373   6.362   1.215   2.115 -0.3298  0.0638 -0.0924
37846SOL    HW119374   6.374   1.154   2.043  0.6219 -0.8907  0.8399
37846SOL    HW219375   6.353   1.160   2.192 -0.1120  1.0958  0.6917
37847SOL     OW19376   6.701   3.216   8.098  0.1680 -0.2699 -0.0091
37847SOL    HW119377   6.707   3.123   8.075 -1.4615 -0.5219  0.4267
37847SOL    HW219378   6.747   3.222   8.182 -0.3768 -0.8546  0.3461
37848SOL     OW19379   4.457   9.772   9.021  0.4899  1.1290  0.0774
37848SOL    HW119380   4.512   9.815   8.956  0.8914  0.7749  0.1796
37848SOL    HW219381   4.396   9.841   9.050  1.2804  1.6992  0.4216
37849SOL     OW19382   5.640   0.782   9.967 -0.0829  0.3030 -0.3164
37849SOL    HW119383   5.669   0.759  10.055 -0.5039  0.4624 -0.1333
37849SOL    HW219384   5.677   0.714   9.911 -1.3368 -0.8617  0.2132
37850SOL     OW19385   7.929   1.922   6.715 -0.3017 -0.2698  0.4771
37850SOL    HW119386   7.945   1.976   6.792  1.6510 -0.8477  0.5512
37850SOL    HW219387   8.004   1.862   6.712 -0.7549 -0.8271 -1.3904
37851SOL     OW19388   7.128   2.433   7.812 -0.6050 -0.5416  0.6098
37851SOL    HW119389   7.170   2.466   7.892  0.9910 -1.7129  0.3113
37851SOL    HW219390   7.200   2.395   7.762 -1.7997 -1.0702 -0.7655
37852SOL     OW19391   0.118   6.650   1.333 -0.3099  0.6965  0.3390
37852SOL    HW119392   0.094   6.695   1.414 -2.0644  0.2020  0.1333
37852SOL    HW219393   0.047   6.671   1.272 -0.1830 -0.7812 -0.3604
37853SOL     OW19394   6.708   1.041   9.232  0.5532 -0.0714 -0.2062
37853SOL    HW119395   6.664   1.016   9.151  0.3000 -0.1951 -0.0329
37853SOL    HW219396   6.671   0.982   9.298  0.0090  0.6949  0.1957
37854SOL     OW19397   5.135   5.151   0.845 -0.7304 -0.1329 -0.0950
37854SOL    HW119398   5.142   5.206   0.922  0.8956  0.4042 -0.5821
37854SOL    HW219399   5.053   5.176   0.804 -0.6359  1.0051  0.3907
37855SOL     OW19400   5.175   1.513   9.217 -0.3368  0.2647  0.0191
37855SOL    HW119401   5.238   1.469   9.160  0.2898  1.5480 -0.3095
37855SOL    HW219402   5.183   1.466   9.301 -0.6607 -1.0914 -0.6769
37856SOL     OW19403   5.800   0.155  10.589 -0.3416  0.6349 -0.2561
37856SOL    HW119404   5.725   0.124  10.540  0.3795 -0.4924 -0.6833
37856SOL    HW219405   5.766   0.226  10.643 -1.7183  0.1117 -0.4003
37857SOL     OW19406   4.380   5.642   6.369 -0.3261 -0.2262 -0.1640
37857SOL    HW119407   4.297   5.629   6.321 -0.2057  1.4277 -0.8931
37857SOL    HW219408   4.432   5.696   6.310  1.1174 -0.8596  0.4994
37858SOL     OW19409   8.744   7.374   7.871 -0.1954 -0.0969  0.0934
37858SOL    HW119410   8.759   7.320   7.948 -1.5344  0.7995  1.0169
37858SOL    HW219411   8.793   7.330   7.801 -1.8905 -2.9865  0.5721
37859SOL     OW19412   9.439   9.144   1.415  0.2207  0.2218  0.1772
37859SOL    HW119413   9.478   9.101   1.491 -0.0473  0.9078  0.7083
37859SOL    HW219414   9.345   9.147   1.433  0.1781  0.5841 -0.0740
37860SOL     OW19415   1.038   2.014   9.941 -0.3193 -0.4340  0.0546
37860SOL    HW119416   1.062   2.081   9.878  0.3688 -0.2140  0.5351
37860SOL    HW219417   1.120   1.966   9.958 -0.4932 -0.5010  0.7526
37861SOL     OW19418   5.100  10.227   3.016 -0.7962  0.1660 -0.5041
37861SOL    HW119419   5.045  10.306   3.014 -0.8581  0.1902  1.0466
37861SOL    HW219420   5.079  10.186   3.100  0.3078 -0.7376 -0.6567
37862SOL     OW19421   8.160   4.523   8.969  0.0617  0.9411 -0.0765
37862SOL    HW119422   8.183   4.601   8.918 -2.0901  0.4753 -1.9241
37862SOL    HW219423   8.130   4.460   8.903 -2.0701 -0.0025  1.6848
37863SOL     OW19424  10.701   2.703   1.424 -0.8742  0.4249  0.1436
37863SOL    HW119425  10.771   2.655   1.381 -0.6911  0.4246  0.4350
37863SOL    HW219426  10.633   2.638   1.441 -0.1079 -0.0222  1.6781
37864SOL     OW19427   2.335   6.181   9.410  0.1952 -0.1016  0.1832
37864SOL    HW119428   2.423   6.160   9.440  0.5008  0.9687  0.1061
37864SOL    HW219429   2.304   6.248   9.472 -0.5556 -0.4472  0.1972
37865SOL     OW19430   6.766   7.409   9.975 -0.2409  0.1463  0.0381
37865SOL    HW119431   6.828   7.362   9.918 -0.4899 -0.4266  0.2416
37865SOL    HW219432   6.800   7.499   9.977  1.7425 -0.5598  1.7184
37866SOL     OW19433   4.361   8.091   5.964  0.3622  0.1001 -0.4753
37866SOL    HW119434   4.306   8.170   5.955 -0.6263 -0.5410 -0.1966
37866SOL    HW219435   4.435   8.120   6.017 -0.0047  0.8479 -0.3490
37867SOL     OW19436   8.821   0.564   1.116  0.1805  0.3171  0.3588
37867SOL    HW119437   8.727   0.545   1.123  0.0778 -0.5196 -2.1493
37867SOL    HW219438   8.825   0.658   1.102 -0.4608  0.1320 -1.2654
37868SOL     OW19439   5.617   2.456   2.478  0.2894 -0.0354  0.0085
37868SOL    HW119440   5.681   2.400   2.434  0.4441  1.2030 -1.4665
37868SOL    HW219441   5.532   2.416   2.458  0.5447 -1.4207  1.5751
37869SOL     OW19442   4.155   9.781   4.808  0.5336  0.5333  0.4409
37869SOL    HW119443   4.094   9.831   4.753  0.4673 -0.3357 -0.2888
37869SOL    HW219444   4.217   9.743   4.746  1.5508  1.0124  1.1339
37870SOL     OW19445   4.062   1.512   5.259  0.1010 -0.2512 -0.4925
37870SOL    HW119446   3.991   1.575   5.244  0.1991 -0.1742 -0.6407
37870SOL    HW219447   4.046   1.441   5.197  0.6775  0.2117 -1.1906
37871SOL     OW19448   2.024  10.223   4.312  0.3050 -0.2250 -0.5475
37871SOL    HW119449   2.004  10.238   4.220 -0.4123 -1.1284 -0.5497
37871SOL    HW219450   2.090  10.289   4.333  0.4120  0.0456 -1.6769
37872SOL     OW19451   9.178   5.945   8.826 -0.4041  0.2731 -0.7263
37872SOL    HW119452   9.132   5.872   8.785 -1.3661  0.8787 -0.7571
37872SOL    HW219453   9.207   5.999   8.752 -1.2879  0.8608 -0.6500
37873SOL     OW19454   4.622   5.228   7.829 -0.2609  0.0095  0.0687
37873SOL    HW119455   4.636   5.312   7.873 -1.2459  0.1924  0.0640
37873SOL    HW219456   4.546   5.244   7.772 -0.0866 -0.7190 -0.3784
37874SOL     OW19457   4.352   1.708   8.545  0.6700  0.1027  0.4407
37874SOL    HW119458   4.386   1.741   8.462  1.0226 -1.1339  0.0642
37874SOL    HW219459   4.306   1.628   8.521 -0.9437  0.7629  1.1949
37875SOL     OW19460   0.359   5.421   3.287 -0.1562  0.6088 -0.2302
37875SOL    HW119461   0.451   5.444   3.290 -0.1903  0.7816 -0.4293
37875SOL    HW219462   0.358   5.328   3.264 -0.0373  0.7485 -0.8312
37876SOL     OW19463   0.054   8.098   3.214  0.0009  0.5911 -0.2856
37876SOL    HW119464   0.026   8.046   3.139 -0.1661 -0.5915  0.5705
37876SOL    HW219465  -0.012   8.082   3.281  0.8701  0.5070  0.5832
37877SOL     OW19466   8.917   9.087   9.466  0.2357  0.3974 -0.3974
37877SOL    HW119467   8.827   9.116   9.475  0.1682  0.4648 -1.2181
37877SOL    HW219468   8.959   9.110   9.549  0.1012  2.5165 -0.8721
37878SOL     OW19469   7.996   3.411   2.317 -0.1936  0.3254  0.0477
37878SOL    HW119470   7.954   3.439   2.236 -0.6571 -0.0404  0.1553
37878SOL    HW219471   7.924   3.387   2.375  0.1676 -0.7679  0.0718
37879SOL     OW19472   6.543   5.399   5.407 -0.0291  0.1288  0.3069
37879SOL    HW119473   6.625   5.416   5.360  0.1272  1.6359  1.0695
37879SOL    HW219474   6.532   5.305   5.401  2.5225 -0.3327  1.4091
37880SOL     OW19475   5.019   5.291   5.634  0.0531  0.1660 -0.3533
37880SOL    HW119476   4.968   5.326   5.561  0.0316  0.2664 -0.2887
37880SOL    HW219477   5.103   5.336   5.629  0.2417 -0.2102 -0.6364
37881SOL     OW19478   4.539   0.253   0.235  0.1823  0.6011  0.0315
37881SOL    HW119479   4.459   0.299   0.207  0.4013  0.6264 -0.5678
37881SOL    HW219480   4.529   0.242   0.330  0.0122  1.6724  0.1493
37882SOL     OW19481   2.812   1.122   2.505  0.5032 -0.1203 -0.3720
37882SOL    HW119482   2.907   1.111   2.502  0.4323 -0.4732 -2.3641
37882SOL    HW219483   2.798   1.212   2.533  1.3563 -0.5866  1.7594
37883SOL     OW19484  10.061   8.330   2.232  0.3749 -0.5770  0.1797
37883SOL    HW119485  10.077   8.300   2.142  2.6834  2.4287 -0.6311
37883SOL    HW219486  10.142   8.376   2.256 -0.2802 -0.9729  3.7332
37884SOL     OW19487   9.830   9.627   3.913  0.3583  0.2648  0.1255
37884SOL    HW119488   9.835   9.546   3.962  1.2222  1.5386  2.2727
37884SOL    HW219489   9.736   9.643   3.901  0.1423 -2.1553 -2.4561
37885SOL     OW19490   8.208   4.842   4.733  0.6368  0.0173  0.1455
37885SOL    HW119491   8.270   4.812   4.800  1.3921  0.7029 -0.2249
37885SOL    HW219492   8.170   4.762   4.698 -0.2589 -0.3367  1.8340
37886SOL     OW19493   7.820   8.070   7.133  0.0303  0.0026  0.1353
37886SOL    HW119494   7.767   8.113   7.066 -0.7584  0.0259  0.7589
37886SOL    HW219495   7.829   7.980   7.102  0.2816  0.1954 -0.3539
37887SOL     OW19496   9.433   5.224   2.405  0.3655  0.0591  0.1006
37887SOL    HW119497   9.520   5.210   2.443  0.2948 -1.6131 -0.2422
37887SOL    HW219498   9.384   5.269   2.474  1.3255  0.4776  0.5295
37888SOL     OW19499   3.510  10.006   5.841 -0.1510 -0.8545  1.2795
37888SOL    HW119500   3.444   9.982   5.777 -0.6517  1.8991  0.6082
37888SOL    HW219501   3.586   9.954   5.819  0.1658  0.9276 -2.5595
37889SOL     OW19502   4.832   7.215   8.071 -0.4756 -0.0500  0.4618
37889SOL    HW119503   4.755   7.214   8.014 -1.1716 -1.0602  1.3585
37889SOL    HW219504   4.905   7.238   8.014 -1.0010 -1.8131 -1.0139
37890SOL     OW19505   2.442   0.476   5.071 -0.0577 -0.4573  0.4564
37890SOL    HW119506   2.476   0.560   5.040 -1.4486  0.1834  0.6249
37890SOL    HW219507   2.519   0.431   5.107  0.8861  0.3295 -0.4951
37891SOL     OW19508   9.625   8.446   3.960  0.5049  0.0922  0.0036
37891SOL    HW119509   9.675   8.365   3.959  0.0996 -0.1792 -1.4745
37891SOL    HW219510   9.541   8.422   3.999  1.2326  0.3894  1.8329
37892SOL     OW19511   4.994   6.129   1.689 -0.4185  0.0142  0.0100
37892SOL    HW119512   4.924   6.100   1.748 -1.6469  1.5414 -0.6149
37892SOL    HW219513   4.949   6.183   1.624  1.2802  0.5839 -0.7387
37893SOL     OW19514   8.198   3.078   3.209  0.1852 -0.0058  0.2660
37893SOL    HW119515   8.114   3.047   3.240 -0.2019  0.7439 -0.0043
37893SOL    HW219516   8.225   3.144   3.273  1.4213 -1.4450  1.3298
37894SOL     OW19517   9.265  10.452   0.518 -0.3732 -0.2598 -0.6479
37894SOL    HW119518   9.179  10.463   0.558 -1.2118 -1.1992 -2.0855
37894SOL    HW219519   9.299  10.541   0.509 -1.7156  0.2343 -1.1086
37895SOL     OW19520   3.561   9.519  10.090  0.3123  0.0278 -0.2037
37895SOL    HW119521   3.562   9.434  10.046  2.1706  0.3781 -0.9178
37895SOL    HW219522   3.469   9.545  10.090 -0.1407 -1.4828 -0.9342
37896SOL     OW19523   6.181   9.897   4.653 -0.3596 -0.0418  0.3409
37896SOL    HW119524   6.113   9.964   4.646 -2.3758 -2.0175 -0.0662
37896SOL    HW219525   6.156   9.845   4.729  0.4134 -1.1208 -0.1168
37897SOL     OW19526   8.165   5.676   8.409  0.3459 -0.1748 -0.2432
37897SOL    HW119527   8.099   5.714   8.352 -0.1115  1.0039  1.0022
37897SOL    HW219528   8.242   5.731   8.397  0.5806 -0.5551 -0.4901
37898SOL     OW19529   3.348   4.011   5.683 -0.1499  0.4320  0.0300
37898SOL    HW119530   3.260   4.003   5.721  0.0168 -0.0500  0.3319
37898SOL    HW219531   3.384   4.089   5.724 -0.0500  0.0331  0.7243
37899SOL     OW19532   3.238   4.848   6.355 -0.4543  0.3330 -0.2033
37899SOL    HW119533   3.314   4.800   6.322  0.8133  2.9001 -1.2835
37899SOL    HW219534   3.217   4.910   6.285 -0.2404  3.2556  2.1166
37900SOL     OW19535   9.506   4.095   8.024 -0.5827  0.4422 -0.0278
37900SOL    HW119536   9.570   4.059   7.963 -0.4509 -2.6918  1.6986
37900SOL    HW219537   9.456   4.158   7.973 -0.6585 -2.1105 -3.4901
37901SOL     OW19538   8.646   7.749   6.229  0.1413  0.3677  0.0362
37901SOL    HW119539   8.660   7.704   6.312  1.2765 -0.9239 -0.8172
37901SOL    HW219540   8.553   7.735   6.210  0.2743 -0.8924  0.2287
37902SOL     OW19541   8.862   8.895   8.909  1.1595 -0.1186  0.5470
37902SOL    HW119542   8.910   8.852   8.838  1.0431 -0.5982  0.7525
37902SOL    HW219543   8.824   8.823   8.960 -1.0998  0.2399 -0.4902
37903SOL     OW19544   7.679   9.383   4.900 -0.5612  0.2064 -0.4029
37903SOL    HW119545   7.658   9.303   4.850  1.9047 -1.3891  0.9060
37903SOL    HW219546   7.609   9.388   4.966 -0.5881 -1.0857 -0.3008
37904SOL     OW19547   1.595   9.493  10.559  0.0993 -0.2766 -0.5288
37904SOL    HW119548   1.682   9.505  10.520 -0.4023  0.1305 -1.5227
37904SOL    HW219549   1.564   9.582  10.576 -0.8724 -0.3428 -1.8505
37905SOL     OW19550   4.274   6.234   6.228 -0.2732 -0.1122 -0.1082
37905SOL    HW119551   4.278   6.203   6.138  0.9157 -0.9298  0.1910
37905SOL    HW219552   4.279   6.154   6.280  1.0408  0.4531  0.6879
37906SOL     OW19553   7.185   7.415   7.857 -0.0366 -0.0106  0.1426
37906SOL    HW119554   7.187   7.476   7.930 -0.1182 -0.4422  0.5134
37906SOL    HW219555   7.116   7.448   7.800 -1.4989 -0.8508  1.3346
37907SOL     OW19556   6.445   3.446   2.842  0.0406  0.1674  0.0440
37907SOL    HW119557   6.379   3.428   2.775 -0.6754 -1.3361  1.1135
37907SOL    HW219558   6.406   3.517   2.894  0.5990  1.3430 -1.0649
37908SOL     OW19559   6.686   4.010   2.164 -0.3738 -0.1080 -0.2367
37908SOL    HW119560   6.773   3.971   2.169 -0.3478  0.1037  2.1456
37908SOL    HW219561   6.687   4.080   2.229 -2.6410 -0.8034  0.6650
37909SOL     OW19562   8.664   3.785   3.671  0.0637  0.2268 -0.1739
37909SOL    HW119563   8.626   3.867   3.700  0.4082 -0.4543  2.4731
37909SOL    HW219564   8.702   3.746   3.750  1.7261 -1.5248 -1.7073
37910SOL     OW19565   9.861   4.384   9.299  0.1164 -0.2821 -0.0462
37910SOL    HW119566   9.780   4.393   9.350  0.3212 -2.6596  0.8294
37910SOL    HW219567   9.838   4.416   9.211 -1.3991  0.1801  0.4907
37911SOL     OW19568   1.300   2.796   5.526 -0.0697 -0.1252  0.1474
37911SOL    HW119569   1.356   2.721   5.543  1.3386  1.0255  0.8206
37911SOL    HW219570   1.344   2.844   5.456 -1.4043 -0.3561 -0.8863
37912SOL     OW19571   8.592   2.478   2.349 -0.2082 -0.2400 -0.1599
37912SOL    HW119572   8.585   2.414   2.278 -1.8917  1.3021 -1.4663
37912SOL    HW219573   8.666   2.533   2.324  0.0932 -0.5662  0.0155
37913SOL     OW19574   9.301   4.187   0.212 -0.2995 -0.0589 -0.4563
37913SOL    HW119575   9.208   4.168   0.224 -0.2888  0.9219  1.4414
37913SOL    HW219576   9.344   4.102   0.214 -0.9886 -0.3961  0.3743
37914SOL     OW19577   7.446   2.159   5.313 -0.4321 -0.5553 -0.1631
37914SOL    HW119578   7.506   2.185   5.243  0.8637  0.9929  1.4173
37914SOL    HW219579   7.489   2.083   5.353  1.1294  1.1416  1.5966
37915SOL     OW19580   0.342   0.063   5.438  0.2000  0.0339 -0.0947
37915SOL    HW119581   0.411   0.108   5.487  1.1036  0.5266 -1.7720
37915SOL    HW219582   0.312  -0.006   5.498  2.0216 -0.0758  0.7562
37916SOL     OW19583   7.967   8.257   2.740 -0.1644  0.5699 -0.6049
37916SOL    HW119584   7.993   8.169   2.766  0.9886  1.6245  2.3157
37916SOL    HW219585   7.882   8.270   2.782 -0.6479  0.6491 -1.5834
37917SOL     OW19586   1.347   2.799   7.092  0.5804 -0.6971  0.2658
37917SOL    HW119587   1.274   2.788   7.153  0.0628 -1.5486 -0.4715
37917SOL    HW219588   1.305   2.808   7.006  1.2638  1.1206  0.0822
37918SOL     OW19589   6.518   4.947   8.952  0.3659 -0.2769 -0.7942
37918SOL    HW119590   6.486   5.038   8.947 -0.7237 -0.5123  1.0623
37918SOL    HW219591   6.562   4.933   8.868  0.1982  1.8293 -1.2996
37919SOL     OW19592   2.143  10.717   1.607  0.1507 -0.5373  0.1438
37919SOL    HW119593   2.204  10.692   1.538  0.1087 -0.3246  0.0284
37919SOL    HW219594   2.195  10.770   1.668 -0.4649  1.7778 -1.2348
37920SOL     OW19595   8.256   3.581   8.539  0.1071 -0.0205  0.5867
37920SOL    HW119596   8.327   3.579   8.474  0.4675 -1.2937  0.9840
37920SOL    HW219597   8.177   3.594   8.487  0.3086 -1.7454 -0.2344
37921SOL     OW19598   2.388   2.253   9.269  0.0366  0.1164 -0.2580
37921SOL    HW119599   2.312   2.280   9.217  1.1362  0.2149 -1.8961
37921SOL    HW219600   2.394   2.319   9.339 -1.8481 -0.3741  0.4262
37922SOL     OW19601   1.828   8.916   5.349 -0.5615  0.3168 -0.4652
37922SOL    HW119602   1.775   8.990   5.378 -1.6117 -0.0240 -1.4155
37922SOL    HW219603   1.765   8.843   5.345  0.4327 -0.6222  0.3964
37923SOL     OW19604   4.098   8.467   0.292  0.1368 -0.6789 -0.3682
37923SOL    HW119605   4.171   8.407   0.304 -0.4186 -1.4396 -0.6804
37923SOL    HW219606   4.079   8.464   0.198 -0.6740 -0.9653 -0.2113
37924SOL     OW19607   5.700   4.769   7.684  0.3380 -0.2436  0.1383
37924SOL    HW119608   5.640   4.830   7.642  0.9160  0.7777  0.7432
37924SOL    HW219609   5.659   4.749   7.769 -1.3109 -3.0580 -1.1705
37925SOL     OW19610   7.157   8.226   6.609  0.2635  0.2654  0.4377
37925SOL    HW119611   7.204   8.301   6.573 -0.1704  0.2801 -0.1172
37925SOL    HW219612   7.151   8.165   6.536  0.2202 -0.1170  0.7615
37926SOL     OW19613   2.524   0.826   2.484  0.6050 -0.7711 -0.5246
37926SOL    HW119614   2.606   0.846   2.530  1.3015 -3.3176 -0.5114
37926SOL    HW219615   2.519   0.892   2.415  1.3880  0.9195  0.9328
37927SOL     OW19616   5.063   0.236   4.664  0.0588 -0.3101  0.7013
37927SOL    HW119617   5.035   0.145   4.670  0.6205 -0.6065 -0.7094
37927SOL    HW219618   5.150   0.232   4.624  0.2241  0.8356  0.8913
37928SOL     OW19619   3.707   2.312   0.341 -0.4506 -0.0298 -0.7281
37928SOL    HW119620   3.755   2.313   0.424 -0.2438 -0.9057 -0.8257
37928SOL    HW219621   3.706   2.220   0.315 -1.2823  0.1172 -1.2594
37929SOL     OW19622   2.946   0.921   9.227 -0.4196  0.2198  0.2548
37929SOL    HW119623   2.872   0.871   9.194  0.2202  0.5995 -1.9296
37929SOL    HW219624   2.961   0.988   9.160  1.0588  1.0012  1.3062
37930SOL     OW19625   7.011   5.138   4.751 -0.1448  0.3636  0.2116
37930SOL    HW119626   7.024   5.048   4.721 -0.8720 -0.0963  1.2238
37930SOL    HW219627   7.065   5.144   4.830 -1.3987  0.2610  1.1124
37931SOL     OW19628   2.695  10.336   9.899 -0.0420 -0.2321 -0.1818
37931SOL    HW119629   2.604  10.367   9.899  0.2071  0.5275  0.4419
37931SOL    HW219630   2.718  10.331   9.806 -0.7695 -0.6101 -0.3581
37932SOL     OW19631   6.804   4.743   7.977 -0.1659 -0.6352 -0.1492
37932SOL    HW119632   6.817   4.815   8.039 -1.6461 -0.9413  0.5458
37932SOL    HW219633   6.892   4.707   7.964  0.7302  1.6502 -1.0020
37933SOL     OW19634   7.609   9.374   4.559  0.1152  0.3349 -0.3616
37933SOL    HW119635   7.669   9.431   4.607  0.2453  0.3853 -0.5814
37933SOL    HW219636   7.523   9.415   4.569  0.0632  0.0938  0.2203
37934SOL     OW19637   1.856   8.384   9.673  0.4291 -0.0675 -0.0487
37934SOL    HW119638   1.782   8.444   9.669  0.3934 -0.0402  0.8398
37934SOL    HW219639   1.909   8.406   9.596 -1.2803 -1.1879 -1.6340
37935SOL     OW19640   1.963   0.353   3.070 -0.0255 -0.3771  0.0772
37935SOL    HW119641   1.887   0.295   3.077 -0.5545  0.0840 -1.5980
37935SOL    HW219642   1.929   0.435   3.037  1.2832 -0.3641 -1.3546
37936SOL     OW19643  10.313   0.944   9.284 -0.1343 -0.4545 -0.2953
37936SOL    HW119644  10.403   0.975   9.283 -0.2964  0.0398 -1.0238
37936SOL    HW219645  10.317   0.860   9.238  0.1092 -0.9123  0.5605
37937SOL     OW19646   3.431   9.788   7.013 -1.2779  0.2178 -0.0753
37937SOL    HW119647   3.501   9.847   7.043 -0.3201 -1.1717  0.5131
37937SOL    HW219648   3.419   9.811   6.921  0.6543 -0.1530 -0.4684
37938SOL     OW19649   3.389  10.678   5.325  0.3491 -0.0991 -0.3923
37938SOL    HW119650   3.445  10.718   5.258  1.2119 -0.9955 -0.2350
37938SOL    HW219651   3.311  10.651   5.277  0.4909  0.2432 -0.8234
37939SOL     OW19652   0.367   3.920   2.752 -0.0174 -0.1832  0.3990
37939SOL    HW119653   0.296   3.868   2.714  0.4174 -0.7956  0.3951
37939SOL    HW219654   0.383   3.878   2.837  2.5363 -2.1920 -0.9351
37940SOL     OW19655   2.716   7.817   7.416  0.3289 -0.6135  0.2905
37940SOL    HW119656   2.730   7.753   7.346 -0.7594 -1.5693  0.9138
37940SOL    HW219657   2.794   7.874   7.412  0.9870 -1.5366 -0.7284
37941SOL     OW19658   2.528   6.455   8.779  0.5876 -0.4303 -0.0814
37941SOL    HW119659   2.543   6.512   8.855 -0.1762 -0.7220  0.2952
37941SOL    HW219660   2.500   6.371   8.816 -2.1230  0.0969 -0.6776
37942SOL     OW19661   6.963   1.582   7.308 -0.3766  0.2326  0.2232
37942SOL    HW119662   6.949   1.508   7.367  1.2329  2.6563  4.1044
37942SOL    HW219663   7.058   1.588   7.300 -0.5344  0.6933 -1.7783
37943SOL     OW19664   2.511   4.776   3.061  0.8249 -0.6326  0.7242
37943SOL    HW119665   2.488   4.778   2.968 -0.7140 -0.5161  1.0674
37943SOL    HW219666   2.506   4.684   3.085  0.9057 -0.6297  0.7490
37944SOL     OW19667   9.540   3.144   6.879 -0.4117  0.3210  0.0519
37944SOL    HW119668   9.556   3.227   6.834 -2.3856  2.1806  2.5508
37944SOL    HW219669   9.627   3.112   6.902  0.4114  1.3593 -1.4774
37945SOL     OW19670   7.070   1.287   1.754  0.1140  0.0142  0.3027
37945SOL    HW119671   7.025   1.282   1.670 -0.5118 -0.2142  0.6484
37945SOL    HW219672   7.152   1.240   1.740  1.2701  2.2297 -0.9617
37946SOL     OW19673   9.636   4.032   8.266  0.2630  0.1975  0.2202
37946SOL    HW119674   9.632   4.098   8.334  1.0423 -0.0764  0.5389
37946SOL    HW219675   9.586   4.069   8.193 -1.6775 -0.0431  1.3746
37947SOL     OW19676   7.999   2.938   5.142 -0.9146 -0.4079  0.2829
37947SOL    HW119677   7.997   2.882   5.219  1.6076 -1.0959 -0.0465
37947SOL    HW219678   7.999   3.027   5.177  0.2873 -0.7144  1.1335
37948SOL     OW19679   2.188   4.357   2.520 -0.2315  0.2750  0.5080
37948SOL    HW119680   2.129   4.368   2.594 -0.2873 -1.4242  0.7540
37948SOL    HW219681   2.139   4.392   2.445 -1.5373 -0.9871  0.7262
37949SOL     OW19682   4.221   1.592   2.472  0.3218  0.1589 -0.1542
37949SOL    HW119683   4.216   1.549   2.387 -1.3788  0.1496 -0.0787
37949SOL    HW219684   4.236   1.521   2.535 -0.4056 -0.0874 -0.2500
37950SOL     OW19685   5.744   7.858  10.705 -0.6044  0.7103  0.3397
37950SOL    HW119686   5.721   7.856  10.798  1.8251 -0.7445  0.9740
37950SOL    HW219687   5.804   7.932  10.696 -1.6444  1.5109 -0.3369
37951SOL     OW19688   0.860   2.109   1.866  0.2319 -0.6389  0.2703
37951SOL    HW119689   0.933   2.114   1.928  1.3215 -0.1547 -1.0006
37951SOL    HW219690   0.900   2.124   1.780 -1.6200  1.5745 -0.3059
37952SOL     OW19691   1.368   2.505   3.222  0.4396  0.9899  0.0496
37952SOL    HW119692   1.325   2.569   3.166 -0.7179 -0.1865 -0.4490
37952SOL    HW219693   1.300   2.475   3.282  0.0160 -2.0233 -1.7253
37953SOL     OW19694   2.398  10.030   5.833 -0.7869  0.4078 -0.7309
37953SOL    HW119695   2.362  10.091   5.770 -1.1958  0.3749 -0.5325
37953SOL    HW219696   2.362  10.058   5.917 -0.3226  0.3976 -0.5222
37954SOL     OW19697  10.484   8.699  10.505 -0.1980 -0.5439  0.3147
37954SOL    HW119698  10.393   8.678  10.525 -1.2167  2.7419 -0.1817
37954SOL    HW219699  10.480   8.747  10.422  1.8530  0.5218  0.7500
37955SOL     OW19700   8.081   6.180   2.980 -0.4656 -0.8132 -0.2713
37955SOL    HW119701   8.085   6.091   2.947 -0.2823 -2.6217  4.0172
37955SOL    HW219702   7.987   6.200   2.983 -0.5898 -1.4489  0.1075
37956SOL     OW19703   3.508   3.620   2.379 -0.1172 -0.0309  0.3934
37956SOL    HW119704   3.512   3.711   2.407  0.1965 -0.0636  0.4566
37956SOL    HW219705   3.595   3.602   2.342 -0.8185  0.3094 -1.5303
37957SOL     OW19706   7.487   0.689   6.719 -0.5607 -0.2535 -0.6606
37957SOL    HW119707   7.400   0.653   6.735 -1.4065  1.8297 -0.2902
37957SOL    HW219708   7.515   0.650   6.636 -2.1207 -0.4531 -1.1114
37958SOL     OW19709   3.087   2.360   9.935  0.5729 -0.4474 -0.2195
37958SOL    HW119710   3.071   2.305   9.858  1.0100 -1.8249  0.6561
37958SOL    HW219711   3.172   2.332   9.968  0.5499  0.3793  0.5781
37959SOL     OW19712   3.938  10.254   6.196  0.0134 -0.1938  0.5937
37959SOL    HW119713   4.010  10.313   6.173 -0.3863  0.3173  0.6236
37959SOL    HW219714   3.909  10.283   6.282 -0.1485 -0.4758  0.6365
37960SOL     OW19715   0.913   9.033  10.431  0.5487  0.1327 -0.2718
37960SOL    HW119716   1.005   9.035  10.404  0.9002 -1.9692  0.5420
37960SOL    HW219717   0.914   9.058  10.523  0.4852 -1.0405  0.0606
37961SOL     OW19718   1.682   3.683   7.636  0.0063 -0.7169 -0.5742
37961SOL    HW119719   1.717   3.611   7.687 -0.2242  0.2591  1.0226
37961SOL    HW219720   1.660   3.750   7.700  0.3784  0.8611 -2.0105
37962SOL     OW19721   5.956   4.937   6.404  0.1595  0.1710  0.0943
37962SOL    HW119722   5.968   4.852   6.445  1.3675 -0.7370 -1.9271
37962SOL    HW219723   5.866   4.937   6.373  0.5327 -1.0486 -1.1358
37963SOL     OW19724   3.923   7.977   6.004 -0.1129 -0.0290  0.5730
37963SOL    HW119725   3.899   8.067   6.027 -0.5528  0.2888 -0.9761
37963SOL    HW219726   3.889   7.966   5.915  0.3467 -1.5794  0.5696
37964SOL     OW19727   1.198   4.570   5.896  0.2862  0.2393 -0.1970
37964SOL    HW119728   1.278   4.608   5.859  0.3578 -0.4664 -0.7732
37964SOL    HW219729   1.155   4.645   5.938  1.4778  0.5382  0.5545
37965SOL     OW19730   8.035   6.866   4.506  0.3535  0.2520 -0.0175
37965SOL    HW119731   7.963   6.922   4.535 -0.1040  0.2639 -1.1434
37965SOL    HW219732   8.048   6.889   4.414  2.4897  1.0036  0.3922
37966SOL     OW19733   5.567   7.548   5.438  0.4372 -0.0415 -0.3491
37966SOL    HW119734   5.563   7.462   5.396  0.3291  0.6180 -1.7395
37966SOL    HW219735   5.597   7.607   5.369  0.6837  1.0160  0.6331
37967SOL     OW19736   7.337   3.712   2.406  0.2758  0.2216  0.3417
37967SOL    HW119737   7.404   3.776   2.433  0.4365  0.3026 -0.2434
37967SOL    HW219738   7.314   3.737   2.317 -0.6348  0.2700  0.5752
37968SOL     OW19739   4.950   3.556   0.770  0.2844  0.1962  0.0656
37968SOL    HW119740   5.036   3.543   0.811  0.6651 -0.4663 -0.9049
37968SOL    HW219741   4.967   3.547   0.677 -0.4416  2.3459 -0.3223
37969SOL     OW19742   0.993   3.659   5.649  0.3466  0.0094  0.1437
37969SOL    HW119743   0.901   3.646   5.672  0.6075  0.6060  1.5946
37969SOL    HW219744   1.041   3.601   5.708  0.9920  1.0141  0.6272
37970SOL     OW19745   7.071   6.232   0.273 -0.0463  0.3210 -0.5358
37970SOL    HW119746   7.122   6.158   0.306 -0.3007  0.4182  0.0720
37970SOL    HW219747   7.045   6.280   0.351  0.2015  1.1169 -0.9347
37971SOL     OW19748   7.591   3.779   8.609 -0.1458 -0.1072 -0.0655
37971SOL    HW119749   7.562   3.866   8.634  0.6206 -0.5638  2.7102
37971SOL    HW219750   7.545   3.761   8.526 -2.0027  2.0180  0.4150
37972SOL     OW19751   4.369   4.139   7.520  0.5085  0.5762 -0.1996
37972SOL    HW119752   4.386   4.045   7.528  1.1921  0.7552  0.6441
37972SOL    HW219753   4.361   4.155   7.426  0.6545 -0.2741 -0.3614
37973SOL     OW19754   0.600   9.403   9.867  0.2759  0.1587  0.0569
37973SOL    HW119755   0.526   9.402   9.806 -0.3633  0.1962  0.8195
37973SOL    HW219756   0.665   9.460   9.824 -0.3604  0.5877 -0.3531
37974SOL     OW19757   4.660   7.153   2.012  0.0378  0.2606  0.2080
37974SOL    HW119758   4.649   7.208   1.934  1.5853  0.8714  0.3976
37974SOL    HW219759   4.624   7.205   2.083  1.7180  1.1909  0.4271
37975SOL     OW19760   7.944   7.654   2.850 -0.3347  0.4884 -0.5648
37975SOL    HW119761   7.862   7.658   2.801 -0.0001 -0.5733 -1.2351
37975SOL    HW219762   7.917   7.663   2.942 -1.0321  1.7345 -0.8643
37976SOL     OW19763   3.007   8.576   5.031  0.3434 -0.2645  0.6406
37976SOL    HW119764   3.036   8.489   5.001 -0.1091  0.2934 -1.6101
37976SOL    HW219765   3.085   8.614   5.071  1.6351 -0.4025 -1.5583
37977SOL     OW19766   0.746   5.236   4.245  0.4751 -0.3446 -0.3260
37977SOL    HW119767   0.650   5.238   4.238  0.3320 -0.1357  1.2182
37977SOL    HW219768   0.775   5.316   4.201 -0.2887  0.9394  1.3423
37978SOL     OW19769   8.776   5.686   5.288 -1.0847  0.2927  0.0870
37978SOL    HW119770   8.767   5.779   5.271 -1.4598  0.5230  1.4296
37978SOL    HW219771   8.686   5.654   5.299 -1.0156 -0.4184 -1.2302
37979SOL     OW19772   1.561   5.765   0.950 -0.7666 -0.3026 -0.0194
37979SOL    HW119773   1.624   5.697   0.926 -0.7387 -0.3994  0.3162
37979SOL    HW219774   1.508   5.778   0.872  0.9229  1.1906 -0.9980
37980SOL     OW19775   2.770   6.687   3.516 -0.0172 -0.2190 -0.1413
37980SOL    HW119776   2.838   6.749   3.490  0.4319 -0.7987 -0.3684
37980SOL    HW219777   2.718   6.674   3.437 -0.9617  0.9190  0.2643
37981SOL     OW19778   4.378   6.551   2.948  0.1461 -0.4087  0.0985
37981SOL    HW119779   4.346   6.630   2.905 -2.1969 -0.9860  0.6542
37981SOL    HW219780   4.427   6.505   2.880 -0.1793  0.5460 -0.8078
37982SOL     OW19781   6.825   6.755   7.835  0.6133  0.2450 -0.3515
37982SOL    HW119782   6.768   6.715   7.770 -0.5112  0.9602  0.1494
37982SOL    HW219783   6.861   6.682   7.885  0.0701 -0.2152 -0.6277
37983SOL     OW19784   6.493   6.935   7.901  0.0182  0.4447  0.7022
37983SOL    HW119785   6.497   6.848   7.861 -1.2300  0.3870  0.6786
37983SOL    HW219786   6.537   6.992   7.838  0.0316 -0.0166  0.2856
37984SOL     OW19787   2.745   9.494   5.353 -0.3221  0.0847 -0.6116
37984SOL    HW119788   2.710   9.405   5.348 -1.3906  0.5217 -1.1732
37984SOL    HW219789   2.798   9.495   5.433 -2.7352 -0.1978  1.0778
37985SOL     OW19790   0.855   1.590   5.153  0.6572  0.2966 -0.2058
37985SOL    HW119791   0.827   1.553   5.070 -0.9204 -1.9283  1.1899
37985SOL    HW219792   0.951   1.592   5.147  0.5677  0.7614 -2.2364
37986SOL     OW19793   0.571   9.399   3.413 -0.2921 -0.4113  0.4677
37986SOL    HW119794   0.588   9.305   3.408 -1.7644 -0.6538 -0.8996
37986SOL    HW219795   0.484   9.406   3.453 -1.0314  0.2237 -1.1437
37987SOL     OW19796   1.606   8.038   1.597  0.2977  0.2372  0.8389
37987SOL    HW119797   1.669   8.035   1.525 -0.8656  1.6753 -0.3227
37987SOL    HW219798   1.553   8.116   1.579 -1.7791 -0.8756  1.7606
37988SOL     OW19799   9.178   9.552   5.540  0.1587 -0.3996  0.0050
37988SOL    HW119800   9.126   9.591   5.470 -0.4244 -0.1949  0.5399
37988SOL    HW219801   9.258   9.603   5.542  0.3609 -0.6689 -0.7783
37989SOL     OW19802   2.049   2.070   5.808  0.1965 -0.0330 -0.1273
37989SOL    HW119803   2.040   2.055   5.903 -0.4051  1.2516  0.0419
37989SOL    HW219804   2.137   2.040   5.787 -0.5402 -2.8500  0.3068
37990SOL     OW19805   6.507   7.115   2.047 -0.3698  0.3425  0.1090
37990SOL    HW119806   6.452   7.187   2.078  1.1415  1.8045 -0.4332
37990SOL    HW219807   6.575   7.106   2.113 -1.3775 -1.7010  0.9634
37991SOL     OW19808   3.435   3.684   7.280 -0.1203  0.1948 -0.2045
37991SOL    HW119809   3.504   3.618   7.296  0.4256  0.7185 -0.3715
37991SOL    HW219810   3.479   3.768   7.292 -0.5394  0.5525 -1.1153
37992SOL     OW19811  10.709   9.883   0.529 -0.4286  0.3966 -0.1038
37992SOL    HW119812  10.798   9.901   0.498 -0.3684 -1.1369 -0.9165
37992SOL    HW219813  10.718   9.877   0.624  0.3424  0.2291 -0.1832
37993SOL     OW19814   6.684  10.158   3.741  0.4058  0.0386  0.3717
37993SOL    HW119815   6.720  10.163   3.652  2.4446 -0.9804  1.0766
37993SOL    HW219816   6.710  10.241   3.781 -1.5536  1.0353 -0.2728
37994SOL     OW19817  10.027   8.460   3.218 -0.5060 -0.1754 -0.4648
37994SOL    HW119818  10.027   8.393   3.286 -0.0212 -0.7934 -1.0602
37994SOL    HW219819  10.090   8.525   3.248  0.5615 -1.0064 -0.8381
37995SOL     OW19820   8.228   6.310  10.223 -0.3874 -0.4813  0.1580
37995SOL    HW119821   8.284   6.366  10.277  0.4922 -0.5865 -0.6077
37995SOL    HW219822   8.279   6.229  10.212 -0.9652 -0.8253 -0.0439
37996SOL     OW19823  10.315   4.809   2.611  0.2693 -0.6760  0.1223
37996SOL    HW119824  10.379   4.854   2.666  1.4053 -1.2932 -0.6599
37996SOL    HW219825  10.291   4.731   2.662 -0.4953 -0.0374  0.7704
37997SOL     OW19826   9.287   2.732   7.839 -0.3596  0.4247 -1.2138
37997SOL    HW119827   9.351   2.688   7.783 -1.2548 -1.0599 -1.0993
37997SOL    HW219828   9.206   2.683   7.827 -0.4114 -0.4972  2.0018
37998SOL     OW19829   4.043   5.151   6.159 -0.3519  0.4466 -0.4435
37998SOL    HW119830   3.976   5.199   6.110  1.6314  1.8478 -1.9457
37998SOL    HW219831   4.066   5.078   6.101 -0.0734  0.3838 -0.2510
37999SOL     OW19832   0.557   9.162   1.064 -0.5899  0.1668 -0.2617
37999SOL    HW119833   0.530   9.218   0.991 -1.0020 -1.2318 -1.2174
37999SOL    HW219834   0.632   9.207   1.102  1.0072 -0.0918 -2.8760
38000SOL     OW19835   5.887   3.230   7.116  0.0033 -0.4095 -0.0180
38000SOL    HW119836   5.965   3.286   7.117  0.5326 -1.0612 -1.3834
38000SOL    HW219837   5.905   3.166   7.047 -1.2416 -1.3109  0.4603
38001SOL     OW19838   5.206   8.703  10.004  0.6705  0.0248 -0.0856
38001SOL    HW119839   5.145   8.631   9.988  2.4624 -1.4144 -0.7946
38001SOL    HW219840   5.234   8.692  10.094  1.0037 -0.2061 -0.2181
38002SOL     OW19841   2.024   5.826   8.669 -0.2956  0.1520  0.6557
38002SOL    HW119842   1.947   5.835   8.725 -1.0561  0.7818 -0.4469
38002SOL    HW219843   1.988   5.810   8.582  0.8020  1.3077 -0.0289
38003SOL     OW19844   0.198   4.998   1.778 -0.2948  0.0786 -0.2849
38003SOL    HW119845   0.135   5.065   1.754 -0.4472 -0.2224 -0.7357
38003SOL    HW219846   0.185   4.929   1.713 -1.0848 -0.9857  0.9663
38004SOL     OW19847  10.724   0.823   9.860 -0.0718 -0.8639  0.1297
38004SOL    HW119848  10.722   0.878   9.782 -1.2747  0.4751  1.0547
38004SOL    HW219849  10.790   0.756   9.840  0.0292 -0.2599 -1.8038
38005SOL     OW19850  10.188   1.441   0.054 -0.1566  0.2265 -0.0399
38005SOL    HW119851  10.140   1.523   0.048  0.2915  0.5467  0.6226
38005SOL    HW219852  10.278   1.467   0.075  0.0163 -0.4213  0.0445
38006SOL     OW19853   2.126   8.522   3.618  0.1743  0.6288 -0.4577
38006SOL    HW119854   2.202   8.580   3.612 -0.8952  2.0484 -0.8383
38006SOL    HW219855   2.054   8.579   3.644 -0.9838 -0.4958 -1.0554
38007SOL     OW19856   5.406   1.820   8.487 -0.0180 -0.6108 -0.2068
38007SOL    HW119857   5.329   1.774   8.522 -0.9812  0.4628 -0.8286
38007SOL    HW219858   5.463   1.832   8.562 -0.4186 -1.4950  0.2587
38008SOL     OW19859   8.081   7.581   2.545  0.3019 -0.3503  0.4825
38008SOL    HW119860   8.117   7.624   2.622 -0.0804 -1.4558  1.3188
38008SOL    HW219861   8.028   7.648   2.502 -0.2759  0.0397  1.7408
38009SOL     OW19862   2.071   8.014   9.607 -0.3896 -0.3460  0.1297
38009SOL    HW119863   2.145   7.956   9.625 -0.0901 -0.0084 -0.0319
38009SOL    HW219864   2.063   8.013   9.512 -0.5911 -0.3748  0.1467
38010SOL     OW19865   8.400   3.243   1.191 -0.5408 -0.1767 -0.4103
38010SOL    HW119866   8.325   3.239   1.250 -1.1482  0.1824 -1.1423
38010SOL    HW219867   8.437   3.330   1.204 -0.0320 -0.4808  0.2070
38011SOL     OW19868   0.660   8.884   1.728  0.5443  0.4335 -0.0841
38011SOL    HW119869   0.674   8.794   1.758  2.6922  0.0358 -2.0622
38011SOL    HW219870   0.748   8.920   1.715 -0.2457  2.8845  0.6646
38012SOL     OW19871   8.638   9.152   9.488 -0.3205 -0.2510  0.0245
38012SOL    HW119872   8.547   9.127   9.476  0.1570 -1.8669 -0.5334
38012SOL    HW219873   8.647   9.236   9.443 -0.5014 -2.2627 -4.2530
38013SOL     OW19874   3.447   5.223   0.561 -0.4909  0.1186  0.2443
38013SOL    HW119875   3.366   5.265   0.591 -2.6123 -2.2937 -1.6492
38013SOL    HW219876   3.461   5.152   0.623  0.0149  0.3037  0.3507
38014SOL     OW19877   0.975   1.606   9.320  0.2334 -0.2709  0.5162
38014SOL    HW119878   0.884   1.583   9.301 -0.1711  2.1105 -0.7491
38014SOL    HW219879   1.027   1.544   9.268 -0.5474 -2.4825  2.2171
38015SOL     OW19880   9.679   5.246   0.278 -0.2182 -0.3465  0.2828
38015SOL    HW119881   9.722   5.326   0.248 -0.2694 -1.4404 -3.1094
38015SOL    HW219882   9.606   5.234   0.217  0.2974 -3.3818  0.1103
38016SOL     OW19883   2.829   2.678   3.618  0.0107  0.1607  0.1180
38016SOL    HW119884   2.754   2.640   3.665 -0.3844 -0.8098 -1.2256
38016SOL    HW219885   2.902   2.620   3.639 -0.4925 -1.1752 -1.5674
38017SOL     OW19886   6.983   8.417   9.199 -0.1807 -0.5334  0.1610
38017SOL    HW119887   6.910   8.462   9.241 -0.0526  0.7122 -0.9009
38017SOL    HW219888   6.950   8.329   9.180 -1.8559  0.3915 -1.4666
38018SOL     OW19889   7.082  10.712   3.889 -0.2797  0.4943 -0.1570
38018SOL    HW119890   7.136  10.758   3.953  1.5027 -0.3386 -0.9872
38018SOL    HW219891   7.122  10.733   3.804 -2.4854  1.4410 -1.0305
38019SOL     OW19892   0.643   1.981  10.230  0.2724 -0.6942  0.2446
38019SOL    HW119893   0.573   1.923  10.259 -0.0775  0.1643  1.1966
38019SOL    HW219894   0.621   2.003  10.139 -1.6569  0.9121  1.0482
38020SOL     OW19895   8.839   7.721   4.642 -0.3126  0.4203  0.3239
38020SOL    HW119896   8.745   7.718   4.626 -0.0212 -2.7377 -1.6007
38020SOL    HW219897   8.849   7.683   4.730 -0.8039 -0.4176  0.0335
38021SOL     OW19898   3.514   7.784   4.324 -0.0404  0.2152  0.3957
38021SOL    HW119899   3.541   7.743   4.241  0.9186  0.6146  0.5055
38021SOL    HW219900   3.575   7.856   4.337 -0.3533  0.3278  1.3218
38022SOL     OW19901   0.695   9.816   5.596  0.3369 -0.9880  0.3564
38022SOL    HW119902   0.683   9.770   5.513  3.0309 -0.9541 -0.1557
38022SOL    HW219903   0.718   9.906   5.570 -0.4788 -0.5227  1.2037
38023SOL     OW19904   6.214   6.590   2.007  0.4706  0.6080 -0.3710
38023SOL    HW119905   6.240   6.632   1.925  2.1706 -0.8247 -0.6215
38023SOL    HW219906   6.231   6.497   1.993  0.3190  0.2702  1.4335
38024SOL     OW19907   5.881   2.977   9.033  0.1547 -0.2866  0.3461
38024SOL    HW119908   5.972   2.947   9.025 -0.7075 -2.9589 -0.6358
38024SOL    HW219909   5.886   3.052   9.092  3.2769  1.2616 -1.5960
38025SOL     OW19910   7.737  10.466   0.480 -0.5636 -0.6686  1.0098
38025SOL    HW119911   7.654  10.468   0.433 -1.3233 -1.6236  2.2513
38025SOL    HW219912   7.741  10.379   0.518  1.1311 -0.7257  0.8043
38026SOL     OW19913   9.445   9.351   3.845  0.1836  0.4981 -0.0104
38026SOL    HW119914   9.350   9.349   3.831 -0.3137  2.4450  2.4510
38026SOL    HW219915   9.478   9.407   3.774 -0.8718  1.8892  0.5553
38027SOL     OW19916   5.239   7.627   7.188  0.1023  0.5592  0.2420
38027SOL    HW119917   5.167   7.662   7.136  0.1231 -0.9490 -0.8554
38027SOL    HW219918   5.289   7.704   7.214 -0.5030  1.4380 -1.0825
38028SOL     OW19919   0.653  10.380   4.606 -0.1597  0.3945  0.3187
38028SOL    HW119920   0.592  10.394   4.534  0.5179 -0.3030 -0.4142
38028SOL    HW219921   0.704  10.461   4.611 -0.5136  0.6185  0.3247
38029SOL     OW19922   7.444   1.422   6.960 -0.5604 -0.3205  0.0047
38029SOL    HW119923   7.502   1.460   7.025 -2.0480  0.6148  0.8301
38029SOL    HW219924   7.487   1.439   6.876  1.5683 -1.8634  0.6845
38030SOL     OW19925  10.496   5.398   2.200 -0.1469  0.3847 -0.1128
38030SOL    HW119926  10.439   5.384   2.124 -1.0030  0.0014  0.5844
38030SOL    HW219927  10.443   5.372   2.275  0.4284  1.4310  0.6859
38031SOL     OW19928   3.481   3.981   1.372 -0.0793 -0.0426  0.0957
38031SOL    HW119929   3.492   4.076   1.368 -0.3413  0.0880  1.7508
38031SOL    HW219930   3.418   3.967   1.442 -0.4477 -1.4259 -0.4862
38032SOL     OW19931   1.240   6.212   5.812  0.2767  0.0811  0.3053
38032SOL    HW119932   1.327   6.212   5.772  0.5196 -1.4041  0.7702
38032SOL    HW219933   1.254   6.237   5.903  0.3949 -1.2234  0.6668
38033SOL     OW19934   9.846   4.618   7.382 -0.1350 -0.0975  0.3302
38033SOL    HW119935   9.895   4.683   7.331 -0.7750 -0.3160 -0.5958
38033SOL    HW219936   9.904   4.597   7.455  0.0974  1.4813  0.6372
38034SOL     OW19937   9.457  10.670   9.159  0.4282 -0.3794  0.1208
38034SOL    HW119938   9.417  10.602   9.106  1.0442 -0.4288 -0.2775
38034SOL    HW219939   9.408  10.750   9.136  3.2169  0.5125 -3.6416
38035SOL     OW19940   2.807   5.502   5.578  0.1906  0.2419  0.3336
38035SOL    HW119941   2.825   5.430   5.517 -0.2532  0.3102  0.1210
38035SOL    HW219942   2.722   5.481   5.615  0.0885  0.6277  0.3168
38036SOL     OW19943   9.906   0.765   3.345 -0.1177 -0.4595 -0.0859
38036SOL    HW119944   9.992   0.729   3.326 -0.5369 -0.5787 -1.9614
38036SOL    HW219945   9.914   0.802   3.433  1.6283 -1.0658  0.0463
38037SOL     OW19946   4.111   1.805   2.883  0.3167  0.0747  0.1326
38037SOL    HW119947   4.138   1.892   2.851 -1.4370  0.6369  0.0960
38037SOL    HW219948   4.128   1.808   2.977  0.2848  0.4499  0.1283
38038SOL     OW19949   1.152   4.869   2.576 -0.5649 -0.4820  0.3568
38038SOL    HW119950   1.209   4.863   2.499  0.0996 -1.2003  0.8915
38038SOL    HW219951   1.201   4.826   2.646 -1.2167  0.0437  1.1590
38039SOL     OW19952   8.738   7.416   8.527 -0.2775  0.9220 -0.6093
38039SOL    HW119953   8.828   7.394   8.504 -0.0183 -1.0548  1.8434
38039SOL    HW219954   8.690   7.334   8.513 -1.6224  1.8200 -1.4262
38040SOL     OW19955   6.856   9.633   6.962  0.2162 -0.3638  0.3129
38040SOL    HW119956   6.921   9.575   6.921  0.0783  0.1416 -0.6630
38040SOL    HW219957   6.797   9.573   7.008  0.5098 -0.9534 -0.0554
38041SOL     OW19958   2.861   0.338  10.653 -0.3396 -0.0709 -0.2423
38041SOL    HW119959   2.918   0.263  10.636  0.7737  0.3437  1.3898
38041SOL    HW219960   2.779   0.317  10.608  0.0288 -2.1389 -0.0641
38042SOL     OW19961   9.347   0.941   9.592 -0.7645  0.3367  0.0578
38042SOL    HW119962   9.330   0.944   9.498 -0.5500  0.9373  0.0330
38042SOL    HW219963   9.319   1.026   9.625  0.3155  0.6029  0.3281
38043SOL     OW19964   7.905   4.800   9.415 -0.3670 -0.5103 -0.4544
38043SOL    HW119965   7.901   4.831   9.325 -0.2339 -1.0909 -0.6655
38043SOL    HW219966   7.943   4.873   9.464 -2.6572  0.7247 -0.4214
38044SOL     OW19967   1.548   3.080   3.917 -0.4834 -0.3930  0.1561
38044SOL    HW119968   1.635   3.056   3.947 -0.3314 -0.4690 -0.3463
38044SOL    HW219969   1.538   3.171   3.943 -0.1123 -0.2754 -0.1023
38045SOL     OW19970   6.252   5.278   1.827  0.3909  0.3163 -0.1359
38045SOL    HW119971   6.281   5.365   1.855 -2.0680  1.1622 -0.0264
38045SOL    HW219972   6.297   5.218   1.886 -0.0040  1.6960  1.6666
38046SOL     OW19973   6.403   5.338   1.419  0.6635  0.0872  0.0487
38046SOL    HW119974   6.337   5.398   1.453  0.1726 -1.2553  1.5736
38046SOL    HW219975   6.353   5.276   1.365  1.3106  1.6450 -2.5095
38047SOL     OW19976   3.694   4.277   9.977  0.6881  0.3448  0.0971
38047SOL    HW119977   3.682   4.369  10.000 -0.1775  0.5009 -0.9010
38047SOL    HW219978   3.657   4.229  10.051 -0.1595  0.8245  0.0062
38048SOL     OW19979   9.481   8.652   9.633  0.1429  0.1276 -0.2781
38048SOL    HW119980   9.395   8.675   9.599 -0.0262  0.7574  0.5527
38048SOL    HW219981   9.479   8.681   9.724  0.6906 -1.2364  0.1917
38049SOL     OW19982   4.781   5.862  10.592  0.1755  0.0850 -0.2567
38049SOL    HW119983   4.728   5.928  10.636  0.1171 -0.0669 -0.0974
38049SOL    HW219984   4.867   5.902  10.583  0.2591  0.0199  0.2312
38050SOL     OW19985   8.380  10.691   8.350 -0.5302 -0.5040 -0.0408
38050SOL    HW119986   8.427  10.774   8.356 -0.1043 -0.7756  0.4762
38050SOL    HW219987   8.357  10.682   8.258  0.4084 -0.3552 -0.2919
38051SOL     OW19988   0.638   6.602   2.981  0.5569 -0.7420 -0.0934
38051SOL    HW119989   0.641   6.508   2.998 -0.1910 -0.5522  1.2288
38051SOL    HW219990   0.564   6.614   2.922 -1.9770 -0.6414  2.8282
38052SOL     OW19991   7.461   3.440   8.865  0.5354  0.8656  0.6437
38052SOL    HW119992   7.435   3.430   8.774 -3.8205  0.1684  1.7509
38052SOL    HW219993   7.498   3.355   8.889  1.9926  1.1438 -0.4286
38053SOL     OW19994   1.522   3.997   8.346  0.2617 -0.3311 -0.2875
38053SOL    HW119995   1.574   4.019   8.423 -1.1214  1.0760  0.2931
38053SOL    HW219996   1.433   4.027   8.367 -0.2049 -0.1203 -2.3165
38054SOL     OW19997   8.908   9.542   4.052  0.0551 -0.1595 -0.3173
38054SOL    HW119998   8.828   9.490   4.043 -1.7025  1.7085  2.6292
38054SOL    HW219999   8.969   9.484   4.099 -1.6614  0.0673  2.4096
38055SOL     OW20000   4.593   8.727   0.371  0.5225 -0.7741  0.1072
38055SOL    HW120001   4.648   8.668   0.421 -0.7118 -1.4268  0.7326
38055SOL    HW220002   4.510   8.730   0.419  0.4960  1.3843  0.0388
38056SOL     OW20003  10.190   6.140   6.594 -0.2670  0.3266  0.4423
38056SOL    HW120004  10.280   6.171   6.594 -0.2195  0.1887  0.1728
38056SOL    HW220005  10.196   6.047   6.616 -0.4241  0.5467  1.4724
38057SOL     OW20006   5.706   1.619  10.584 -0.4819  0.4304 -0.2128
38057SOL    HW120007   5.762   1.618  10.506  0.4694  0.1702  0.4589
38057SOL    HW220008   5.642   1.688  10.566 -0.2095  0.4476 -1.1785
38058SOL     OW20009   4.982   0.391   3.257  0.1823  0.0759 -0.1205
38058SOL    HW120010   4.902   0.358   3.215  0.4051  0.2665 -0.7018
38058SOL    HW220011   5.005   0.468   3.206  1.4238 -0.6662 -0.7192
38059SOL     OW20012   0.739  10.311   4.231 -0.2160 -0.3251  0.0189
38059SOL    HW120013   0.687  10.262   4.168 -0.8143 -0.6011  0.7162
38059SOL    HW220014   0.674  10.352   4.289  0.3039  0.4610  0.0635
38060SOL     OW20015   6.070   4.748   5.907 -0.0292  0.1851  0.3935
38060SOL    HW120016   5.988   4.729   5.952 -0.6305  1.0256 -0.3178
38060SOL    HW220017   6.136   4.752   5.976 -0.5259 -0.7942  0.9375
38061SOL     OW20018   0.325   0.370   2.667  0.1533  0.5822  0.0570
38061SOL    HW120019   0.288   0.385   2.754 -0.9067 -1.0968 -0.0432
38061SOL    HW220020   0.378   0.291   2.677 -2.0014 -1.1689 -1.2670
38062SOL     OW20021   6.638   9.889   0.808  0.6625 -0.7298 -0.2994
38062SOL    HW120022   6.709   9.840   0.849 -0.5422 -1.8434  0.5380
38062SOL    HW220023   6.622   9.963   0.867 -0.6437 -1.9784  0.9747
38063SOL     OW20024   9.427  10.014   3.166  0.1408 -0.4193 -0.0882
38063SOL    HW120025   9.402   9.987   3.254  2.2416  0.1983  0.7769
38063SOL    HW220026   9.445  10.108   3.173 -2.2415  0.2770 -1.8624
38064SOL     OW20027  10.432   7.324  10.263  0.0720  0.2713  0.1106
38064SOL    HW120028  10.372   7.386  10.306 -1.0955 -1.4086  1.0358
38064SOL    HW220029  10.402   7.321  10.172  0.0634  0.9620  0.0848
38065SOL     OW20030   8.612   2.953   2.432  0.2132  0.0089 -0.5382
38065SOL    HW120031   8.648   2.867   2.454  3.2233  0.3944 -3.2428
38065SOL    HW220032   8.589   2.947   2.339  1.6522  2.3891 -1.1423
38066SOL     OW20033   3.651   5.111   4.522 -0.2637 -0.7024 -0.3414
38066SOL    HW120034   3.609   5.033   4.484  0.0397 -0.1130 -1.9864
38066SOL    HW220035   3.607   5.185   4.479 -2.2527  0.2347  2.9233
38067SOL     OW20036   6.367   2.160   8.724  0.1847  0.1034 -0.3513
38067SOL    HW120037   6.439   2.108   8.686  0.0944 -1.4589  1.4505
38067SOL    HW220038   6.290   2.133   8.675  0.1077 -1.7242  0.6655
38068SOL     OW20039   6.749   5.873   7.343 -0.3852 -0.5416 -0.4407
38068SOL    HW120040   6.677   5.830   7.297 -1.6238  0.4033  0.5334
38068SOL    HW220041   6.712   5.956   7.373  1.2712  0.1996 -0.3293
38069SOL     OW20042   9.281   2.335   5.145  0.2040  0.3043  0.3713
38069SOL    HW120043   9.225   2.381   5.083 -1.4723 -1.2706  0.6271
38069SOL    HW220044   9.296   2.399   5.215 -0.1540  1.1862 -0.3281
38070SOL     OW20045   0.543   0.278   3.353 -0.6439 -0.2387 -0.3816
38070SOL    HW120046   0.477   0.300   3.419  1.5793 -1.0494  2.3253
38070SOL    HW220047   0.498   0.217   3.294 -2.4936 -0.2738  0.9630
38071SOL     OW20048  10.325   2.159   7.816  0.4025 -0.0156  0.4745
38071SOL    HW120049  10.328   2.083   7.756  1.9674 -0.5337  1.1585
38071SOL    HW220050  10.322   2.120   7.903  1.5367  0.6952  0.8470
38072SOL     OW20051   2.269   6.763   7.742  0.3584 -0.7247 -0.5078
38072SOL    HW120052   2.359   6.787   7.719  0.5370 -0.9288 -0.0103
38072SOL    HW220053   2.228   6.742   7.658  0.5053  0.2806 -0.8411
38073SOL     OW20054   3.119   1.271   1.341  0.2927  0.1093 -0.4099
38073SOL    HW120055   3.076   1.205   1.286  0.5143  1.2773 -2.0911
38073SOL    HW220056   3.048   1.331   1.365  0.4402  0.3581 -0.5929
38074SOL     OW20057   4.726   6.898   9.216  0.1666 -0.0453 -0.1687
38074SOL    HW120058   4.745   6.806   9.203  1.6563  0.5221 -2.5778
38074SOL    HW220059   4.745   6.914   9.309  1.0475 -1.8630 -0.0043
38075SOL     OW20060  10.002   3.385   9.434 -0.5717  0.5455  0.2131
38075SOL    HW120061  10.090   3.358   9.461 -0.5918  0.9839  0.7243
38075SOL    HW220062  10.010   3.404   9.341 -0.4177 -0.6359 -0.0354
38076SOL     OW20063  10.058   3.144   6.361  0.5714  0.2802 -0.2777
38076SOL    HW120064  10.112   3.082   6.313 -2.6741 -1.4273 -2.0660
38076SOL    HW220065  10.076   3.126   6.453  0.7128 -2.4782 -0.7740
38077SOL     OW20066   0.376  10.165   3.150  0.1276 -0.3502  0.3457
38077SOL    HW120067   0.342  10.190   3.236 -1.3649 -1.4237  0.1123
38077SOL    HW220068   0.453  10.220   3.138 -0.8950  1.4367  1.4076
38078SOL     OW20069   4.376   3.902   7.808  0.2112 -0.5593  0.0318
38078SOL    HW120070   4.313   3.940   7.747 -0.7794 -1.5242  0.4266
38078SOL    HW220071   4.326   3.887   7.888  1.0427 -0.9958  0.4824
38079SOL     OW20072   8.417   2.321   3.067  0.3321 -0.2764  0.3394
38079SOL    HW120073   8.331   2.364   3.062 -0.1868 -1.4176 -1.7902
38079SOL    HW220074   8.479   2.393   3.079 -0.6107  0.9879 -1.7627
38080SOL     OW20075   7.034   6.336   5.595 -0.3149 -0.0982  0.3857
38080SOL    HW120076   6.985   6.405   5.638 -0.3564 -0.9033  1.6883
38080SOL    HW220077   7.011   6.344   5.503 -1.8603  0.3776  0.7837
38081SOL     OW20078   3.629   8.146   8.667 -0.2509 -0.5562 -0.7043
38081SOL    HW120079   3.673   8.063   8.688 -1.0522 -0.4964  1.4703
38081SOL    HW220080   3.701   8.209   8.657  0.2959 -1.0645 -0.1055
38082SOL     OW20081   5.118   4.981   5.830 -0.8980  0.0699 -0.0056
38082SOL    HW120082   5.178   4.942   5.766  1.8782  2.9676  0.6214
38082SOL    HW220083   5.054   5.028   5.777 -0.3477  0.0881 -0.6639
38083SOL     OW20084   3.420   7.633   5.039  0.1737  0.5423 -0.3551
38083SOL    HW120085   3.403   7.661   4.949 -2.4935  2.1547  0.5081
38083SOL    HW220086   3.335   7.600   5.070  0.4486  1.8680  2.1091
38084SOL     OW20087   8.511   0.541   4.954  0.9500  0.0066  0.2413
38084SOL    HW120088   8.507   0.578   4.865  0.8748 -0.1705  0.1707
38084SOL    HW220089   8.420   0.534   4.981  0.9591 -0.2452  0.2056
38085SOL     OW20090   9.147   6.525   9.606  0.6673 -0.1506  0.1834
38085SOL    HW120091   9.077   6.517   9.671  0.4890  0.3360  0.0557
38085SOL    HW220092   9.125   6.462   9.538  0.3213  0.0419  0.1163
38086SOL     OW20093   0.951   7.962   1.509 -0.0276  0.0136 -0.0310
38086SOL    HW120094   1.023   7.986   1.452 -0.2193  1.3868  0.2654
38086SOL    HW220095   0.991   7.950   1.595 -0.1520  0.8824  0.1565
38087SOL     OW20096   7.299   5.576  10.421 -0.2708  0.2676  0.3679
38087SOL    HW120097   7.283   5.548  10.511  0.3854  1.5286  0.9037
38087SOL    HW220098   7.265   5.665  10.418 -0.9448 -0.0038 -0.8571
38088SOL     OW20099   7.387   3.536   1.476  0.1405 -0.2965 -0.4708
38088SOL    HW120100   7.363   3.464   1.417 -2.4892  0.7009 -0.7150
38088SOL    HW220101   7.447   3.590   1.424 -0.6398 -0.4485 -1.5607
38089SOL     OW20102   3.061   3.118   7.517 -0.4455  0.1946  0.1743
38089SOL    HW120103   3.139   3.150   7.471  0.4517 -0.9021  0.8656
38089SOL    HW220104   3.074   3.023   7.523 -0.0599  0.3461  3.4241
38090SOL     OW20105   9.721   9.161   7.847  0.3680  0.3399  0.3344
38090SOL    HW120106   9.714   9.082   7.902 -3.4600  1.1796  1.4130
38090SOL    HW220107   9.721   9.233   7.909 -2.0069  1.2629 -0.6141
38091SOL     OW20108   8.651   1.616   3.806 -0.3797 -0.3472 -0.1305
38091SOL    HW120109   8.597   1.579   3.875  1.5201 -0.6665  1.2894
38091SOL    HW220110   8.700   1.687   3.849  2.0385 -1.5863 -0.6367
38092SOL     OW20111   7.990   3.956   1.955  0.3381  0.5684  0.1233
38092SOL    HW120112   8.065   3.907   1.989  1.9571  2.5814 -0.3332
38092SOL    HW220113   8.010   4.048   1.977 -0.8699  1.4053 -2.0289
38093SOL     OW20114   1.487   8.514   0.587  0.1505  0.6313 -1.2724
38093SOL    HW120115   1.460   8.504   0.678 -0.5023  0.4107 -1.4787
38093SOL    HW220116   1.581   8.498   0.587 -0.0286 -0.5124 -0.8114
38094SOL     OW20117   0.832   3.613   6.809  0.0897 -0.5287 -0.2671
38094SOL    HW120118   0.876   3.675   6.867 -2.7485  1.3578  0.0036
38094SOL    HW220119   0.775   3.562   6.866 -0.4585 -0.7740 -1.0160
38095SOL     OW20120   8.632   1.322   1.660 -0.4289 -0.4213 -0.5381
38095SOL    HW120121   8.705   1.317   1.599  1.3400 -0.6808  1.4942
38095SOL    HW220122   8.634   1.412   1.693  0.1934 -0.9216  0.8837
38096SOL     OW20123   8.904   4.721   6.920 -0.1367 -0.3616  0.4666
38096SOL    HW120124   8.817   4.760   6.906 -0.3827 -1.3135 -0.8503
38096SOL    HW220125   8.929   4.686   6.834  2.3245  1.3540  0.3798
38097SOL     OW20126   2.636   8.565   1.764 -0.2016  0.1120 -0.1646
38097SOL    HW120127   2.720   8.519   1.755 -0.9886 -1.5154  0.4010
38097SOL    HW220128   2.571   8.502   1.732 -1.2179  1.3980 -0.7258
38098SOL     OW20129   6.847   1.887   9.532 -0.5131 -0.4957 -0.3157
38098SOL    HW120130   6.862   1.965   9.478  0.6177 -0.7824 -0.4422
38098SOL    HW220131   6.918   1.888   9.596 -1.0552 -0.8996  0.2980
38099SOL     OW20132   4.836   2.421   2.365  0.0747 -0.4044 -0.2082
38099SOL    HW120133   4.789   2.457   2.289  0.9194 -0.1671 -0.6345
38099SOL    HW220134   4.912   2.478   2.375 -1.3125  1.1581  2.4277
38100SOL     OW20135   4.713   0.422  10.663 -0.3901  0.5285  0.2886
38100SOL    HW120136   4.654   0.440  10.590 -1.1581  0.3504  0.8600
38100SOL    HW220137   4.693   0.332  10.688 -0.0169  0.5364  0.6225
38101SOL     OW20138   8.784   1.271   5.240  0.0856  0.0037  0.2373
38101SOL    HW120139   8.750   1.360   5.231  0.1769  0.2978  2.2383
38101SOL    HW220140   8.766   1.248   5.332  3.0432 -0.7633  0.7118
38102SOL     OW20141   8.182   4.818   4.353  0.8561 -0.1624  0.5347
38102SOL    HW120142   8.230   4.878   4.296  2.1947 -2.2571 -0.6807
38102SOL    HW220143   8.250   4.773   4.403  0.0673 -1.8480  0.1702
38103SOL     OW20144   6.232   9.897   6.906  0.3564  0.0065  0.3055
38103SOL    HW120145   6.219   9.886   6.812  2.1811  0.7211 -0.0801
38103SOL    HW220146   6.208   9.812   6.944 -2.5972  0.3788 -0.4704
38104SOL     OW20147   1.718   8.794   6.429 -0.5806 -0.2197 -0.1114
38104SOL    HW120148   1.761   8.734   6.369 -0.9312 -2.4830  1.7736
38104SOL    HW220149   1.697   8.870   6.375 -2.0527 -2.6036 -3.2385
38105SOL     OW20150   5.415   2.702  10.372  0.0804  0.2501  0.5046
38105SOL    HW120151   5.509   2.690  10.361  0.1023  0.7782  0.0395
38105SOL    HW220152   5.375   2.621  10.341  0.2820  0.7787 -1.2581
38106SOL     OW20153   8.477   2.125   8.503  0.5201  0.3617 -0.3264
38106SOL    HW120154   8.447   2.137   8.594 -0.3397  1.3502 -0.7224
38106SOL    HW220155   8.555   2.071   8.511 -0.3660 -0.8162  0.8940
38107SOL     OW20156   9.119   8.972  10.709 -0.3311 -1.0275  0.2288
38107SOL    HW120157   9.047   9.001  10.652  0.0669  0.0462  0.2560
38107SOL    HW220158   9.075   8.938  10.787 -0.9062  3.5221  2.2102
38108SOL     OW20159   8.360  10.509   1.696  0.3524  0.2259  0.4417
38108SOL    HW120160   8.440  10.533   1.649 -0.1519  0.8803 -0.0939
38108SOL    HW220161   8.330  10.591   1.737 -1.2541  0.5277 -1.2023
38109SOL     OW20162   4.746   9.746   3.897 -0.3918 -0.9982 -0.0849
38109SOL    HW120163   4.754   9.651   3.901 -2.0186 -1.1233  0.9803
38109SOL    HW220164   4.736   9.765   3.804  2.9108 -1.5386 -0.6451
38110SOL     OW20165   0.897   2.430  10.307  0.2653 -0.1236 -0.0824
38110SOL    HW120166   0.876   2.474  10.390  1.2631 -1.8267  1.1353
38110SOL    HW220167   0.812   2.404  10.271 -0.1909  0.7906  0.3113
38111SOL     OW20168   3.034   4.121   6.496  0.1436  0.7027 -0.0515
38111SOL    HW120169   2.997   4.033   6.485 -0.5262  0.7597  1.4741
38111SOL    HW220170   3.018   4.164   6.412 -0.2101 -0.3791 -0.5681
38112SOL     OW20171   4.273   9.072   8.779  0.5098 -0.3309  0.2567
38112SOL    HW120172   4.192   9.082   8.728  0.0924 -1.1295  0.7260
38112SOL    HW220173   4.292   9.159   8.811 -0.5198 -0.2299  0.6400
38113SOL     OW20174   1.966   8.388  10.533 -0.5667 -0.0081  0.0982
38113SOL    HW120175   2.014   8.449  10.589 -0.8770 -0.7746  1.2431
38113SOL    HW220176   1.914   8.336  10.595 -2.1558  0.1857 -1.0295
38114SOL     OW20177   1.931   1.743   8.363  0.5691  0.3406 -0.4778
38114SOL    HW120178   1.946   1.762   8.455  0.1965 -0.9762 -0.1188
38114SOL    HW220179   2.011   1.770   8.319  1.6313 -0.9834  0.5466
38115SOL     OW20180   8.232   8.942   8.138  0.2420 -0.3204 -0.2674
38115SOL    HW120181   8.250   8.981   8.223  0.4779 -2.8088  0.9059
38115SOL    HW220182   8.144   8.973   8.116 -1.1438 -2.0083  2.4031
38116SOL     OW20183   1.241   2.454   8.476  0.2846 -0.0882  0.0087
38116SOL    HW120184   1.324   2.411   8.457  0.4066  0.6142 -1.1601
38116SOL    HW220185   1.262   2.518   8.544  1.0697  1.1359 -1.3248
38117SOL     OW20186   5.283   3.272   4.658 -0.0669 -0.0954  0.1822
38117SOL    HW120187   5.320   3.194   4.699  2.5174  0.1147 -1.5247
38117SOL    HW220188   5.278   3.250   4.565  0.6997  1.7205 -0.3262
38118SOL     OW20189   9.415   2.752   9.717 -0.1001 -0.3632 -0.5457
38118SOL    HW120190   9.331   2.757   9.762  0.4081  2.7914  0.2737
38118SOL    HW220191   9.421   2.834   9.668  1.7374 -1.3276 -2.0787
38119SOL     OW20192   4.106   3.587   2.535 -0.5002 -0.3718  0.6033
38119SOL    HW120193   4.141   3.556   2.452  0.6999 -1.5966  1.5172
38119SOL    HW220194   4.033   3.644   2.511  0.0067 -0.4591 -1.2765
38120SOL     OW20195   7.143   2.653   9.624  0.2439  0.1892  0.5127
38120SOL    HW120196   7.080   2.656   9.697  1.0170  1.5784  1.1727
38120SOL    HW220197   7.211   2.592   9.654 -0.5065 -0.9474 -0.0048
38121SOL     OW20198   1.438   7.427   0.820 -0.2306 -0.1294 -0.2276
38121SOL    HW120199   1.350   7.433   0.785 -0.7020 -2.1283  0.5149
38121SOL    HW220200   1.465   7.337   0.803  0.8697 -0.1498  1.3646
38122SOL     OW20201   5.110   5.727   7.408  0.5190 -0.1163  0.8831
38122SOL    HW120202   5.113   5.793   7.478 -1.9327  1.4129 -0.3049
38122SOL    HW220203   5.161   5.765   7.336 -2.3605  1.4836 -0.4628
38123SOL     OW20204   6.139   6.666   6.576  0.0268 -0.1464  0.1295
38123SOL    HW120205   6.210   6.616   6.615 -0.3736  0.3248  1.5305
38123SOL    HW220206   6.164   6.676   6.484  1.1536 -1.0451  0.3177
38124SOL     OW20207   2.534  10.611   6.789  0.2625  0.1751 -0.0565
38124SOL    HW120208   2.470  10.550   6.826  0.2567 -0.0294 -0.3933
38124SOL    HW220209   2.483  10.664   6.728  0.4170 -0.0107 -0.3508
38125SOL     OW20210   5.119   1.962   2.197  0.4474 -0.2296  0.1711
38125SOL    HW120211   5.120   1.897   2.126 -2.2739  0.4685 -0.6156
38125SOL    HW220212   5.165   2.038   2.160 -1.1146  0.2010 -1.0057
38126SOL     OW20213   9.371   3.740   3.485 -0.4097 -0.1220 -0.0493
38126SOL    HW120214   9.311   3.677   3.445 -1.4882 -0.1534  1.5389
38126SOL    HW220215   9.381   3.711   3.575 -0.6138  1.7526  0.6267
38127SOL     OW20216   6.976   0.421   4.865 -0.2104 -0.0383  0.0673
38127SOL    HW120217   6.906   0.380   4.916  0.2385  1.0912  1.6564
38127SOL    HW220218   7.056   0.377   4.895 -0.1130 -0.6779 -1.0698
38128SOL     OW20219   7.207   6.058   2.969  0.0068  0.6211 -0.3330
38128SOL    HW120220   7.302   6.061   2.959  0.1814 -1.3237  0.2818
38128SOL    HW220221   7.180   6.150   2.975  1.9792  1.1744  0.7100
38129SOL     OW20222   8.836   7.554   0.323 -0.4038 -0.0805 -0.1867
38129SOL    HW120223   8.855   7.632   0.270  3.0254 -0.3170  0.4683
38129SOL    HW220224   8.812   7.487   0.259  2.4150 -0.0136 -1.4812
38130SOL     OW20225   7.086   0.547   1.967  0.2219  0.1779  0.6777
38130SOL    HW120226   7.008   0.543   1.911  0.0778 -0.4773  0.9184
38130SOL    HW220227   7.051   0.567   2.054  0.5134  2.0716  0.4071
38131SOL     OW20228   7.041   4.890   0.181 -0.1463  0.4927 -0.3602
38131SOL    HW120229   7.036   4.800   0.148  1.8493  0.1095  0.2613
38131SOL    HW220230   6.967   4.935   0.140 -0.9835 -1.3380 -0.9511
38132SOL     OW20231   2.361   6.692   4.873 -0.2421  0.1742  0.4808
38132SOL    HW120232   2.398   6.679   4.785  0.1011  0.7908  0.5322
38132SOL    HW220233   2.317   6.609   4.892 -1.7543  0.5858 -0.9660
38133SOL     OW20234   5.489   6.563   3.624  0.6829  0.0218  0.1916
38133SOL    HW120235   5.480   6.557   3.719 -0.6259  0.1875  0.0901
38133SOL    HW220236   5.487   6.656   3.605  2.9224  0.1176  0.1429
38134SOL     OW20237   2.548   2.564   5.125  0.3614 -0.0911  0.0657
38134SOL    HW120238   2.560   2.519   5.208  0.3779 -0.6951 -0.2603
38134SOL    HW220239   2.555   2.657   5.147 -0.1335 -0.2260  0.8166
38135SOL     OW20240   3.578   3.286   7.339  0.8063 -0.0252 -0.1653
38135SOL    HW120241   3.659   3.299   7.388 -0.0549  1.3597  0.9919
38135SOL    HW220242   3.577   3.357   7.275 -0.3396  1.1901  1.1104
38136SOL     OW20243   6.003  10.242   2.323 -0.3504 -0.6213 -0.3310
38136SOL    HW120244   6.060  10.229   2.248 -0.1826 -0.0466 -0.3070
38136SOL    HW220245   5.984  10.154   2.354 -0.2335 -0.8537 -0.9047
38137SOL     OW20246   2.925   4.292  10.242  0.3554  0.3669  0.3650
38137SOL    HW120247   2.908   4.242  10.321  0.0544 -1.4312 -0.7772
38137SOL    HW220248   3.003   4.252  10.204 -0.8550 -0.4532 -1.4496
38138SOL     OW20249   6.330   1.968   0.727  0.5749 -0.0667 -0.6227
38138SOL    HW120250   6.289   2.010   0.802  0.1806  1.7047 -1.7635
38138SOL    HW220251   6.289   1.882   0.722  0.1704  0.0217  0.7974
38139SOL     OW20252   4.632   8.882   5.298  0.6784  0.0326 -0.0385
38139SOL    HW120253   4.685   8.853   5.372  0.1736 -2.3310 -0.4952
38139SOL    HW220254   4.683   8.858   5.221 -0.4383 -1.0772 -0.4644
38140SOL     OW20255   2.202   4.611   8.424  0.1924  0.2799  0.4570
38140SOL    HW120256   2.183   4.525   8.461 -0.1429 -0.4341 -1.2999
38140SOL    HW220257   2.256   4.594   8.347 -0.1822  1.6089 -0.1398
38141SOL     OW20258   1.658   1.738  10.655  0.4065 -0.1375  0.3573
38141SOL    HW120259   1.575   1.697  10.632 -0.8577  0.5171  3.2121
38141SOL    HW220260   1.654   1.825  10.614 -0.2083 -0.1966  0.2866
38142SOL     OW20261   2.941   9.983   6.321 -0.4464 -0.4825 -0.1366
38142SOL    HW120262   2.858   9.977   6.368 -1.6916  0.7974 -2.0053
38142SOL    HW220263   2.917   9.975   6.229  1.4848  0.1262 -0.7417
38143SOL     OW20264   5.399   4.045   7.308 -0.1171  0.1138  0.0237
38143SOL    HW120265   5.436   3.968   7.351 -0.5872 -0.9410 -1.3912
38143SOL    HW220266   5.356   4.094   7.379  0.5462 -0.6967  1.0045
38144SOL     OW20267   7.363   2.798   8.871  0.3461 -0.2880  0.0571
38144SOL    HW120268   7.403   2.716   8.900  0.4547 -0.3308 -0.2142
38144SOL    HW220269   7.310   2.826   8.946 -0.4953 -1.1152 -0.2020
38145SOL     OW20270   2.085   0.067   0.553 -0.3155  0.0440  0.3395
38145SOL    HW120271   2.029   0.028   0.486  0.5223 -0.1964 -0.2299
38145SOL    HW220272   2.065   0.161   0.549  1.1160  0.3303 -1.6321
38146SOL     OW20273   9.331   9.006   0.980 -0.5381 -0.9161 -0.1007
38146SOL    HW120274   9.248   8.990   1.026 -0.0654 -0.4491  0.9584
38146SOL    HW220275   9.376   8.922   0.983 -0.4393 -0.8503  0.4651
38147SOL     OW20276   7.296   7.008   8.392 -0.4855  0.2365 -0.0367
38147SOL    HW120277   7.229   6.977   8.332  0.3518 -1.2597 -0.2569
38147SOL    HW220278   7.251   7.019   8.476 -1.5151  1.6991 -0.7215
38148SOL     OW20279   2.243   6.239  10.292 -0.3674 -0.8136 -0.1084
38148SOL    HW120280   2.231   6.201  10.379 -1.7613  2.2515  1.1782
38148SOL    HW220281   2.241   6.334  10.306 -0.7323 -0.1722 -3.4972
38149SOL     OW20282   8.615   2.288   2.129 -0.4204 -0.6033 -0.6813
38149SOL    HW120283   8.703   2.319   2.110  0.1972 -0.1882  2.2483
38149SOL    HW220284   8.621   2.193   2.123 -0.0725 -0.5275 -1.5560
38150SOL     OW20285   1.845   7.043   1.325  0.0382  0.8325  1.1720
38150SOL    HW120286   1.896   6.970   1.289  1.5090  2.6486 -0.6566
38150SOL    HW220287   1.786   7.002   1.388 -1.6989 -2.4661 -2.2053
38151SOL     OW20288   1.594   1.437   7.135  0.2930 -0.1314 -0.4544
38151SOL    HW120289   1.502   1.412   7.145  0.0234  0.9091 -0.2312
38151SOL    HW220290   1.596   1.494   7.058  0.7612 -0.1776 -0.4801
38152SOL     OW20291   9.038   7.325   1.860  0.4409  0.3561  0.4236
38152SOL    HW120292   8.954   7.302   1.899  0.0234  0.0165 -0.6415
38152SOL    HW220293   9.016   7.356   1.772  1.4238  0.2853  0.1409
38153SOL     OW20294   5.578   7.070   1.392  0.0970 -0.5263 -0.7675
38153SOL    HW120295   5.556   7.158   1.422 -1.0093 -1.6082  1.9676
38153SOL    HW220296   5.671   7.074   1.372  0.3065  1.0333  0.3407
38154SOL     OW20297   6.366  10.677   6.155 -0.1327  0.1930 -0.7438
38154SOL    HW120298   6.346  10.618   6.082  2.3323 -1.2749 -0.3591
38154SOL    HW220299   6.409  10.620   6.220 -1.9198  1.5032  1.7608
38155SOL     OW20300   6.178   0.666   7.957  0.8319 -0.1215  0.0584
38155SOL    HW120301   6.175   0.571   7.946 -1.8232  0.0678 -1.7667
38155SOL    HW220302   6.096   0.688   8.000  0.2684  1.5461 -1.7545
38156SOL     OW20303   5.580  10.349   9.747 -0.2383  0.2967 -0.1094
38156SOL    HW120304   5.569  10.365   9.841 -1.6526 -0.2923 -0.1466
38156SOL    HW220305   5.543  10.262   9.734 -0.0452  0.3761 -1.2137
38157SOL     OW20306   4.585   7.255   8.952  0.3359  0.0707  0.3404
38157SOL    HW120307   4.629   7.242   9.036  1.3058  1.1558  0.0321
38157SOL    HW220308   4.522   7.324   8.968 -1.9140 -1.9822  0.9700
38158SOL     OW20309   1.100   0.995   3.073 -0.8905 -0.0697  0.2473
38158SOL    HW120310   1.099   0.899   3.076 -2.6313 -0.0772  0.3249
38158SOL    HW220311   1.064   1.016   2.987  3.4941  0.5656 -1.7338
38159SOL     OW20312   3.977   5.011   7.516 -0.2239 -0.4103 -0.2587
38159SOL    HW120313   3.945   5.076   7.452 -0.4256 -2.1010 -1.9704
38159SOL    HW220314   3.934   5.036   7.598 -2.5660 -0.0221 -1.5020
38160SOL     OW20315   3.194   3.760   0.893 -0.3872 -0.5371 -0.0681
38160SOL    HW120316   3.195   3.754   0.988 -1.6887 -0.8335 -0.0562
38160SOL    HW220317   3.279   3.726   0.866  0.7762  1.3244  1.0596
38161SOL     OW20318   6.035   9.419   6.851 -0.3223 -0.1066  0.2141
38161SOL    HW120319   6.048   9.361   6.926 -0.7304 -0.7326 -0.1851
38161SOL    HW220320   5.964   9.378   6.801 -3.0533  2.4361  1.6592
38162SOL     OW20321   0.569   2.163  10.409  0.3806  0.4108  0.6024
38162SOL    HW120322   0.578   2.111  10.329 -0.6957 -1.5296  1.6595
38162SOL    HW220323   0.608   2.108  10.477 -2.5706 -0.0068  2.1147
38163SOL     OW20324   4.091  10.598   5.973 -0.1394  0.2384  0.3109
38163SOL    HW120325   4.005  10.618   5.935 -0.2877 -0.1377  0.4502
38163SOL    HW220326   4.153  10.637   5.911 -0.4246  1.0762  0.5448
38164SOL     OW20327   6.008   4.510   0.263  0.3140  0.5605 -0.0946
38164SOL    HW120328   6.028   4.452   0.189  1.1601  1.2127 -0.3944
38164SOL    HW220329   5.914   4.500   0.278  0.2365  0.0254 -0.9132
38165SOL     OW20330   7.583   2.555   9.911 -0.9381  0.5259  0.1166
38165SOL    HW120331   7.632   2.478   9.938 -1.5510  0.0129 -0.1967
38165SOL    HW220332   7.628   2.629   9.952  0.5081  0.1410 -0.7183
38166SOL     OW20333   3.820   2.033   6.392 -0.1205  0.0198 -0.1093
38166SOL    HW120334   3.893   2.078   6.349  0.0839 -0.8125 -0.6719
38166SOL    HW220335   3.791   1.968   6.327 -2.5092  1.4607 -0.5961
38167SOL     OW20336   5.567   8.036   5.910 -0.1502 -0.0686  0.4803
38167SOL    HW120337   5.626   8.108   5.935  2.1249 -1.0649 -1.6528
38167SOL    HW220338   5.559   8.043   5.815 -1.0168 -1.8104  0.3850
38168SOL     OW20339   1.638   9.115   4.198  0.1744  0.0249 -0.5084
38168SOL    HW120340   1.704   9.111   4.268  0.3556 -0.6938 -0.7131
38168SOL    HW220341   1.600   9.202   4.207 -0.4215 -0.3562  1.0504
38169SOL     OW20342   3.856   0.963   0.016  0.3492 -0.2930  0.1225
38169SOL    HW120343   3.906   1.021  -0.041  1.3418  0.0130  1.2658
38169SOL    HW220344   3.794   0.919  -0.043  2.2412 -1.0210 -1.4487
38170SOL     OW20345   4.241   3.815   2.918 -0.1924  0.2261  0.4196
38170SOL    HW120346   4.210   3.733   2.880  0.2268  0.2563 -0.0032
38170SOL    HW220347   4.321   3.835   2.869  0.1155  0.4994  1.0265
38171SOL     OW20348   0.664   1.566   0.910 -0.1257  0.0843  0.1910
38171SOL    HW120349   0.615   1.639   0.873  0.9823  1.5460  1.4886
38171SOL    HW220350   0.600   1.495   0.918 -1.7292  1.5295  0.7143
38172SOL     OW20351   9.399  10.530   3.643  0.6001 -0.3814 -0.0018
38172SOL    HW120352   9.373  10.446   3.607 -0.0541  0.1046 -0.6904
38172SOL    HW220353   9.427  10.510   3.732  0.2928 -1.2999 -0.0990
38173SOL     OW20354   5.069   7.416   0.511  0.0750  0.2232 -0.1444
38173SOL    HW120355   5.077   7.321   0.503 -2.7959 -0.2467  1.4620
38173SOL    HW220356   5.036   7.445   0.426 -1.1853 -0.5568  0.0566
38174SOL     OW20357   5.067   0.793   2.008  0.5430  0.0189  0.0521
38174SOL    HW120358   5.002   0.758   2.070  1.4682 -0.1040  0.9984
38174SOL    HW220359   5.020   0.859   1.958  0.3841  2.1354  2.7644
38175SOL     OW20360   8.434   4.358   9.505  0.4507  0.3968  0.1739
38175SOL    HW120361   8.370   4.355   9.434 -1.6307 -0.4583  1.9684
38175SOL    HW220362   8.421   4.443   9.546 -2.2384 -1.0751  2.7405
38176SOL     OW20363   8.634   1.553   7.983  0.3860  0.0539  0.2517
38176SOL    HW120364   8.543   1.523   7.991  0.6961 -0.7637  0.9818
38176SOL    HW220365   8.633   1.617   7.912 -0.6614 -0.3625 -0.1246
38177SOL     OW20366   9.469   3.457   8.855 -0.4192  0.1182 -0.9674
38177SOL    HW120367   9.422   3.416   8.782 -1.8835 -0.7427  0.3879
38177SOL    HW220368   9.405   3.516   8.895 -0.3864 -1.0527  0.9110
38178SOL     OW20369   1.073   0.415  10.611 -0.3422 -0.6714 -0.4481
38178SOL    HW120370   0.989   0.377  10.586 -0.2562 -1.8354  0.9063
38178SOL    HW220371   1.057   0.456  10.696 -0.0365  0.9959 -1.1566
38179SOL     OW20372   0.204   7.123   3.067  0.3881 -0.1572  0.1781
38179SOL    HW120373   0.287   7.133   3.114  1.4712 -0.5845 -1.5441
38179SOL    HW220374   0.213   7.180   2.991 -1.3555  0.5991  0.4911
38180SOL     OW20375   2.920   4.924   2.109 -0.1397  0.2302 -0.6330
38180SOL    HW120376   2.864   4.903   2.184  0.1873 -1.0823 -0.7216
38180SOL    HW220377   2.997   4.867   2.120 -0.0649  0.0435 -1.9262
38181SOL     OW20378   2.754   7.748  10.008  0.0488 -0.3155  0.3071
38181SOL    HW120379   2.700   7.823  10.033 -1.3873 -1.0541 -0.4930
38181SOL    HW220380   2.813   7.735  10.083  2.4634  3.3998 -0.6466
38182SOL     OW20381   4.638   5.757   9.216  0.7052  0.0936  0.5205
38182SOL    HW120382   4.658   5.738   9.124  0.1566  2.0440 -0.0360
38182SOL    HW220383   4.635   5.671   9.257  2.4281 -0.7560 -0.9635
38183SOL     OW20384   8.305   2.766   7.828 -0.0306 -0.1873  0.0324
38183SOL    HW120385   8.397   2.783   7.848  0.3403 -2.2910  0.2975
38183SOL    HW220386   8.303   2.764   7.732 -0.2060  1.6461 -0.0514
38184SOL     OW20387   8.417   8.485   3.195 -0.8232  0.1221  0.4864
38184SOL    HW120388   8.437   8.498   3.288 -1.7282  0.5970  0.6255
38184SOL    HW220389   8.497   8.448   3.159 -1.1837 -2.2933  1.9215
38185SOL     OW20390   9.500   6.739   9.470 -0.3651  0.0493  0.0778
38185SOL    HW120391   9.519   6.773   9.557  2.0019  0.0346 -0.3476
38185SOL    HW220392   9.560   6.665   9.460 -1.4725 -0.7241 -1.1024
38186SOL     OW20393   5.413   5.481   7.676  0.1968  0.1741 -0.0530
38186SOL    HW120394   5.340   5.476   7.615  1.7828 -1.2829 -1.9403
38186SOL    HW220395   5.413   5.572   7.706 -1.6051  0.5106 -0.9688
38187SOL     OW20396   6.065  10.004   0.652 -0.5479  0.6722 -0.4664
38187SOL    HW120397   6.146   9.972   0.692 -1.8862 -0.0438  1.9141
38187SOL    HW220398   6.012   9.925   0.639 -1.1714  1.2001 -1.2670
38188SOL     OW20399   4.319   5.281   9.328  0.2173  0.2085 -1.0766
38188SOL    HW120400   4.337   5.367   9.289  0.2846  0.8707  0.3730
38188SOL    HW220401   4.233   5.292   9.370  0.6094 -0.1616 -0.1594
38189SOL     OW20402   6.741   9.519   6.296  0.2763 -0.1484 -0.2680
38189SOL    HW120403   6.808   9.459   6.265  0.4761  0.3274 -0.7691
38189SOL    HW220404   6.676   9.522   6.225  0.3133  0.2903 -0.2882
38190SOL     OW20405   4.029   7.299   7.266 -0.4442  0.1523 -0.0422
38190SOL    HW120406   4.111   7.309   7.219  0.8328 -0.3904  1.9447
38190SOL    HW220407   3.971   7.365   7.228  0.8126  0.3770 -1.6609
38191SOL     OW20408   4.015   7.935   7.207  0.0265 -0.0437  0.1806
38191SOL    HW120409   3.975   8.017   7.180  1.2973  0.6097  0.1840
38191SOL    HW220410   4.058   7.902   7.128  1.5911  0.5734  0.7365
38192SOL     OW20411   6.059   5.612   4.296 -0.3947 -0.0334  0.4399
38192SOL    HW120412   6.084   5.544   4.359  1.9186  1.1396  0.8966
38192SOL    HW220413   5.991   5.662   4.341 -0.4821 -0.6516  1.0239
38193SOL     OW20414   8.550   4.480   6.462 -0.1076 -0.1297  0.2021
38193SOL    HW120415   8.492   4.536   6.514 -0.5697 -0.5153  0.1037
38193SOL    HW220416   8.629   4.533   6.450 -0.5093  0.4775  0.1805
38194SOL     OW20417   6.208   7.117   9.843 -0.2426  0.2590 -0.0122
38194SOL    HW120418   6.140   7.072   9.894 -0.1789  1.2059  0.9298
38194SOL    HW220419   6.165   7.196   9.810  0.3199  0.7198  0.3531
38195SOL     OW20420   6.734   9.663   6.569  0.4419 -0.4467 -0.0691
38195SOL    HW120421   6.665   9.675   6.633  0.5493  3.2092 -0.4183
38195SOL    HW220422   6.689   9.661   6.485  0.6154  1.1279 -0.2377
38196SOL     OW20423   7.995   5.006   2.643 -0.0070  0.6782 -0.2239
38196SOL    HW120424   7.956   4.969   2.563 -0.4048  0.5130  0.0439
38196SOL    HW220425   8.077   4.958   2.653 -0.8149 -0.6301  0.4787
38197SOL     OW20426   7.047   0.287   4.056  1.0250 -0.1462 -0.0443
38197SOL    HW120427   6.991   0.349   4.010  0.7643  0.1858  0.7038
38197SOL    HW220428   7.134   0.326   4.053  0.9232  0.0955  0.1372
38198SOL     OW20429   9.776   3.455   0.998  0.5678  0.8156  0.0727
38198SOL    HW120430   9.786   3.484   0.908 -1.8514 -0.3314 -0.6443
38198SOL    HW220431   9.809   3.528   1.051  0.2379  2.3183 -1.7059
38199SOL     OW20432   7.946  10.475   0.811 -0.0863 -0.5875 -0.1713
38199SOL    HW120433   7.934  10.541   0.742 -0.1591 -0.6868 -0.2536
38199SOL    HW220434   7.994  10.521   0.880 -2.8698  0.5302  1.1955
38200SOL     OW20435   6.589   8.001   4.488 -0.4759 -0.2984  0.2433
38200SOL    HW120436   6.600   7.906   4.488  0.9531 -0.1872 -1.1900
38200SOL    HW220437   6.652   8.032   4.423  0.4091  1.7961  1.9748
38201SOL     OW20438   0.717   9.724   3.933 -0.1775  0.5309 -0.1725
38201SOL    HW120439   0.673   9.797   3.891  0.5076  0.7778 -0.4763
38201SOL    HW220440   0.749   9.759   4.016  2.6466  1.4575 -1.5201
38202SOL     OW20441   9.156  10.267   8.134 -0.5078  0.2644  0.1382
38202SOL    HW120442   9.217  10.334   8.104  1.3003 -0.8190  1.2021
38202SOL    HW220443   9.090  10.315   8.183  1.3878  1.2223  1.9049
38203SOL     OW20444   2.469   3.359   6.567  0.2032 -0.2096  0.3199
38203SOL    HW120445   2.483   3.414   6.644 -0.1242 -0.9641  0.9302
38203SOL    HW220446   2.377   3.370   6.545  0.5348  0.8591 -0.6548
38204SOL     OW20447   4.066   2.875   8.777  0.1684 -0.2325 -0.4544
38204SOL    HW120448   3.993   2.835   8.825  0.9896  0.6257  1.5979
38204SOL    HW220449   4.106   2.803   8.730 -1.0531 -0.9915 -0.3800
38205SOL     OW20450   8.853   4.546   7.139 -0.1623  0.2162 -0.4631
38205SOL    HW120451   8.860   4.630   7.095 -1.8610  0.4732 -0.2874
38205SOL    HW220452   8.818   4.486   7.073 -0.6487  0.0811 -0.0895
38206SOL     OW20453   1.143   7.312  10.655 -0.5259 -0.1547 -0.0384
38206SOL    HW120454   1.057   7.335  10.692 -1.1806 -0.1418 -1.5055
38206SOL    HW220455   1.196   7.391  10.669 -0.1325 -0.7545  2.4806
38207SOL     OW20456   1.959   7.618   7.343 -0.2566  0.0825 -0.4765
38207SOL    HW120457   1.878   7.661   7.370  0.5045  0.2445  1.7321
38207SOL    HW220458   2.011   7.612   7.423  1.5485 -0.8492 -1.6520
38208SOL     OW20459   5.216   1.308   6.436 -0.0282 -0.0357 -0.3643
38208SOL    HW120460   5.168   1.355   6.505  1.2129  1.7675 -0.6403
38208SOL    HW220461   5.259   1.378   6.386 -0.3269 -1.3420 -2.5529
38209SOL     OW20462   4.355   5.070   4.133  0.2793  0.1406  0.1340
38209SOL    HW120463   4.412   5.097   4.061  0.7302  0.6920  0.6904
38209SOL    HW220464   4.396   4.990   4.167 -1.1554 -1.4547 -1.6283
38210SOL     OW20465   6.050   4.839   3.996  0.1476  0.1488  0.7456
38210SOL    HW120466   6.071   4.915   3.941  1.5975  0.0133  1.0929
38210SOL    HW220467   6.055   4.764   3.937  0.5647  0.1257  0.8098
38211SOL     OW20468   5.135   7.475   5.833 -0.0254  0.0300 -0.1318
38211SOL    HW120469   5.132   7.431   5.918  0.5443 -0.5934 -0.4260
38211SOL    HW220470   5.044   7.496   5.813 -0.2259 -0.3880  0.3350
38212SOL     OW20471   2.333   3.044   5.483 -0.1612 -0.5319 -0.1392
38212SOL    HW120472   2.301   2.955   5.465 -0.6230 -0.4215  0.1470
38212SOL    HW220473   2.303   3.063   5.571 -0.0159 -0.1035 -0.1827
38213SOL     OW20474   2.600   8.662   5.827  0.6265 -0.5073  0.0503
38213SOL    HW120475   2.646   8.744   5.808 -2.2818  1.5310  1.1232
38213SOL    HW220476   2.545   8.646   5.751  0.6360 -1.1168  0.1589
38214SOL     OW20477   5.279   0.996   7.699 -0.7855  0.3937 -0.1845
38214SOL    HW120478   5.198   1.047   7.708 -0.9753 -0.0119  0.4019
38214SOL    HW220479   5.324   1.037   7.625 -0.9690  1.3777  0.2337
38215SOL     OW20480   1.903   4.773   2.197  0.2334  0.5488  0.5653
38215SOL    HW120481   1.900   4.683   2.165 -3.0103  0.9480 -0.6069
38215SOL    HW220482   1.837   4.777   2.265  0.8698  1.8832  1.1480
38216SOL     OW20483   4.327   1.568   4.797  0.3071  0.2410 -0.3666
38216SOL    HW120484   4.366   1.631   4.736  1.9413  1.0480  1.4074
38216SOL    HW220485   4.272   1.621   4.854 -2.8323 -0.7591 -2.2261
38217SOL     OW20486   6.426   7.751   9.145 -0.2107  0.0342 -0.2181
38217SOL    HW120487   6.359   7.757   9.213 -1.0853  1.8531 -1.1693
38217SOL    HW220488   6.475   7.833   9.152 -0.9908  0.7599 -2.4149
38218SOL     OW20489   0.327   4.695   4.481 -0.0287  0.2812 -0.2351
38218SOL    HW120490   0.364   4.778   4.511 -0.0430  0.3435 -0.3882
38218SOL    HW220491   0.234   4.714   4.468 -0.6960 -0.5536  2.7084
38219SOL     OW20492   5.188   7.421   3.827  0.4452  0.3007 -0.1246
38219SOL    HW120493   5.227   7.509   3.823  2.0000 -0.3301  0.3259
38219SOL    HW220494   5.221   7.384   3.909  0.5776 -1.0391 -0.7494
38220SOL     OW20495   2.597   1.685   2.828 -0.1672  0.3951  0.1439
38220SOL    HW120496   2.661   1.743   2.786 -0.3482 -0.6607 -1.7221
38220SOL    HW220497   2.544   1.742   2.883  0.1035  1.9009 -1.1033
38221SOL     OW20498   9.923   7.344   5.676 -0.3655  0.2244  0.7864
38221SOL    HW120499   9.976   7.301   5.610  0.1056  1.3643  0.4106
38221SOL    HW220500   9.986   7.385   5.735 -0.8078  0.5585  1.0340
38222SOL     OW20501   4.911   3.090   7.599 -0.2733  0.4074 -0.0375
38222SOL    HW120502   4.837   3.080   7.659 -0.5070 -1.0759 -0.5232
38222SOL    HW220503   4.885   3.043   7.520  1.2591 -0.3558 -0.1382
38223SOL     OW20504   0.772   7.424   0.258 -0.0572 -0.1972 -0.2501
38223SOL    HW120505   0.815   7.480   0.322 -0.1242 -0.5959  0.1426
38223SOL    HW220506   0.828   7.430   0.180 -0.1145  0.4845 -0.2463
38224SOL     OW20507   5.694   0.589   5.598 -0.0043 -0.0309 -0.0636
38224SOL    HW120508   5.648   0.612   5.517 -1.5780 -0.9721  0.5293
38224SOL    HW220509   5.673   0.497   5.612  0.1151  0.1662  1.4991
38225SOL     OW20510   4.287   3.217   9.781 -0.4895  0.7619  0.1671
38225SOL    HW120511   4.337   3.198   9.861 -0.8580  0.3547  0.3063
38225SOL    HW220512   4.276   3.132   9.739  0.0378  1.0213 -0.5289
38226SOL     OW20513   7.069   1.868   0.856 -0.2665 -0.7322 -0.0124
38226SOL    HW120514   7.162   1.890   0.861 -0.1963 -1.2133  0.9211
38226SOL    HW220515   7.024   1.953   0.857  0.1279 -0.5297  0.3569
38227SOL     OW20516   4.619   8.957   8.371  0.7580 -0.2571 -0.5819
38227SOL    HW120517   4.646   8.883   8.317  0.9023  0.9606 -2.2416
38227SOL    HW220518   4.525   8.944   8.384  0.9419 -1.1906 -0.0678
38228SOL     OW20519   2.749   8.463   6.755  0.3684  0.1949 -0.4220
38228SOL    HW120520   2.760   8.534   6.693 -1.6335  0.9423 -0.0243
38228SOL    HW220521   2.810   8.395   6.727  2.8920  2.3150 -0.3686
38229SOL     OW20522   7.198   0.987   0.083  0.2671 -0.3734  0.3622
38229SOL    HW120523   7.163   0.898   0.080 -0.0613 -0.2392 -0.0322
38229SOL    HW220524   7.190   1.018  -0.008  1.0105 -0.1830  0.3592
38230SOL     OW20525   4.278   2.562   0.598 -0.4714 -0.3718  0.2680
38230SOL    HW120526   4.336   2.596   0.667  0.4043 -0.4969 -0.3886
38230SOL    HW220527   4.338   2.534   0.529 -1.2722 -1.4832  0.0080
38231SOL     OW20528   7.452   0.596   4.211  0.2907  0.0126  0.1830
38231SOL    HW120529   7.464   0.678   4.164  2.0059 -0.6884 -0.7045
38231SOL    HW220530   7.377   0.612   4.269  1.2717  2.5504  0.8826
38232SOL     OW20531   9.843  10.443   6.196 -0.5215 -0.1676  0.1191
38232SOL    HW120532   9.822  10.534   6.218 -1.0709 -0.6060  1.5120
38232SOL    HW220533   9.781  10.391   6.247 -1.1395 -1.3164 -1.7259
38233SOL     OW20534   4.917   0.469   1.930  0.2511  0.3040 -0.6147
38233SOL    HW120535   4.985   0.424   1.881  0.8161  0.8599 -0.3613
38233SOL    HW220536   4.880   0.532   1.868  0.2887  0.3189 -0.6225
38234SOL     OW20537   6.178   8.412   5.457 -0.1516  0.2795 -0.4991
38234SOL    HW120538   6.100   8.368   5.491 -1.0325  1.7248 -0.5569
38234SOL    HW220539   6.166   8.504   5.480  2.0406  0.4049  0.3919
38235SOL     OW20540  10.168   0.660   0.961 -0.4231 -0.1040 -0.1104
38235SOL    HW120541  10.185   0.670   0.867 -1.3661 -0.1853 -0.2929
38235SOL    HW220542  10.100   0.594   0.966  0.2113 -0.7139  0.6886
38236SOL     OW20543   0.737   0.092   7.888  0.1422  0.7083 -0.2985
38236SOL    HW120544   0.812   0.148   7.867  0.9565  0.5772  1.9135
38236SOL    HW220545   0.688   0.142   7.953  0.0607 -0.4913  0.5889
38237SOL     OW20546   4.137   4.183   8.186  0.2272 -0.4164  0.7390
38237SOL    HW120547   4.091   4.222   8.111  1.5921 -0.2280 -0.0443
38237SOL    HW220548   4.229   4.205   8.171  0.4252  0.5596  3.0613
38238SOL     OW20549   1.679   7.992   2.120  0.2091  0.2290  0.2436
38238SOL    HW120550   1.728   7.948   2.051  0.4894 -0.5418  0.9198
38238SOL    HW220551   1.643   8.070   2.078  1.6027  0.5578 -0.4038
38239SOL     OW20552  10.584   3.184   2.642  0.2784 -0.1856  0.1777
38239SOL    HW120553  10.580   3.261   2.584  1.3694  1.6947  2.4152
38239SOL    HW220554  10.495   3.151   2.643  0.1298 -0.0881 -2.2083
38240SOL     OW20555   4.167   8.674   8.621  0.1084 -0.1883  0.0401
38240SOL    HW120556   4.241   8.630   8.579  0.0812 -0.6496  0.4747
38240SOL    HW220557   4.110   8.603   8.651  0.0951  0.1408  0.7990
38241SOL     OW20558   4.914   1.674   5.800 -0.5086  0.0917  0.0222
38241SOL    HW120559   4.978   1.728   5.847 -0.2978 -0.1575  0.0260
38241SOL    HW220560   4.918   1.589   5.844  1.2456 -0.8237 -1.7400
38242SOL     OW20561   4.407   5.077   0.134 -0.2876 -0.6232  0.1910
38242SOL    HW120562   4.432   4.989   0.103 -0.0821 -0.7133  0.6118
38242SOL    HW220563   4.449   5.085   0.219 -1.7786 -0.8116  0.9650
38243SOL     OW20564   2.621  10.296   4.803 -0.5506  0.7165  0.1238
38243SOL    HW120565   2.582  10.382   4.792 -1.5009  0.4312  1.0654
38243SOL    HW220566   2.546  10.236   4.806  0.1089 -0.1714 -0.7755
38244SOL     OW20567   7.330  10.120   5.379  0.1109  0.1088  0.2514
38244SOL    HW120568   7.269  10.049   5.396 -0.0083 -0.4057 -2.0620
38244SOL    HW220569   7.283  10.199   5.405 -0.4391 -0.4895  1.1222
38245SOL     OW20570   9.138   1.951   7.796  0.3015 -0.0557  0.2755
38245SOL    HW120571   9.062   2.006   7.776  2.3760  2.5899 -0.9140
38245SOL    HW220572   9.136   1.942   7.892 -1.2960  0.2261  0.2969
38246SOL     OW20573   7.236   0.126   4.651  0.3806 -0.3540 -0.6405
38246SOL    HW120574   7.302   0.183   4.690 -0.0270 -0.4491  0.2204
38246SOL    HW220575   7.178   0.185   4.604 -0.6983  0.1238  1.1792
38247SOL     OW20576  10.328   4.737   9.580 -0.4945 -0.1883 -0.3364
38247SOL    HW120577  10.299   4.823   9.549  0.2822  0.7104  1.2993
38247SOL    HW220578  10.406   4.718   9.528 -1.1311 -0.3100 -1.2798
38248SOL     OW20579   7.333   0.445   9.869 -0.2678  0.3317  0.5895
38248SOL    HW120580   7.399   0.451   9.937 -0.2320 -0.4682  0.6331
38248SOL    HW220581   7.382   0.459   9.787  0.2741 -1.7810  0.4884
38249SOL     OW20582  10.634   2.306   2.273 -0.4699  0.5890  0.6883
38249SOL    HW120583  10.568   2.371   2.297 -1.0549  0.1564  0.2594
38249SOL    HW220584  10.713   2.335   2.319 -1.2389  0.4616  2.1218
38250SOL     OW20585   0.726  10.031   2.777  0.3595  0.1561  0.5759
38250SOL    HW120586   0.710  10.102   2.839 -1.5600  0.4743 -0.2326
38250SOL    HW220587   0.686  10.060   2.695 -2.4643 -2.7034  0.7725
38251SOL     OW20588   2.445  10.530   8.773  0.2638  0.9702 -0.0426
38251SOL    HW120589   2.529  10.549   8.733  0.2127  0.4495 -0.4062
38251SOL    HW220590   2.467  10.499   8.861  0.7722 -2.8175 -1.3245
38252SOL     OW20591   7.596   3.232   8.473  0.5620 -0.3966  0.3749
38252SOL    HW120592   7.690   3.217   8.474  0.3062 -2.3457 -0.0781
38252SOL    HW220593   7.583   3.300   8.407  1.6752  0.3349  0.8784
38253SOL     OW20594   3.565   7.589   6.684  0.6192 -0.6186 -1.0416
38253SOL    HW120595   3.510   7.511   6.696  0.6354 -0.6026 -0.8600
38253SOL    HW220596   3.650   7.564   6.721  0.0516  0.1775  0.9299
38254SOL     OW20597   5.933   3.042   0.373 -0.0463  0.0467  0.3994
38254SOL    HW120598   5.942   3.107   0.443 -0.4406  1.5212 -0.8696
38254SOL    HW220599   5.842   3.013   0.378  0.1200 -0.3900  0.9454
38255SOL     OW20600   5.330   9.628   9.958 -0.1490  0.0022 -0.1814
38255SOL    HW120601   5.416   9.671   9.964 -0.3125  0.3168 -0.0690
38255SOL    HW220602   5.273   9.680  10.015 -0.3360 -0.4054  0.0104
38256SOL     OW20603   3.984   9.663   9.627 -0.0551 -0.0789 -0.3316
38256SOL    HW120604   3.914   9.639   9.689  0.6364  1.8843  1.3310
38256SOL    HW220605   3.938   9.676   9.544 -1.4426 -0.2448  0.3627
38257SOL     OW20606   8.131   3.306   7.884 -0.2045  0.2382  0.6598
38257SOL    HW120607   8.117   3.379   7.823 -0.6572 -0.0170  0.4508
38257SOL    HW220608   8.066   3.241   7.858 -0.0324 -0.0995  1.0682
38258SOL     OW20609   5.930   4.635   1.767 -0.2316 -0.1662 -0.3347
38258SOL    HW120610   5.906   4.689   1.842 -0.2038 -1.3187  0.5289
38258SOL    HW220611   6.004   4.682   1.727  0.7281 -0.2572  1.2354
38259SOL     OW20612   7.879   8.126   1.002 -0.6874 -0.0696 -0.0729
38259SOL    HW120613   7.906   8.213   0.976 -0.1951 -0.6358 -1.5521
38259SOL    HW220614   7.800   8.140   1.054 -1.3543  1.1895 -1.3676
38260SOL     OW20615   2.931   4.455   6.423  0.1817 -0.0286 -0.2313
38260SOL    HW120616   2.929   4.550   6.437  0.1887 -0.0685  0.0403
38260SOL    HW220617   2.855   4.438   6.367 -0.8593 -0.0931  1.1447
38261SOL     OW20618   4.648   8.051   1.729  0.1598 -0.4503  0.0312
38261SOL    HW120619   4.576   8.107   1.759 -0.0700 -1.5392  1.6240
38261SOL    HW220620   4.707   8.045   1.804 -0.5820 -3.5084  0.5115
38262SOL     OW20621   0.119   2.305   5.819  0.2235  0.6445 -0.0270
38262SOL    HW120622   0.125   2.327   5.912 -0.0966 -1.6253  0.5979
38262SOL    HW220623   0.202   2.335   5.782  0.0248  2.3148  0.7939
38263SOL     OW20624   0.826   2.845   6.619  0.1743 -0.0755  0.0698
38263SOL    HW120625   0.801   2.926   6.576  0.1254  0.2147  0.6375
38263SOL    HW220626   0.775   2.777   6.574 -1.2026  0.4368  0.8067
38264SOL     OW20627   0.349   6.503   0.004 -0.1867 -0.1040  0.3952
38264SOL    HW120628   0.277   6.448   0.034 -0.1491 -0.3617  0.0362
38264SOL    HW220629   0.426   6.447   0.013 -0.3577 -0.7270 -1.5071
38265SOL     OW20630   9.004   4.748   5.347  0.2718 -0.2975 -0.4284
38265SOL    HW120631   9.050   4.820   5.303 -1.2395 -0.5646 -2.5543
38265SOL    HW220632   8.927   4.788   5.386 -0.7530 -0.7538 -1.9011
38266SOL     OW20633   9.020   0.336   5.407  0.3498 -0.0002  0.0867
38266SOL    HW120634   9.055   0.404   5.464  1.1705  1.8720 -2.4792
38266SOL    HW220635   8.931   0.365   5.388  0.8061  0.5790 -1.2637
38267SOL     OW20636   0.657   1.014   0.157 -0.5576 -0.0855  0.1566
38267SOL    HW120637   0.611   0.984   0.079  0.2447  0.1109 -0.4037
38267SOL    HW220638   0.685   1.103   0.137 -0.7138  0.1254  0.8361
38268SOL     OW20639   1.932   1.702   9.190 -0.0763  0.2867 -0.1496
38268SOL    HW120640   2.002   1.655   9.235 -0.0465 -1.1660 -1.6221
38268SOL    HW220641   1.978   1.759   9.128 -0.1844  0.2255 -0.2841
38269SOL     OW20642   7.755   5.186   1.211  0.0450  0.2997  0.1658
38269SOL    HW120643   7.689   5.204   1.144  0.4528  2.6024  0.3345
38269SOL    HW220644   7.707   5.135   1.278 -1.3623  1.2132 -0.1023
38270SOL     OW20645   7.155   6.899   8.140 -0.3518 -0.2518 -1.1119
38270SOL    HW120646   7.066   6.899   8.105  0.1963  0.4221 -2.6197
38270SOL    HW220647   7.193   6.981   8.107  0.7451 -0.4067 -0.2852
38271SOL     OW20648   8.858   8.034   7.602  0.8810 -0.0846 -0.1021
38271SOL    HW120649   8.865   8.033   7.506  0.8899  0.0306 -0.1025
38271SOL    HW220650   8.776   8.079   7.620 -1.1738 -3.4659 -0.1674
38272SOL     OW20651   8.614   2.260   5.554  0.1646  0.5986 -0.0867
38272SOL    HW120652   8.669   2.335   5.577  1.2160 -0.0256 -0.4909
38272SOL    HW220653   8.602   2.212   5.636 -1.8389  2.0080  0.5182
38273SOL     OW20654   3.090   2.840   3.949  0.3090  0.7936 -0.2178
38273SOL    HW120655   3.016   2.815   3.892 -0.2639 -1.6030  1.4127
38273SOL    HW220656   3.157   2.774   3.930  0.7067  0.9200  0.7303
38274SOL     OW20657   1.093   8.172   4.388  0.1232  0.1004 -0.8769
38274SOL    HW120658   1.060   8.137   4.470  0.7335 -0.4714 -0.8669
38274SOL    HW220659   1.148   8.246   4.413 -2.2354  2.0034 -0.9709
38275SOL     OW20660   8.495   2.285   5.097 -0.1614  0.1258  0.2341
38275SOL    HW120661   8.436   2.359   5.111 -0.5894 -0.4461  1.6564
38275SOL    HW220662   8.482   2.230   5.174  1.0927 -0.7926 -0.1872
38276SOL     OW20663   5.148   3.612   4.982  0.3038  0.1464  0.1373
38276SOL    HW120664   5.175   3.703   4.994 -0.3598  0.1953  1.4922
38276SOL    HW220665   5.124   3.583   5.070 -0.9249 -0.8817 -0.5045
38277SOL     OW20666   2.249   5.065   5.388 -0.1745 -0.3485  0.4854
38277SOL    HW120667   2.255   5.125   5.462 -1.6613 -1.4644  1.5613
38277SOL    HW220668   2.199   5.113   5.322  0.8430  0.5143  0.3082
38278SOL     OW20669   2.018   2.710   9.909 -0.4318 -0.1501 -0.1686
38278SOL    HW120670   1.969   2.629   9.897 -0.6878  0.0179 -0.2672
38278SOL    HW220671   2.108   2.687   9.886 -0.4758 -0.4403 -0.0592
38279SOL     OW20672   9.264   0.745   6.469 -0.2377 -0.3333  0.3686
38279SOL    HW120673   9.241   0.756   6.377 -0.9720  1.0828  0.6869
38279SOL    HW220674   9.234   0.657   6.491  0.1647 -0.7736 -0.7964
38280SOL     OW20675   9.632   5.060   2.536 -0.1167 -0.0667 -0.5173
38280SOL    HW120676   9.646   5.031   2.446 -0.0337 -0.5592 -0.3516
38280SOL    HW220677   9.610   4.980   2.584 -1.2790  0.3556 -0.3186
38281SOL     OW20678   6.603   8.079   1.354  0.1643 -0.2248  0.1145
38281SOL    HW120679   6.611   8.016   1.283  0.9597 -1.2203  1.0508
38281SOL    HW220680   6.585   8.026   1.432  0.6730  0.7051  0.8969
38282SOL     OW20681   2.270   1.951   5.745  0.7134 -0.1521 -0.3842
38282SOL    HW120682   2.342   2.014   5.747  0.2566  0.3769  1.0302
38282SOL    HW220683   2.309   1.868   5.771  0.3828  0.7466  3.8091
38283SOL     OW20684   2.085   5.949   7.556  0.4359 -0.2534 -0.3284
38283SOL    HW120685   2.158   5.915   7.504 -0.1105  0.5626 -1.6673
38283SOL    HW220686   2.034   6.002   7.495 -0.8248 -0.1239  0.7883
38284SOL     OW20687  10.316   0.702   3.265 -0.0244 -0.1182 -0.2364
38284SOL    HW120688  10.275   0.687   3.350  0.1839 -1.1757 -0.3149
38284SOL    HW220689  10.248   0.679   3.202  0.5660 -1.6069 -0.3651
38285SOL     OW20690   7.011   3.745   7.847 -0.0498  0.3708  0.2086
38285SOL    HW120691   6.970   3.750   7.761 -0.2973  0.0952  0.3083
38285SOL    HW220692   6.938   3.744   7.909  0.1361  1.3017  0.4673
38286SOL     OW20693   9.620   7.277   2.993 -0.1445 -0.2053  0.1223
38286SOL    HW120694   9.633   7.202   3.050  0.2468  0.3724  0.8028
38286SOL    HW220695   9.707   7.315   2.983 -0.4007  0.3882  0.1057
38287SOL     OW20696   1.747   1.674  10.161  0.5098 -0.3945 -0.3405
38287SOL    HW120697   1.729   1.727  10.239  1.4073 -1.7955  0.8801
38287SOL    HW220698   1.811   1.726  10.111  0.0262  0.4660 -0.0873
38288SOL     OW20699   3.431   2.455   9.413 -0.2965  0.4247  0.0431
38288SOL    HW120700   3.415   2.393   9.342 -0.2360  1.6222 -1.0396
38288SOL    HW220701   3.525   2.450   9.429 -0.1994  0.6755 -0.4528
38289SOL     OW20702   0.407   7.376   0.932  0.0560  0.4576 -0.7053
38289SOL    HW120703   0.499   7.366   0.909 -0.3964 -0.4867 -2.2680
38289SOL    HW220704   0.400   7.343   1.022  0.9621 -0.9945 -1.1421
38290SOL     OW20705   8.414   2.588   2.823 -0.3584  0.3120  0.1025
38290SOL    HW120706   8.432   2.681   2.835  0.1330  0.1492  0.6826
38290SOL    HW220707   8.499   2.549   2.802 -0.6811  0.0974 -0.8478
38291SOL     OW20708   1.646   0.906   2.258 -0.3010  0.3514  0.2247
38291SOL    HW120709   1.585   0.837   2.235 -0.7279  0.8720 -0.2546
38291SOL    HW220710   1.631   0.924   2.350 -1.5508  1.1217 -0.1076
38292SOL     OW20711   5.458   2.167   3.146 -0.0804 -0.0253 -0.1166
38292SOL    HW120712   5.551   2.178   3.166 -0.2336 -1.6356  1.8946
38292SOL    HW220713   5.432   2.248   3.103  1.6817  1.5644  1.6115
38293SOL     OW20714   0.439   2.216   9.412  0.3099 -0.0460 -0.2019
38293SOL    HW120715   0.384   2.153   9.365 -0.7675 -0.9983  2.1376
38293SOL    HW220716   0.515   2.165   9.440  0.2005  0.0939  0.3611
38294SOL     OW20717   1.303   3.858   7.030 -0.0625  0.1054  0.2633
38294SOL    HW120718   1.346   3.807   7.099 -0.3574  0.3534  0.6354
38294SOL    HW220719   1.369   3.921   7.001  0.5146 -0.8915 -0.6377
38295SOL     OW20720   0.118   0.486   6.038  0.4261  0.0671 -0.1040
38295SOL    HW120721   0.208   0.511   6.020 -0.1292  2.0744 -0.3693
38295SOL    HW220722   0.109   0.493   6.133  0.4016  0.4498 -0.1332
38296SOL     OW20723   8.791   4.165   8.903  0.2988 -0.1582 -0.2639
38296SOL    HW120724   8.860   4.227   8.881  0.1265  0.3426  0.5324
38296SOL    HW220725   8.815   4.133   8.991 -1.1895  1.0982  0.6550
38297SOL     OW20726   3.325   4.887   4.549  0.1226  0.2828 -0.0931
38297SOL    HW120727   3.417   4.886   4.574 -0.1314 -1.0194  0.9575
38297SOL    HW220728   3.324   4.917   4.459  1.6815 -0.6770 -0.4592
38298SOL     OW20729  10.292   7.877   0.088  0.3754  0.4036  0.2585
38298SOL    HW120730  10.256   7.912   0.169 -0.8376  1.3663 -0.6504
38298SOL    HW220731  10.272   7.783   0.091 -1.8149  0.8115  0.0324
38299SOL     OW20732   3.498   2.059   0.148  0.2948 -0.1404  0.8635
38299SOL    HW120733   3.466   2.046   0.237  0.9749 -0.8918  1.0062
38299SOL    HW220734   3.426   2.104   0.103  0.4882  1.5491  2.1423
38300SOL     OW20735   2.826   0.978   4.596 -0.1677 -0.3288  0.1720
38300SOL    HW120736   2.788   0.933   4.521 -0.3103 -1.4165  0.8849
38300SOL    HW220737   2.921   0.975   4.580 -0.2395  0.5540 -0.5637
38301SOL     OW20738   5.746   7.724   9.893 -0.4975 -0.2274  0.1878
38301SOL    HW120739   5.723   7.693   9.805  0.6905  0.6494 -0.4533
38301SOL    HW220740   5.662   7.750   9.931 -0.9306  0.2640 -1.0472
38302SOL     OW20741   9.728   1.753   1.853 -0.0237  0.3506  0.3381
38302SOL    HW120742   9.690   1.829   1.897  0.3793  0.6137  0.2391
38302SOL    HW220743   9.817   1.747   1.887 -0.0616 -0.0997  0.3683
38303SOL     OW20744   1.475   8.901   8.409  0.0905 -0.0559 -0.4704
38303SOL    HW120745   1.516   8.968   8.464  1.0891 -0.5600 -0.5641
38303SOL    HW220746   1.433   8.950   8.339 -0.0225  0.5205 -0.0123
38304SOL     OW20747   3.238   4.005   2.870  0.1560 -0.4327 -0.9693
38304SOL    HW120748   3.179   3.933   2.848  0.3097 -0.6780 -0.5958
38304SOL    HW220749   3.181   4.079   2.890  0.0016 -0.3969 -1.5394
38305SOL     OW20750   9.440  10.717   1.512  0.0189  0.0431 -0.2464
38305SOL    HW120751   9.492  10.637   1.524 -1.0404 -0.6601 -0.2522
38305SOL    HW220752   9.484  10.782   1.567  0.6901 -0.6334  0.0432
38306SOL     OW20753   2.451   1.135   8.792  0.1735 -0.2593  0.0336
38306SOL    HW120754   2.532   1.156   8.838  0.2697 -0.7759  0.1036
38306SOL    HW220755   2.474   1.144   8.699  0.5233 -1.1480  0.0279
38307SOL     OW20756   7.096   4.636  10.652  0.1905 -0.3704  0.4745
38307SOL    HW120757   7.143   4.553  10.663 -0.0644 -0.5417  0.2787
38307SOL    HW220758   7.162   4.696  10.617 -0.0431 -0.9553 -1.0172
38308SOL     OW20759   1.588   7.330   2.676  0.0818 -0.8439  0.2586
38308SOL    HW120760   1.644   7.304   2.603  0.5991  0.0169  0.3354
38308SOL    HW220761   1.621   7.280   2.751  1.1867  0.1309  0.4484
38309SOL     OW20762   0.955   5.255   9.398  0.1066 -0.2223 -0.2769
38309SOL    HW120763   1.024   5.216   9.344  0.1152  1.2826 -1.4050
38309SOL    HW220764   0.877   5.253   9.342 -0.2950 -0.0972  0.2631
38310SOL     OW20765   7.943   4.333   9.415  0.0657 -0.3299  0.4861
38310SOL    HW120766   8.037   4.316   9.409  0.3402  0.9620  0.8628
38310SOL    HW220767   7.914   4.340   9.324  0.5861  0.5086  0.3762
38311SOL     OW20768   7.839  10.013   0.940  0.2198 -0.2452  0.6348
38311SOL    HW120769   7.814  10.095   0.897  0.3519 -0.1810  0.6804
38311SOL    HW220770   7.764   9.990   0.994  1.0043  1.0180  2.3706
38312SOL     OW20771   4.703   8.020   4.977 -0.9664  0.1452 -0.0810
38312SOL    HW120772   4.668   8.078   5.045 -1.2641  0.1267 -0.2160
38312SOL    HW220773   4.787   7.992   5.011 -2.7725 -3.1251  2.2111
38313SOL     OW20774   8.692   6.619   9.897 -0.3329 -0.1350 -0.9598
38313SOL    HW120775   8.705   6.707   9.862 -1.2269  0.4439  0.0980
38313SOL    HW220776   8.779   6.579   9.895  0.6511  1.7263  1.0164
38314SOL     OW20777   6.080   2.416   7.628  0.3799  0.0150 -0.1615
38314SOL    HW120778   6.038   2.469   7.560  0.0102  0.3086  0.2849
38314SOL    HW220779   6.174   2.428   7.613  0.3107  1.1958  0.2202
38315SOL     OW20780   4.120   8.936   9.309  0.4530 -1.0950  0.4313
38315SOL    HW120781   4.181   8.988   9.361  0.4225 -1.6995  1.0891
38315SOL    HW220782   4.042   8.992   9.300  1.1463 -0.2437 -0.5785
38316SOL     OW20783   0.959   5.567   3.709  1.0171  0.0837  0.1126
38316SOL    HW120784   0.980   5.633   3.643 -2.3556  0.4013 -0.8783
38316SOL    HW220785   0.988   5.485   3.671  2.8823  0.6749  0.1740
38317SOL     OW20786   3.981   2.990   6.444 -0.2991  0.5653  0.5927
38317SOL    HW120787   3.901   3.042   6.441 -1.1482 -0.6768  0.5407
38317SOL    HW220788   4.026   3.011   6.363  0.2971  2.5429  1.3765
38318SOL     OW20789   3.173   2.035   7.141 -0.3169  0.5101  0.3828
38318SOL    HW120790   3.099   2.021   7.081  0.9807  0.0231 -1.1785
38318SOL    HW220791   3.242   1.978   7.107  0.8707  1.1567  1.6376
38319SOL     OW20792   7.849   4.575   9.542 -0.5533 -0.2489  0.2053
38319SOL    HW120793   7.856   4.494   9.491 -1.6871  0.0015 -0.3855
38319SOL    HW220794   7.879   4.644   9.482  1.6056 -0.3145  1.1027
38320SOL     OW20795   2.746   1.532   6.676  0.7138 -0.0058 -0.3955
38320SOL    HW120796   2.815   1.475   6.711  0.2041 -0.6195 -0.3731
38320SOL    HW220797   2.769   1.544   6.584  1.2082  0.3305 -0.2299
38321SOL     OW20798   2.040   8.121   6.119 -0.2943  0.1512 -0.7153
38321SOL    HW120799   1.957   8.080   6.142 -0.9524  0.5659 -2.2443
38321SOL    HW220800   2.066   8.079   6.037  1.6028 -0.7699  0.3032
38322SOL     OW20801  10.153   8.642   1.031  0.4998  0.3031  0.2978
38322SOL    HW120802  10.089   8.622   1.099 -0.7193 -1.1198 -1.2003
38322SOL    HW220803  10.163   8.737   1.034 -0.3640  0.3720  1.6971
38323SOL     OW20804   7.637   1.323   8.414  0.1210  0.2180 -0.4894
38323SOL    HW120805   7.574   1.326   8.342 -0.1876 -1.7110 -0.3522
38323SOL    HW220806   7.634   1.411   8.452 -1.4921  0.5597 -1.3170
38324SOL     OW20807   7.731   9.581   7.002 -0.0285 -0.0298  0.1681
38324SOL    HW120808   7.775   9.649   7.052 -2.9605  1.6817  0.6566
38324SOL    HW220809   7.640   9.610   6.995 -0.5456 -1.8354 -3.3148
38325SOL     OW20810   3.430   6.198   4.765  0.3489  0.0327 -0.1723
38325SOL    HW120811   3.365   6.212   4.833 -0.0310 -0.4216 -0.4286
38325SOL    HW220812   3.513   6.218   4.806  0.0802  0.2359  0.2805
38326SOL     OW20813   2.615   8.990   7.226 -0.0105 -0.5203  0.0765
38326SOL    HW120814   2.640   8.952   7.142 -0.4281  0.2540 -0.4062
38326SOL    HW220815   2.537   8.942   7.252 -1.6557  1.1987 -1.4415
38327SOL     OW20816   0.658   4.967   5.176 -0.2312 -0.3972  0.1412
38327SOL    HW120817   0.608   5.031   5.126 -0.1514 -0.9486 -0.6673
38327SOL    HW220818   0.651   4.886   5.126 -0.0508 -0.9432  0.9694
38328SOL     OW20819   8.570   6.839   2.281  0.3273 -0.5252  0.2782
38328SOL    HW120820   8.502   6.802   2.337  0.9472 -2.2801 -0.0690
38328SOL    HW220821   8.545   6.812   2.192 -0.1796  1.4939 -0.2470
38329SOL     OW20822  10.243  10.162   7.867 -0.4441 -0.6554  0.2272
38329SOL    HW120823  10.318  10.104   7.877 -0.4833 -0.7323  0.0862
38329SOL    HW220824  10.168  10.103   7.862 -0.4948 -0.5878  0.1804
38330SOL     OW20825   0.347   6.573  10.468 -0.1661 -0.0933  0.9627
38330SOL    HW120826   0.351   6.557  10.562  0.6720 -1.6857  0.6873
38330SOL    HW220827   0.400   6.651  10.454  1.8668 -1.3078  1.5355
38331SOL     OW20828   8.492   7.503   0.954 -0.2690 -0.0877  0.7303
38331SOL    HW120829   8.552   7.434   0.983  1.0219 -0.0718 -1.7140
38331SOL    HW220830   8.549   7.575   0.928 -1.2392 -0.1610 -1.9064
38332SOL     OW20831   6.821   3.200   1.720 -0.3578 -0.1374 -0.4615
38332SOL    HW120832   6.839   3.184   1.812 -1.6243  2.0653  0.2422
38332SOL    HW220833   6.850   3.120   1.676  3.3675 -0.0029  1.3643
38333SOL     OW20834  10.094   5.105   0.977 -0.9870  0.4163 -0.5481
38333SOL    HW120835  10.099   5.029   1.035  3.0934  0.5660 -0.4304
38333SOL    HW220836  10.129   5.177   1.029  3.7364  0.3816 -3.1276
38334SOL     OW20837   8.009   0.349   1.736 -0.1712 -0.7105 -0.5761
38334SOL    HW120838   7.972   0.278   1.789 -1.1559  0.8461  0.9458
38334SOL    HW220839   8.028   0.419   1.799 -1.8581  1.4469 -2.2674
38335SOL     OW20840   7.616   0.269   9.627 -0.0857  0.4584 -0.0845
38335SOL    HW120841   7.571   0.349   9.654 -0.0804  0.7712 -0.9803
38335SOL    HW220842   7.702   0.298   9.597  1.0050 -0.2055  2.2102
38336SOL     OW20843   1.935   0.858   7.273  0.0304  0.0440  0.0864
38336SOL    HW120844   1.925   0.843   7.367 -0.0235 -0.8309 -0.0475
38336SOL    HW220845   1.850   0.893   7.246 -0.3354 -0.7494  0.1766
38337SOL     OW20846   9.320  10.693   8.566  0.1000  0.2856 -0.5445
38337SOL    HW120847   9.359  10.770   8.524 -0.4701  0.5768 -0.5518
38337SOL    HW220848   9.244  10.672   8.511 -1.2548  1.2779  0.8474
38338SOL     OW20849   3.378   8.437   4.012  0.5622  0.0864 -0.2546
38338SOL    HW120850   3.426   8.360   4.043  0.3917 -0.2724 -0.8537
38338SOL    HW220851   3.444   8.492   3.971  0.4577 -0.4686 -1.1945
38339SOL     OW20852   6.397   9.151   7.595  0.6454  0.0989 -0.1422
38339SOL    HW120853   6.343   9.105   7.530  1.6125 -0.8539 -0.2881
38339SOL    HW220854   6.343   9.151   7.674  0.6837 -1.4924 -0.0723
38340SOL     OW20855   8.081   0.868   6.772  0.6578  0.8832  0.2545
38340SOL    HW120856   8.121   0.939   6.722  0.6465  0.7035 -0.0121
38340SOL    HW220857   8.119   0.876   6.859  0.0980  1.6700  0.4368
38341SOL     OW20858   2.222   4.405   4.403  0.3223 -0.1967 -0.3071
38341SOL    HW120859   2.313   4.435   4.401 -0.5366  2.8370  0.5767
38341SOL    HW220860   2.173   4.477   4.363 -1.6584 -2.1229 -1.5571
38342SOL     OW20861  10.682   5.820   3.456 -0.2127  0.0472 -0.0924
38342SOL    HW120862  10.593   5.846   3.479 -0.7477 -2.1456  0.5918
38342SOL    HW220863  10.737   5.860   3.523 -1.0624 -1.0636  1.3230
38343SOL     OW20864   5.524   4.825   3.427 -0.5563 -0.3940 -0.2324
38343SOL    HW120865   5.469   4.819   3.349 -0.5490 -1.2574 -0.1749
38343SOL    HW220866   5.586   4.752   3.419 -1.4202 -1.3352  1.2343
38344SOL     OW20867   2.691   7.826   5.219  0.3981 -0.8810 -0.1371
38344SOL    HW120868   2.629   7.779   5.163 -0.8758 -0.6442  1.0317
38344SOL    HW220869   2.713   7.763   5.288 -0.6792 -0.1020  0.9686
38345SOL     OW20870   7.204  10.076   9.614 -0.4708  0.1698  0.9090
38345SOL    HW120871   7.279  10.106   9.666 -0.2393  0.6071  0.3406
38345SOL    HW220872   7.172  10.156   9.571 -0.2984 -0.2767 -0.0652
38346SOL     OW20873   8.393   9.793   7.719  0.4167 -0.3542  0.4645
38346SOL    HW120874   8.365   9.870   7.769  0.6583  0.2404 -0.3049
38346SOL    HW220875   8.319   9.733   7.724  0.1371  0.0160  0.8751
38347SOL     OW20876   0.254   2.830   2.084 -0.5300 -0.0010  0.4454
38347SOL    HW120877   0.219   2.742   2.103 -1.0104  0.3578  1.2900
38347SOL    HW220878   0.329   2.838   2.144 -0.4749  0.1567  0.3527
38348SOL     OW20879   4.995   1.716   0.902  0.3219  0.0817 -0.2094
38348SOL    HW120880   4.963   1.806   0.902  0.2534  0.0578 -0.2496
38348SOL    HW220881   5.047   1.709   0.982 -1.0469 -0.3179  0.6987
38349SOL     OW20882   7.619   5.622   9.623  0.1094  0.1333 -0.1814
38349SOL    HW120883   7.673   5.700   9.608  0.0350  0.6102  1.7151
38349SOL    HW220884   7.682   5.551   9.633  0.2176  0.1038 -0.9613
38350SOL     OW20885   1.696   6.127  10.340 -0.1437 -0.1645  0.1438
38350SOL    HW120886   1.646   6.117  10.421  2.0569 -2.2349  1.3470
38350SOL    HW220887   1.766   6.188  10.363 -1.0051  1.3617 -1.0455
38351SOL     OW20888   0.227   9.073   0.868  0.2224 -0.0095  0.2547
38351SOL    HW120889   0.232   9.120   0.951  0.5200  3.0024 -1.2932
38351SOL    HW220890   0.134   9.073   0.845  0.2167 -0.1995  0.2808
38352SOL     OW20891   7.103   3.693   4.771 -0.3065  0.4818  0.1523
38352SOL    HW120892   7.028   3.753   4.768 -0.5343  0.7090  4.2988
38352SOL    HW220893   7.176   3.748   4.797  0.4116 -0.3870  0.0164
38353SOL     OW20894   3.015   6.917   5.597  0.3447 -0.3521 -0.8026
38353SOL    HW120895   3.055   6.855   5.537  1.2528 -1.2934  0.7332
38353SOL    HW220896   3.008   6.870   5.680 -0.6407  0.9977 -0.0801
38354SOL     OW20897   9.472   4.032   9.348 -0.1381 -0.5045  0.4122
38354SOL    HW120898   9.501   4.075   9.428  0.7749  1.0511 -0.7090
38354SOL    HW220899   9.552   3.999   9.308 -0.4670 -0.3807 -0.3560
38355SOL     OW20900   2.582   3.327  10.162 -0.1080 -0.2112  0.0025
38355SOL    HW120901   2.652   3.270  10.129 -0.3440 -0.0367 -0.8422
38355SOL    HW220902   2.623   3.379  10.231  1.1549  1.2404 -1.7369
38356SOL     OW20903   7.445   4.216   8.759 -0.2007 -0.6477 -0.3335
38356SOL    HW120904   7.444   4.130   8.801  1.5788 -0.5185  0.0715
38356SOL    HW220905   7.519   4.211   8.697 -0.1009  0.5717 -0.3340
38357SOL     OW20906   0.525   8.777   5.961 -0.2788 -0.3655 -0.1352
38357SOL    HW120907   0.436   8.745   5.949 -0.3011 -0.0868 -0.7734
38357SOL    HW220908   0.569   8.710   6.013 -0.9447 -0.3583  0.4460
38358SOL     OW20909   1.764   3.310   3.816 -0.1009  0.2357 -0.1692
38358SOL    HW120910   1.709   3.232   3.824  0.8245 -0.2941  1.6754
38358SOL    HW220911   1.708   3.376   3.777 -2.1139 -0.2387  1.7328
38359SOL     OW20912   6.811   2.537   0.675  0.5474  0.0102 -0.4720
38359SOL    HW120913   6.803   2.550   0.580  1.3129  1.2015 -0.3865
38359SOL    HW220914   6.856   2.453   0.684  0.8416  0.0869 -1.1723
38360SOL     OW20915  10.207   9.317   8.812 -0.9417  0.1379  0.2496
38360SOL    HW120916  10.234   9.392   8.864  0.6306  0.5831 -1.1481
38360SOL    HW220917  10.282   9.298   8.756 -1.4604 -2.2161  0.2566
38361SOL     OW20918  10.647   9.768   8.743  0.5923  0.1712  0.6079
38361SOL    HW120919  10.726   9.742   8.695 -0.0724 -0.4889 -0.1566
38361SOL    HW220920  10.616   9.846   8.698  0.3130 -0.0927  0.3354
38362SOL     OW20921   4.353   1.089   7.861  0.3722 -0.2569 -0.3421
38362SOL    HW120922   4.296   1.155   7.899  0.0770 -0.3099 -0.6918
38362SOL    HW220923   4.436   1.099   7.909  0.7528  1.2380 -1.2615
38363SOL     OW20924   3.968   1.042   3.960  0.5168  0.3036 -0.1316
38363SOL    HW120925   4.048   1.050   4.013 -0.6313 -1.0517  1.9592
38363SOL    HW220926   3.982   0.964   3.907  0.7900  0.3594 -0.1411
38364SOL     OW20927   6.207   1.158   6.427 -0.7480 -0.1643 -0.0879
38364SOL    HW120928   6.244   1.246   6.422  1.2022 -0.8139  1.4779
38364SOL    HW220929   6.169   1.143   6.340 -0.3771  1.8639 -0.6631
38365SOL     OW20930   5.422   8.666   0.914  0.1404  0.3237 -0.7562
38365SOL    HW120931   5.440   8.577   0.946 -0.0980 -0.0852 -1.7380
38365SOL    HW220932   5.447   8.722   0.987  1.5140 -0.4616 -0.5891
38366SOL     OW20933   4.470   3.819   2.751 -0.1857  0.9386 -0.0950
38366SOL    HW120934   4.434   3.824   2.663 -0.2488  2.7279 -0.0104
38366SOL    HW220935   4.565   3.828   2.739 -0.2022  1.2912  0.0058
38367SOL     OW20936   6.679   3.085   8.806  0.4024 -0.6271 -0.0458
38367SOL    HW120937   6.656   3.144   8.877  0.5892 -1.0902  0.4015
38367SOL    HW220938   6.598   3.076   8.755  0.5281  0.4787 -0.4685
38368SOL     OW20939   1.138   2.650   9.770  0.0647 -0.0669 -0.1483
38368SOL    HW120940   1.230   2.624   9.768  0.4730  1.3776 -1.3417
38368SOL    HW220941   1.133   2.721   9.834 -0.6719 -1.5667  1.5567
38369SOL     OW20942   5.036   9.723   0.955 -0.2418 -0.1048  0.0919
38369SOL    HW120943   5.079   9.763   0.879 -0.4126  0.7677  0.4499
38369SOL    HW220944   4.973   9.788   0.984 -1.3647 -1.1125 -0.0272
38370SOL     OW20945   9.913   5.594   4.845 -0.2980 -0.0713  0.4945
38370SOL    HW120946   9.898   5.672   4.900 -0.4950  0.3078 -0.0864
38370SOL    HW220947  10.007   5.592   4.833 -0.3655  0.6298 -0.2602
38371SOL     OW20948   4.465   9.566   2.688 -0.4237 -0.2007  0.5153
38371SOL    HW120949   4.475   9.490   2.631  2.2836  0.9015 -0.6332
38371SOL    HW220950   4.412   9.628   2.638 -0.8061 -0.4845  0.5661
38372SOL     OW20951  10.334  10.248   0.671  0.2094  0.5490  0.1169
38372SOL    HW120952  10.344  10.343   0.677  0.3475  0.4620  1.7751
38372SOL    HW220953  10.269  10.226   0.738 -0.1437 -0.4906 -0.5297
38373SOL     OW20954   1.149   1.769   4.746  0.2441 -0.0974  0.7514
38373SOL    HW120955   1.060   1.791   4.773  0.1713  0.4630  0.0650
38373SOL    HW220956   1.205   1.812   4.811  0.0583  1.0045  0.2084
38374SOL     OW20957   5.885   1.799   2.159  0.1023 -0.7368  0.3302
38374SOL    HW120958   5.905   1.719   2.207 -1.0602 -1.5834 -0.5340
38374SOL    HW220959   5.969   1.845   2.153  0.3835 -0.8342  2.6494
38375SOL     OW20960   0.243   3.142   6.890 -0.3545  0.2610 -0.0307
38375SOL    HW120961   0.184   3.082   6.936 -1.5032  0.4753 -1.1692
38375SOL    HW220962   0.262   3.211   6.953 -1.4507  0.2568  0.3145
38376SOL     OW20963   2.684  10.639   9.168 -0.2696 -0.7659 -0.6314
38376SOL    HW120964   2.618  10.579   9.132 -1.6582  0.5218 -0.3724
38376SOL    HW220965   2.713  10.690   9.093  1.0927 -1.8834 -0.8959
38377SOL     OW20966   4.894   5.470   4.931 -0.5051  0.0785  0.2288
38377SOL    HW120967   4.893   5.502   5.021  0.3680  0.1944  0.2101
38377SOL    HW220968   4.817   5.509   4.890 -0.0837  1.2547  0.5192
38378SOL     OW20969   5.831   1.104   2.911  0.1399  0.1550 -0.2110
38378SOL    HW120970   5.926   1.100   2.926  0.2470 -1.5031 -1.1392
38378SOL    HW220971   5.822   1.110   2.816 -0.6908  0.3794 -0.1213
38379SOL     OW20972   9.769   0.540   9.374 -0.4404 -0.0116  1.0931
38379SOL    HW120973   9.846   0.569   9.326  0.2303  0.6438  2.5083
38379SOL    HW220974   9.713   0.617   9.378 -1.0053 -0.3759  0.4151
38380SOL     OW20975   7.399   1.027   2.466 -0.5448  0.0149  0.4596
38380SOL    HW120976   7.336   0.993   2.403  0.1467 -2.5431  1.0355
38380SOL    HW220977   7.468   1.067   2.413 -1.2831  0.3291 -0.2734
38381SOL     OW20978   9.960   7.126   2.353 -0.2386  0.6185  0.4304
38381SOL    HW120979   9.958   7.208   2.304  0.4429  0.5350  0.2512
38381SOL    HW220980  10.015   7.068   2.300  0.7765  0.6263  1.4507
38382SOL     OW20981   6.635   9.303   8.029 -0.3919 -0.2865  0.2762
38382SOL    HW120982   6.710   9.259   8.070 -0.2335 -0.7064 -0.4317
38382SOL    HW220983   6.673   9.348   7.954 -0.7284  0.1663  0.3771
38383SOL     OW20984   4.007   0.325  10.080  0.4498 -0.4938 -0.1899
38383SOL    HW120985   3.978   0.331  10.171 -1.9170  0.7046 -0.9417
38383SOL    HW220986   4.048   0.410  10.062  0.3289 -0.4808 -0.4111
38384SOL     OW20987   0.002   7.366   3.262 -0.6174 -0.4869 -0.3584
38384SOL    HW120988   0.007   7.316   3.343 -0.7650 -0.8672 -0.5793
38384SOL    HW220989   0.089   7.405   3.252 -0.8184  0.1518  0.3480
38385SOL     OW20990   3.572   9.714   8.514 -0.1179  0.8728 -0.0352
38385SOL    HW120991   3.516   9.734   8.590 -1.5015 -0.4066 -0.6489
38385SOL    HW220992   3.595   9.622   8.526  0.7511  1.0248 -0.5010
38386SOL     OW20993   8.699   8.137   1.577  0.2609 -0.0583  1.1597
38386SOL    HW120994   8.671   8.083   1.503  1.5869 -1.6369  1.7457
38386SOL    HW220995   8.670   8.088   1.654  1.2579  0.1834  1.7038
38387SOL     OW20996   2.948   5.043  10.096  0.0764  0.0432  0.3218
38387SOL    HW120997   3.027   5.051  10.043 -0.4375  0.5847 -0.3774
38387SOL    HW220998   2.897   5.122  10.076 -0.1105  0.2815  1.6565
38388SOL     OW20999   5.075   8.692   4.092  0.2355  0.5848 -0.2061
38388SOL    HW121000   5.169   8.675   4.086  0.0992  0.2669 -2.0706
38388SOL    HW221001   5.060   8.710   4.185  2.1288  0.6580  0.1327
38389SOL     OW21002   1.532   8.363   5.472  0.2456  0.0287 -0.3586
38389SOL    HW121003   1.608   8.385   5.417  0.7453 -0.6090  0.0649
38389SOL    HW221004   1.566   8.303   5.538 -0.9440 -1.4897 -1.0721
38390SOL     OW21005   1.485  10.266   5.002  0.2391 -0.0652  0.3488
38390SOL    HW121006   1.420  10.280   5.071 -1.3275  1.3866 -1.3576
38390SOL    HW221007   1.480  10.172   4.984 -0.3609 -0.2099  1.2103
38391SOL     OW21008   8.126   8.572   4.703 -0.1082 -0.2378 -0.2663
38391SOL    HW121009   8.113   8.522   4.784 -1.3732 -2.1071 -1.5488
38391SOL    HW221010   8.061   8.642   4.708  0.9820  0.7417  1.0773
38392SOL     OW21011   4.163   7.448   6.486  0.4308  0.1846 -0.1207
38392SOL    HW121012   4.256   7.438   6.507  0.8223  0.7772 -1.4612
38392SOL    HW221013   4.160   7.448   6.391 -1.0257 -0.3856 -0.0987
38393SOL     OW21014   3.773  10.638   2.223  0.1803 -0.0423 -0.2108
38393SOL    HW121015   3.815  10.561   2.183 -0.4386  0.8694 -2.8176
38393SOL    HW221016   3.696  10.655   2.168 -0.1438  1.9830  0.7668
38394SOL     OW21017   1.837   5.875  10.329 -0.0176 -0.2494  0.0311
38394SOL    HW121018   1.865   5.889  10.238 -0.8184 -0.6018 -0.2793
38394SOL    HW221019   1.768   5.939  10.344 -1.6511 -1.8045 -0.4524
38395SOL     OW21020   0.231   1.386   8.480  0.0093  0.3749  0.1216
38395SOL    HW121021   0.170   1.320   8.448 -1.3511  2.1795 -1.2818
38395SOL    HW221022   0.213   1.392   8.574 -2.1919  0.9799 -0.2715
38396SOL     OW21023   9.942   4.595   4.289  0.1288 -0.0616 -0.0765
38396SOL    HW121024   9.965   4.573   4.198  0.9620  0.0696  0.1013
38396SOL    HW221025   9.906   4.513   4.324  0.0868 -0.1997 -0.4342
38397SOL     OW21026   2.668   2.714   4.863 -0.6173  0.4686 -0.7582
38397SOL    HW121027   2.662   2.772   4.939  0.8282 -0.7382  0.3424
38397SOL    HW221028   2.713   2.766   4.797 -1.9797  1.5693 -0.8755
38398SOL     OW21029   2.067   1.849   0.495  0.0464 -0.0286 -0.1887
38398SOL    HW121030   1.978   1.845   0.527  0.3141  0.0454  0.5815
38398SOL    HW221031   2.087   1.942   0.491  0.2728 -0.0590  0.1745
38399SOL     OW21032   3.644   2.888   8.213 -0.3422  0.6789  0.1491
38399SOL    HW121033   3.594   2.845   8.144  1.2488  1.2772 -1.4580
38399SOL    HW221034   3.593   2.967   8.233 -1.0980  0.2208  0.0595
38400SOL     OW21035   1.043   7.207   5.221  0.0671 -0.4297  0.2258
38400SOL    HW121036   1.021   7.268   5.151  2.1090 -0.6544 -0.6539
38400SOL    HW221037   1.014   7.252   5.301 -0.2750  0.7908 -0.5569
38401SOL     OW21038   0.211   3.588   7.870  0.4589  0.1699 -0.5521
38401SOL    HW121039   0.214   3.682   7.854 -1.6951  0.3242 -0.4509
38401SOL    HW221040   0.127   3.575   7.915  2.1867 -1.3920  2.4922
38402SOL     OW21041   0.391   9.596   4.385 -0.7848 -0.0202 -0.3656
38402SOL    HW121042   0.310   9.588   4.435 -1.6673 -1.7280 -1.9295
38402SOL    HW221043   0.457   9.555   4.442 -0.5580  2.8206  1.6299
38403SOL     OW21044   5.857   8.249   7.080  0.2379  0.2732  0.3796
38403SOL    HW121045   5.904   8.324   7.117  0.1368  0.9665 -0.8391
38403SOL    HW221046   5.786   8.232   7.141 -0.3464  1.8309  0.1799
38404SOL     OW21047   8.760   4.098   5.848 -0.2667  0.0155  0.1260
38404SOL    HW121048   8.827   4.162   5.871 -0.9572  0.6495  0.4000
38404SOL    HW221049   8.677   4.143   5.861 -0.7776 -0.9847  0.4783
38405SOL     OW21050   4.276   0.956   8.294  0.7593 -0.3536 -0.7709
38405SOL    HW121051   4.293   1.033   8.239  0.8142 -0.5813 -1.0765
38405SOL    HW221052   4.214   0.904   8.243 -2.7074  1.5126  1.2584
38406SOL     OW21053   4.073   1.340   3.033  0.0357  0.0233  0.2579
38406SOL    HW121054   4.073   1.310   3.124  2.0813 -0.8202  0.0350
38406SOL    HW221055   4.162   1.373   3.019 -0.2151  0.0379 -1.4771
38407SOL     OW21056   0.361  10.179   6.367 -0.1849  0.7601  0.1939
38407SOL    HW121057   0.347  10.267   6.402 -1.0984  0.8736 -0.4119
38407SOL    HW221058   0.337  10.121   6.439 -0.1107  1.0098  0.4197
38408SOL     OW21059   4.848   1.951   6.166  0.2171  0.0480 -0.5635
38408SOL    HW121060   4.820   1.860   6.172  0.2643 -0.0605 -1.7209
38408SOL    HW221061   4.896   1.967   6.247  1.1446 -1.2983 -0.8118
38409SOL     OW21062   9.299   0.302   0.032  0.1136 -0.6811 -0.2058
38409SOL    HW121063   9.304   0.356  -0.047  0.1192 -0.8970 -0.3536
38409SOL    HW221064   9.212   0.319   0.067 -0.6511 -2.0610 -1.3293
38410SOL     OW21065   6.347   8.485   4.742 -0.2078  0.1978 -0.3521
38410SOL    HW121066   6.359   8.580   4.748 -0.5779  0.2132  0.2218
38410SOL    HW221067   6.263   8.474   4.698 -2.1435  0.2279  2.9983
38411SOL     OW21068   8.839   5.137   8.459 -0.1368  0.0053  0.5718
38411SOL    HW121069   8.920   5.105   8.417 -0.4618  0.5427 -0.5175
38411SOL    HW221070   8.813   5.212   8.405  0.1999  1.6771  2.6042
38412SOL     OW21071   6.118   9.089  10.286 -0.0831  0.1394  0.4126
38412SOL    HW121072   6.194   9.146  10.274  1.9449 -2.8823 -3.1071
38412SOL    HW221073   6.067   9.100  10.206 -0.1988 -2.0652  0.1310
38413SOL     OW21074   0.247   1.091  10.615 -0.0442  0.1125 -0.1792
38413SOL    HW121075   0.298   1.025  10.661  0.8015 -0.8522 -2.4133
38413SOL    HW221076   0.238   1.162  10.679  3.1989 -0.0996  0.6815
38414SOL     OW21077  10.150  10.017   0.556 -0.1593 -0.0323 -0.7028
38414SOL    HW121078  10.161   9.977   0.470  0.8414  0.2035 -0.7060
38414SOL    HW221079  10.229   9.992   0.604 -0.4718  0.2574 -0.0234
38415SOL     OW21080   1.443   7.204   1.969 -0.4123  0.3612 -0.4389
38415SOL    HW121081   1.390   7.259   1.911  0.1704  0.4201 -0.9265
38415SOL    HW221082   1.383   7.179   2.039 -1.4816 -0.6474 -1.6514
38416SOL     OW21083   1.967   9.681   7.365  0.3065 -0.5567 -0.3492
38416SOL    HW121084   1.874   9.691   7.387  0.0357 -0.9684 -1.2733
38416SOL    HW221085   2.008   9.654   7.447 -0.2522  0.4073  0.2710
38417SOL     OW21086   9.467   1.110   6.473 -0.0935 -0.2771  0.3517
38417SOL    HW121087   9.462   1.034   6.532 -2.5850 -1.3204 -1.0684
38417SOL    HW221088   9.477   1.072   6.386  1.3803  1.1784 -0.1638
38418SOL     OW21089   9.935   0.176   6.627  0.1256  0.0331  0.4586
38418SOL    HW121090   9.969   0.152   6.713  0.4353 -0.1863  0.2773
38418SOL    HW221091   9.934   0.093   6.578 -0.4835  0.0738  0.3998
38419SOL     OW21092   4.077   0.044   1.412 -0.0812  0.1661 -0.1862
38419SOL    HW121093   4.056   0.128   1.372  0.1503  0.3613  0.1037
38419SOL    HW221094   4.053  -0.021   1.345 -0.3888  0.4525 -0.3564
38420SOL     OW21095   4.198  10.294   8.593 -0.3640 -0.1616 -0.1473
38420SOL    HW121096   4.281  10.288   8.544  0.2107 -0.6450  0.8564
38420SOL    HW221097   4.130  10.280   8.527  0.4150 -1.6723 -0.6793
38421SOL     OW21098   5.335  10.058   0.593 -0.0333  0.7285  0.3856
38421SOL    HW121099   5.302  10.075   0.505 -0.0213  1.2678  0.4825
38421SOL    HW221100   5.298  10.127   0.647  0.7551  0.9865  0.6127
38422SOL     OW21101   9.778   0.192   9.915 -0.2841  0.1647  0.3760
38422SOL    HW121102   9.864   0.156   9.938 -0.0058  0.8782  0.4626
38422SOL    HW221103   9.759   0.255   9.985 -0.0206  1.4067 -0.6386
38423SOL     OW21104   5.580  10.297   4.570  0.3227  0.3810 -0.2236
38423SOL    HW121105   5.535  10.247   4.639  1.0078  0.5180  0.3318
38423SOL    HW221106   5.584  10.238   4.496  1.0990 -0.3823  0.4161
38424SOL     OW21107   0.776   6.095   1.618  0.0413  0.1011 -0.3301
38424SOL    HW121108   0.832   6.020   1.638  0.5973  0.8631  1.1124
38424SOL    HW221109   0.804   6.122   1.530  0.7099 -0.6045 -0.3504
38425SOL     OW21110   1.884   2.087  10.598 -0.2426  0.4148 -0.1650
38425SOL    HW121111   1.916   2.100  10.687  0.1122  3.5177 -0.6294
38425SOL    HW221112   1.792   2.064  10.609  0.1492 -0.7373  0.9955
38426SOL     OW21113   4.764   7.871   2.591 -0.2849  0.3516  0.0653
38426SOL    HW121114   4.843   7.824   2.615  0.1170  0.1999 -1.4780
38426SOL    HW221115   4.697   7.803   2.581 -0.8477  0.5401  2.0873
38427SOL     OW21116   2.097   2.340   5.668 -0.1771  0.0412 -0.3089
38427SOL    HW121117   2.164   2.389   5.716  1.1365 -0.0856 -1.9243
38427SOL    HW221118   2.070   2.271   5.729  0.6893  0.4882  0.6107
38428SOL     OW21119   2.711   4.033   7.019  0.1579  0.3406 -0.4389
38428SOL    HW121120   2.665   3.975   7.079  0.0878  0.7130 -0.1296
38428SOL    HW221121   2.698   4.121   7.055 -1.4637  0.8045 -1.9620
38429SOL     OW21122   4.930   5.664   8.037  0.0349  0.1092  0.1041
38429SOL    HW121123   4.874   5.729   7.995 -1.4397 -1.5129 -0.5370
38429SOL    HW221124   4.874   5.588   8.051  1.9220 -1.4239 -0.1152
38430SOL     OW21125   7.512   8.933   5.082  0.0772 -0.2113  0.1984
38430SOL    HW121126   7.587   8.955   5.026 -0.2395  0.8405  0.1626
38430SOL    HW221127   7.503   8.838   5.074  1.2933 -0.3369  0.0634
38431SOL     OW21128   9.401   4.367  10.685  0.3138  0.7374 -0.1358
38431SOL    HW121129   9.371   4.314  10.758  0.3372  0.8788 -0.0221
38431SOL    HW221130   9.396   4.309  10.609  0.3925  0.5569 -0.0042
38432SOL     OW21131   2.859   9.820   7.181  0.2279 -0.0851 -0.6629
38432SOL    HW121132   2.879   9.760   7.110  0.3901 -2.9090  1.6053
38432SOL    HW221133   2.944   9.844   7.217  0.0940 -0.9493  0.2863
38433SOL     OW21134   2.925   5.198   1.662  0.5436 -0.4385  0.1494
38433SOL    HW121135   2.947   5.145   1.739  1.8029  2.5914  2.0499
38433SOL    HW221136   2.878   5.274   1.697 -0.6693  0.0916 -2.3611
38434SOL     OW21137   6.833   8.973   7.332  0.0422  0.0641 -0.8281
38434SOL    HW121138   6.820   9.046   7.392 -0.3114  0.4401 -1.3535
38434SOL    HW221139   6.745   8.945   7.309  0.1429 -1.2968  0.2613
38435SOL     OW21140   5.302   5.683   1.992  0.0020 -0.4566 -0.6410
38435SOL    HW121141   5.308   5.751   2.060  1.1683 -0.5681 -0.6066
38435SOL    HW221142   5.216   5.644   2.004 -1.3642  2.0003 -1.6112
38436SOL     OW21143  10.582   1.459   0.449  0.0592  0.4101 -0.1192
38436SOL    HW121144  10.537   1.468   0.533 -0.5247  0.8414 -0.4781
38436SOL    HW221145  10.674   1.447   0.474 -0.3796 -1.8480  0.6639
38437SOL     OW21146   3.892   8.273   3.744  0.3359  0.5312 -0.1358
38437SOL    HW121147   3.804   8.272   3.781  0.3081  2.1330 -0.0869
38437SOL    HW221148   3.939   8.339   3.794  0.3771  2.6363 -2.7187
38438SOL     OW21149   1.259   9.765   8.922 -0.2224 -0.0507 -0.5390
38438SOL    HW121150   1.167   9.740   8.913 -0.7080  0.7375  1.5016
38438SOL    HW221151   1.305   9.682   8.933 -0.8836 -0.3943 -0.2791
38439SOL     OW21152   7.733   1.906   0.596  0.0253  0.5942 -0.9636
38439SOL    HW121153   7.811   1.956   0.620 -0.7211  0.7968  1.3492
38439SOL    HW221154   7.713   1.855   0.675 -0.9065 -1.1568 -2.2681
38440SOL     OW21155  10.528   9.418   0.569  0.3285 -0.2378 -0.0166
38440SOL    HW121156  10.497   9.501   0.606 -0.8913 -1.3283  1.5427
38440SOL    HW221157  10.454   9.385   0.519  0.3484 -0.9923  0.4395
38441SOL     OW21158   4.986   3.522   2.171 -0.2858  0.1782 -0.1564
38441SOL    HW121159   4.961   3.543   2.261 -1.3078  1.1804 -0.6504
38441SOL    HW221160   4.907   3.539   2.119 -0.3299 -2.3091 -1.0004
38442SOL     OW21161   6.884   9.571   4.658  0.2017  0.2460  0.0807
38442SOL    HW121162   6.889   9.584   4.564  0.7218 -0.6073 -0.0169
38442SOL    HW221163   6.966   9.527   4.681  0.9311  2.0688  1.2113
38443SOL     OW21164   4.302   9.621   4.656  0.1299  0.5256 -0.4370
38443SOL    HW121165   4.365   9.664   4.598  0.3159  0.6801 -0.1224
38443SOL    HW221166   4.356   9.575   4.720 -0.0345 -1.1953 -1.4741
38444SOL     OW21167   7.293   1.850   0.462  0.2957  0.6240 -0.1837
38444SOL    HW121168   7.274   1.798   0.540  0.0232  1.7859  0.5431
38444SOL    HW221169   7.348   1.793   0.408 -2.0979 -1.4271 -0.6361
38445SOL     OW21170   4.176   1.820   0.160 -0.4123  0.1092  0.0968
38445SOL    HW121171   4.090   1.824   0.119 -1.0956 -0.6681  1.3741
38445SOL    HW221172   4.230   1.771   0.098 -1.2852 -0.6268 -0.1097
38446SOL     OW21173   1.113   8.962   5.696  0.2490 -0.1788 -0.1980
38446SOL    HW121174   1.169   9.034   5.666  0.1267 -0.3285 -0.7963
38446SOL    HW221175   1.162   8.922   5.768  0.5137  0.2312 -0.1435
38447SOL     OW21176   0.974   6.604   0.052  0.5109  0.3173  0.1497
38447SOL    HW121177   1.002   6.545   0.123 -1.0920 -1.2288 -0.4273
38447SOL    HW221178   1.045   6.667   0.044  1.4201 -0.3774  2.1166
38448SOL     OW21179   5.919   8.298   1.381 -0.0535 -0.0391 -0.3159
38448SOL    HW121180   5.990   8.340   1.332 -1.2742  1.6191 -0.7580
38448SOL    HW221181   5.852   8.279   1.316 -1.4918  1.7311  0.5432
38449SOL     OW21182   8.879   8.683   2.728  0.5269  0.5823  0.5144
38449SOL    HW121183   8.873   8.743   2.654  0.2223  0.7455  0.6687
38449SOL    HW221184   8.972   8.663   2.735  0.6318  1.0395  0.4618
38450SOL     OW21185   4.221   1.437  10.398 -0.3484  0.6253 -0.9259
38450SOL    HW121186   4.254   1.519  10.362 -0.7709  1.0310 -0.4139
38450SOL    HW221187   4.295   1.377  10.393  0.0205  1.0932 -1.1441
38451SOL     OW21188   8.538   1.009   0.050 -0.4411 -0.1477 -0.5606
38451SOL    HW121189   8.475   0.984   0.118 -0.4131  0.7961 -0.1690
38451SOL    HW221190   8.621   1.018   0.097 -0.7102  1.9575 -0.4039
38452SOL     OW21191   3.394   7.433   4.609 -0.2033 -0.2138  0.1220
38452SOL    HW121192   3.395   7.451   4.515  1.9446 -1.5057 -0.1817
38452SOL    HW221193   3.374   7.517   4.649 -1.7120  0.2545 -1.4689
38453SOL     OW21194   4.653   6.859   4.247  0.1214 -0.5785  0.0009
38453SOL    HW121195   4.668   6.947   4.283 -1.8181 -0.4010  0.4740
38453SOL    HW221196   4.711   6.854   4.171  1.5599  0.4361  0.9888
38454SOL     OW21197   0.532   1.949   7.192 -0.1193  0.0645 -0.6662
38454SOL    HW121198   0.495   1.865   7.219  2.0335 -1.2116 -1.4590
38454SOL    HW221199   0.497   2.012   7.255  0.3712 -1.8677  1.7072
38455SOL     OW21200   9.703   0.221   2.372  0.6903 -0.6853  0.2136
38455SOL    HW121201   9.631   0.180   2.322  1.2212 -1.3509 -0.0208
38455SOL    HW221202   9.782   0.179   2.338  1.2591  0.5617 -0.0426
38456SOL     OW21203   7.620   9.267   5.201 -0.7940 -0.1679 -0.5113
38456SOL    HW121204   7.526   9.281   5.186 -0.8371 -1.3502 -1.4133
38456SOL    HW221205   7.652   9.353   5.230 -2.1628  0.2243 -0.0733
38457SOL     OW21206   1.715   9.575   3.062 -0.1040  0.2061 -0.0651
38457SOL    HW121207   1.662   9.498   3.084  0.8124 -0.6462 -0.7163
38457SOL    HW221208   1.661   9.626   3.003 -0.6102 -0.0890  0.1317
38458SOL     OW21209   6.515   9.533   6.729 -0.4652  0.1547 -0.2060
38458SOL    HW121210   6.517   9.521   6.634 -1.2141 -1.3650 -0.0460
38458SOL    HW221211   6.424   9.552   6.749 -0.5036 -0.5689  0.3254
38459SOL     OW21212   1.969   4.058   8.584  0.1890 -0.1016 -0.2806
38459SOL    HW121213   1.949   4.135   8.638 -1.7959 -0.7067 -0.0481
38459SOL    HW221214   1.983   4.094   8.496 -1.0197  0.5363 -0.2451
38460SOL     OW21215   5.623   3.132   3.748 -0.2904 -0.5969 -0.0659
38460SOL    HW121216   5.698   3.076   3.730 -1.0977 -1.2469 -1.7176
38460SOL    HW221217   5.647   3.217   3.711 -0.1988 -0.7013 -0.2505
38461SOL     OW21218   5.088   8.128   8.902 -0.5474 -0.3465  0.7376
38461SOL    HW121219   5.127   8.140   8.988 -1.4077 -0.7133  1.1965
38461SOL    HW221220   5.162   8.113   8.844 -0.0498 -2.5228  1.8345
38462SOL     OW21221   3.760   1.891   2.993 -0.1477  0.4372 -0.0989
38462SOL    HW121222   3.692   1.830   2.962  0.7026 -0.0814 -0.9797
38462SOL    HW221223   3.784   1.940   2.915 -0.9771  2.0964  0.6449
38463SOL     OW21224   5.640   4.689   6.305  0.3887 -0.0782  0.5110
38463SOL    HW121225   5.556   4.664   6.269  0.1786 -1.6168  1.9413
38463SOL    HW221226   5.703   4.668   6.236 -0.2665 -0.1977 -0.0587
38464SOL     OW21227   0.430   0.186   1.356 -0.5438  0.4082 -0.3110
38464SOL    HW121228   0.413   0.186   1.451 -0.6887  0.5562 -0.3362
38464SOL    HW221229   0.355   0.232   1.319 -1.4175 -1.2165 -0.6645
38465SOL     OW21230   9.667  10.100   2.298  0.1824 -0.0265 -0.0692
38465SOL    HW121231   9.762  10.091   2.288  0.1516  0.7440 -1.1315
38465SOL    HW221232   9.650  10.193   2.289 -0.5147  0.0848  1.8351
38466SOL     OW21233   0.306   0.059   5.896 -0.0258 -0.1330 -0.1984
38466SOL    HW121234   0.227   0.104   5.864 -0.2269  1.2028  1.9961
38466SOL    HW221235   0.274  -0.026   5.926 -0.5426  0.1957  0.1975
38467SOL     OW21236   2.837  10.077   1.822  0.0935 -0.3040 -0.0302
38467SOL    HW121237   2.843   9.999   1.766 -0.3894  0.2045 -0.8075
38467SOL    HW221238   2.904  10.063   1.889  0.8045 -0.8605 -0.8268
38468SOL     OW21239   6.236   6.414   6.858  0.1430  0.5477 -0.7019
38468SOL    HW121240   6.146   6.412   6.889  0.6980  0.6013  1.0778
38468SOL    HW221241   6.278   6.339   6.901  1.0674  0.8719 -1.0075
38469SOL     OW21242   9.718   0.800   5.388 -0.4309 -0.1808 -0.5731
38469SOL    HW121243   9.660   0.865   5.348 -0.3646  0.2576  0.0199
38469SOL    HW221244   9.739   0.739   5.318  0.6915  1.2596 -1.5438
38470SOL     OW21245  10.561   5.195  10.164  0.3838  0.6824  0.5518
38470SOL    HW121246  10.651   5.227  10.169  0.5752  0.2708 -0.1095
38470SOL    HW221247  10.530   5.224  10.078 -0.0399  0.6433  0.6897
38471SOL     OW21248   4.258   7.086   2.828 -0.1835 -0.0360  0.0260
38471SOL    HW121249   4.241   7.056   2.918  0.4115 -0.5043 -0.0108
38471SOL    HW221250   4.210   7.024   2.773 -2.2526  1.4213  0.0438
38472SOL     OW21251   7.848   9.635   3.402  0.0702  0.1399  0.3013
38472SOL    HW121252   7.812   9.596   3.482 -0.1618 -1.3010 -0.4719
38472SOL    HW221253   7.855   9.728   3.422 -2.0237  0.1480  1.2646
38473SOL     OW21254   6.865   1.902   5.140 -0.3892 -0.2078 -0.1757
38473SOL    HW121255   6.798   1.836   5.158 -2.1261  1.2130 -1.0751
38473SOL    HW221256   6.912   1.868   5.063  0.5533 -1.6142  0.9645
38474SOL     OW21257   5.308   4.204   8.198  0.3473  0.4751  0.1583
38474SOL    HW121258   5.355   4.181   8.118 -1.3881 -1.8960 -0.2806
38474SOL    HW221259   5.232   4.253   8.168 -0.5776 -0.8537  0.2633
38475SOL     OW21260   7.408   7.411   3.511 -0.0983  0.0510  0.5282
38475SOL    HW121261   7.346   7.391   3.440 -0.5826 -0.9791  1.2205
38475SOL    HW221262   7.353   7.430   3.587  0.4293  0.1122  0.9010
38476SOL     OW21263   9.449   4.657   9.675 -0.1539  0.3220  0.4315
38476SOL    HW121264   9.430   4.563   9.681  0.6243  0.1615  0.6005
38476SOL    HW221265   9.384   4.691   9.613 -0.3530 -0.3584  0.2530
38477SOL     OW21266   3.750   7.971   5.278  0.3389 -0.1729 -0.4746
38477SOL    HW121267   3.695   8.005   5.207 -0.9136  0.1529  0.6071
38477SOL    HW221268   3.694   7.907   5.323  1.0872 -0.3438  0.2326
38478SOL     OW21269   6.197   8.337   7.906  0.1485 -0.2790  0.2375
38478SOL    HW121270   6.107   8.355   7.881  0.4164 -0.6148 -1.0358
38478SOL    HW221271   6.206   8.374   7.994 -1.1134  0.0915  0.2196
38479SOL     OW21272   4.742   5.099   2.368  0.0367  0.1986 -0.3070
38479SOL    HW121273   4.783   5.087   2.283 -0.1058  0.0571 -0.3556
38479SOL    HW221274   4.663   5.150   2.350 -0.5113 -0.6725 -0.3895
38480SOL     OW21275   3.222  10.058   3.951 -0.1505 -0.4466  0.2506
38480SOL    HW121276   3.196   9.967   3.941 -2.4626  0.2245 -0.4984
38480SOL    HW221277   3.257  10.083   3.865  1.0807 -0.7607  0.6381
38481SOL     OW21278   2.849   9.871   7.907  0.3754  0.2384 -0.0742
38481SOL    HW121279   2.864   9.784   7.944 -0.0688  0.1549 -0.0873
38481SOL    HW221280   2.792   9.855   7.832 -0.9935  0.7016  0.8431
38482SOL     OW21281   4.912   9.529   1.333  0.6922 -0.3654  0.2743
38482SOL    HW121282   4.975   9.556   1.400  0.5168  0.1720  0.2318
38482SOL    HW221283   4.965   9.513   1.255  0.9251 -1.2251  0.5963
38483SOL     OW21284   1.026   6.228  10.089 -0.3406  0.2897  0.2726
38483SOL    HW121285   1.098   6.283  10.059  0.3492 -1.4358 -1.4611
38483SOL    HW221286   0.954   6.246  10.028 -0.2272 -0.4420 -0.0879
38484SOL     OW21287   3.774   6.000   6.131 -0.1578  0.5745 -0.2668
38484SOL    HW121288   3.837   6.061   6.169  0.0069  0.0976  0.2380
38484SOL    HW221289   3.725   5.967   6.206  1.7362 -2.1770 -0.0766
38485SOL     OW21290   6.622   7.807   1.917  0.5883 -0.5841 -0.4625
38485SOL    HW121291   6.658   7.719   1.925  0.1958 -0.6005  1.5318
38485SOL    HW221292   6.564   7.816   1.992  1.5328  1.8111  0.0429
38486SOL     OW21293   4.453   2.125   1.086 -0.9547  0.6649 -0.6788
38486SOL    HW121294   4.461   2.143   1.180  0.4852  0.0860 -0.6580
38486SOL    HW221295   4.398   2.196   1.053  0.3641  2.1863  0.2317
38487SOL     OW21296   8.089   4.027   7.755 -0.0623  0.5515  0.4913
38487SOL    HW121297   8.152   4.086   7.797  1.5606 -1.1313  0.5652
38487SOL    HW221298   8.021   4.013   7.821 -0.2422  1.9329  0.6322
38488SOL     OW21299   8.317   2.819   2.252  0.0123  0.3434  0.0525
38488SOL    HW121300   8.407   2.812   2.220  0.0564 -0.7119  0.3688
38488SOL    HW221301   8.290   2.728   2.267  0.2951  0.7212  3.8147
38489SOL     OW21302   3.773   4.338   2.513 -0.1776 -0.3513 -0.2754
38489SOL    HW121303   3.864   4.363   2.529  0.8206 -4.3900  1.8378
38489SOL    HW221304   3.723   4.390   2.575  0.8069  1.0557 -0.6110
38490SOL     OW21305   0.172   6.271   0.060 -0.1055  0.0679  0.5306
38490SOL    HW121306   0.097   6.288   0.118 -0.5875  0.8164 -0.2820
38490SOL    HW221307   0.134   6.273  -0.028  1.1274  2.2100 -0.0313
38491SOL     OW21308   5.250  10.059   0.301 -0.2093 -0.1683 -0.1975
38491SOL    HW121309   5.265   9.965   0.310  0.5269  0.0788  1.2653
38491SOL    HW221310   5.156  10.066   0.283 -0.2098 -1.1842 -0.6820
38492SOL     OW21311   4.089   4.995   4.755  0.0753 -0.3101 -0.3712
38492SOL    HW121312   4.004   5.039   4.754 -0.2830 -0.9440  0.6668
38492SOL    HW221313   4.152   5.066   4.771 -0.4223 -0.0524  0.4875
38493SOL     OW21314   7.335   1.260   6.261  0.2949 -0.5708  0.0570
38493SOL    HW121315   7.295   1.201   6.197  0.7593  1.0420 -1.8136
38493SOL    HW221316   7.262   1.293   6.313 -0.6995  0.9694 -2.1605
38494SOL     OW21317   5.305   9.951   8.514 -0.4401  0.0188  0.5400
38494SOL    HW121318   5.318   9.895   8.591 -1.1239 -0.1288  0.5557
38494SOL    HW221319   5.393   9.981   8.491  0.0928 -1.9567 -0.1564
38495SOL     OW21320   5.716   7.827   6.038  0.6563 -0.7667 -0.2330
38495SOL    HW121321   5.787   7.871   6.086  0.1812 -0.2662  0.0171
38495SOL    HW221322   5.675   7.897   5.987 -0.6672 -0.7304  0.8340
38496SOL     OW21323   9.440   6.886   2.289 -0.0931  0.3923  0.5386
38496SOL    HW121324   9.416   6.971   2.252 -0.5647  0.0581  0.0500
38496SOL    HW221325   9.377   6.825   2.250 -0.2667 -0.0612  1.4949
38497SOL     OW21326   2.679   4.789   5.881 -0.1361  0.1368  0.8143
38497SOL    HW121327   2.638   4.703   5.870  0.7442 -0.3694  1.3095
38497SOL    HW221328   2.773   4.770   5.884  0.0363  1.0409  1.5652
38498SOL     OW21329  10.603   4.147   5.252  0.4047  0.6129 -0.4379
38498SOL    HW121330  10.586   4.064   5.209 -1.3535  0.3665  0.6016
38498SOL    HW221331  10.528   4.202   5.228  0.3538  1.0903  0.7172
38499SOL     OW21332   1.918   9.490   2.371  0.8742 -0.0244  0.6393
38499SOL    HW121333   1.978   9.423   2.406  1.8789  1.6169  2.2514
38499SOL    HW221334   1.971   9.537   2.306 -0.1050 -1.2597 -1.1452
38500SOL     OW21335   2.603   7.111   4.704  0.0953 -0.4993 -0.3655
38500SOL    HW121336   2.557   7.033   4.672  1.8359 -2.1798  0.9417
38500SOL    HW221337   2.582   7.179   4.641 -0.9562 -2.2155 -1.9718
38501SOL     OW21338   3.022   3.788   1.617 -0.1466 -0.0161 -0.3312
38501SOL    HW121339   2.956   3.813   1.553  1.1809  1.1086 -1.3468
38501SOL    HW221340   3.078   3.725   1.571  0.5826  0.4976 -0.1743
38502SOL     OW21341   3.966   2.168  10.504 -0.3033  0.6978 -0.3187
38502SOL    HW121342   3.992   2.223  10.430  1.3072 -0.1267 -0.3966
38502SOL    HW221343   3.917   2.096  10.464  2.8535 -1.2590 -1.0510
38503SOL     OW21344   0.024   3.897   6.819 -0.2112 -0.0357 -0.3381
38503SOL    HW121345   0.114   3.868   6.802 -0.8838 -2.0156 -0.7498
38503SOL    HW221346  -0.011   3.919   6.732 -0.3904 -0.1024 -0.2835
38504SOL     OW21347   7.749   0.907   9.043  0.1312  0.4183 -1.1499
38504SOL    HW121348   7.809   0.839   9.011  1.9164  1.1560  0.4503
38504SOL    HW221349   7.804   0.985   9.050 -1.1580  1.2573 -0.0807
38505SOL     OW21350   2.902   0.875   5.530 -0.0176 -0.1872  0.2584
38505SOL    HW121351   2.996   0.888   5.520 -0.0330  0.7750  1.2055
38505SOL    HW221352   2.883   0.906   5.619 -1.4920  1.2885 -0.5146
38506SOL     OW21353   1.987   0.219   7.844  0.0024 -0.0211  0.2352
38506SOL    HW121354   2.056   0.285   7.836  1.9683 -2.1939 -2.8093
38506SOL    HW221355   2.010   0.169   7.922  1.6892 -0.4359 -0.4904
38507SOL     OW21356   7.456   3.192   3.647 -0.0447  0.4497 -0.0613
38507SOL    HW121357   7.550   3.199   3.631 -0.1054 -1.3276 -1.4857
38507SOL    HW221358   7.446   3.213   3.740  1.9559 -0.6825  0.4703
38508SOL     OW21359   0.943   6.158   6.332  0.2093 -0.0572  0.2321
38508SOL    HW121360   0.911   6.180   6.419 -0.4698  1.3713 -0.3366
38508SOL    HW221361   0.890   6.212   6.273 -0.7393 -2.3871 -1.2342
38509SOL     OW21362   5.086  10.441   7.665 -0.4337  0.5472 -0.1186
38509SOL    HW121363   5.026  10.501   7.619 -0.7376  0.7011  0.4751
38509SOL    HW221364   5.134  10.497   7.726 -1.7116 -0.0050  1.4644
38510SOL     OW21365   5.088   3.647   2.659 -0.1297  0.8041 -0.1223
38510SOL    HW121366   5.174   3.683   2.638 -0.0127 -0.2213 -1.4995
38510SOL    HW221367   5.033   3.724   2.675  0.4549  1.5603 -1.6127
38511SOL     OW21368   9.287   0.392   9.207 -0.3203  0.1047 -0.6056
38511SOL    HW121369   9.259   0.441   9.285 -1.4418  1.8713 -2.0395
38511SOL    HW221370   9.383   0.399   9.207 -0.4132  1.7711 -0.3949
38512SOL     OW21371   0.455   0.090   7.272 -0.2365  0.1299  0.0371
38512SOL    HW121372   0.438   0.005   7.232  2.5524  0.1734 -1.5055
38512SOL    HW221373   0.527   0.074   7.334  0.0018  1.2622  0.0789
38513SOL     OW21374   1.894   3.293   4.834  0.2995  0.4394  0.1201
38513SOL    HW121375   1.881   3.346   4.912 -1.3218 -0.4215  0.4806
38513SOL    HW221376   1.882   3.354   4.761  2.2935  1.3460  0.5046
38514SOL     OW21377   8.601   0.020   6.268 -0.6428  0.1307 -0.1027
38514SOL    HW121378   8.581   0.034   6.361 -1.3965 -0.6794 -0.1308
38514SOL    HW221379   8.519  -0.014   6.231 -0.1118 -0.3102 -0.8912
38515SOL     OW21380   4.237   6.133   8.206  0.3521  0.3420  0.3517
38515SOL    HW121381   4.291   6.209   8.184 -0.1524  0.2544 -1.2949
38515SOL    HW221382   4.277   6.098   8.286  1.6392  1.3151  0.1723
38516SOL     OW21383   9.942   6.318   3.382 -0.0516  0.0401  0.2354
38516SOL    HW121384   9.860   6.275   3.406  1.1124 -1.6707  1.4508
38516SOL    HW221385  10.008   6.249   3.393  1.7504  1.7937  0.8898
38517SOL     OW21386   3.788   0.541  10.295 -0.4501  0.6116  0.2577
38517SOL    HW121387   3.709   0.518  10.344 -1.1418 -1.5644 -1.7039
38517SOL    HW221388   3.851   0.472  10.318  0.2995  1.3400  0.4413
38518SOL     OW21389   9.203   2.090   5.068 -0.0886  0.2681 -0.2835
38518SOL    HW121390   9.238   2.096   4.979  0.7988  0.0033  0.0360
38518SOL    HW221391   9.211   2.178   5.104 -2.0728  0.8167 -1.0255
38519SOL     OW21392   3.520   8.143   0.569 -0.4922  0.0054  0.6333
38519SOL    HW121393   3.598   8.163   0.621 -0.2922  0.1404  0.2899
38519SOL    HW221394   3.529   8.050   0.547 -0.7659 -0.1460  1.1473
38520SOL     OW21395   3.997   8.140   1.019  0.4045 -0.1438  1.0229
38520SOL    HW121396   3.974   8.055   0.980 -0.0986 -0.4086  1.8738
38520SOL    HW221397   4.089   8.131   1.043  1.0517  0.4037 -1.0602
38521SOL     OW21398   3.230   4.504   6.269  0.0135 -0.4211  0.1662
38521SOL    HW121399   3.181   4.543   6.341 -0.5283  0.1076 -0.4697
38521SOL    HW221400   3.322   4.510   6.296 -0.0972  0.8763  0.2946
38522SOL     OW21401   6.455   5.995   4.225  0.1202  0.4525  0.4234
38522SOL    HW121402   6.365   6.026   4.225 -0.4224 -0.9971  1.7917
38522SOL    HW221403   6.483   6.002   4.317 -0.1270 -3.1462  0.8959
38523SOL     OW21404   0.640   8.298   5.294 -0.2320 -0.2727  0.5078
38523SOL    HW121405   0.652   8.203   5.298 -1.8937 -0.4941  1.0971
38523SOL    HW221406   0.634   8.325   5.386 -1.0770  0.1944  0.3238
38524SOL     OW21407   8.238   0.632   5.833  0.0060 -0.4448 -0.0933
38524SOL    HW121408   8.258   0.721   5.804 -1.8537 -0.2108 -0.7512
38524SOL    HW221409   8.322   0.585   5.824  0.8927  1.0995 -0.1951
38525SOL     OW21410   4.889  10.017  10.221 -0.0102 -0.2390  0.0755
38525SOL    HW121411   4.858   9.957  10.288 -0.7611 -0.9117 -0.8534
38525SOL    HW221412   4.924   9.961  10.152 -1.8199  0.2934 -1.3591
38526SOL     OW21413   1.896   9.585   4.407  0.0447 -0.0706 -0.4850
38526SOL    HW121414   1.953   9.568   4.481 -0.1199  1.4672  0.0289
38526SOL    HW221415   1.816   9.535   4.426  0.2913 -0.2862 -0.0106
38527SOL     OW21416   4.670  10.189   9.355 -0.2596 -0.1467  0.5651
38527SOL    HW121417   4.754  10.183   9.401  0.2103  0.0024 -0.2574
38527SOL    HW221418   4.664  10.107   9.305 -0.4184  0.0172  0.3138
38528SOL     OW21419  10.605   9.820   2.705 -0.7086 -0.2328  0.4346
38528SOL    HW121420  10.618   9.884   2.774  1.3931 -1.2162  1.0573
38528SOL    HW221421  10.515   9.789   2.717 -1.3271  1.6194  0.9121
38529SOL     OW21422   7.451   2.770   0.877 -0.2298 -0.3547  0.9524
38529SOL    HW121423   7.477   2.749   0.787 -1.1253 -0.0018  0.5954
38529SOL    HW221424   7.358   2.750   0.880 -0.6069  1.2915  1.2829
38530SOL     OW21425  10.290   7.287   1.301  0.8060 -0.0555 -0.2696
38530SOL    HW121426  10.245   7.347   1.360 -0.4285 -1.1820 -0.0194
38530SOL    HW221427  10.246   7.203   1.314  0.7644 -0.4310 -2.5030
38531SOL     OW21428   0.280   3.573   1.441 -0.2177  0.0364  0.5621
38531SOL    HW121429   0.268   3.647   1.500 -0.1226  0.3874  0.1507
38531SOL    HW221430   0.300   3.613   1.356 -1.2231 -0.4306  0.0777
38532SOL     OW21431   2.909   5.927   4.112  0.2109  0.3447  0.2520
38532SOL    HW121432   2.998   5.900   4.089 -0.2881 -0.3420 -0.9984
38532SOL    HW221433   2.914   6.022   4.119  1.1384  0.2770  0.6543
38533SOL     OW21434   5.246   7.451   3.166 -0.1422  0.4751  0.3610
38533SOL    HW121435   5.204   7.533   3.141  0.6221  0.7989  0.0911
38533SOL    HW221436   5.227   7.392   3.093 -0.7886  0.3801  0.6077
38534SOL     OW21437  10.475   6.283   3.783 -0.2415  0.4410  0.1257
38534SOL    HW121438  10.528   6.348   3.827  0.5385  1.2712 -1.9154
38534SOL    HW221439  10.534   6.208   3.771 -0.6506 -0.0453  1.0243
38535SOL     OW21440   2.345   2.991   9.333 -0.2994  0.0676 -0.1982
38535SOL    HW121441   2.253   2.982   9.357  0.1710 -0.5326  1.4932
38535SOL    HW221442   2.380   3.056   9.395  0.5698 -0.2200 -0.3716
38536SOL     OW21443  10.566   3.533   7.379 -0.6236  0.0967 -0.3600
38536SOL    HW121444  10.498   3.571   7.435 -2.3357  0.5998 -2.6267
38536SOL    HW221445  10.542   3.441   7.370 -1.0676  0.2902 -1.2230
38537SOL     OW21446   6.430   1.958   1.954 -0.1285 -0.0709  0.1599
38537SOL    HW121447   6.515   1.977   1.914 -0.8636 -0.9438 -1.9356
38537SOL    HW221448   6.409   1.869   1.925 -2.0198  0.3355  0.1593
38538SOL     OW21449   8.796   5.538   5.699  0.0188  0.1137  0.0352
38538SOL    HW121450   8.844   5.589   5.634  1.4622 -2.6892 -1.2546
38538SOL    HW221451   8.726   5.495   5.649  0.5625 -1.3365  0.4664
38539SOL     OW21452   6.233   2.899   6.279  0.1801 -0.2647 -0.3805
38539SOL    HW121453   6.168   2.967   6.263  0.0912 -0.7256 -2.1832
38539SOL    HW221454   6.269   2.919   6.366 -1.7970  0.4422  0.3153
38540SOL     OW21455   4.781   1.238   9.153  0.0322 -0.0162  0.0118
38540SOL    HW121456   4.815   1.328   9.152 -1.8021  0.7233 -1.1239
38540SOL    HW221457   4.728   1.233   9.233 -2.5576  1.0742 -1.5161
38541SOL     OW21458   9.194   4.119   6.913 -0.4948 -0.5101 -0.8345
38541SOL    HW121459   9.199   4.141   7.006 -1.3019  0.4736 -1.0135
38541SOL    HW221460   9.259   4.049   6.902  1.0558  0.7397  0.0523
38542SOL     OW21461   4.339   4.536   6.892 -0.2664  0.1062  0.4023
38542SOL    HW121462   4.389   4.571   6.966 -0.4059  0.5366  0.2960
38542SOL    HW221463   4.351   4.601   6.822 -1.4216  0.4981  0.5495
38543SOL     OW21464   6.637   4.200   0.985 -0.4433 -0.3944  0.9561
38543SOL    HW121465   6.722   4.244   0.990 -0.8555  0.5317 -0.0379
38543SOL    HW221466   6.573   4.266   1.010 -1.0445 -0.4911 -0.2623
38544SOL     OW21467   9.292   4.243   7.897  0.1358  1.0100 -0.1749
38544SOL    HW121468   9.245   4.243   7.981 -0.7886  1.5691 -0.6760
38544SOL    HW221469   9.224   4.230   7.832  1.2051 -3.3221 -0.7056
38545SOL     OW21470   9.322   5.694   7.236 -0.4952 -0.1773  0.4472
38545SOL    HW121471   9.296   5.759   7.171 -2.0956  0.3714  1.5783
38545SOL    HW221472   9.287   5.611   7.203  0.7057 -0.3442 -0.5045
38546SOL     OW21473   3.333   4.082   0.032  0.4131  0.1049 -0.1934
38546SOL    HW121474   3.368   4.014   0.091  0.7475  0.0188 -0.4927
38546SOL    HW221475   3.238   4.070   0.037  0.4480 -0.0334  0.1762
38547SOL     OW21476   6.545  10.633   4.008  0.4873  0.0648 -0.5523
38547SOL    HW121477   6.588  10.718   4.015 -0.5507  0.5566  0.1706
38547SOL    HW221478   6.540  10.602   4.099  2.1155 -1.4447 -0.9260
38548SOL     OW21479   7.951   7.524   3.993  0.6274  0.6150  0.9374
38548SOL    HW121480   7.877   7.488   4.042  0.6139  2.3207  2.2743
38548SOL    HW221481   7.928   7.511   3.901 -0.4638 -0.5537  1.3512
38549SOL     OW21482   3.085  10.046   9.578 -0.4734 -0.1233  0.1411
38549SOL    HW121483   3.082  10.120   9.518  1.3383  0.4505  0.6953
38549SOL    HW221484   3.143  10.074   9.649  1.0047 -2.3217 -0.0546
38550SOL     OW21485   7.546   3.568   3.804 -0.2599 -0.0935  0.1108
38550SOL    HW121486   7.531   3.496   3.865 -1.3042 -0.9885 -1.1660
38550SOL    HW221487   7.641   3.572   3.796 -0.0437  0.4333  2.2044
38551SOL     OW21488   5.036   9.894   9.597  0.1875 -0.2163 -0.1612
38551SOL    HW121489   5.013   9.980   9.632 -0.3353 -0.4863  0.1726
38551SOL    HW221490   5.119   9.872   9.640 -0.0350 -0.1878  0.2835
38552SOL     OW21491   4.445  10.074   7.896  0.3597 -0.0830 -0.5377
38552SOL    HW121492   4.400  10.018   7.833 -0.3332  0.9633 -1.0004
38552SOL    HW221493   4.438  10.028   7.979 -2.5829  0.5092 -0.3452
38553SOL     OW21494   3.247   0.915   1.240 -0.5427 -0.3707 -0.0530
38553SOL    HW121495   3.220   0.997   1.200 -2.1060 -1.0112 -0.3878
38553SOL    HW221496   3.174   0.891   1.298 -0.0147 -1.3992  0.2235
38554SOL     OW21497   5.212   1.167   0.268 -1.0204 -0.3281  0.7070
38554SOL    HW121498   5.203   1.253   0.228  1.1831 -1.3195 -2.2915
38554SOL    HW221499   5.280   1.178   0.336  0.8256 -0.0221 -1.0957
38555SOL     OW21500  10.446   2.730  10.563 -0.2218  0.3605 -0.2296
38555SOL    HW121501  10.496   2.698  10.639 -0.1299  1.4105  0.1639
38555SOL    HW221502  10.395   2.803  10.598 -0.1618  0.8693 -1.1916
38556SOL     OW21503   7.277   4.099  10.048  0.3465  0.1760 -0.4121
38556SOL    HW121504   7.227   4.147   9.982 -1.0760  0.0637  0.5332
38556SOL    HW221505   7.231   4.016  10.056  0.2009  0.3718  1.0405
38557SOL     OW21506   6.945   9.765   1.168 -0.1456  0.1313 -0.1782
38557SOL    HW121507   7.035   9.742   1.188 -0.3629 -0.5159  0.0906
38557SOL    HW221508   6.892   9.703   1.219 -0.7378  0.4792 -0.3550
38558SOL     OW21509   3.242   2.596   7.418  0.7385 -0.4101 -0.0890
38558SOL    HW121510   3.291   2.626   7.342  2.3785 -1.1042  0.6480
38558SOL    HW221511   3.210   2.509   7.394 -1.3350  0.5360 -1.0488
38559SOL     OW21512   9.428   4.472   8.275 -0.6177  0.1156 -0.3857
38559SOL    HW121513   9.481   4.552   8.268 -0.7155  0.2989  0.7641
38559SOL    HW221514   9.368   4.476   8.201 -1.1041  1.4787  0.0540
38560SOL     OW21515   8.773   6.050   0.247  0.2126 -0.1670 -0.0912
38560SOL    HW121516   8.711   6.078   0.180  0.1435  0.5272  0.2526
38560SOL    HW221517   8.799   5.962   0.221 -0.3852 -0.1915 -0.6174
38561SOL     OW21518   0.594   0.788   8.717  0.0022 -0.1544 -0.1326
38561SOL    HW121519   0.563   0.879   8.719  1.1898  0.2533  1.4174
38561SOL    HW221520   0.534   0.744   8.656 -2.7686  0.8872  1.6428
38562SOL     OW21521   7.007   1.539   9.652  0.2105 -0.5712 -0.2107
38562SOL    HW121522   7.097   1.507   9.652  0.2986 -0.3494 -1.1109
38562SOL    HW221523   7.014   1.630   9.681  0.6922  0.4221 -3.0496
38563SOL     OW21524   6.578   7.601   2.871 -0.8737  0.1578 -0.1439
38563SOL    HW121525   6.569   7.691   2.902 -0.3909  0.4421 -0.8116
38563SOL    HW221526   6.507   7.553   2.914 -0.7809  0.7318  0.6656
38564SOL     OW21527   1.765   8.116   5.369  0.4003 -0.0595  0.2937
38564SOL    HW121528   1.738   8.114   5.461  1.6711 -0.5452  0.6872
38564SOL    HW221529   1.860   8.124   5.373  0.4641 -0.0434 -0.9903
38565SOL     OW21530   8.096   9.124   0.702  0.4268  0.5712  0.2955
38565SOL    HW121531   8.112   9.082   0.618  2.2431  1.6692  0.0489
38565SOL    HW221532   8.100   9.218   0.683 -1.9455  0.9119  1.1198
38566SOL     OW21533   9.532   7.755   9.731 -0.2302 -0.3220 -0.0238
38566SOL    HW121534   9.507   7.666   9.758 -0.5393  0.2548  1.7043
38566SOL    HW221535   9.449   7.800   9.719 -0.1049  0.4482  1.7050
38567SOL     OW21536   7.578   7.565   9.111 -0.0360 -0.7412  0.3366
38567SOL    HW121537   7.529   7.500   9.061 -0.9246 -0.4628  0.8186
38567SOL    HW221538   7.665   7.566   9.071 -0.3250 -1.4796 -0.3315
38568SOL     OW21539   8.387  10.570   3.249  0.0734 -0.4512  0.6701
38568SOL    HW121540   8.335  10.490   3.253 -1.7807  0.6475 -0.1715
38568SOL    HW221541   8.442  10.559   3.171  0.2854 -1.1408  0.9075
38569SOL     OW21542   9.793   9.125   3.116  0.1826 -0.3188  0.0260
38569SOL    HW121543   9.821   9.143   3.206  0.5908 -0.6284 -0.0356
38569SOL    HW221544   9.790   9.212   3.074  2.2345 -0.3459 -0.2979
38570SOL     OW21545   9.823   7.321   3.228  0.5872 -0.3252  0.4574
38570SOL    HW121546   9.844   7.326   3.135  0.1552 -0.6144  0.3394
38570SOL    HW221547   9.819   7.228   3.247 -1.8599 -0.3575  0.1527
38571SOL     OW21548  10.690   7.589  10.049 -0.2679 -0.2895  0.2850
38571SOL    HW121549  10.654   7.501  10.041 -0.2657 -0.1115 -3.0522
38571SOL    HW221550  10.770   7.587   9.996  0.6991  1.2748  1.5939
38572SOL     OW21551   1.489   2.566   7.125  0.5664 -0.0345  0.1897
38572SOL    HW121552   1.496   2.547   7.219 -2.1592  0.5572  0.6075
38572SOL    HW221553   1.448   2.653   7.121  0.4064 -0.1536 -1.5468
38573SOL     OW21554   7.184   7.572   1.043 -0.5086 -0.3329  0.1764
38573SOL    HW121555   7.168   7.623   0.964 -0.4755 -0.2050  0.2503
38573SOL    HW221556   7.164   7.482   1.019 -2.2566 -0.0699  0.5196
38574SOL     OW21557   7.469   8.818   2.475  0.1472 -0.6735 -0.0270
38574SOL    HW121558   7.467   8.850   2.385  1.5902 -2.0607 -0.5924
38574SOL    HW221559   7.385   8.773   2.487 -0.3838  0.2030 -0.3940
38575SOL     OW21560   9.523   2.770  10.615 -0.2587  0.4476 -0.2718
38575SOL    HW121561   9.615   2.752  10.633 -0.6263 -1.0926  0.1639
38575SOL    HW221562   9.513   2.751  10.521 -0.5553 -1.4140  0.0998
38576SOL     OW21563   9.717   7.676   9.992  0.0853  0.2423 -0.0566
38576SOL    HW121564   9.676   7.593  10.016 -0.3999  0.7904  1.1178
38576SOL    HW221565   9.699   7.686   9.899  2.2254 -2.1032 -0.8553
38577SOL     OW21566   5.468   0.013   2.443  0.0895  0.2133  0.4008
38577SOL    HW121567   5.443   0.096   2.402 -1.6523 -0.5141 -0.1087
38577SOL    HW221568   5.549   0.032   2.490  1.4912  1.3862 -2.3430
38578SOL     OW21569   6.284   5.862   6.704 -0.2172 -0.4688 -0.0076
38578SOL    HW121570   6.190   5.854   6.718  0.0266 -2.0885  1.0096
38578SOL    HW221571   6.311   5.776   6.670  1.0430 -0.4251  0.7939
38579SOL     OW21572  10.452   0.361   8.765 -0.3176 -0.5180 -0.3671
38579SOL    HW121573  10.490   0.395   8.683 -0.2927 -1.8654 -0.9382
38579SOL    HW221574  10.467   0.267   8.761 -1.8141 -0.8234  0.4050
38580SOL     OW21575  10.404   0.373   0.245 -0.1046  0.0244  0.5997
38580SOL    HW121576  10.498   0.369   0.226 -0.2118  0.6476 -0.0627
38580SOL    HW221577  10.365   0.414   0.169 -0.5848  2.2927  1.9822
38581SOL     OW21578   2.619   6.601   5.463 -0.3855 -0.3225 -0.6779
38581SOL    HW121579   2.557   6.666   5.431  0.7558  1.5036  0.6520
38581SOL    HW221580   2.579   6.517   5.439 -1.8190  0.8194 -2.6110
38582SOL     OW21581   2.393   2.602   4.421  0.3949  0.5544  0.2477
38582SOL    HW121582   2.403   2.647   4.505 -0.2260 -0.2066  0.7392
38582SOL    HW221583   2.403   2.509   4.442 -2.2511  0.1138 -0.0489
38583SOL     OW21584   6.453   6.142   0.001  0.1193 -0.1575  0.0389
38583SOL    HW121585   6.525   6.129  -0.061  0.1530  1.3847 -0.2966
38583SOL    HW221586   6.475   6.224   0.045 -1.1688  0.0616  0.3100
38584SOL     OW21587   1.788   8.311   7.021  0.7469 -0.4879  0.0184
38584SOL    HW121588   1.711   8.255   7.015 -1.8383  2.7605  0.2233
38584SOL    HW221589   1.785   8.365   6.943  2.7214 -0.0859  0.1696
38585SOL     OW21590   8.775   9.706   1.550  0.4210 -0.7858 -0.0117
38585SOL    HW121591   8.731   9.623   1.565 -0.8152 -0.2544 -0.6327
38585SOL    HW221592   8.781   9.715   1.455  1.0365 -0.4093  0.0514
38586SOL     OW21593   2.839   8.063   3.053 -0.7102 -0.2741 -0.4233
38586SOL    HW121594   2.773   8.051   3.121 -1.5632 -0.2428 -1.2116
38586SOL    HW221595   2.861   8.155   3.056 -0.5582 -0.3259 -0.0169
38587SOL     OW21596   5.064   8.946   2.607 -0.2322 -0.1804  0.2265
38587SOL    HW121597   5.028   8.890   2.677  1.2403  0.3964  1.4904
38587SOL    HW221598   5.031   8.906   2.526  0.2729 -2.5361  1.0973
38588SOL     OW21599   2.382   7.960   0.317 -0.2449 -0.0465 -0.1773
38588SOL    HW121600   2.321   8.026   0.348  2.2474  1.1447  2.7771
38588SOL    HW221601   2.460   8.010   0.290  0.9046 -1.6218  0.0436
38589SOL     OW21602   9.885   2.653   1.173 -0.0968 -0.4705  0.0821
38589SOL    HW121603   9.819   2.602   1.219 -0.8423 -0.1012 -0.5569
38589SOL    HW221604   9.836   2.723   1.131  0.2303 -1.9565 -3.0083
38590SOL     OW21605   9.067   8.926   1.093  0.4506  0.1439  0.4319
38590SOL    HW121606   8.983   8.970   1.080  1.1099  1.4927  0.5238
38590SOL    HW221607   9.057   8.876   1.173  0.2320  1.6023  1.3490
38591SOL     OW21608   7.479   0.763   8.635 -0.3206  0.1824 -0.2636
38591SOL    HW121609   7.465   0.741   8.727 -0.2230 -0.2389 -0.3494
38591SOL    HW221610   7.503   0.856   8.635 -1.9721  0.6459  0.0035
38592SOL     OW21611   5.980   1.317  10.561  0.2657  0.4864 -0.0566
38592SOL    HW121612   6.008   1.407  10.547  1.6258 -0.0563 -1.1184
38592SOL    HW221613   5.914   1.301  10.493  1.6406  0.0507 -1.3587
38593SOL     OW21614  10.713   4.580   5.814 -0.1846  0.3383 -0.0805
38593SOL    HW121615  10.724   4.591   5.908 -1.8098  2.0492 -0.0330
38593SOL    HW221616  10.800   4.557   5.781  0.8017  1.5417  1.5914
38594SOL     OW21617   7.018   6.078   6.643 -0.0957  0.3119 -0.5086
38594SOL    HW121618   7.058   6.010   6.698 -0.5332 -0.6112 -1.2993
38594SOL    HW221619   6.931   6.043   6.622  0.1169  0.5763 -1.9031
38595SOL     OW21620   2.214  10.033   9.947  0.3339  0.4806 -0.1931
38595SOL    HW121621   2.139  10.071   9.992 -0.7581 -1.0653 -0.6442
38595SOL    HW221622   2.248   9.967  10.008  0.3991  0.1352 -0.6006
38596SOL     OW21623   6.396   3.248   5.772 -0.1215 -0.0370 -0.4522
38596SOL    HW121624   6.459   3.219   5.706  1.0140 -1.1669  1.0343
38596SOL    HW221625   6.414   3.192   5.848 -0.2034  2.3214  1.4192
38597SOL     OW21626   7.497   4.500   7.354  0.6709 -0.1969  0.0604
38597SOL    HW121627   7.418   4.518   7.404 -0.8295 -1.9545 -1.5216
38597SOL    HW221628   7.568   4.532   7.409 -1.1096  1.3775  1.5809
38598SOL     OW21629   5.521   5.189   4.751 -0.7137 -0.1932  0.4004
38598SOL    HW121630   5.530   5.095   4.731  0.4506 -0.0732  0.2878
38598SOL    HW221631   5.539   5.232   4.667  0.5649  0.1821  0.8495
38599SOL     OW21632   4.673   7.988   3.363 -0.0201 -0.0355 -0.3945
38599SOL    HW121633   4.669   8.083   3.360  0.2022 -0.0403 -1.7487
38599SOL    HW221634   4.596   7.962   3.414  0.3362  0.8777  0.6557
38600SOL     OW21635   6.372   7.047  10.390 -0.0695  0.0109 -0.3842
38600SOL    HW121636   6.420   7.110  10.444 -0.3010 -0.4404  0.3636
38600SOL    HW221637   6.301   7.098  10.352 -2.0510 -0.3179  2.5293
38601SOL     OW21638   8.828   0.027   5.548 -0.1933  0.3323 -0.2013
38601SOL    HW121639   8.833   0.031   5.643 -0.0515 -0.6218 -0.1586
38601SOL    HW221640   8.784   0.108   5.523 -0.8913  0.2629  0.7325
38602SOL     OW21641   4.760   5.223   4.924 -0.2643 -1.0953  0.7650
38602SOL    HW121642   4.818   5.298   4.931 -1.9499  0.3497  0.0353
38602SOL    HW221643   4.787   5.178   4.844 -0.6933  0.0797 -0.0655
38603SOL     OW21644   4.201   5.940   6.988 -0.2546  0.3894  0.1592
38603SOL    HW121645   4.237   6.027   7.001 -3.6282  1.8812  0.5096
38603SOL    HW221646   4.239   5.910   6.906 -0.0542  2.8032 -0.6903
38604SOL     OW21647   7.405   7.256   9.362  0.0789  0.2787  0.0260
38604SOL    HW121648   7.473   7.212   9.312  0.5538  1.1352 -0.0921
38604SOL    HW221649   7.452   7.305   9.430 -0.5563 -1.0339  1.4796
38605SOL     OW21650   8.188  10.091   0.208  0.6365 -0.0123  0.0930
38605SOL    HW121651   8.281  10.092   0.232  0.7224 -1.5492 -0.0822
38605SOL    HW221652   8.166   9.998   0.199 -0.8295  0.3356 -0.2373
38606SOL     OW21653   2.343   6.025   3.351  0.1977 -0.3105  0.4691
38606SOL    HW121654   2.354   6.055   3.261 -0.4645  0.0340  0.4996
38606SOL    HW221655   2.418   6.062   3.398 -0.1625  0.6220  0.3335
38607SOL     OW21656   9.594   8.996   5.519 -0.0405  0.1788 -0.9258
38607SOL    HW121657   9.501   9.016   5.522  0.3276  1.9285  1.0797
38607SOL    HW221658   9.600   8.906   5.552 -0.9890  0.0753 -1.0020
38608SOL     OW21659   4.727   7.891   7.659  0.6313  0.3897  0.2722
38608SOL    HW121660   4.778   7.839   7.597  1.4467  0.8140  0.5661
38608SOL    HW221661   4.782   7.896   7.737 -0.5772 -0.5214  1.2071
38609SOL     OW21662   3.713   6.378   5.646 -0.3304  0.9146  0.4337
38609SOL    HW121663   3.755   6.440   5.586  3.6448 -0.7619  1.1484
38609SOL    HW221664   3.769   6.377   5.723 -0.4792 -3.0228  0.7115
38610SOL     OW21665   5.598   9.638  10.051  0.3023 -0.3704 -0.2285
38610SOL    HW121666   5.637   9.658  10.136 -0.6713  0.5406  0.0323
38610SOL    HW221667   5.600   9.542  10.045  0.1591 -0.4624  0.9455
38611SOL     OW21668   2.485   2.234   5.000 -0.4241 -0.1007  0.3143
38611SOL    HW121669   2.448   2.153   4.965  0.5385 -0.6470  0.5489
38611SOL    HW221670   2.546   2.264   4.933  0.9197 -0.7934  1.1832
38612SOL     OW21671   3.578   1.830   4.668 -0.3576 -0.4925  0.4475
38612SOL    HW121672   3.606   1.817   4.759  0.0240  0.4079  0.4708
38612SOL    HW221673   3.585   1.925   4.654 -1.5572 -0.4724 -0.1537
38613SOL     OW21674   1.684   8.400   8.876 -0.1030  0.4058  0.5410
38613SOL    HW121675   1.720   8.458   8.809  0.1206 -0.3462 -0.0093
38613SOL    HW221676   1.716   8.436   8.959  0.6632  0.6338  0.1608
38614SOL     OW21677   9.757   8.036   3.514  0.3310  0.7440  0.0305
38614SOL    HW121678   9.811   7.977   3.567  0.1908  1.6729  1.2554
38614SOL    HW221679   9.683   8.058   3.570 -1.1600 -0.1761 -1.4668
38615SOL     OW21680   7.246   8.656   3.956  0.5697 -0.7163 -0.0476
38615SOL    HW121681   7.270   8.745   3.931  0.4356 -0.9010 -0.8548
38615SOL    HW221682   7.305   8.601   3.904 -1.3360 -1.1768 -1.8306
38616SOL     OW21683   1.063   3.038   2.491 -0.5129 -0.6188 -0.1051
38616SOL    HW121684   1.071   3.009   2.400 -0.0591  2.1314 -1.0197
38616SOL    HW221685   1.016   3.121   2.487  0.0093 -0.1303  2.1204
38617SOL     OW21686   2.347   5.493   2.029 -0.5471 -0.8158 -0.4080
38617SOL    HW121687   2.299   5.470   1.950 -0.4014 -0.6520 -0.5438
38617SOL    HW221688   2.391   5.575   2.008 -0.4477 -0.8096 -0.1830
38618SOL     OW21689   1.728   1.021   7.169 -0.1599  0.2406 -0.4055
38618SOL    HW121690   1.770   1.089   7.221 -0.5087 -0.0497  0.2632
38618SOL    HW221691   1.689   1.068   7.095  0.2843  0.6636 -0.3734
38619SOL     OW21692   3.761   9.477   5.005 -0.1908  0.0187  0.4503
38619SOL    HW121693   3.851   9.461   5.035  0.4148  1.0408 -0.7102
38619SOL    HW221694   3.752   9.425   4.925 -0.1938  0.8764 -0.1190
38620SOL     OW21695   6.740   6.590   9.149 -0.2038 -0.2278  0.2795
38620SOL    HW121696   6.734   6.563   9.241 -1.3041  1.1645  0.6564
38620SOL    HW221697   6.649   6.604   9.122  0.1917  0.7764 -0.5867
38621SOL     OW21698   2.403   6.904   0.508 -0.2993 -0.2659 -0.3315
38621SOL    HW121699   2.413   6.852   0.588 -0.1911  3.2286  2.1448
38621SOL    HW221700   2.359   6.984   0.537 -0.1242  1.2400 -3.7782
38622SOL     OW21701   3.702   7.140   2.697 -0.4994 -1.0042  0.0300
38622SOL    HW121702   3.697   7.122   2.791 -0.9309  1.9686  0.6626
38622SOL    HW221703   3.712   7.054   2.657  1.3946 -2.2670  2.8754
38623SOL     OW21704   6.967   9.932   7.492  0.4584 -0.1823  0.6243
38623SOL    HW121705   6.912   9.931   7.413 -0.0520  3.2150  0.8008
38623SOL    HW221706   7.054   9.909   7.459 -0.1282 -0.9263 -0.5142
38624SOL     OW21707   6.778   3.090   1.247  0.2146  0.2874 -0.4672
38624SOL    HW121708   6.753   3.090   1.154  1.7815  0.9940 -0.9156
38624SOL    HW221709   6.727   3.162   1.285 -1.4257 -0.8242 -0.4536
38625SOL     OW21710   8.428   9.729   4.811  0.1703  0.4578 -0.8297
38625SOL    HW121711   8.338   9.748   4.782 -0.2132  1.2237  0.7606
38625SOL    HW221712   8.418   9.658   4.874  0.3142  2.2004  1.2756
38626SOL     OW21713   1.967   1.876   8.010  0.1166 -0.2631  1.0386
38626SOL    HW121714   2.046   1.826   8.032  0.7743  0.5186  0.5013
38626SOL    HW221715   1.988   1.967   8.032  0.0725  0.2448 -0.8730
38627SOL     OW21716   3.428   2.755   7.016 -0.1759  0.1927  0.4686
38627SOL    HW121717   3.447   2.666   7.046 -3.5772 -0.7834  0.0913
38627SOL    HW221718   3.391   2.743   6.928  0.1956  2.1045  0.0078
38628SOL     OW21719   7.389   0.785   8.067  0.1219  0.1913 -0.5200
38628SOL    HW121720   7.380   0.690   8.065 -0.5193  0.2466 -0.5003
38628SOL    HW221721   7.428   0.807   7.983 -0.9721  0.0203 -1.0985
38629SOL     OW21722   9.269   5.570   4.138  0.3205  0.2481 -0.0201
38629SOL    HW121723   9.183   5.608   4.155  0.1003 -1.1163  2.3918
38629SOL    HW221724   9.331   5.635   4.172  0.1092  0.0155  0.8199
38630SOL     OW21725   3.455   6.576   7.263  0.2510  0.1319 -0.0723
38630SOL    HW121726   3.464   6.661   7.306 -1.8400  0.1186  0.5052
38630SOL    HW221727   3.489   6.514   7.327  2.8834  0.5472 -0.9511
38631SOL     OW21728  10.675   6.541   0.034 -0.1609  0.0470 -0.2554
38631SOL    HW121729  10.594   6.516   0.078  0.3500  0.2945  0.8596
38631SOL    HW221730  10.734   6.568   0.105  0.0730  2.2517 -1.2087
38632SOL     OW21731   5.775   2.398   2.152  0.4294  0.5463 -0.4450
38632SOL    HW121732   5.691   2.438   2.174  0.3602 -0.4327  1.2854
38632SOL    HW221733   5.783   2.324   2.213  1.1252 -1.3023 -2.6268
38633SOL     OW21734   8.496   2.398   7.297 -0.4838  0.1856 -0.1343
38633SOL    HW121735   8.410   2.371   7.330 -0.2653  0.0878  0.3636
38633SOL    HW221736   8.552   2.321   7.311 -0.0236  0.6510  0.6634
38634SOL     OW21737   5.451   1.612   6.873 -0.2532 -0.1319 -0.4592
38634SOL    HW121738   5.530   1.658   6.844 -0.0258  0.6537  1.2437
38634SOL    HW221739   5.418   1.665   6.946 -1.5833 -1.1974 -0.2354
38635SOL     OW21740   3.023   0.052   5.762 -0.2718  0.0907  0.3978
38635SOL    HW121741   3.070   0.086   5.839  2.1204 -0.0302 -0.9217
38635SOL    HW221742   2.975  -0.024   5.795  0.6837  0.0470  1.7906
38636SOL     OW21743   2.866   1.392   1.351  0.2027  0.2946  0.1584
38636SOL    HW121744   2.869   1.380   1.446  0.5361  0.3422  0.1522
38636SOL    HW221745   2.773   1.408   1.333  0.1192  0.1662  0.4603
38637SOL     OW21746   7.577   2.181   9.022  0.1997 -0.3233 -0.4238
38637SOL    HW121747   7.643   2.168   9.090 -1.2677 -0.0322  1.1287
38637SOL    HW221748   7.624   2.225   8.951  1.2404  1.8494  1.4723
38638SOL     OW21749   5.515   0.083   0.912  0.8783 -0.1614 -0.2332
38638SOL    HW121750   5.571   0.140   0.965 -1.7314  2.1461  0.2701
38638SOL    HW221751   5.518   0.121   0.824  1.3906 -1.0850 -0.6393
38639SOL     OW21752   3.695   9.928   3.367 -0.2257  0.2122  0.2264
38639SOL    HW121753   3.769   9.881   3.329  0.2333 -0.1449  1.4877
38639SOL    HW221754   3.735   9.997   3.421 -0.8298  0.4962  0.3230
38640SOL     OW21755   4.405  10.391   1.957  0.1907  0.0745  0.6519
38640SOL    HW121756   4.474  10.441   1.914  0.4353  0.4602  1.4659
38640SOL    HW221757   4.444  10.305   1.973  0.0566 -0.1122  0.0087
38641SOL     OW21758   8.363  10.029   4.097 -0.5816  0.1443  0.2202
38641SOL    HW121759   8.268  10.016   4.103 -0.2895 -2.2099  1.1301
38641SOL    HW221760   8.381  10.102   4.156 -1.7284 -0.0411  0.8427
38642SOL     OW21761   0.878   3.920   6.134 -0.1503  0.1524  0.0292
38642SOL    HW121762   0.943   3.984   6.104 -0.8308 -0.0434 -2.0424
38642SOL    HW221763   0.857   3.947   6.223 -0.8286  3.2075 -0.9275
38643SOL     OW21764   2.058   0.868   3.328  0.4952  0.1054  0.1503
38643SOL    HW121765   2.088   0.951   3.365  0.7208 -0.4846  1.3406
38643SOL    HW221766   1.992   0.837   3.390 -0.0320 -0.3183 -0.6053
38644SOL     OW21767   9.296   5.614   3.061  0.1328  0.2160 -0.0727
38644SOL    HW121768   9.274   5.531   3.019 -1.0922 -0.1589  1.2057
38644SOL    HW221769   9.391   5.616   3.065  0.2343 -0.2766 -1.7422
38645SOL     OW21770   8.832   2.499   1.265  0.1877  0.4689 -0.2347
38645SOL    HW121771   8.914   2.454   1.286 -0.0213  0.7040  1.1551
38645SOL    HW221772   8.807   2.463   1.180  2.2470  1.1488 -1.2048
38646SOL     OW21773   8.321   2.779   5.179 -0.0622  1.0652  0.2986
38646SOL    HW121774   8.341   2.817   5.093 -0.9750 -1.7211 -1.2605
38646SOL    HW221775   8.326   2.684   5.165  0.3725  0.5064  3.5084
38647SOL     OW21776   4.923   6.925   9.428  0.1589 -0.7174 -0.1139
38647SOL    HW121777   4.992   6.898   9.368  0.5175  0.1828 -0.1198
38647SOL    HW221778   4.925   6.859   9.498  1.6031 -0.2356  0.3341
38648SOL     OW21779   1.881   6.421   2.813  0.2866  0.4068  0.2810
38648SOL    HW121780   1.903   6.513   2.827  0.8777 -0.0815  3.0112
38648SOL    HW221781   1.964   6.374   2.824 -0.1449 -0.5335 -0.3327
38649SOL     OW21782   7.832   6.833   1.655 -0.3559  0.5386 -0.1381
38649SOL    HW121783   7.800   6.922   1.643 -0.0014  1.0178  2.0582
38649SOL    HW221784   7.926   6.838   1.635 -0.2484  0.7746  0.4033
38650SOL     OW21785   6.301   2.044   5.061  0.1977  0.2522 -0.2816
38650SOL    HW121786   6.289   1.965   5.008  0.6581  0.0657 -0.1079
38650SOL    HW221787   6.393   2.042   5.088 -0.1851 -0.0152  1.0952
38651SOL     OW21788   7.185   2.771   1.259  0.0526  0.0099  0.4805
38651SOL    HW121789   7.206   2.721   1.180  0.6853 -1.1177  1.3365
38651SOL    HW221790   7.090   2.779   1.258  0.1356  1.2278 -1.1030
38652SOL     OW21791   7.604   5.160   7.281  0.4997  0.5857 -0.7494
38652SOL    HW121792   7.542   5.098   7.242 -1.2785  0.6763  1.6813
38652SOL    HW221793   7.581   5.244   7.242 -0.4640  0.4928 -0.4180
38653SOL     OW21794   8.394   0.891   3.618 -0.6395  0.4276  0.7212
38653SOL    HW121795   8.392   0.795   3.619  1.0435  0.3586  1.0255
38653SOL    HW221796   8.486   0.912   3.604 -1.2483  2.0160 -1.4752
38654SOL     OW21797   3.157   7.754   0.800  0.0131  0.1391  0.2666
38654SOL    HW121798   3.084   7.796   0.845 -0.2655 -1.1804  1.0943
38654SOL    HW221799   3.234   7.799   0.833 -0.3328  0.6843  0.3566
38655SOL     OW21800   9.777   2.585   7.756 -0.1337 -0.1227  0.1421
38655SOL    HW121801   9.753   2.674   7.730  0.8807 -0.0058 -0.4347
38655SOL    HW221802   9.871   2.579   7.740  1.4399  0.8918  6.4146
38656SOL     OW21803   0.493   3.410  10.059 -0.1384 -0.0322 -0.4334
38656SOL    HW121804   0.458   3.376   9.976  1.1068 -1.8169 -0.2708
38656SOL    HW221805   0.585   3.429  10.041  0.3193 -1.0716  0.7026
38657SOL     OW21806   3.945   2.829   4.079 -0.0423  0.8284 -0.1716
38657SOL    HW121807   3.913   2.915   4.103 -1.3294  0.1430  0.6830
38657SOL    HW221808   3.883   2.797   4.013 -1.1505 -0.4551  1.3949
38658SOL     OW21809   1.056   5.410   0.813 -0.2467  0.1263 -0.3354
38658SOL    HW121810   1.036   5.321   0.840 -1.7554  0.6389  0.3622
38658SOL    HW221811   1.096   5.401   0.727 -0.6528 -1.2054 -0.4009
38659SOL     OW21812   3.852  10.479  10.151 -0.1487 -0.1287 -0.4334
38659SOL    HW121813   3.932  10.433  10.176 -1.0022 -1.7947 -0.6371
38659SOL    HW221814   3.855  10.484  10.056  0.1303  0.6133 -0.3892
38660SOL     OW21815   3.419   0.631   3.211  0.1578 -0.4240 -0.1189
38660SOL    HW121816   3.505   0.613   3.173  0.6493 -0.1133  0.8204
38660SOL    HW221817   3.363   0.648   3.135  1.0167 -0.2129 -0.7279
38661SOL     OW21818   8.117   2.192   3.229 -0.3911  0.1238  0.9048
38661SOL    HW121819   8.024   2.217   3.225 -0.2580  0.4839 -0.3771
38661SOL    HW221820   8.117   2.109   3.277 -1.5941 -0.7956 -0.5878
38662SOL     OW21821   3.193   6.233   4.259 -0.0932 -0.3839  0.1232
38662SOL    HW121822   3.245   6.153   4.260 -3.9241 -3.1403  1.0516
38662SOL    HW221823   3.203   6.270   4.346  0.1930 -0.9724  0.3425
38663SOL     OW21824   2.684   3.919   5.453 -0.2712 -0.4338  0.1659
38663SOL    HW121825   2.759   3.966   5.489 -2.1983  1.6392  1.7524
38663SOL    HW221826   2.692   3.929   5.359  1.9153 -1.1104  0.2336
38664SOL     OW21827   2.239  10.105   9.656 -0.0093  0.6961 -0.0511
38664SOL    HW121828   2.319  10.154   9.636 -0.2287  0.2711 -2.2044
38664SOL    HW221829   2.218  10.130   9.746  1.0316  2.9537 -0.3468
38665SOL     OW21830   9.987   9.834   6.882 -0.0352  0.0701  0.2387
38665SOL    HW121831  10.048   9.892   6.836 -0.9509 -0.6600 -2.0580
38665SOL    HW221832  10.009   9.844   6.974  2.1974  1.3497 -0.3539
38666SOL     OW21833   1.074   2.467   9.075  0.0224  0.0125 -0.8111
38666SOL    HW121834   0.984   2.474   9.108  0.3592 -1.2515  0.4840
38666SOL    HW221835   1.065   2.471   8.980 -1.8074 -3.1608 -0.9235
38667SOL     OW21836   1.512   8.518   9.128 -0.4923 -0.4121 -0.2470
38667SOL    HW121837   1.483   8.431   9.099 -0.3104 -0.1912 -1.1169
38667SOL    HW221838   1.441   8.549   9.185 -1.2157 -0.5542 -1.0480
38668SOL     OW21839   4.728   1.901   5.723  0.0698  0.5322 -0.2287
38668SOL    HW121840   4.776   1.902   5.640 -0.5415 -1.2474 -0.6465
38668SOL    HW221841   4.783   1.848   5.781 -0.6462 -0.2296 -0.2395
38669SOL     OW21842   7.459   2.322   7.301  0.5634  0.1183 -0.3288
38669SOL    HW121843   7.537   2.304   7.352  1.5082  0.6867 -1.5082
38669SOL    HW221844   7.492   2.346   7.214 -0.7622  2.8092 -0.1895
38670SOL     OW21845   9.393   9.657   2.454  0.1353  0.0465  0.4226
38670SOL    HW121846   9.413   9.673   2.362  0.4366  0.1497  0.5039
38670SOL    HW221847   9.314   9.708   2.471  0.0156 -0.0636  0.1928
38671SOL     OW21848   6.861   7.624   8.595  0.2177 -0.0295  0.3142
38671SOL    HW121849   6.942   7.648   8.550 -0.1912  0.2051 -0.3129
38671SOL    HW221850   6.838   7.700   8.647 -0.3921  0.4877 -0.6765
38672SOL     OW21851   8.508   0.297   1.630  0.3899  0.4427  0.0580
38672SOL    HW121852   8.546   0.379   1.598  0.4583 -0.2609 -1.7666
38672SOL    HW221853   8.414   0.307   1.619  0.3894  0.3118 -0.0558
38673SOL     OW21854   9.941   7.089   3.366  0.2384  0.4986  0.5051
38673SOL    HW121855   9.878   7.108   3.436 -1.7842 -1.6799 -0.5759
38673SOL    HW221856  10.009   7.036   3.407 -1.2659 -1.3145  0.8004
38674SOL     OW21857   6.515  10.585   1.297 -0.6577  0.6863 -0.7215
38674SOL    HW121858   6.491  10.615   1.209 -0.1246  2.2105 -0.3804
38674SOL    HW221859   6.605  10.614   1.308 -0.3813 -0.3737 -0.0234
38675SOL     OW21860   6.244   4.052   9.631 -0.4851 -0.5363 -0.2098
38675SOL    HW121861   6.270   4.127   9.579  0.3277 -0.6020  0.0731
38675SOL    HW221862   6.300   4.057   9.709 -1.7291 -0.3930  0.6893
38676SOL     OW21863   9.391   7.072   7.803 -0.2422 -0.1455 -0.3348
38676SOL    HW121864   9.438   7.154   7.785 -0.1267 -0.2320 -0.4344
38676SOL    HW221865   9.321   7.070   7.737  1.1426 -1.2291 -1.8709
38677SOL     OW21866   3.218   7.114   8.300  0.4293 -0.4484  0.0123
38677SOL    HW121867   3.126   7.138   8.312 -0.4393 -3.1429 -0.3481
38677SOL    HW221868   3.253   7.180   8.240 -1.1829  0.7823  0.3524
38678SOL     OW21869   7.561   8.883   1.383 -0.0027 -0.4232 -0.0037
38678SOL    HW121870   7.648   8.849   1.405  0.5162  0.6504 -0.3251
38678SOL    HW221871   7.503   8.807   1.393  1.1023 -1.4173 -0.7043
38679SOL     OW21872   9.702   6.924   2.334 -0.1909 -1.6565  0.4736
38679SOL    HW121873   9.748   6.853   2.376  0.3094 -2.2001 -0.9320
38679SOL    HW221874   9.610   6.896   2.332 -0.8409 -0.2539  3.9322
38680SOL     OW21875   1.399   0.806   5.055 -0.5401 -0.0265 -0.1479
38680SOL    HW121876   1.438   0.725   5.088  0.5879  0.8888  0.8266
38680SOL    HW221877   1.304   0.790   5.060 -0.3748 -1.8822 -1.5404
38681SOL     OW21878   3.160  10.065   8.952  0.0255 -0.0171 -0.0466
38681SOL    HW121879   3.193   9.986   8.910  3.7035  2.0683 -1.5922
38681SOL    HW221880   3.100  10.034   9.019  0.0296 -3.9630 -1.6221
38682SOL     OW21881   1.392   4.774   9.986 -0.1320  0.1552  0.4976
38682SOL    HW121882   1.455   4.838   9.952 -1.6871  0.6422 -1.7303
38682SOL    HW221883   1.421   4.691   9.950 -0.2225  0.2295  0.2489
38683SOL     OW21884   5.028   9.376   8.458 -0.2840 -0.3122  0.2768
38683SOL    HW121885   4.999   9.333   8.539  0.1139 -0.2137  0.4714
38683SOL    HW221886   5.083   9.312   8.414 -0.9384 -0.5650 -0.1859
38684SOL     OW21887   6.716   4.744   5.355  0.1206  0.0465 -0.1941
38684SOL    HW121888   6.670   4.692   5.289 -1.0634 -2.1343  2.1969
38684SOL    HW221889   6.767   4.680   5.405 -2.8312  0.6391  4.0798
38685SOL     OW21890   7.275   9.842   3.871 -0.0121 -0.5288  0.3631
38685SOL    HW121891   7.369   9.823   3.869 -0.1587 -1.3114 -1.4744
38685SOL    HW221892   7.267   9.924   3.822 -0.1688  0.3163  1.7588
38686SOL     OW21893   6.589   5.666   0.130 -0.0521  0.5529 -0.8181
38686SOL    HW121894   6.586   5.758   0.158 -0.1074  1.0984 -2.4772
38686SOL    HW221895   6.507   5.653   0.083  0.5299  0.0545 -1.7259
38687SOL     OW21896   8.962   2.667   5.203 -0.4316  0.3497 -0.2148
38687SOL    HW121897   8.932   2.757   5.187  2.4232  1.4375 -0.0009
38687SOL    HW221898   9.050   2.677   5.239 -1.5823 -2.4151  4.1380
38688SOL     OW21899   1.015   9.409   6.693 -0.2805 -0.8014  0.0640
38688SOL    HW121900   1.025   9.357   6.773  1.1022  0.3821  0.6996
38688SOL    HW221901   1.104   9.422   6.662 -0.7686 -0.7500 -1.3659
38689SOL     OW21902   4.979   2.222   6.752 -0.1370  0.3030 -0.1580
38689SOL    HW121903   4.908   2.238   6.815 -0.9280  0.3779 -1.0486
38689SOL    HW221904   5.058   2.250   6.798 -0.5284 -0.7988  1.2748
38690SOL     OW21905   5.215  10.127   9.006  0.0080  0.2268  0.0207
38690SOL    HW121906   5.141  10.068   8.989  0.7192 -0.5881 -0.2887
38690SOL    HW221907   5.174  10.212   9.023 -1.1477 -0.7086  2.2617
38691SOL     OW21908   2.519   2.899   7.989 -0.0721  0.1856  0.0641
38691SOL    HW121909   2.517   2.823   7.931  1.5939 -0.7133  1.1247
38691SOL    HW221910   2.575   2.962   7.944 -0.6324  0.4171 -0.3337
38692SOL     OW21911   2.812   0.722   7.701  0.2304 -0.0930 -0.2328
38692SOL    HW121912   2.764   0.639   7.699 -0.4716  0.2974 -0.0217
38692SOL    HW221913   2.756   0.783   7.653  1.5206 -0.1288 -1.8905
38693SOL     OW21914   6.642  10.381  10.362 -0.3291  0.0437 -0.4449
38693SOL    HW121915   6.548  10.398  10.351 -0.9926 -2.9517 -0.2828
38693SOL    HW221916   6.671  10.353  10.276 -0.2336 -1.5493  0.0785
38694SOL     OW21917   1.089   4.041   6.697 -0.3476  0.0476  0.4039
38694SOL    HW121918   1.074   4.053   6.791 -1.9721 -1.8693  0.4529
38694SOL    HW221919   1.130   3.955   6.690 -0.2815  0.1522 -0.6380
38695SOL     OW21920   1.117   0.132   1.970 -0.2180  0.4287 -0.2978
38695SOL    HW121921   1.042   0.188   1.990 -0.2688  0.8598 -1.6166
38695SOL    HW221922   1.132   0.145   1.877  0.9484 -0.3375 -0.2294
38696SOL     OW21923   9.429   0.598   3.155  0.2419 -0.3471  0.2163
38696SOL    HW121924   9.502   0.623   3.098  0.3091  0.4528  0.6398
38696SOL    HW221925   9.409   0.508   3.130 -0.0389  0.1403 -1.3926
38697SOL     OW21926   9.867   1.133   2.969 -0.5179  0.1260  0.3579
38697SOL    HW121927   9.821   1.062   3.014 -1.0773  0.4150  0.2508
38697SOL    HW221928   9.928   1.167   3.035  0.9209 -1.4832 -0.0786
38698SOL     OW21929   8.752   6.407   9.275 -0.1515  0.2436 -0.5799
38698SOL    HW121930   8.663   6.442   9.283  0.0621  0.5744  0.4079
38698SOL    HW221931   8.739   6.312   9.266 -0.6166  0.3289 -0.8981
38699SOL     OW21932   3.967   8.184   8.197  0.3438 -0.0275  0.5109
38699SOL    HW121933   4.022   8.180   8.119 -0.4683 -2.7944 -0.0369
38699SOL    HW221934   4.014   8.242   8.257  1.8972  0.7080 -1.3195
38700SOL     OW21935   8.365   4.121   2.085  0.0724 -0.1941  0.0664
38700SOL    HW121936   8.417   4.193   2.121 -0.3403 -0.0451  0.3631
38700SOL    HW221937   8.280   4.129   2.126  0.5810 -2.0471  1.6498
38701SOL     OW21938   3.827   7.443   4.133 -0.1133 -0.0482  0.4214
38701SOL    HW121939   3.884   7.424   4.058 -1.7684 -0.3617 -0.8173
38701SOL    HW221940   3.799   7.356   4.164  0.1213  0.0998  1.0646
38702SOL     OW21941   9.334   6.721  10.464 -0.3399 -0.5369  0.6917
38702SOL    HW121942   9.293   6.647  10.417  0.9910 -0.2089 -1.0967
38702SOL    HW221943   9.428   6.704  10.458 -0.0247  1.1223  0.5682
38703SOL     OW21944   5.724   0.847   1.264  0.3575  0.0911  0.6363
38703SOL    HW121945   5.659   0.783   1.237 -1.1010  1.5081  0.6563
38703SOL    HW221946   5.761   0.811   1.345 -0.6029 -0.5901  0.7876
38704SOL     OW21947   7.000   4.921   2.000  0.8021 -0.0409  0.0627
38704SOL    HW121948   7.004   5.003   1.951  1.7174 -0.5284 -0.7017
38704SOL    HW221949   7.081   4.919   2.051 -0.2855  0.6304  1.9284
38705SOL     OW21950   8.562   8.830   0.528  0.1882 -0.1180  0.2805
38705SOL    HW121951   8.522   8.876   0.602 -0.9159 -0.2867 -0.1845
38705SOL    HW221952   8.604   8.899   0.477 -0.0473  0.1607  0.4581
38706SOL     OW21953   8.315   3.070   5.833 -0.2273  0.3534  0.3599
38706SOL    HW121954   8.342   3.012   5.905 -1.3725 -0.2985  0.2794
38706SOL    HW221955   8.232   3.106   5.861  0.4771  2.0144  0.4086
38707SOL     OW21956   9.434   4.749   1.935 -0.0560 -0.5848  0.1219
38707SOL    HW121957   9.398   4.826   1.979  0.9642  0.1171 -0.2257
38707SOL    HW221958   9.391   4.674   1.977  0.5335  0.0754  2.0070
38708SOL     OW21959   5.638   6.879   0.176  0.2586  0.0092 -0.1440
38708SOL    HW121960   5.703   6.831   0.229  0.8392  0.2729 -0.6091
38708SOL    HW221961   5.637   6.967   0.214 -0.1737 -0.1207  0.1565
38709SOL     OW21962   8.181   6.917   7.575  0.2602 -0.1415 -0.0321
38709SOL    HW121963   8.167   6.822   7.584 -1.6796  0.1260  0.3119
38709SOL    HW221964   8.213   6.945   7.661  1.3235 -0.5320 -0.2840
38710SOL     OW21965   9.551   7.971   8.766  0.2276  0.0738  0.4663
38710SOL    HW121966   9.587   7.974   8.677 -0.5725  1.2020  0.1585
38710SOL    HW221967   9.564   7.881   8.794 -0.5282 -0.5954 -1.2207
38711SOL     OW21968   8.983   3.383   6.538 -0.2206 -0.0992  0.3029
38711SOL    HW121969   8.936   3.462   6.564 -0.0559  0.0447  0.1697
38711SOL    HW221970   8.952   3.364   6.449 -1.1155 -0.8428  0.7529
38712SOL     OW21971   2.701   9.241   2.935 -0.6072  0.5352 -0.1463
38712SOL    HW121972   2.731   9.154   2.911 -2.5937  0.2784 -2.0995
38712SOL    HW221973   2.774   9.299   2.914  0.2436 -0.5072 -0.1198
38713SOL     OW21974   0.816   8.597  10.239  0.3574 -0.2270  0.3642
38713SOL    HW121975   0.903   8.587  10.280 -0.2169  1.8938  2.3207
38713SOL    HW221976   0.821   8.681  10.193  0.3556 -1.6885 -2.4694
38714SOL     OW21977   3.368   3.825   2.671 -0.6061  0.8658 -0.1700
38714SOL    HW121978   3.399   3.784   2.752 -1.3257 -1.3900 -0.9539
38714SOL    HW221979   3.435   3.805   2.606 -1.4775 -0.0585 -0.8158
38715SOL     OW21980   6.756   4.209  10.585  0.0927  0.5874 -0.1959
38715SOL    HW121981   6.702   4.255  10.649  0.4479 -0.4547  0.8800
38715SOL    HW221982   6.830   4.176  10.635 -0.6646 -2.0641 -0.6431
38716SOL     OW21983   2.035   0.697   4.830  0.0146 -0.9007 -0.0350
38716SOL    HW121984   1.956   0.749   4.825  1.1529  1.2147  2.2273
38716SOL    HW221985   2.016   0.629   4.895  0.6178  0.8564  2.0769
38717SOL     OW21986   7.932   0.139   2.925  0.0347 -0.2995 -0.1635
38717SOL    HW121987   8.017   0.156   2.884  1.2818 -2.9796  1.0525
38717SOL    HW221988   7.885   0.086   2.860  0.0384 -0.4048 -0.0798
38718SOL     OW21989   1.701   1.857   8.298 -0.6810 -0.4045  0.2897
38718SOL    HW121990   1.693   1.918   8.372 -0.8395 -1.5753  1.2792
38718SOL    HW221991   1.776   1.801   8.322 -1.7190 -1.8197  0.3491
38719SOL     OW21992   2.989   6.914   4.616  0.1554  0.1083  0.3679
38719SOL    HW121993   2.981   6.832   4.666 -0.8025  0.4351  0.7772
38719SOL    HW221994   2.974   6.887   4.525 -1.9737  0.0576  0.6785
38720SOL     OW21995   1.348   6.734   9.107  0.3219  0.0319  0.0902
38720SOL    HW121996   1.393   6.801   9.158 -0.0731  1.2007 -1.0241
38720SOL    HW221997   1.366   6.652   9.152 -0.8834  1.0993  2.6898
38721SOL     OW21998   5.146   5.645   8.421 -0.0376  0.3160 -0.1184
38721SOL    HW121999   5.062   5.617   8.386 -0.7879  1.3881  0.7871
38721SOL    HW222000   5.138   5.739   8.433  0.9820  0.3086  0.8097
38722SOL     OW22001   9.560   4.222   8.430 -0.6863 -0.2320 -0.0512
38722SOL    HW122002   9.466   4.216   8.447 -1.1091  0.7501 -1.8009
38722SOL    HW222003   9.574   4.313   8.403  0.5258 -0.6986 -1.0986
38723SOL     OW22004   9.223   5.047   6.944 -0.2022 -0.2234  0.7970
38723SOL    HW122005   9.230   5.026   6.850  1.1049  0.4078  0.7350
38723SOL    HW222006   9.274   4.978   6.987 -0.1730 -0.0808  0.9906
38724SOL     OW22007   5.021   8.745   3.305 -0.1163 -0.0147  0.3908
38724SOL    HW122008   5.003   8.651   3.308  1.1311 -0.2808 -0.1407
38724SOL    HW222009   5.116   8.752   3.303 -0.1703  1.1300 -2.5696
38725SOL     OW22010   9.356   5.822   1.069 -0.2322 -0.3549  0.3546
38725SOL    HW122011   9.290   5.754   1.058  0.4986 -1.2476  1.2030
38725SOL    HW222012   9.377   5.850   0.980 -1.5361 -0.2537  0.0643
38726SOL     OW22013   8.273   2.630   4.888 -0.2257  0.7748  0.0854
38726SOL    HW122014   8.326   2.710   4.895 -1.8241  1.8965  0.1221
38726SOL    HW222015   8.273   2.610   4.795  0.4756  0.6012  0.1174
38727SOL     OW22016   0.194   1.010   8.953 -0.3817 -0.3879  0.3917
38727SOL    HW122017   0.186   1.103   8.974  0.2924 -0.3006  0.2766
38727SOL    HW222018   0.234   1.008   8.866  0.1788 -0.7887  0.6500
38728SOL     OW22019   9.064   6.911   0.928 -0.2118  0.0024  0.2546
38728SOL    HW122020   9.051   6.895   1.022  0.5018  2.5783  0.8831
38728SOL    HW222021   9.159   6.919   0.918 -0.3587  1.5530 -0.2761
38729SOL     OW22022   1.299   9.393   5.853  0.4093  0.0243  0.1038
38729SOL    HW122023   1.385   9.370   5.889  1.2071 -1.2504 -2.3686
38729SOL    HW222024   1.239   9.333   5.896  1.0447 -0.3341  0.5180
38730SOL     OW22025   7.802   3.861   0.670 -0.1186 -0.2464  0.7457
38730SOL    HW122026   7.711   3.865   0.697  0.0254  0.1807  1.1954
38730SOL    HW222027   7.851   3.899   0.743  0.2861  0.8808 -0.0767
38731SOL     OW22028   5.852   6.360   7.661  0.1247  0.1396  0.5205
38731SOL    HW122029   5.869   6.292   7.726  1.0508 -1.6315 -1.4552
38731SOL    HW222030   5.939   6.387   7.632 -0.2728  1.0534  0.1727
38732SOL     OW22031   9.215  10.030  10.514  0.0612  0.0780 -0.2278
38732SOL    HW122032   9.145   9.973  10.484  0.0289 -0.8501  1.5034
38732SOL    HW222033   9.171  10.097  10.566  0.2195  1.0309 -1.2818
38733SOL     OW22034   3.161   1.895   1.123 -0.9520 -0.4466 -0.1139
38733SOL    HW122035   3.249   1.915   1.092 -0.5188 -1.7661  0.1653
38733SOL    HW222036   3.170   1.885   1.217 -1.8886  1.6895  0.2497
38734SOL     OW22037   4.890  10.465   5.653 -0.0550 -0.1937  0.0555
38734SOL    HW122038   4.968  10.502   5.695  0.7796 -1.7898  0.0214
38734SOL    HW222039   4.898  10.491   5.561  0.5370 -0.4841  0.0204
38735SOL     OW22040   9.173   3.050   1.176 -0.2333 -0.3058  0.4085
38735SOL    HW122041   9.161   2.987   1.246 -2.8743 -2.3268 -1.6426
38735SOL    HW222042   9.090   3.050   1.129  1.2502  1.1652 -2.5312
38736SOL     OW22043   6.794   8.310   2.787 -0.1596 -0.7034 -0.0521
38736SOL    HW122044   6.888   8.312   2.771 -0.4924  0.2738 -2.3848
38736SOL    HW222045   6.775   8.219   2.811  1.4503 -0.7344  1.2287
38737SOL     OW22046   3.240   2.502   0.947  0.2546  0.4884  0.0396
38737SOL    HW122047   3.323   2.547   0.929  0.3196  0.0640 -0.7987
38737SOL    HW222048   3.265   2.423   0.994  0.3066  0.4620 -0.0322
38738SOL     OW22049   5.388  10.381   6.253  0.2696 -0.1830 -0.1684
38738SOL    HW122050   5.293  10.390   6.264  0.1007 -1.1724 -0.7148
38738SOL    HW222051   5.398  10.326   6.175  1.2379 -2.1024  1.2413
38739SOL     OW22052  10.629   0.112   5.091  0.3674  0.5972 -0.5151
38739SOL    HW122053  10.682   0.093   5.168  1.8749 -0.6140 -1.7759
38739SOL    HW222054  10.651   0.042   5.029 -1.3541  1.1061 -1.7759
38740SOL     OW22055   6.069   4.693   1.514  0.1673 -0.9670  0.4048
38740SOL    HW122056   6.044   4.781   1.542 -1.7373 -1.2432 -0.2878
38740SOL    HW222057   6.002   4.668   1.451  2.1213 -1.9208 -1.4103
38741SOL     OW22058   3.164   6.165   5.289 -0.0185  0.4999  0.3659
38741SOL    HW122059   3.258   6.176   5.306  0.2423  0.1547 -0.7499
38741SOL    HW222060   3.136   6.248   5.252  0.5007 -0.2525 -1.9127
38742SOL     OW22061   4.620   5.540   9.611  0.3450  0.2346 -0.1273
38742SOL    HW122062   4.704   5.501   9.637  1.5706  1.2704 -2.2561
38742SOL    HW222063   4.617   5.529   9.516 -1.3291  1.3871 -0.2385
38743SOL     OW22064   1.202   2.512   0.838 -0.9672 -0.1590 -0.4889
38743SOL    HW122065   1.215   2.425   0.876  0.7985  0.6050  0.8150
38743SOL    HW222066   1.160   2.562   0.908  1.0341  0.8891  0.0324
38744SOL     OW22067   5.885   1.851   4.482 -0.4059  0.3035 -0.0186
38744SOL    HW122068   5.841   1.767   4.467 -0.4089  0.2443  0.3162
38744SOL    HW222069   5.830   1.896   4.546 -0.4018  0.5600 -0.1954
38745SOL     OW22070   7.080   6.304  10.522  0.1182 -0.1767  0.0704
38745SOL    HW122071   7.106   6.354  10.599  0.8780  0.3689 -0.5199
38745SOL    HW222072   7.028   6.365  10.470  1.3363  0.1506 -0.8182
38746SOL     OW22073   9.920   2.880   7.731  0.1204  0.5547  0.4456
38746SOL    HW122074   9.834   2.887   7.689 -0.5769 -0.8398  1.5239
38746SOL    HW222075   9.902   2.897   7.824  0.9819  0.1201  0.7041
38747SOL     OW22076   3.819   3.300   7.028 -0.0997 -0.1109 -0.3560
38747SOL    HW122077   3.913   3.313   7.014  0.1426 -2.3310 -1.1716
38747SOL    HW222078   3.814   3.226   7.089 -1.2846 -1.3174 -1.8401
38748SOL     OW22079   2.590   7.692   5.837  0.0905 -0.2343  0.4991
38748SOL    HW122080   2.668   7.710   5.784 -2.5302  3.3156 -2.6933
38748SOL    HW222081   2.548   7.618   5.793 -0.6314  0.8871 -0.7694
38749SOL     OW22082   7.618   0.491   4.507 -0.1947  0.0323  0.0148
38749SOL    HW122083   7.545   0.533   4.553 -0.5314  0.2014 -0.6699
38749SOL    HW222084   7.581   0.411   4.471  0.0649 -0.0885  0.0164
38750SOL     OW22085   2.566   7.164   8.938 -0.4770  0.7864  0.1162
38750SOL    HW122086   2.516   7.083   8.928 -1.8377  1.5949  0.0324
38750SOL    HW222087   2.515   7.230   8.891  0.4992  1.7303  0.3320
38751SOL     OW22088   1.909   5.388   8.404 -0.0258  0.7078  0.5558
38751SOL    HW122089   1.995   5.398   8.363  0.0905 -0.4184  0.5015
38751SOL    HW222090   1.877   5.303   8.374 -1.5495  1.4724 -0.1074
38752SOL     OW22091   3.566   7.495   1.159 -0.2320  0.0203  0.2538
38752SOL    HW122092   3.520   7.529   1.082 -0.1410  0.2019  0.2785
38752SOL    HW222093   3.497   7.459   1.214 -0.4909  1.2853  0.8092
38753SOL     OW22094  10.034   9.578   1.107 -0.6045 -0.0434 -0.5365
38753SOL    HW122095   9.967   9.520   1.071 -0.3126 -0.3371 -0.6152
38753SOL    HW222096  10.030   9.657   1.053 -0.8617 -0.0740 -0.5625
38754SOL     OW22097   7.178   5.748   9.279  0.0974  0.0870 -0.0800
38754SOL    HW122098   7.215   5.752   9.190 -0.5769  0.7667 -0.3449
38754SOL    HW222099   7.155   5.656   9.291 -0.3260  0.0846 -0.8358
38755SOL     OW22100  10.596  10.036   0.973  0.1446 -0.1758 -0.0502
38755SOL    HW122101  10.656  10.105   1.002 -1.8324  2.3163 -1.5104
38755SOL    HW222102  10.621   9.959   1.025  2.5811  1.5396  1.5275
38756SOL     OW22103   8.428  10.438   4.017 -0.0461 -0.0596  0.0620
38756SOL    HW122104   8.456  10.382   3.945  0.0566  1.3831 -1.0801
38756SOL    HW222105   8.508  10.461   4.063  0.4072  1.7886 -1.5025
38757SOL     OW22106   4.851   1.467   0.421 -0.0293  0.0991 -0.0260
38757SOL    HW122107   4.864   1.435   0.510 -0.8407  0.3653  0.2024
38757SOL    HW222108   4.842   1.562   0.431 -2.2852 -0.0532 -0.0823
38758SOL     OW22109   7.497   1.103   3.777 -0.1610  0.0164 -1.0216
38758SOL    HW122110   7.524   1.079   3.866 -1.8910  2.5513  0.2928
38758SOL    HW222111   7.484   1.019   3.733  2.0563 -1.3124  0.6506
38759SOL     OW22112   6.385   9.497   2.966  0.0116  0.0367 -0.2421
38759SOL    HW122113   6.383   9.545   2.883  1.7552 -0.9675 -0.9344
38759SOL    HW222114   6.386   9.405   2.940  0.6421 -0.2922  0.8677
38760SOL     OW22115   6.589   7.357   4.308  0.4441  0.2711  0.2742
38760SOL    HW122116   6.499   7.328   4.292  0.7890  0.1219 -1.7017
38760SOL    HW222117   6.611   7.409   4.230  2.0474  0.3700  0.7573
38761SOL     OW22118   8.463   8.923   9.382  0.0571 -0.1013  0.5545
38761SOL    HW122119   8.435   8.832   9.374  0.6545 -0.2245 -0.3586
38761SOL    HW222120   8.557   8.921   9.365  0.3686  0.4959  2.0593
38762SOL     OW22121   4.991   1.536   6.045 -0.2485 -0.0133  0.2190
38762SOL    HW122122   5.032   1.451   6.058 -0.7361 -0.0139  1.9267
38762SOL    HW222123   4.991   1.577   6.131 -3.3265  0.2128  0.1970
38763SOL     OW22124   3.072   9.287   9.629  0.0108 -0.3921 -0.4074
38763SOL    HW122125   3.081   9.376   9.661  1.9604 -1.1152  1.3467
38763SOL    HW222126   3.072   9.295   9.534 -2.3341  1.6061 -0.3228
38764SOL     OW22127   4.662   0.972   4.454 -0.0005  0.3956  0.1736
38764SOL    HW122128   4.718   0.895   4.445  0.8375  0.8688  1.1762
38764SOL    HW222129   4.722   1.042   4.479 -0.9139  1.1244  0.3459
38765SOL     OW22130   2.284   5.027   9.862 -0.3935  0.3486 -0.6147
38765SOL    HW122131   2.207   4.972   9.845  0.2112  0.0599 -2.8114
38765SOL    HW222132   2.274   5.100   9.801  1.1199  0.2200 -1.0522
38766SOL     OW22133   1.322   4.212   9.402 -0.0869 -0.3474  0.4393
38766SOL    HW122134   1.397   4.162   9.436 -0.8491 -2.1425 -0.3548
38766SOL    HW222135   1.246   4.158   9.426 -0.8336 -0.3854 -1.8125
38767SOL     OW22136   0.881   1.812   7.146 -0.4478 -0.5388  0.0790
38767SOL    HW122137   0.902   1.889   7.198 -0.0013 -2.0713  2.3296
38767SOL    HW222138   0.808   1.839   7.091 -0.2129  1.5007  0.6844
38768SOL     OW22139   5.730   2.187   3.158  0.7038 -0.0275  0.5834
38768SOL    HW122140   5.796   2.257   3.155  0.0427  0.5909 -1.2365
38768SOL    HW222141   5.773   2.112   3.117  0.2939  0.4060 -0.6968
38769SOL     OW22142   9.582   4.060   8.719  0.2852 -0.1813  0.4075
38769SOL    HW122143   9.494   4.077   8.685  0.9638  0.5513 -1.1029
38769SOL    HW222144   9.614   4.147   8.744  0.3903 -0.5175  1.4661
38770SOL     OW22145   5.368   8.166   5.198 -0.4917 -0.4764 -0.9697
38770SOL    HW122146   5.330   8.202   5.279  0.6501  0.3871 -0.7758
38770SOL    HW222147   5.338   8.076   5.195  0.2886 -0.8767  1.0247
38771SOL     OW22148   5.607   2.314   4.443 -0.0108 -0.0033  0.1626
38771SOL    HW122149   5.548   2.369   4.391  0.8768 -0.4097 -1.3452
38771SOL    HW222150   5.589   2.224   4.414  0.8609 -0.1960  0.1691
38772SOL     OW22151   6.387   5.187   0.554 -0.0898  0.1318  0.0108
38772SOL    HW122152   6.402   5.092   0.555 -0.1178  0.1209 -0.3946
38772SOL    HW222153   6.445   5.221   0.622  1.2903  0.0155 -1.0411
38773SOL     OW22154   8.993   5.378   4.453  0.2280  0.1853  0.0315
38773SOL    HW122155   9.053   5.318   4.408 -0.5139 -0.2618 -0.3612
38773SOL    HW222156   8.923   5.322   4.486 -0.0945  0.7421  0.2995
38774SOL     OW22157   4.215   1.158   2.538  0.3639 -0.0795 -0.2206
38774SOL    HW122158   4.128   1.173   2.501  0.7952  1.0852 -0.7898
38774SOL    HW222159   4.237   1.240   2.582  1.1074 -0.4227  0.0649
38775SOL     OW22160   5.556   8.200   3.508 -0.3719  0.4158  0.0455
38775SOL    HW122161   5.616   8.275   3.503 -0.1887  0.1934 -2.5488
38775SOL    HW222162   5.576   8.159   3.592 -0.0464  2.9020  1.2595
38776SOL     OW22163   0.503   9.810   6.103 -0.5442 -0.6194  0.6606
38776SOL    HW122164   0.575   9.792   6.043 -0.9954  0.3335 -0.1888
38776SOL    HW222165   0.475   9.899   6.081 -2.1538 -1.0690  0.7961
38777SOL     OW22166   5.650   5.184   4.995 -0.2377 -0.0311  0.5364
38777SOL    HW122167   5.744   5.187   5.013 -0.0903  2.5864 -0.1552
38777SOL    HW222168   5.644   5.193   4.900 -1.1593  1.7310  0.7209
38778SOL     OW22169   3.677   7.135   4.518 -0.4111 -0.0850  0.0817
38778SOL    HW122170   3.680   7.226   4.547 -0.0671 -0.4093  1.1175
38778SOL    HW222171   3.586   7.109   4.528 -0.6959  0.4109 -1.1052
38779SOL     OW22172   9.464   7.096   1.948  0.6076  0.3002 -0.9690
38779SOL    HW122173   9.394   7.057   1.896 -0.6013  0.8963  0.1439
38779SOL    HW222174   9.431   7.092   2.038  1.7655  1.1198 -0.4967
38780SOL     OW22175   5.027   6.676   5.619  0.1507 -0.3989  0.1582
38780SOL    HW122176   5.000   6.693   5.709 -1.3078 -0.6575 -0.2012
38780SOL    HW222177   4.975   6.600   5.592  0.7025 -0.4424 -0.8369
38781SOL     OW22178   6.345   0.450   6.569 -0.9996  0.1631 -0.2278
38781SOL    HW122179   6.291   0.502   6.509 -1.9323  1.0902  1.3469
38781SOL    HW222180   6.404   0.514   6.609  0.9330 -0.7428 -1.4639
38782SOL     OW22181   7.439   9.699   9.505 -0.1541  0.3668 -0.7618
38782SOL    HW122182   7.366   9.700   9.567  1.7948 -0.6211  1.7410
38782SOL    HW222183   7.416   9.632   9.441 -0.6020 -1.3862  1.1369
38783SOL     OW22184   2.454   1.503   9.281 -0.3382  0.2453 -0.0879
38783SOL    HW122185   2.388   1.434   9.283 -0.5078  0.4264  0.7619
38783SOL    HW222186   2.414   1.576   9.329  0.3772  0.4491  0.2089
38784SOL     OW22187   0.283   5.513   0.583 -0.1263  0.2966  0.0040
38784SOL    HW122188   0.349   5.455   0.621 -1.0045 -0.1150  0.9487
38784SOL    HW222189   0.261   5.473   0.499  1.0127  0.5953 -0.4601
38785SOL     OW22190   2.305   1.791   8.831 -0.4252  0.0972 -0.0425
38785SOL    HW122191   2.309   1.705   8.791 -1.5507 -0.3542  0.7596
38785SOL    HW222192   2.333   1.851   8.762  0.4493 -0.8927 -0.5876
38786SOL     OW22193   3.026   1.025   8.451  0.2277 -0.0449  0.0851
38786SOL    HW122194   3.111   1.038   8.408  0.6752  1.4993  1.3400
38786SOL    HW222195   2.968   0.995   8.381  1.3945  0.5242 -1.1759
38787SOL     OW22196   2.456   2.057   3.075 -0.1677 -0.6120  0.2253
38787SOL    HW122197   2.440   1.963   3.062 -0.6314 -0.3223 -1.5547
38787SOL    HW222198   2.551   2.065   3.077 -0.0776 -0.9328 -1.4604
38788SOL     OW22199   9.504   7.386   3.879 -0.2265 -0.6266  0.5974
38788SOL    HW122200   9.435   7.379   3.945  1.6283  1.8997  3.0375
38788SOL    HW222201   9.500   7.478   3.851  0.8483 -0.9543 -0.7511
38789SOL     OW22202   3.297   4.179   7.321  0.0023 -0.3103 -0.5543
38789SOL    HW122203   3.296   4.184   7.417  0.0609  1.6146 -0.6275
38789SOL    HW222204   3.219   4.126   7.300 -0.8913  0.5249  0.5073
38790SOL     OW22205   4.780   4.733   7.437  0.1683  0.3908 -0.6050
38790SOL    HW122206   4.837   4.807   7.415  0.4163  1.5828  3.3832
38790SOL    HW222207   4.692   4.764   7.415  0.4946  0.7568 -1.4777
38791SOL     OW22208   4.761   1.960   8.806 -0.3610  0.8383 -0.5389
38791SOL    HW122209   4.787   1.896   8.740  0.6954 -0.3793  0.9677
38791SOL    HW222210   4.690   1.918   8.854  1.1217  0.2105  1.2250
38792SOL     OW22211   9.727   1.085   0.116 -0.0767 -0.2137 -0.5142
38792SOL    HW122212   9.734   0.995   0.146  1.9721 -0.5089 -1.6729
38792SOL    HW222213   9.704   1.135   0.195  2.9902 -1.2066  1.1625
38793SOL     OW22214   0.999   0.416   0.458 -0.1056  0.7902  0.6636
38793SOL    HW122215   0.948   0.494   0.434 -1.2107 -0.5229 -1.5972
38793SOL    HW222216   1.088   0.448   0.469 -0.6976  2.5165  0.7237
38794SOL     OW22217   1.179   1.367   0.647  0.5237  0.4410  0.0674
38794SOL    HW122218   1.130   1.289   0.673  0.3624  0.6085  0.2666
38794SOL    HW222219   1.250   1.373   0.711  0.4217  0.5687  0.1679
38795SOL     OW22220  10.506   0.340   6.742  0.1703  0.2446  0.1612
38795SOL    HW122221  10.535   0.278   6.675 -0.6587 -1.4723  1.3112
38795SOL    HW222222  10.564   0.324   6.816  1.3411  2.4050 -0.1889
38796SOL     OW22223   9.477   9.992   0.847 -0.2232  0.2015 -0.2789
38796SOL    HW122224   9.510   9.970   0.760 -1.3676  0.4458 -0.7869
38796SOL    HW222225   9.383   9.974   0.843 -0.0740 -1.1656  1.3617
38797SOL     OW22226   9.139  10.707   8.153  0.1276 -0.0069 -0.2664
38797SOL    HW122227   9.060  10.761   8.142  0.0883  0.1434  0.6581
38797SOL    HW222228   9.127  10.635   8.091  0.3865  1.2521 -1.8412
38798SOL     OW22229   2.372   3.522   7.830 -0.2980  0.6902 -0.5495
38798SOL    HW122230   2.355   3.614   7.849  0.5118  0.5087  1.2319
38798SOL    HW222231   2.305   3.474   7.878  0.8768  0.2816  0.7740
38799SOL     OW22232   6.048   5.309   1.269  0.1008 -0.1823  0.0051
38799SOL    HW122233   5.974   5.248   1.273  0.5323 -0.7206 -0.0711
38799SOL    HW222234   6.116   5.261   1.222  0.2654  0.5607 -0.5375
38800SOL     OW22235   6.824   6.065   0.634 -0.0282 -0.3317  0.6608
38800SOL    HW122236   6.909   6.057   0.592  0.8364  1.3875  1.9555
38800SOL    HW222237   6.821   5.993   0.697  0.0182 -0.9977 -0.0899
38801SOL     OW22238   6.531   5.748   4.452  0.5349  0.2298 -0.3208
38801SOL    HW122239   6.572   5.666   4.422 -0.8938 -0.7821  0.3546
38801SOL    HW222240   6.438   5.725   4.462  0.5761  1.0469  2.8980
38802SOL     OW22241   3.542   3.797   9.803 -0.2371 -0.1764  0.6383
38802SOL    HW122242   3.523   3.743   9.725  0.5890  0.4796 -0.0386
38802SOL    HW222243   3.523   3.886   9.775 -0.6137  0.0028  1.4333
38803SOL     OW22244   3.385   5.008  10.424  0.1042 -0.5510 -0.6991
38803SOL    HW122245   3.320   5.007  10.494  1.6264  0.7836  0.8447
38803SOL    HW222246   3.339   4.974  10.347 -1.3981 -2.9208  1.1134
38804SOL     OW22247   3.227   0.551  10.578  0.0766 -0.1651  0.2317
38804SOL    HW122248   3.221   0.515  10.666  0.3275 -1.7359 -0.3766
38804SOL    HW222249   3.137   0.559  10.548  0.0595 -2.0713 -0.3118
38805SOL     OW22250   5.408   6.390   4.594  0.0665  0.0428  0.1411
38805SOL    HW122251   5.462   6.355   4.523 -1.0478 -0.8040 -0.3138
38805SOL    HW222252   5.335   6.329   4.601  0.3797 -0.1646  2.3400
38806SOL     OW22253   1.111  10.659   9.086  0.2789  0.5862  0.1504
38806SOL    HW122254   1.035  10.654   9.027 -0.8454 -0.1686  1.6044
38806SOL    HW222255   1.150  10.744   9.068 -1.5691  1.4708  0.1472
38807SOL     OW22256   4.715   2.094  10.051 -0.1762  0.5106 -0.3304
38807SOL    HW122257   4.680   2.033  10.116  3.1797  0.4109  1.6162
38807SOL    HW222258   4.761   2.039   9.988 -0.0061  0.8437 -0.5015
38808SOL     OW22259  10.200  10.461   9.986  0.3831 -0.2181  0.1118
38808SOL    HW122260  10.194  10.407  10.065 -0.2162 -1.9022 -1.0296
38808SOL    HW222261  10.117  10.507   9.982  0.4105 -0.1357  0.4536
38809SOL     OW22262   8.960   6.565   0.308 -0.5637  0.6639  0.1005
38809SOL    HW122263   9.055   6.564   0.294 -0.6463  2.1514 -0.7533
38809SOL    HW222264   8.945   6.493   0.370  1.2879  1.2694  1.3408
38810SOL     OW22265   4.865   4.032  10.653  0.0629 -0.6775 -0.3578
38810SOL    HW122266   4.782   3.997  10.623  1.3683 -2.3121 -2.2922
38810SOL    HW222267   4.862   4.125  10.632 -1.3739 -0.6449 -0.0693
38811SOL     OW22268   3.925   6.794   0.792 -0.6801 -0.3074  0.0393
38811SOL    HW122269   3.904   6.796   0.885  0.5820 -0.5279  0.3585
38811SOL    HW222270   4.021   6.793   0.790 -0.6473  1.5365 -1.3063
38812SOL     OW22271   9.177   4.889   4.058  0.0743 -0.2679 -0.6685
38812SOL    HW122272   9.113   4.953   4.025 -0.1503 -0.7991 -1.2849
38812SOL    HW222273   9.152   4.877   4.150  0.2549  0.6868 -0.4825
38813SOL     OW22274  10.621   4.453   3.550  0.0838  0.1647  0.0150
38813SOL    HW122275  10.636   4.524   3.487  1.1690 -0.2869 -0.2622
38813SOL    HW222276  10.705   4.408   3.555 -0.7671 -1.5726 -0.3945
38814SOL     OW22277   3.004   6.601   5.069 -0.0183 -0.1232  0.4368
38814SOL    HW122278   2.950   6.625   5.144  2.8216 -1.1598  3.0135
38814SOL    HW222279   2.945   6.555   5.010 -2.5703  1.5103  1.5760
38815SOL     OW22280   2.065   6.495   3.237  0.1801 -0.1535  0.1123
38815SOL    HW122281   2.020   6.580   3.241 -1.3317 -0.9494  1.2624
38815SOL    HW222282   2.014   6.439   3.295  0.8730 -1.9932 -0.9753
38816SOL     OW22283   4.231   8.729   2.473  0.0690 -0.0787  0.1590
38816SOL    HW122284   4.273   8.653   2.514  0.6711 -0.3533 -0.9403
38816SOL    HW222285   4.295   8.760   2.409 -1.2166 -0.2097 -1.2192
38817SOL     OW22286   9.842   7.654   6.941 -0.4817  0.4202  0.6237
38817SOL    HW122287   9.810   7.596   7.010 -0.5506 -0.8022 -0.4143
38817SOL    HW222288   9.772   7.654   6.876 -1.3490  3.1923  1.4046
38818SOL     OW22289   6.284   6.090   9.402  0.7733 -0.2374  0.2201
38818SOL    HW122290   6.319   6.154   9.464  0.6430  0.3142 -0.2795
38818SOL    HW222291   6.321   6.006   9.432  0.9335  0.0590  0.8766
38819SOL     OW22292   9.840  10.065   8.398  0.0430  0.2476  0.0209
38819SOL    HW122293   9.748  10.085   8.379 -0.0483  0.0171  0.2131
38819SOL    HW222294   9.884  10.150   8.396 -0.4142  0.5270  1.2240
38820SOL     OW22295   4.016   6.025   1.441  0.1873 -0.4084 -0.1548
38820SOL    HW122296   4.020   6.044   1.535  0.6713 -1.5165  0.0648
38820SOL    HW222297   4.097   5.977   1.423 -0.5192 -1.3599 -0.8707
38821SOL     OW22298  10.247   3.812   2.590  0.4187 -0.0059  0.3808
38821SOL    HW122299  10.276   3.744   2.529 -2.8415 -0.9456 -0.3235
38821SOL    HW222300  10.181   3.861   2.541 -1.6570 -0.1922  2.7803
38822SOL     OW22301   5.387   9.214   3.175 -0.5522  0.0629  0.1824
38822SOL    HW122302   5.295   9.226   3.149 -0.6654 -1.3531 -0.1706
38822SOL    HW222303   5.418   9.302   3.195 -1.7414  0.6726 -0.5271
38823SOL     OW22304   8.935  10.421   8.176 -0.2327  0.1537 -0.3031
38823SOL    HW122305   8.885  10.387   8.102 -0.3114 -0.4325  0.0136
38823SOL    HW222306   8.870  10.429   8.246 -0.4180  1.8467 -0.6243
38824SOL     OW22307  10.284   4.237  10.504  0.1615  0.2579 -0.0709
38824SOL    HW122308  10.341   4.169  10.540  1.0926  1.5792  1.0656
38824SOL    HW222309  10.244   4.277  10.582  0.4909  1.7302 -0.6379
38825SOL     OW22310   7.634   5.589   5.466  0.1195  0.1446  0.3290
38825SOL    HW122311   7.706   5.567   5.524  0.6054 -0.1447 -0.3727
38825SOL    HW222312   7.609   5.679   5.490  1.8679  0.9127 -0.5840
38826SOL     OW22313   9.896   3.336   7.625  0.0299 -0.1990  0.3476
38826SOL    HW122314   9.824   3.304   7.679 -0.3858  0.6195  0.2956
38826SOL    HW222315   9.939   3.257   7.593 -0.9617 -0.7102  0.2304
38827SOL     OW22316   5.105   8.106   7.139  0.3357 -0.1133  0.0900
38827SOL    HW122317   5.171   8.162   7.181 -0.8724  1.6116 -0.2185
38827SOL    HW222318   5.148   8.072   7.061  0.5855  1.8399 -0.6817
38828SOL     OW22319   2.107  10.160   1.205  0.2630 -0.4921 -0.0281
38828SOL    HW122320   2.075  10.072   1.187 -2.9747  0.5792 -0.1422
38828SOL    HW222321   2.086  10.175   1.297 -2.6469  1.3073 -0.8483
38829SOL     OW22322   0.960   4.500   1.124 -0.7457 -0.3127 -0.3760
38829SOL    HW122323   0.958   4.442   1.201 -2.6840 -0.5978 -0.5787
38829SOL    HW222324   0.995   4.583   1.157 -1.6653 -0.3915  0.8801
38830SOL     OW22325  10.709   0.432   3.925 -0.3635 -0.9050 -0.4457
38830SOL    HW122326  10.738   0.520   3.946 -1.4474 -0.7957  0.7317
38830SOL    HW222327  10.615   0.432   3.944  0.1088 -3.1498  2.8214
38831SOL     OW22328   4.873   6.307   3.455  0.0615 -0.2596 -0.3841
38831SOL    HW122329   4.951   6.361   3.440  0.0113  0.2191  0.9741
38831SOL    HW222330   4.800   6.363   3.429  0.1530 -0.8982 -2.1798
38832SOL     OW22331   4.368   1.538   0.644 -0.0188 -0.2529 -0.5672
38832SOL    HW122332   4.396   1.447   0.634  1.3117 -0.2020  1.8795
38832SOL    HW222333   4.447   1.584   0.670 -0.5226  1.7954 -2.4123
38833SOL     OW22334   3.841   5.118   2.461  0.0082  0.2043 -0.2781
38833SOL    HW122335   3.918   5.075   2.425  1.1246  0.8829  1.2180
38833SOL    HW222336   3.844   5.207   2.425  0.1418  0.3497  0.0940
38834SOL     OW22337   6.953  10.291   4.187  0.4792  0.4485  0.3725
38834SOL    HW122338   7.047  10.305   4.196  0.3254  0.9742  1.2925
38834SOL    HW222339   6.915  10.379   4.186  0.1169  0.3154 -1.6949
38835SOL     OW22340   4.223   8.119   1.964 -0.3584  0.0814  0.0310
38835SOL    HW122341   4.233   8.059   1.890  0.0770  0.9326 -0.6364
38835SOL    HW222342   4.131   8.142   1.964 -0.0212  1.7534 -1.6746
38836SOL     OW22343   1.766   8.470   0.868  0.8015  0.0199 -0.4010
38836SOL    HW122344   1.671   8.477   0.872  0.7564  0.3062 -1.4911
38836SOL    HW222345   1.798   8.559   0.880  0.8861  0.0436 -0.7757
38837SOL     OW22346   5.422   6.269   3.425 -0.0938 -0.1213  0.2985
38837SOL    HW122347   5.457   6.219   3.499  0.4985 -1.5385 -0.8968
38837SOL    HW222348   5.476   6.349   3.423  0.9705 -0.8169  0.4157
38838SOL     OW22349   0.246   5.053   3.372  0.5785  0.4982 -0.1815
38838SOL    HW122350   0.219   5.115   3.439 -3.9938 -1.0220 -0.2834
38838SOL    HW222351   0.322   5.095   3.330  0.0002  4.2322  2.0363
38839SOL     OW22352   2.989   2.346   3.854 -0.2790 -0.4924  0.2095
38839SOL    HW122353   3.057   2.323   3.917  0.1778  0.1352 -0.0488
38839SOL    HW222354   2.918   2.284   3.872  0.2599 -0.9948  0.6417
38840SOL     OW22355   9.544   5.645   2.981 -0.3537  0.0457  0.1311
38840SOL    HW122356   9.617   5.623   2.924  2.2077  0.4534  3.0322
38840SOL    HW222357   9.540   5.740   2.981 -0.3758  0.0491  0.5519
38841SOL     OW22358  10.043   2.480   8.755  0.2340  0.4694  0.0973
38841SOL    HW122359  10.033   2.507   8.664 -0.0783 -0.2079 -0.0824
38841SOL    HW222360  10.060   2.560   8.803 -1.2211  1.0539 -0.3226
38842SOL     OW22361   2.639   0.625   8.221  0.4461 -0.2562 -0.1136
38842SOL    HW122362   2.729   0.620   8.253  0.9000  1.5415 -0.9388
38842SOL    HW222363   2.586   0.640   8.299  1.1957  1.2075  0.1558
38843SOL     OW22364   7.264   6.506   6.215  0.1477  0.4271  0.6069
38843SOL    HW122365   7.184   6.540   6.175  0.0230 -0.5131  0.0488
38843SOL    HW222366   7.313   6.468   6.143  0.3839 -0.3778  1.1805
38844SOL     OW22367   8.853   0.603   6.212 -0.2129 -0.1282  0.3400
38844SOL    HW122368   8.857   0.610   6.117 -2.2361  0.2730  0.2440
38844SOL    HW222369   8.906   0.527   6.232  2.0444  1.0302 -0.8784
38845SOL     OW22370   3.956   4.710  10.521 -0.1289 -0.3018  0.4645
38845SOL    HW122371   4.047   4.741  10.528 -0.0121 -0.4179 -0.4317
38845SOL    HW222372   3.940   4.666  10.604  0.2847  0.6378  1.0593
38846SOL     OW22373   2.740   4.214   8.782  0.5016  0.5923  0.5697
38846SOL    HW122374   2.778   4.190   8.866  0.9154  0.7991  0.4418
38846SOL    HW222375   2.646   4.201   8.794  0.6637 -0.6074  0.6608
38847SOL     OW22376   9.238   8.206   5.101 -0.5338 -0.0223 -0.1274
38847SOL    HW122377   9.261   8.202   5.194 -1.7134  1.1882  0.2524
38847SOL    HW222378   9.262   8.120   5.067 -0.4537 -0.6390  1.3999
38848SOL     OW22379   1.030   4.595   3.039 -0.0309  0.2657 -0.2199
38848SOL    HW122380   0.973   4.638   3.104  0.6111 -0.5630  0.9137
38848SOL    HW222381   0.993   4.622   2.955 -1.8977  0.0492  0.4690
38849SOL     OW22382   2.592   0.884   7.682 -0.5601 -0.4974  0.1340
38849SOL    HW122383   2.564   0.813   7.740 -0.5618  0.1870  0.9983
38849SOL    HW222384   2.627   0.951   7.741 -0.4867  0.1926 -0.6647
38850SOL     OW22385   4.556   8.202   4.742 -0.0414  0.0095 -0.1000
38850SOL    HW122386   4.598   8.157   4.669  1.7672  0.4513  0.6071
38850SOL    HW222387   4.605   8.172   4.819  1.2250  3.0235  0.4346
38851SOL     OW22388   2.993   8.042  10.521  0.4693 -0.2547  0.4201
38851SOL    HW122389   2.970   8.103  10.450  1.0142 -0.0330  0.4342
38851SOL    HW222390   3.072   7.998  10.491 -1.8947 -3.7401 -1.2838
38852SOL     OW22391   4.467   3.217   6.945 -0.2186 -0.1084 -0.0667
38852SOL    HW122392   4.490   3.130   6.911 -1.5065  0.1400 -1.6722
38852SOL    HW222393   4.526   3.230   7.019  1.6935 -1.3146 -1.3049
38853SOL     OW22394   9.174   8.731   3.042 -0.2115  0.5041 -0.1967
38853SOL    HW122395   9.119   8.736   3.120  0.6284 -0.3166  0.4640
38853SOL    HW222396   9.251   8.681   3.069 -0.7144 -1.3847 -1.9978
38854SOL     OW22397   3.283   3.304   7.975 -0.3904  0.2981  0.0538
38854SOL    HW122398   3.198   3.293   8.017  0.0722 -0.7432  0.7407
38854SOL    HW222399   3.342   3.329   8.045  0.3457 -1.2497  0.0327
38855SOL     OW22400   3.726   7.425   2.788 -0.4014 -0.1442  0.0727
38855SOL    HW122401   3.729   7.356   2.722  0.3471 -0.9067  0.8660
38855SOL    HW222402   3.791   7.489   2.760  1.7690 -1.6686  1.2868
38856SOL     OW22403   3.199   6.080   3.394  0.7110  0.1580 -0.0079
38856SOL    HW122404   3.137   6.053   3.462 -0.8286  0.9229 -1.0604
38856SOL    HW222405   3.226   6.168   3.420 -0.4340  0.7399 -0.7345
38857SOL     OW22406   1.730   9.987   6.033  0.7298  0.1079  0.0610
38857SOL    HW122407   1.781   9.965   5.955 -0.2757 -0.7526 -0.3915
38857SOL    HW222408   1.731   9.907   6.086  0.1479  0.1853  0.1967
38858SOL     OW22409   5.653   1.308   7.994 -0.2809  0.0290  0.0907
38858SOL    HW122410   5.646   1.269   8.082 -0.0841 -1.3332 -0.4711
38858SOL    HW222411   5.739   1.280   7.963  0.4542  2.0519  0.1527
38859SOL     OW22412  10.418   6.276   6.591  0.7589  0.2073 -0.1267
38859SOL    HW122413  10.373   6.304   6.670  1.1875  0.3979  0.0559
38859SOL    HW222414  10.465   6.354   6.561  1.1309 -0.0373 -0.1947
38860SOL     OW22415   1.680   2.634   5.199  0.4778  0.2169 -0.5884
38860SOL    HW122416   1.659   2.719   5.239 -0.0793  0.5845 -1.6412
38860SOL    HW222417   1.743   2.595   5.260 -1.3240  0.1657  1.3878
38861SOL     OW22418   2.214   2.685   1.140  0.0024  0.1208  0.3557
38861SOL    HW122419   2.204   2.748   1.069 -1.3649  0.0570  0.4732
38861SOL    HW222420   2.251   2.607   1.099 -0.2601  0.2777 -0.1764
38862SOL     OW22421   7.242   7.898   2.854 -0.0353 -1.0704  0.3379
38862SOL    HW122422   7.180   7.965   2.825 -0.0905 -0.9500  0.7334
38862SOL    HW222423   7.205   7.864   2.935  0.2981 -1.1639  0.4527
38863SOL     OW22424   1.717   1.113   2.112 -0.1824 -0.0874 -0.6530
38863SOL    HW122425   1.703   1.032   2.162 -2.1066 -0.6643 -1.9859
38863SOL    HW222426   1.810   1.112   2.090  0.5705 -0.1964  2.1637
38864SOL     OW22427   3.364   1.071   9.113  0.0306  0.1209 -0.0659
38864SOL    HW122428   3.303   1.002   9.087 -1.2159  1.3389 -0.4554
38864SOL    HW222429   3.341   1.090   9.204  1.5693 -1.1745  0.6519
38865SOL     OW22430   5.918   3.491   6.456  0.0808  0.0584  0.1077
38865SOL    HW122431   5.979   3.445   6.398 -2.2657 -1.0484 -1.6091
38865SOL    HW222432   5.928   3.583   6.431  0.2058 -0.2336 -1.0066
38866SOL     OW22433   9.393   9.339   4.140  0.0063  0.6279  0.1821
38866SOL    HW122434   9.446   9.260   4.133  0.5547  1.0915 -1.2408
38866SOL    HW222435   9.405   9.384   4.056  0.0803  2.4504  1.1109
38867SOL     OW22436   9.962   4.088   1.075 -0.1523  0.4490 -0.0857
38867SOL    HW122437   9.997   4.027   1.140 -0.0259  0.2618 -0.3289
38867SOL    HW222438   9.875   4.111   1.109 -0.3696 -0.1843 -0.2016
38868SOL     OW22439   1.099   9.851   6.450  0.0412  0.6762 -0.1524
38868SOL    HW122440   1.133   9.936   6.479 -0.9453  0.5041  1.6607
38868SOL    HW222441   1.142   9.788   6.508  1.5770 -0.2370 -2.1602
38869SOL     OW22442  10.230   1.382   8.402 -0.3415 -0.2733  0.2212
38869SOL    HW122443  10.234   1.395   8.308 -1.4147  1.5932  0.3697
38869SOL    HW222444  10.266   1.295   8.417 -0.0032 -0.5300 -1.8833
38870SOL     OW22445   7.062   5.532   9.132  0.1468 -0.1923 -0.1878
38870SOL    HW122446   7.056   5.450   9.083  1.8469 -1.3125  1.3445
38870SOL    HW222447   7.119   5.588   9.078 -0.2447 -0.3722 -0.7939
38871SOL     OW22448   6.784   3.241   5.670 -0.0483  0.2245  0.5638
38871SOL    HW122449   6.827   3.255   5.585 -2.0015  1.3714 -0.3109
38871SOL    HW222450   6.803   3.150   5.692  0.1124 -0.2502 -1.3438
38872SOL     OW22451   0.686   8.736   8.936 -0.0839 -0.2233 -0.4582
38872SOL    HW122452   0.740   8.662   8.912  0.0237 -1.0597  2.0052
38872SOL    HW222453   0.710   8.806   8.875  0.8394 -1.7633 -1.9237
38873SOL     OW22454   7.368   0.161   5.111  0.6304 -0.2126 -0.2193
38873SOL    HW122455   7.364   0.098   5.183  0.5504 -1.9347 -1.6674
38873SOL    HW222456   7.460   0.163   5.086  0.7538  0.8094  0.2558
38874SOL     OW22457   1.961   7.607   1.068 -0.3633 -0.0330 -0.0099
38874SOL    HW122458   1.929   7.639   1.152 -1.1952  0.2409 -0.4274
38874SOL    HW222459   1.888   7.618   1.008 -0.9499 -3.2127 -0.0866
38875SOL     OW22460   5.348   5.847   5.918  0.2244 -0.0478 -0.3378
38875SOL    HW122461   5.282   5.891   5.971 -0.7591 -2.9917  1.0972
38875SOL    HW222462   5.311   5.846   5.830 -0.5474  0.3742 -0.0269
38876SOL     OW22463   2.150   6.941   3.195 -0.2987  0.1165 -0.2857
38876SOL    HW122464   2.204   7.017   3.218  1.1135 -0.9484  0.0576
38876SOL    HW222465   2.128   6.901   3.280 -0.1886 -0.4144 -0.5030
38877SOL     OW22466   1.515   0.104   4.832  0.1356 -0.2979  0.1951
38877SOL    HW122467   1.495   0.056   4.912  0.4534 -0.6101  0.0924
38877SOL    HW222468   1.472   0.054   4.763 -0.5590  0.2492  0.2227
38878SOL     OW22469   8.912   7.638   8.917 -0.8858 -0.2091  0.4590
38878SOL    HW122470   8.828   7.632   8.871 -0.1529 -1.5928 -0.8017
38878SOL    HW222471   8.977   7.619   8.849  0.3539 -0.7992  1.7677
38879SOL     OW22472   4.892   1.889   1.738 -0.5114  0.1171 -0.2394
38879SOL    HW122473   4.868   1.957   1.674  0.0447  0.9087  0.3663
38879SOL    HW222474   4.846   1.915   1.818  0.9676  0.7055  0.4520
38880SOL     OW22475   4.022   5.086   6.975 -0.5120 -0.1932  0.2702
38880SOL    HW122476   4.031   5.179   6.995 -1.4165  0.0151 -0.2383
38880SOL    HW222477   4.108   5.049   6.995  0.4327  1.0711 -1.2689
38881SOL     OW22478   1.719   1.460   2.614  0.0147 -0.7253 -0.0211
38881SOL    HW122479   1.724   1.463   2.710 -0.1533  2.0705 -0.0044
38881SOL    HW222480   1.628   1.480   2.595  0.4918  1.0439 -0.7116
38882SOL     OW22481   8.972   5.316   1.020 -0.2864  0.2708  0.2640
38882SOL    HW122482   8.935   5.235   1.055 -0.0500 -0.0491 -0.2026
38882SOL    HW222483   9.066   5.309   1.036 -0.2407  0.3596  0.0472
38883SOL     OW22484   4.928   8.763   4.602  0.0508  0.4957  0.1869
38883SOL    HW122485   4.899   8.699   4.666  0.6344  1.4225  1.4220
38883SOL    HW222486   4.867   8.837   4.612  0.0114  0.5690 -0.4912
38884SOL     OW22487   8.159   0.114   5.198  0.8137  0.7550  0.6674
38884SOL    HW122488   8.110   0.188   5.164  0.7556 -0.2797 -1.7194
38884SOL    HW222489   8.247   0.150   5.215  0.7357  1.4355 -0.2635
38885SOL     OW22490   2.817   7.532   7.922  0.2631  0.0248  0.1687
38885SOL    HW122491   2.870   7.476   7.978  1.7160  0.5228 -0.6698
38885SOL    HW222492   2.728   7.495   7.929  0.8715 -1.3953  0.8699
38886SOL     OW22493   9.073   9.861   0.003 -0.3292  0.3308  0.6432
38886SOL    HW122494   9.012   9.859  -0.070 -0.3678 -1.6585  0.6651
38886SOL    HW222495   9.159   9.862  -0.037 -0.3529 -0.5672  0.5482
38887SOL     OW22496   2.571   0.372   3.165  0.7153 -0.1381 -0.0558
38887SOL    HW122497   2.477   0.364   3.153  0.5788  0.5877  0.4343
38887SOL    HW222498   2.609   0.316   3.098 -0.0575  0.0722 -0.6817
38888SOL     OW22499  10.440  10.426   4.913 -0.6455  0.5461 -0.2905
38888SOL    HW122500  10.429  10.483   4.837  1.4687  0.9924 -0.3168
38888SOL    HW222501  10.447  10.486   4.987 -2.3346  0.1254  0.2569
38889SOL     OW22502  10.536   0.253   9.870  0.3668 -0.3622 -0.1858
38889SOL    HW122503  10.449   0.277   9.840  0.0619 -2.8739 -1.5112
38889SOL    HW222504  10.584   0.336   9.870 -1.3189  0.7092 -1.8452
38890SOL     OW22505   8.972   2.343   0.280  0.0791 -0.4196 -0.1764
38890SOL    HW122506   8.927   2.423   0.254  2.0535  0.7187 -0.3037
38890SOL    HW222507   8.935   2.275   0.224 -3.5429 -0.2265  1.7370
38891SOL     OW22508   6.627   2.138   9.395 -0.4432  0.1091 -0.0957
38891SOL    HW122509   6.617   2.108   9.304  0.4492  0.6053 -0.3613
38891SOL    HW222510   6.718   2.164   9.402 -0.6136  0.4828  0.8316
38892SOL     OW22511   8.703   1.935   7.997  0.4971 -0.0169 -0.0634
38892SOL    HW122512   8.639   2.005   8.003  0.7046  0.3882 -1.9057
38892SOL    HW222513   8.657   1.863   7.954  1.0288 -0.0063 -0.6782
38893SOL     OW22514  10.625   7.138   2.276  0.5343  0.3188 -0.4080
38893SOL    HW122515  10.648   7.114   2.187  0.6452  0.3121 -0.3770
38893SOL    HW222516  10.559   7.074   2.302  0.0567  0.6782 -0.6997
38894SOL     OW22517   5.281   9.124   3.746  0.2066 -0.7098  0.1597
38894SOL    HW122518   5.275   9.098   3.654  0.9745  0.2727 -0.1881
38894SOL    HW222519   5.275   9.219   3.744 -1.7055 -0.7587  1.3201
38895SOL     OW22520   4.034   6.903   0.266  0.3336 -0.2533  0.0581
38895SOL    HW122521   4.017   6.828   0.209  0.0148 -1.6404  1.9254
38895SOL    HW222522   4.129   6.907   0.274  0.5154  1.0486 -1.9062
38896SOL     OW22523   1.937   5.175   4.694  0.2624  0.5122 -0.3430
38896SOL    HW122524   1.976   5.253   4.735  0.4346  0.6237 -0.7092
38896SOL    HW222525   1.937   5.109   4.763  3.4328 -0.2921 -0.9696
38897SOL     OW22526   0.012   1.047   9.736 -0.2644 -0.6924 -0.0971
38897SOL    HW122527  -0.045   1.123   9.752  1.4193  0.4859  0.6427
38897SOL    HW222528   0.022   1.044   9.641  0.7719  0.9456 -0.0897
38898SOL     OW22529   5.707   9.752   6.074 -0.2810 -0.2643  0.3207
38898SOL    HW122530   5.694   9.720   5.984 -0.4709  2.5504 -0.7456
38898SOL    HW222531   5.619   9.770   6.106 -0.0997  1.7129 -0.1670
38899SOL     OW22532   1.424   4.057   0.705 -0.4119 -0.3405 -0.6353
38899SOL    HW122533   1.385   4.054   0.618  0.8688 -0.7160 -1.2233
38899SOL    HW222534   1.376   3.992   0.756 -0.9527 -0.3449 -1.1469
38900SOL     OW22535   3.764   3.380   8.483  0.3364 -0.4656 -0.0465
38900SOL    HW122536   3.729   3.305   8.435 -2.1855  1.2232 -1.0146
38900SOL    HW222537   3.697   3.401   8.547  0.7907  1.2371 -0.0901
38901SOL     OW22538   2.266   6.853   4.024  0.1715  0.2658  0.0246
38901SOL    HW122539   2.255   6.760   4.046  1.0586  0.0567 -0.3803
38901SOL    HW222540   2.203   6.869   3.954 -0.4163  0.1330  0.5080
38902SOL     OW22541   0.096   7.176   0.099  0.0337 -0.1149  0.3748
38902SOL    HW122542   0.010   7.168   0.141  0.7665 -2.2114  1.5982
38902SOL    HW222543   0.107   7.093   0.051  1.1752  0.3340 -0.1782
38903SOL     OW22544   3.709   6.499   6.580 -0.2139  0.3253  0.2486
38903SOL    HW122545   3.770   6.425   6.587  1.3728  1.4705 -0.8277
38903SOL    HW222546   3.660   6.481   6.501  1.5676  1.3273 -1.1701
38904SOL     OW22547   4.722   1.835   3.626 -0.0297  0.4310 -0.0437
38904SOL    HW122548   4.656   1.813   3.560  1.3180 -0.2791 -1.2087
38904SOL    HW222549   4.705   1.927   3.648 -0.4881  0.6931 -1.4305
38905SOL     OW22550   5.606   3.076   6.260 -0.4431 -0.0777 -0.1283
38905SOL    HW122551   5.587   3.007   6.323 -0.8938 -0.3312 -0.5397
38905SOL    HW222552   5.631   3.151   6.314 -0.8211 -0.2932  0.3524
38906SOL     OW22553   3.689   0.710   3.593  0.2118 -0.3836  0.3985
38906SOL    HW122554   3.616   0.678   3.646  0.7495 -0.3624  1.1702
38906SOL    HW222555   3.673   0.804   3.584 -0.0768 -0.4519  0.2170
38907SOL     OW22556   2.076  10.045   3.712  0.3389  0.1513  0.5700
38907SOL    HW122557   2.084  10.056   3.807  2.1291  0.7143  0.3877
38907SOL    HW222558   1.989  10.079   3.691 -0.7476 -1.4283  2.1796
38908SOL     OW22559   1.915   2.464   8.995 -0.2488  0.1947  0.1075
38908SOL    HW122560   2.008   2.486   8.993 -0.5497  1.5632 -2.7162
38908SOL    HW222561   1.912   2.375   9.031  2.1259  0.1237  0.2838
38909SOL     OW22562   0.936   8.534   9.686 -0.4055 -0.3449 -0.1881
38909SOL    HW122563   0.947   8.481   9.607  0.4677  0.4694 -0.6341
38909SOL    HW222564   0.977   8.618   9.665  0.0954 -0.1998  1.2240
38910SOL     OW22565   3.355   1.675   3.345 -0.4379 -0.3911 -0.2839
38910SOL    HW122566   3.268   1.636   3.340 -0.9156  0.7884 -2.0015
38910SOL    HW222567   3.411   1.618   3.293 -0.1569 -1.1207  0.7782
38911SOL     OW22568   5.347   2.421   0.498  0.1704  0.2237 -0.2978
38911SOL    HW122569   5.410   2.427   0.427 -0.5151  1.0574 -0.8503
38911SOL    HW222570   5.264   2.398   0.455 -0.0094 -0.4155  0.3627
38912SOL     OW22571   7.709  10.522   7.170  0.3820  0.0319 -0.2863
38912SOL    HW122572   7.711  10.487   7.259 -1.5706 -0.4916 -0.3934
38912SOL    HW222573   7.689  10.615   7.181 -2.2277 -0.4582 -0.1567
38913SOL     OW22574   5.660   4.103   5.705 -0.2398 -0.3466  0.3533
38913SOL    HW122575   5.600   4.134   5.773 -1.0135  0.0266 -0.4804
38913SOL    HW222576   5.713   4.180   5.684  0.6188 -0.6978  1.1510
38914SOL     OW22577   3.653   3.452   6.051 -0.2473  0.1557  0.7021
38914SOL    HW122578   3.700   3.387   5.998 -0.4977 -0.1042  0.7908
38914SOL    HW222579   3.571   3.466   6.004 -0.5499 -0.2132  1.1139
38915SOL     OW22580   5.673   1.855   1.727 -0.1054 -0.6786  0.4588
38915SOL    HW122581   5.702   1.776   1.773 -0.0937  0.4671  2.5404
38915SOL    HW222582   5.744   1.918   1.741  0.3759 -0.5358 -2.0620
38916SOL     OW22583   9.587   0.581   0.720  0.0129 -0.0885  0.7576
38916SOL    HW122584   9.517   0.643   0.745  1.3906  0.7834  2.7941
38916SOL    HW222585   9.545   0.495   0.725 -0.7969  0.3461  2.6715
38917SOL     OW22586   2.464   1.313   3.955 -0.5361  0.2694  0.3600
38917SOL    HW122587   2.376   1.344   3.931 -1.3174 -1.5165  0.6769
38917SOL    HW222588   2.467   1.321   4.050 -1.0597 -1.2238  0.5397
38918SOL     OW22589   2.410   3.700   2.304 -0.4707  0.2280 -0.5903
38918SOL    HW122590   2.439   3.757   2.233  2.3284 -1.2464 -0.7675
38918SOL    HW222591   2.340   3.647   2.265  0.4503  0.0246 -2.0539
38919SOL     OW22592   4.534   2.818   9.521  0.3995 -0.1767  0.1364
38919SOL    HW122593   4.519   2.885   9.454 -1.2079 -0.9977 -0.3787
38919SOL    HW222594   4.450   2.773   9.529  1.7319 -2.9282 -0.3807
38920SOL     OW22595   1.223   3.674   9.079 -0.1010 -0.0723  0.3520
38920SOL    HW122596   1.217   3.735   9.152  0.0925 -0.5464  0.7673
38920SOL    HW222597   1.289   3.713   9.021  0.2110 -0.0160  0.7402
38921SOL     OW22598   4.193   0.453   1.143  0.2519 -0.1301  0.2927
38921SOL    HW122599   4.264   0.480   1.085  0.8421 -0.0732  1.0203
38921SOL    HW222600   4.134   0.403   1.087  1.1980 -0.7358 -0.2002
38922SOL     OW22601   2.023   8.537   8.253 -0.6523  0.0541 -0.0285
38922SOL    HW122602   2.028   8.549   8.347 -1.1405  0.7447 -0.0768
38922SOL    HW222603   2.009   8.443   8.240  0.0110 -0.1294  0.5526
38923SOL     OW22604  10.424   0.275   5.992 -0.5655  0.2198  0.1711
38923SOL    HW122605  10.486   0.214   6.031  1.1304  1.8852  0.2338
38923SOL    HW222606  10.433   0.262   5.898 -1.1628 -0.5024  0.2077
38924SOL     OW22607   9.350   3.024   2.601  0.3155  0.4935 -0.7491
38924SOL    HW122608   9.433   3.050   2.562  0.2868  1.2001 -0.3525
38924SOL    HW222609   9.330   3.093   2.665  0.7827 -0.9828  1.1100
38925SOL     OW22610   1.781   6.716   8.953 -0.2516 -0.0109  0.4019
38925SOL    HW122611   1.738   6.634   8.929  0.4444 -0.5116  0.8267
38925SOL    HW222612   1.817   6.750   8.871 -1.4468  0.4331  0.0322
38926SOL     OW22613   6.276   9.942   8.710  0.0602 -0.0155 -0.0057
38926SOL    HW122614   6.327   9.869   8.743 -0.0803  0.5385  1.5099
38926SOL    HW222615   6.341  10.002   8.673  0.2642 -0.4414 -0.3436
38927SOL     OW22616   0.795  10.106   4.656 -0.2405 -0.3890  0.0706
38927SOL    HW122617   0.779  10.197   4.632  0.0774 -0.4715 -0.4644
38927SOL    HW222618   0.811  10.110   4.751 -2.1056 -0.1515  0.4118
38928SOL     OW22619   8.019   5.523   6.519 -0.2675  0.1773  0.0403
38928SOL    HW122620   8.087   5.578   6.479  0.1957 -0.1572  0.3599
38928SOL    HW222621   8.067   5.464   6.577 -1.0870  2.4976  3.3243
38929SOL     OW22622   7.661   8.895   4.528  0.3167 -0.1119  0.3056
38929SOL    HW122623   7.678   8.820   4.585 -1.4432 -0.7493  0.0482
38929SOL    HW222624   7.639   8.967   4.587 -0.6671 -0.5454  0.4817
38930SOL     OW22625   6.783   1.446   6.826  0.1851  0.0733  0.0780
38930SOL    HW122626   6.745   1.359   6.837  1.2166 -0.2539  1.3725
38930SOL    HW222627   6.856   1.448   6.889  1.0039  1.3935 -0.8692
38931SOL     OW22628   9.753   2.501   6.053 -0.2644  0.0236 -0.1899
38931SOL    HW122629   9.772   2.594   6.038 -0.3300  0.4518  2.0753
38931SOL    HW222630   9.737   2.465   5.965  2.9521  1.4097 -1.4919
38932SOL     OW22631   8.041   5.301   9.706  0.1223  0.0492  0.5713
38932SOL    HW122632   8.088   5.280   9.626  0.3254 -0.9760  0.9480
38932SOL    HW222633   8.019   5.217   9.744 -3.5225  0.4213 -0.3948
38933SOL     OW22634   1.501   0.583   0.446 -0.3194  0.5030 -0.1181
38933SOL    HW122635   1.533   0.504   0.490  0.4139  0.8784  0.0416
38933SOL    HW222636   1.545   0.655   0.491 -1.8074  1.0857  0.4539
38934SOL     OW22637   6.638   2.428   4.909  0.2461 -0.3946 -0.0340
38934SOL    HW122638   6.551   2.436   4.948  0.1589 -1.2976 -0.0324
38934SOL    HW222639   6.690   2.383   4.975  0.2606 -1.3848 -0.7081
38935SOL     OW22640   3.042   7.757   7.032  0.2803 -0.4171  0.2626
38935SOL    HW122641   3.031   7.850   7.052 -0.2917 -0.4971  0.3332
38935SOL    HW222642   2.979   7.740   6.962 -1.7306 -1.3950  2.1872
38936SOL     OW22643   3.580   5.361   5.045 -0.0600 -0.0931  0.1761
38936SOL    HW122644   3.602   5.408   5.125  0.1570  1.3651 -0.7118
38936SOL    HW222645   3.657   5.306   5.027 -0.2557 -0.7078  1.1363
38937SOL     OW22646   3.923   6.212   9.062 -0.4295 -0.2071  0.1256
38937SOL    HW122647   3.880   6.178   8.983 -1.6887  0.7480  0.3665
38937SOL    HW222648   4.010   6.173   9.060 -0.4721 -0.3130 -1.6755
38938SOL     OW22649   2.099   6.291   6.526 -0.8321 -0.1043  0.0871
38938SOL    HW122650   2.032   6.267   6.461  1.1300 -1.2934 -1.6650
38938SOL    HW222651   2.150   6.359   6.483 -0.6816  0.5227  1.2359
38939SOL     OW22652   1.493   5.184   9.508 -0.5016 -0.1771  0.5097
38939SOL    HW122653   1.484   5.280   9.508 -1.0668 -0.2269  0.8969
38939SOL    HW222654   1.569   5.167   9.563  1.4710  0.1923 -1.9076
38940SOL     OW22655   4.783   2.263   1.409  0.5577 -0.4628 -0.3868
38940SOL    HW122656   4.814   2.275   1.319  0.4135 -2.0673 -0.6874
38940SOL    HW222657   4.708   2.323   1.417  0.1102 -0.8339 -1.5846
38941SOL     OW22658   1.761   7.498   1.638 -0.2913 -0.4735  0.4943
38941SOL    HW122659   1.838   7.499   1.581 -1.2531  1.0708 -0.8735
38941SOL    HW222660   1.797   7.498   1.727  1.2443 -2.4567 -0.0566
38942SOL     OW22661   0.418   2.551   9.084 -0.3960 -0.0416  0.0735
38942SOL    HW122662   0.326   2.570   9.102 -0.2485 -0.7926  1.8776
38942SOL    HW222663   0.466   2.595   9.154  0.6271  0.3252 -0.8335
38943SOL     OW22664   5.562   5.048   1.070 -0.6009  0.3342  0.2639
38943SOL    HW122665   5.637   5.044   1.011 -0.6469 -0.7760  0.2551
38943SOL    HW222666   5.557   5.139   1.098  2.6675 -0.0828  2.7201
38944SOL     OW22667   4.152   4.800   7.730  0.3341  0.1824  0.4740
38944SOL    HW122668   4.063   4.784   7.700  0.7346 -1.3916  0.0693
38944SOL    HW222669   4.186   4.714   7.755  2.1371  0.5555 -0.4693
38945SOL     OW22670   6.776   0.890   6.131  0.1962  0.0103  0.0564
38945SOL    HW122671   6.727   0.899   6.212 -0.3734  1.3525 -0.4076
38945SOL    HW222672   6.844   0.825   6.151 -1.3051 -1.3588  0.9176
38946SOL     OW22673   9.746   6.835   3.327 -0.6214  0.0887  0.2790
38946SOL    HW122674   9.823   6.778   3.328  0.3121  1.3162  0.9157
38946SOL    HW222675   9.764   6.898   3.257 -1.3824 -0.0222 -0.0288
38947SOL     OW22676   8.259   6.873   0.674 -0.5332 -1.0029  0.0936
38947SOL    HW122677   8.278   6.859   0.767 -2.2513 -0.1974  0.6224
38947SOL    HW222678   8.177   6.826   0.660  0.3827 -2.2453 -1.3885
38948SOL     OW22679   2.707   4.700   8.175 -0.1278  0.3454 -0.2535
38948SOL    HW122680   2.753   4.784   8.168  0.0496  0.3559  0.8486
38948SOL    HW222681   2.737   4.663   8.259 -2.5489  0.6219  0.8130
38949SOL     OW22682   9.531  10.071   3.637 -0.1031 -0.5240  0.2246
38949SOL    HW122683   9.522  10.000   3.575  0.5487 -0.3676 -0.0606
38949SOL    HW222684   9.448  10.072   3.686 -0.7318 -0.4648 -0.8219
38950SOL     OW22685   9.449   2.561   4.442  0.2030  0.3971 -0.1431
38950SOL    HW122686   9.436   2.466   4.438  3.4685 -0.1394 -2.3352
38950SOL    HW222687   9.497   2.575   4.523 -2.9773  0.7850  1.8570
38951SOL     OW22688   8.608   8.436   7.120 -0.2518  0.1924 -0.2039
38951SOL    HW122689   8.649   8.465   7.039  2.7422 -2.5071  0.1138
38951SOL    HW222690   8.651   8.488   7.189  0.0180 -0.1047 -0.1398
38952SOL     OW22691   3.796   3.437   8.167  0.8583  0.4413  0.0006
38952SOL    HW122692   3.861   3.502   8.142 -0.0481  1.1390 -0.6497
38952SOL    HW222693   3.749   3.477   8.240 -0.1548  0.8405 -0.8460
38953SOL     OW22694   3.442   5.408   2.285  0.4979 -0.5099  0.0386
38953SOL    HW122695   3.348   5.425   2.292  0.3495 -1.7761  1.9151
38953SOL    HW222696   3.451   5.355   2.206  0.0085  1.6505 -1.5474
38954SOL     OW22697   0.364   9.372   8.669  0.0613 -0.1353  0.1545
38954SOL    HW122698   0.350   9.391   8.577 -0.1679  0.2644  0.2675
38954SOL    HW222699   0.353   9.278   8.677 -0.3512 -0.1146 -0.1515
38955SOL     OW22700   4.126   7.324   5.263  0.0198 -0.6201 -0.1870
38955SOL    HW122701   4.205   7.269   5.260 -0.3986 -1.3381  1.0265
38955SOL    HW222702   4.160   7.414   5.262  0.8330 -0.9182 -0.1306
38956SOL     OW22703   7.509   3.639   4.468  0.1200  0.1126 -0.3806
38956SOL    HW122704   7.424   3.672   4.499 -0.3838 -0.7063 -0.8590
38956SOL    HW222705   7.494   3.545   4.454  0.7131  0.2160 -1.7916
38957SOL     OW22706   4.244   9.797   6.923 -0.3701 -0.4074 -0.6174
38957SOL    HW122707   4.304   9.829   6.855  0.0535 -1.1874 -0.6227
38957SOL    HW222708   4.283   9.714   6.952 -0.0387  0.3641  1.2606
38958SOL     OW22709   3.454   8.086   6.590  0.5170 -0.5048 -0.0779
38958SOL    HW122710   3.447   8.149   6.518  2.3068 -0.1911 -0.0176
38958SOL    HW222711   3.389   8.115   6.654 -1.3125 -0.9511 -1.6387
38959SOL     OW22712   3.599   4.561   2.535  0.1910 -0.4491 -0.0247
38959SOL    HW122713   3.534   4.502   2.573  1.0445 -1.4587 -0.0807
38959SOL    HW222714   3.604   4.534   2.443 -1.0474  1.2312 -0.6465
38960SOL     OW22715   1.236   4.550   7.691 -0.1362  0.1470  0.4178
38960SOL    HW122716   1.282   4.626   7.727 -1.7325  1.3974 -0.0409
38960SOL    HW222717   1.145   4.561   7.721 -0.4941 -1.3360 -0.0427
38961SOL     OW22718  10.221   8.631   2.536  0.5248 -0.2716 -0.2018
38961SOL    HW122719  10.283   8.703   2.548 -0.1919  0.2742  0.3611
38961SOL    HW222720  10.145   8.672   2.495 -0.0106 -0.6370  0.4014
38962SOL     OW22721   2.653   2.264   0.300 -0.3984 -0.2253 -0.3868
38962SOL    HW122722   2.696   2.232   0.220 -2.7314 -2.4427 -0.9042
38962SOL    HW222723   2.578   2.314   0.267  0.0817  1.0844  0.4656
38963SOL     OW22724   6.950   5.564   6.978  0.2752  0.0777 -0.1198
38963SOL    HW122725   6.952   5.650   7.020  1.8031 -0.0982  0.2349
38963SOL    HW222726   7.037   5.554   6.938 -0.2977 -0.8001 -1.1982
38964SOL     OW22727   5.639   2.308   8.396 -0.4130  0.0983  0.2921
38964SOL    HW122728   5.689   2.390   8.402  0.1643  0.2226 -3.8339
38964SOL    HW222729   5.692   2.244   8.444  2.4365  0.8393 -1.6588
38965SOL     OW22730   9.242   2.628   4.258 -0.0188 -0.3215 -0.4319
38965SOL    HW122731   9.191   2.547   4.248 -0.2995 -0.2541  0.3342
38965SOL    HW222732   9.314   2.604   4.316 -1.0061  0.3175  1.1641
38966SOL     OW22733   5.280   9.112  10.444 -0.4341  0.2000 -0.1555
38966SOL    HW122734   5.347   9.173  10.413 -1.6863  2.6434  1.5828
38966SOL    HW222735   5.307   9.027  10.409  1.3322  1.7192 -2.8715
38967SOL     OW22736   1.786   0.983   5.094  0.4041  0.0151  0.2001
38967SOL    HW122737   1.693   1.004   5.097  0.3768  0.1372 -0.8688
38967SOL    HW222738   1.789   0.890   5.071  0.5356  0.2869 -0.9340
38968SOL     OW22739   9.661   1.915   2.647  0.2138  0.2284  0.3792
38968SOL    HW122740   9.729   1.968   2.607 -0.0799 -0.3291 -0.8969
38968SOL    HW222741   9.703   1.831   2.665  0.1469  0.2371  0.5821
38969SOL     OW22742   3.810   9.656   5.785 -0.3162 -0.4986  0.0606
38969SOL    HW122743   3.785   9.733   5.836 -0.2944 -0.5912  0.2117
38969SOL    HW222744   3.795   9.682   5.694 -0.0085 -0.2090  0.0904
38970SOL     OW22745   0.705   8.988   6.444 -0.4375  0.1456  0.4279
38970SOL    HW122746   0.709   9.054   6.375  0.3167  0.9709  1.2372
38970SOL    HW222747   0.678   9.037   6.522 -0.5390 -0.6356  0.8896
38971SOL     OW22748   6.960   2.591   1.959  0.4822  0.2710 -0.4185
38971SOL    HW122749   6.911   2.521   1.916  0.4825  0.0909 -0.1322
38971SOL    HW222750   6.950   2.573   2.053  1.6611 -0.1621 -0.3614
38972SOL     OW22751   0.557   5.219  10.605  0.0216  0.1785  0.2461
38972SOL    HW122752   0.581   5.126  10.610 -1.7471 -0.4396 -1.3260
38972SOL    HW222753   0.482   5.220  10.546  0.0231  2.6454  0.2139
38973SOL     OW22754   4.539   2.572   1.154 -0.2047  0.4403  0.2571
38973SOL    HW122755   4.479   2.509   1.113 -0.7386  1.2742 -0.2794
38973SOL    HW222756   4.622   2.560   1.109  0.3487 -1.3686  1.6236
38974SOL     OW22757   8.755   4.125   5.050  0.2539  0.1267 -0.2546
38974SOL    HW122758   8.841   4.147   5.086 -0.4314 -0.2370  1.7304
38974SOL    HW222759   8.708   4.209   5.047  0.0001  0.0338  0.6691
38975SOL     OW22760   8.657   5.141   3.632 -0.4258 -0.0116  0.3277
38975SOL    HW122761   8.684   5.106   3.716  2.3385 -1.4735 -1.0429
38975SOL    HW222762   8.637   5.063   3.579  0.7653  0.6941 -1.2279
38976SOL     OW22763   4.337   6.149   1.610 -0.3934 -0.0416 -0.6518
38976SOL    HW122764   4.417   6.140   1.559 -0.7371  0.0420 -1.2309
38976SOL    HW222765   4.294   6.064   1.604 -0.5497  0.0391 -0.7046
38977SOL     OW22766   2.648   4.839  10.075  0.0886  0.4784  0.1688
38977SOL    HW122767   2.649   4.923  10.122  1.1050 -0.3958  1.8263
38977SOL    HW222768   2.713   4.850  10.006 -0.2751  1.2709 -0.0602
38978SOL     OW22769   8.330   2.723   9.126  0.4289 -0.0329  0.0653
38978SOL    HW122770   8.359   2.668   9.053 -1.0817 -0.6813 -0.0900
38978SOL    HW222771   8.381   2.804   9.117  0.9011 -0.4455 -1.1746
38979SOL     OW22772   0.896   2.562   2.266 -0.1030  0.1278 -0.4999
38979SOL    HW122773   0.884   2.627   2.336  1.8200 -0.8622  0.8405
38979SOL    HW222774   0.980   2.583   2.227  0.2827 -1.1795 -0.4340
38980SOL     OW22775   1.097   7.884   8.823  0.1489 -0.2561  0.0580
38980SOL    HW122776   1.185   7.849   8.840  0.2164 -0.5376 -0.8231
38980SOL    HW222777   1.041   7.806   8.816  0.0781 -0.1455 -0.7007
38981SOL     OW22778   2.067   1.142   1.653  0.7632  0.0119 -0.0943
38981SOL    HW122779   2.103   1.185   1.575  0.4607 -1.4261 -1.0728
38981SOL    HW222780   1.981   1.182   1.666  1.4203  1.2922  0.4002
38982SOL     OW22781   8.470   9.191   8.168  0.3750 -0.1503  0.7235
38982SOL    HW122782   8.482   9.186   8.263  1.8380 -1.3323  0.5147
38982SOL    HW222783   8.503   9.107   8.135 -0.7660 -0.0511 -0.7826
38983SOL     OW22784   7.242   0.641   1.386 -0.5407 -0.1114  0.9530
38983SOL    HW122785   7.299   0.568   1.412 -0.9333 -0.3990  1.0178
38983SOL    HW222786   7.209   0.676   1.468 -0.0375  0.3991  0.9405
38984SOL     OW22787   2.521   5.317   2.148 -0.8325  0.1742 -0.1957
38984SOL    HW122788   2.560   5.388   2.200 -1.0117 -0.5990  1.0422
38984SOL    HW222789   2.468   5.362   2.082 -0.5384  1.1986  0.2436
38985SOL     OW22790  10.049   9.235   0.504 -0.0420 -0.3467  0.4873
38985SOL    HW122791  10.014   9.177   0.436  0.3466 -1.5893  1.3090
38985SOL    HW222792   9.973   9.284   0.535 -0.8956 -2.1228  1.3840
38986SOL     OW22793   1.579   6.193   3.730  0.1160  0.2714 -0.2113
38986SOL    HW122794   1.650   6.132   3.749 -1.4672 -1.2036  1.3825
38986SOL    HW222795   1.595   6.222   3.641  1.8932 -1.1569 -0.4112
38987SOL     OW22796   4.495   3.468   4.232 -0.5780  0.1632  0.4197
38987SOL    HW122797   4.563   3.469   4.300  0.4185 -2.1206 -0.4448
38987SOL    HW222798   4.530   3.523   4.162  0.2271 -0.6430  0.1649
38988SOL     OW22799   9.427   2.693   6.164 -0.1786 -0.3620 -0.1285
38988SOL    HW122800   9.388   2.638   6.096 -0.1187  0.4707 -0.8542
38988SOL    HW222801   9.493   2.745   6.118  0.0856 -0.0058  0.6300
38989SOL     OW22802   8.775   4.050  10.711  0.1800 -0.4447 -0.0608
38989SOL    HW122803   8.814   3.963  10.710 -0.1500 -0.7058  2.7542
38989SOL    HW222804   8.682   4.035  10.723  0.2114  0.2900  1.2734
38990SOL     OW22805   0.409   6.552   4.310  0.6576  0.1205  0.0619
38990SOL    HW122806   0.382   6.640   4.287  0.4557  0.2425  0.7225
38990SOL    HW222807   0.405   6.502   4.229  0.0388  0.5382 -0.1627
38991SOL     OW22808   5.016   8.609   5.389  0.1246 -0.0463 -0.1665
38991SOL    HW122809   5.037   8.553   5.464  0.8830  0.6999  0.1986
38991SOL    HW222810   5.072   8.686   5.401 -0.0762  0.2793 -1.2702
38992SOL     OW22811   1.623  10.178   5.602 -0.0001 -0.3474 -0.3760
38992SOL    HW122812   1.614  10.129   5.520 -1.1580  1.7930 -1.6071
38992SOL    HW222813   1.534  10.179   5.639  0.2225 -0.0436  0.1589
38993SOL     OW22814   5.844   1.406   5.792 -0.1765  0.2971  0.0386
38993SOL    HW122815   5.886   1.321   5.779  0.2286  0.5469 -0.3706
38993SOL    HW222816   5.915   1.469   5.779 -0.5308  0.7045  0.0557
38994SOL     OW22817   4.228   5.359   6.167  0.1436 -0.4375  0.1660
38994SOL    HW122818   4.155   5.299   6.180 -1.2823  1.6028  2.5223
38994SOL    HW222819   4.188   5.446   6.168  2.4084  0.6857 -0.3881
38995SOL     OW22820   0.318   1.441   6.946 -0.2652 -0.0427  0.0015
38995SOL    HW122821   0.412   1.422   6.937 -0.0080  0.7605  0.8702
38995SOL    HW222822   0.294   1.403   7.030 -0.8358 -0.6451 -0.4240
38996SOL     OW22823   9.300   6.418   8.820  0.5385  0.6600  0.1802
38996SOL    HW122824   9.369   6.364   8.858 -0.3887 -1.9495 -1.5240
38996SOL    HW222825   9.336   6.448   8.737  0.8493  2.3157  0.8794
38997SOL     OW22826   5.512   9.015   2.549 -0.0115 -0.0981 -0.3642
38997SOL    HW122827   5.582   9.076   2.572 -0.4363  0.6863 -1.1065
38997SOL    HW222828   5.442   9.034   2.612 -0.6861  1.1761 -1.4616
38998SOL     OW22829  10.624   9.504  10.540 -0.5829  0.3180 -0.0358
38998SOL    HW122830  10.612   9.510  10.635 -1.5693  0.9688 -0.1881
38998SOL    HW222831  10.552   9.554  10.503  0.0805  0.5144 -1.1306
38999SOL     OW22832   5.327   0.559   9.187 -0.0924 -0.1194 -0.1845
38999SOL    HW122833   5.399   0.503   9.215 -0.1038  0.0816  0.2526
38999SOL    HW222834   5.351   0.586   9.099 -0.1003 -0.8351 -0.4179
39000SOL     OW22835   4.615  10.603   9.178  0.1906  0.3509  0.5502
39000SOL    HW122836   4.691  10.568   9.132 -0.6580 -0.5249 -0.2350
39000SOL    HW222837   4.541  10.554   9.142 -0.8950  2.0387  0.4086
39001SOL     OW22838   0.731   2.761   5.547  1.1543 -0.2172 -0.4619
39001SOL    HW122839   0.704   2.768   5.638 -1.2493 -1.0712 -1.0309
39001SOL    HW222840   0.825   2.746   5.551  0.9278 -1.5176  1.9455
39002SOL     OW22841   8.166   6.280   1.431 -0.9359  0.3700  0.3926
39002SOL    HW122842   8.222   6.319   1.498 -0.0921 -0.8422  0.4231
39002SOL    HW222843   8.161   6.346   1.362 -3.3190  2.4511  2.3257
39003SOL     OW22844   5.279   4.699   4.340  0.0414  0.2583  0.0679
39003SOL    HW122845   5.288   4.614   4.383  1.1781  0.6012  0.5423
39003SOL    HW222846   5.245   4.679   4.253  0.5724 -0.7068  0.0723
39004SOL     OW22847   6.943   7.292   5.489 -0.2760 -0.1492 -0.0090
39004SOL    HW122848   7.033   7.281   5.458  0.5304  2.7964  0.9259
39004SOL    HW222849   6.891   7.237   5.432  2.1117 -2.0470 -0.5313
39005SOL     OW22850   7.315   1.924   6.441 -0.2144  0.0657  0.0069
39005SOL    HW122851   7.378   1.853   6.426 -0.2456  0.0422 -0.0143
39005SOL    HW222852   7.303   1.925   6.536  0.8793  0.9976  0.1520
39006SOL     OW22853   6.031   0.971   1.224 -0.3591 -0.3530 -0.0421
39006SOL    HW122854   5.990   1.011   1.301  0.8419  2.2229 -0.6517
39006SOL    HW222855   5.965   0.979   1.155 -0.5208 -0.4754  0.0931
39007SOL     OW22856   5.216   2.816   0.555  0.4591  0.1077 -0.2838
39007SOL    HW122857   5.289   2.770   0.514  0.0773 -1.5973  0.8290
39007SOL    HW222858   5.253   2.856   0.633 -0.0146 -2.0977  1.1646
39008SOL     OW22859   4.470   6.250   3.112 -0.1925 -0.4728 -0.0167
39008SOL    HW122860   4.511   6.169   3.080  2.0234 -0.4140  2.3894
39008SOL    HW222861   4.540   6.316   3.108 -1.1524  0.6242  0.6838
39009SOL     OW22862   8.803   4.614   1.527 -0.7547  0.0887 -0.4803
39009SOL    HW122863   8.742   4.561   1.579  0.3355 -0.1908  0.5483
39009SOL    HW222864   8.887   4.569   1.535 -0.0290  1.3847 -0.4657
39010SOL     OW22865   5.412   0.993   3.778 -0.0560  0.3614  0.2914
39010SOL    HW122866   5.325   0.954   3.768 -0.6207  1.9543 -1.9784
39010SOL    HW222867   5.434   0.981   3.870 -1.8970 -1.6422  0.5478
39011SOL     OW22868   4.892   5.274   6.918 -0.4693 -0.3602  0.1020
39011SOL    HW122869   4.839   5.226   6.854  0.2985 -1.0722 -0.0158
39011SOL    HW222870   4.862   5.242   7.003 -0.4280 -0.5545  0.0442
39012SOL     OW22871   6.321   5.754   0.800  0.1291  0.1982  0.1859
39012SOL    HW122872   6.375   5.721   0.728  0.7906  0.0594  0.7400
39012SOL    HW222873   6.262   5.817   0.759  0.2060 -0.2017 -0.5502
39013SOL     OW22874  10.358   3.455   1.737 -0.1938 -0.0603  0.5594
39013SOL    HW122875  10.306   3.383   1.703 -0.7982  0.9569 -0.7605
39013SOL    HW222876  10.395   3.497   1.659  0.3467  0.8970  1.3040
39014SOL     OW22877   5.169   0.607   9.727 -0.3131  0.2297  0.5313
39014SOL    HW122878   5.122   0.683   9.695  0.8444  1.0253  0.6674
39014SOL    HW222879   5.239   0.643   9.781 -0.6684 -0.9858  1.8677
39015SOL     OW22880   9.573   8.133   2.722 -0.1188  0.5706  0.4441
39015SOL    HW122881   9.590   8.166   2.811  0.6828  0.4232  0.3575
39015SOL    HW222882   9.652   8.156   2.673  0.2702 -1.0092  0.2568
39016SOL     OW22883   5.277   6.173   1.690 -0.1895 -0.0844  0.0473
39016SOL    HW122884   5.182   6.165   1.695 -0.2972  1.5725  1.4711
39016SOL    HW222885   5.294   6.202   1.600 -0.8850 -1.6161 -0.6104
39017SOL     OW22886   9.424   2.245   8.930 -0.3669 -0.6458 -0.3239
39017SOL    HW122887   9.361   2.289   8.872  0.0035 -0.3617 -0.5218
39017SOL    HW222888   9.485   2.315   8.955  1.2222 -1.3635 -1.9809
39018SOL     OW22889   8.909   3.542   0.660  0.0629  0.2586 -1.0036
39018SOL    HW122890   8.983   3.538   0.720 -1.8653  0.3650  1.5572
39018SOL    HW222891   8.878   3.452   0.653 -1.7473  0.6494  0.9927
39019SOL     OW22892   7.777   6.845   3.388 -0.5398 -0.0355  0.1376
39019SOL    HW122893   7.828   6.810   3.315  1.3110  0.4291  1.1464
39019SOL    HW222894   7.688   6.813   3.372  0.2661 -1.8576 -1.0959
39020SOL     OW22895   9.466   7.205   8.903 -0.6728  0.0104 -0.0581
39020SOL    HW122896   9.441   7.284   8.855 -0.2068  0.2714  0.1180
39020SOL    HW222897   9.471   7.137   8.837  1.1760  0.6297 -0.6122
39021SOL     OW22898   5.546   0.177   7.940  0.2787  0.6649 -0.3996
39021SOL    HW122899   5.583   0.101   7.897  1.3491  0.6214  0.5534
39021SOL    HW222900   5.518   0.234   7.868  1.1780  0.1951 -1.1455
39022SOL     OW22901   7.321   8.009  10.339  0.5123  0.2163 -0.6732
39022SOL    HW122902   7.267   7.955  10.397  1.6956 -2.1295 -1.6066
39022SOL    HW222903   7.374   8.062  10.397 -0.0630 -0.2784  0.3325
39023SOL     OW22904   9.424   2.683   5.327 -0.1384 -0.5785 -0.0758
39023SOL    HW122905   9.376   2.615   5.373 -1.3503 -0.8863 -1.7139
39023SOL    HW222906   9.356   2.738   5.288  0.8391  0.5433 -0.2488
39024SOL     OW22907   8.771   7.804   3.321 -0.5245 -0.4098 -0.4247
39024SOL    HW122908   8.751   7.754   3.401 -0.1729  0.0802 -0.0215
39024SOL    HW222909   8.843   7.756   3.281  1.2069  0.8418  1.0283
39025SOL     OW22910   8.745   6.215   0.773 -0.1943  0.1740  0.6075
39025SOL    HW122911   8.837   6.197   0.794 -0.2532  1.1754  1.8182
39025SOL    HW222912   8.746   6.238   0.680  0.7313 -0.1413  0.5281
39026SOL     OW22913   1.776   1.056   3.196  0.1203  0.2101 -0.4458
39026SOL    HW122914   1.708   1.063   3.129 -0.2536  0.5736 -0.0307
39026SOL    HW222915   1.745   0.986   3.254  1.3608 -1.4839 -1.6924
39027SOL     OW22916   4.454   1.944   7.921  0.1316 -0.2009 -0.7527
39027SOL    HW122917   4.534   1.927   7.971 -1.8431 -1.5166  2.1914
39027SOL    HW222918   4.416   1.857   7.906 -0.7107  0.3809 -2.2668
39028SOL     OW22919   5.561   9.633   5.841  0.0544  0.3018 -0.1023
39028SOL    HW122920   5.561   9.675   5.756 -0.8051  1.3849  0.4149
39028SOL    HW222921   5.486   9.573   5.838 -0.0880  0.4767 -0.0398
39029SOL     OW22922   1.065  10.519   6.787  0.2599 -0.2620  0.1339
39029SOL    HW122923   1.131  10.552   6.848  0.8035  1.6047 -1.3513
39029SOL    HW222924   1.012  10.459   6.839  3.3684 -2.2284  1.2734
39030SOL     OW22925   3.175   5.575   7.736  0.6770 -0.2368 -0.3152
39030SOL    HW122926   3.256   5.562   7.785  0.6381 -0.8384 -0.4031
39030SOL    HW222927   3.190   5.654   7.685  0.9395  0.0563  0.2148
39031SOL     OW22928   9.048   1.173   0.504 -0.3764  0.5776  0.1405
39031SOL    HW122929   8.984   1.107   0.477  0.6003 -0.3864  0.1171
39031SOL    HW222930   9.097   1.192   0.424 -0.9488  1.7071  0.0341
39032SOL     OW22931   5.635   2.042   2.713  0.7165  0.1433  0.3163
39032SOL    HW122932   5.721   2.000   2.721  1.1038  1.2672  2.6566
39032SOL    HW222933   5.647   2.130   2.747 -2.0635 -0.6873  4.1658
39033SOL     OW22934   8.843   7.629   7.621  0.2956  0.1532  0.0804
39033SOL    HW122935   8.878   7.541   7.635  1.2455  0.5514  0.3160
39033SOL    HW222936   8.757   7.615   7.582  0.9871 -0.8749 -1.1528
39034SOL     OW22937   1.947   8.180   4.657  0.6617  0.2001  0.2865
39034SOL    HW122938   1.932   8.246   4.589 -0.9410 -0.0575  0.3498
39034SOL    HW222939   2.031   8.205   4.696  0.5081  1.7093 -0.2592
39035SOL     OW22940   3.750   5.631   9.076  0.4087 -0.2246 -0.3574
39035SOL    HW122941   3.699   5.688   9.133  0.4157  0.2472 -0.8173
39035SOL    HW222942   3.823   5.685   9.047  0.8920 -0.7375 -0.1155
39036SOL     OW22943  10.278   3.727  10.567 -0.4128  0.3014 -0.1201
39036SOL    HW122944  10.188   3.758  10.579 -1.2935 -2.7921  2.4528
39036SOL    HW222945  10.304   3.695  10.653  0.8962 -4.3492 -1.9632
39037SOL     OW22946   6.266   1.441   7.382  0.5034  0.2224 -0.1588
39037SOL    HW122947   6.300   1.475   7.465 -0.8916  0.9082  0.1519
39037SOL    HW222948   6.319   1.362   7.365  1.2009  0.4061  1.0670
39038SOL     OW22949   1.098   0.428   2.611  0.6733  0.1064 -0.4197
39038SOL    HW122950   1.120   0.343   2.575 -2.3287 -3.1065  4.1624
39038SOL    HW222951   1.173   0.452   2.665  0.1913 -1.6584  1.1372
39039SOL     OW22952   3.796   4.110   4.606  0.5597  0.4938 -0.6883
39039SOL    HW122953   3.807   4.082   4.515  0.5236  0.3657 -0.6535
39039SOL    HW222954   3.702   4.129   4.614  0.6840  1.2120 -0.8781
39040SOL     OW22955  10.185   7.979   8.808  0.6507 -0.4069 -0.0397
39040SOL    HW122956  10.186   7.909   8.742 -1.1240 -1.6470  1.1581
39040SOL    HW222957  10.205   8.059   8.758 -0.3976 -1.3107 -2.0409
39041SOL     OW22958   5.755   2.712   2.354 -0.2325  0.4151 -0.3534
39041SOL    HW122959   5.699   2.661   2.413 -0.8567  0.0035 -1.2793
39041SOL    HW222960   5.709   2.794   2.340 -0.9504 -0.1752 -1.6195
39042SOL     OW22961   9.515   6.745   3.236 -0.0387 -0.7591  0.0159
39042SOL    HW122962   9.467   6.827   3.228  0.1299 -0.6662 -0.0499
39042SOL    HW222963   9.602   6.771   3.267  0.8570 -0.6431 -2.4309
39043SOL     OW22964   5.448   2.284   5.297  0.3075 -0.4744  0.3808
39043SOL    HW122965   5.511   2.226   5.254 -0.9964 -0.5612 -1.5477
39043SOL    HW222966   5.365   2.237   5.292 -0.2875  0.4584  1.1173
39044SOL     OW22967   3.371   5.571   1.874  0.0855  0.2965  0.1476
39044SOL    HW122968   3.351   5.477   1.878 -2.0283  0.7080  0.1047
39044SOL    HW222969   3.400   5.586   1.784 -1.5010  0.0256 -0.4259
39045SOL     OW22970   2.492   3.026   0.721 -0.1093  0.0100  0.4552
39045SOL    HW122971   2.454   3.110   0.747  1.4319  0.8337  0.1529
39045SOL    HW222972   2.509   3.036   0.627 -0.8237 -1.0299  0.1989
39046SOL     OW22973  10.464  10.413   8.209 -0.2524  0.1388  0.4152
39046SOL    HW122974  10.475  10.491   8.264 -3.6846  0.1103  1.4066
39046SOL    HW222975  10.507  10.435   8.127  0.3946  2.3847  1.2764
39047SOL     OW22976   3.376   6.243  10.094 -0.3360  0.7050  0.1087
39047SOL    HW122977   3.291   6.269  10.058  0.4072  1.0685 -1.4674
39047SOL    HW222978   3.429   6.322  10.088  0.7409 -0.0696 -0.9344
39048SOL     OW22979   8.185   0.238   7.873 -0.0576  0.6886 -0.2698
39048SOL    HW122980   8.263   0.220   7.925 -0.1792  0.2125 -0.2451
39048SOL    HW222981   8.135   0.301   7.924  0.6538  1.5609 -0.6196
39049SOL     OW22982   6.582  10.590   7.842 -0.4256 -0.4570 -0.4130
39049SOL    HW122983   6.593  10.566   7.934 -2.2765 -0.2628 -0.0904
39049SOL    HW222984   6.658  10.553   7.798 -0.1187 -1.6199  1.0028
39050SOL     OW22985   7.860   5.615   4.223  0.2993  0.4984  0.3142
39050SOL    HW122986   7.849   5.708   4.207  0.3832  0.4376 -0.1157
39050SOL    HW222987   7.923   5.610   4.294 -0.2632  0.7825  0.8397
39051SOL     OW22988   0.158  10.515   7.874 -0.1638 -0.5484 -0.3986
39051SOL    HW122989   0.079  10.477   7.835 -1.6887  2.8019 -0.9478
39051SOL    HW222990   0.192  10.574   7.806  2.2007 -1.0464  0.2651
39052SOL     OW22991   5.260   9.096   3.444 -0.7752 -0.0280  0.7950
39052SOL    HW122992   5.218   9.177   3.471 -0.1750  0.8581 -0.7742
39052SOL    HW222993   5.320   9.122   3.373  0.3333 -1.6585  1.0669
39053SOL     OW22994   8.570   5.595   4.386 -0.2200 -0.2694 -0.0891
39053SOL    HW122995   8.492   5.580   4.331  0.0852 -0.9661 -0.3419
39053SOL    HW222996   8.542   5.571   4.474 -0.3143 -0.4461 -0.1660
39054SOL     OW22997   0.994   3.182   4.845  0.3244  0.2329  0.3185
39054SOL    HW122998   1.042   3.138   4.775  0.3308 -1.5209  1.3755
39054SOL    HW222999   0.927   3.118   4.872 -0.7389  1.5045  0.8183
39055SOL     OW23000   1.772   1.575   6.380 -0.2755 -0.3097 -0.4808
39055SOL    HW123001   1.851   1.554   6.428  0.6757  1.7614 -0.9926
39055SOL    HW223002   1.713   1.614   6.445 -0.8486 -1.6943 -0.1354
39056SOL     OW23003   7.513   8.890   2.846 -0.5601 -0.3199  0.6334
39056SOL    HW123004   7.455   8.893   2.770  0.9401 -1.2472 -0.6143
39056SOL    HW223005   7.558   8.806   2.838 -0.0014 -0.2143  2.2907
39057SOL     OW23006   2.042   3.868   0.376  0.6407  0.4508  0.0634
39057SOL    HW123007   2.034   3.789   0.429  0.2410  0.6563  0.3148
39057SOL    HW223008   2.082   3.838   0.294  0.2888 -0.0490  0.0685
39058SOL     OW23009   0.102   2.351   9.222  0.0091  0.6424  0.0657
39058SOL    HW123010   0.147   2.429   9.188  0.9437  0.4893  0.9242
39058SOL    HW223011   0.011   2.379   9.231  0.3981  1.7659  0.7222
39059SOL     OW23012   8.377   2.060   3.089 -0.0896 -0.2605  0.4069
39059SOL    HW123013   8.407   2.151   3.100 -2.3681  0.6386 -0.2846
39059SOL    HW223014   8.285   2.061   3.117 -0.1959 -2.3543  0.2985
39060SOL     OW23015   3.061   7.500   2.730 -0.2720  0.1267 -0.7714
39060SOL    HW123016   3.044   7.406   2.718  0.9040 -0.7219  2.7503
39060SOL    HW223017   3.151   7.503   2.763 -1.0712  2.1933  1.4835
39061SOL     OW23018   7.792   9.387   0.243 -0.0561  0.1532  0.2295
39061SOL    HW123019   7.887   9.377   0.253  0.1720 -1.3406 -2.5427
39061SOL    HW223020   7.755   9.320   0.300  0.8218 -2.6370 -2.2401
39062SOL     OW23021   3.483   9.616   8.924 -0.6605 -0.3448  0.1812
39062SOL    HW123022   3.407   9.630   8.868 -0.2574 -0.8136 -0.4953
39062SOL    HW223023   3.447   9.614   9.013 -1.2429  0.9260  0.0009
39063SOL     OW23024  10.562   1.457   2.411  0.0195 -0.1000  0.0468
39063SOL    HW123025  10.521   1.514   2.475  1.7170 -0.1276  1.2141
39063SOL    HW223026  10.489   1.414   2.366 -1.2542  1.9376  0.0784
39064SOL     OW23027   6.845   7.649  10.500  0.2734 -0.7566 -0.6168
39064SOL    HW123028   6.799   7.717  10.451 -0.3235 -1.2752 -0.7929
39064SOL    HW223029   6.821   7.666  10.591 -1.3062 -1.7438 -0.7977
39065SOL     OW23030   0.519   4.219   3.213 -0.5781  1.2016  0.0387
39065SOL    HW123031   0.462   4.274   3.266 -0.6556  0.8981  0.2687
39065SOL    HW223032   0.541   4.274   3.137  0.2418  1.9509  0.8022
39066SOL     OW23033   5.774   5.477   1.054  0.3527 -0.2933  0.1952
39066SOL    HW123034   5.801   5.504   1.141 -1.5941 -1.3427  1.1882
39066SOL    HW223035   5.708   5.410   1.069 -0.1968 -0.3488 -2.0944
39067SOL     OW23036   8.493   9.142   0.273 -0.2050 -0.2719 -0.3349
39067SOL    HW123037   8.546   9.132   0.194 -0.7856  1.8193 -1.0553
39067SOL    HW223038   8.404   9.122   0.245 -0.7195  2.2492 -0.7814
39068SOL     OW23039   7.004   8.466   8.756 -0.4200  0.4470 -0.0423
39068SOL    HW123040   6.989   8.400   8.823  0.8588 -1.2645 -1.3236
39068SOL    HW223041   6.917   8.484   8.720 -0.7458 -1.0629 -0.0817
39069SOL     OW23042   3.276  10.621   1.770 -0.3351  0.4424 -0.3865
39069SOL    HW123043   3.326  10.551   1.812  0.9772  2.6398  1.9489
39069SOL    HW223044   3.330  10.648   1.696  0.1232  0.3500 -0.0867
39070SOL     OW23045   7.907   3.051   5.772  0.1401  0.2840 -0.1873
39070SOL    HW123046   7.947   2.970   5.804 -0.5141  0.0233 -0.0144
39070SOL    HW223047   7.911   3.110   5.848 -2.2341 -0.6293  0.7432
39071SOL     OW23048   6.924   3.976   5.771  0.3103 -0.2788 -0.4548
39071SOL    HW123049   6.923   4.008   5.681  1.0652 -0.4365 -0.5266
39071SOL    HW223050   6.994   3.910   5.772 -0.3948 -1.0435 -0.0117
39072SOL     OW23051   9.205   5.832   9.706  0.3422  0.4654 -0.5056
39072SOL    HW123052   9.110   5.825   9.697  0.1770  0.5214  0.9732
39072SOL    HW223053   9.239   5.818   9.617 -1.0214  0.0851 -0.9865
39073SOL     OW23054  10.072   8.934   4.900  0.8704  0.1529  0.3287
39073SOL    HW123055  10.039   8.973   4.819 -0.0429  0.3835  0.7911
39073SOL    HW223056  10.014   8.859   4.915  1.5029 -0.3311  0.3785
39074SOL     OW23057  10.334   3.619   4.468  0.1084  0.1409  0.1268
39074SOL    HW123058  10.361   3.708   4.490  0.8546  0.0282 -0.3077
39074SOL    HW223059  10.405   3.585   4.415 -0.1086 -0.7699  0.4079
39075SOL     OW23060   3.030   3.884   7.987  0.1159 -0.0232 -0.6199
39075SOL    HW123061   2.974   3.819   7.944  1.0988 -0.2186 -1.6690
39075SOL    HW223062   3.061   3.940   7.916  1.8336 -0.3752 -0.2041
39076SOL     OW23063   5.482   9.603   3.591  0.0026  0.1549 -0.2878
39076SOL    HW123064   5.466   9.590   3.685 -0.6320 -0.0232 -0.4192
39076SOL    HW223065   5.453   9.692   3.573  0.5613  0.3564 -0.2262
39077SOL     OW23066   7.812   0.487   8.442 -0.2784 -0.3663  0.2430
39077SOL    HW123067   7.860   0.568   8.462  0.1426 -0.9474  1.7214
39077SOL    HW223068   7.839   0.426   8.511 -3.2206 -0.6885  1.2566
39078SOL     OW23069   0.877   8.120   9.452 -0.0234  0.0838 -0.1087
39078SOL    HW123070   0.782   8.117   9.462 -0.0503  0.7974 -0.1005
39078SOL    HW223071   0.909   8.047   9.505 -0.4435  1.0454  1.5308
39079SOL     OW23072   1.402   0.230   5.621 -0.4502  0.2968  0.5246
39079SOL    HW123073   1.455   0.151   5.636 -1.0301 -0.2390 -0.1949
39079SOL    HW223074   1.391   0.267   5.709  0.1877 -0.1841  0.8233
39080SOL     OW23075   7.825   7.420   4.755 -0.5892  0.4771 -0.0241
39080SOL    HW123076   7.820   7.333   4.794 -1.5531  1.2089  1.6269
39080SOL    HW223077   7.911   7.454   4.782 -0.2926  0.1198 -0.5089
39081SOL     OW23078   5.413   7.103   8.751  0.0449  0.2259 -0.0134
39081SOL    HW123079   5.385   7.174   8.810  2.0348  0.4047  0.7847
39081SOL    HW223080   5.377   7.128   8.666  0.2501  1.9313  0.3572
39082SOL     OW23081   8.371   1.758   4.414 -0.2060 -0.2237  0.7479
39082SOL    HW123082   8.444   1.796   4.462 -0.1603 -0.8674  1.1957
39082SOL    HW223083   8.406   1.740   4.327  0.1883 -0.5897  0.9788
39083SOL     OW23084   4.047   7.169   6.333  0.0843 -0.2780  0.6086
39083SOL    HW123085   4.019   7.259   6.317  2.2007  0.2555 -0.4492
39083SOL    HW223086   3.984   7.115   6.285 -1.1033  0.6074  1.1175
39084SOL     OW23087   2.643   5.558   2.228 -0.3865  0.2223 -0.2852
39084SOL    HW123088   2.723   5.521   2.192  0.6520  0.5530  1.5685
39084SOL    HW223089   2.647   5.651   2.205 -1.2165 -0.0897 -1.8256
39085SOL     OW23090   6.161   2.432   0.577 -0.3777  0.3700 -0.0346
39085SOL    HW123091   6.175   2.367   0.508 -0.6032 -0.2764  0.5182
39085SOL    HW223092   6.068   2.425   0.598 -0.3772  0.7895  0.1222
39086SOL     OW23093   2.759   8.641   8.887  0.0203 -0.0427  0.8489
39086SOL    HW123094   2.723   8.552   8.893 -1.3533  0.3045 -1.4232
39086SOL    HW223095   2.852   8.627   8.870  0.2789 -0.9785  2.6824
39087SOL     OW23096   1.273   4.640   2.760  0.2904 -0.1382 -0.1859
39087SOL    HW123097   1.264   4.545   2.750  1.1051 -0.1828 -0.5910
39087SOL    HW223098   1.195   4.667   2.808 -1.6137 -0.5911 -2.7563
39088SOL     OW23099   9.689  10.314   7.062  0.3279 -0.0375  0.0541
39088SOL    HW123100   9.768  10.365   7.044  1.1700 -1.7642 -1.4247
39088SOL    HW223101   9.721  10.239   7.113 -0.7300  0.3528  1.3354
39089SOL     OW23102   8.507   8.352   1.125  0.2754  0.3391 -0.0834
39089SOL    HW123103   8.462   8.432   1.153 -0.1313 -0.2592  1.0265
39089SOL    HW223104   8.450   8.281   1.155  1.3419 -0.3978  0.2479
39090SOL     OW23105   5.663   4.339   9.984 -0.0774  0.8108 -0.8047
39090SOL    HW123106   5.605   4.318   9.912 -0.7508  0.4723 -0.1763
39090SOL    HW223107   5.720   4.408   9.950  1.7837 -1.4935 -2.7173
39091SOL     OW23108   2.160   2.899   7.056  0.1010 -0.3319 -0.4491
39091SOL    HW123109   2.070   2.912   7.026 -0.1944 -0.8242  0.1972
39091SOL    HW223110   2.193   2.828   7.001  1.2159  1.9464 -2.9388
39092SOL     OW23111   0.131   0.756   4.962  0.1450  0.4834  0.0253
39092SOL    HW123112   0.128   0.662   4.943  0.7094  0.0873  1.6708
39092SOL    HW223113   0.223   0.780   4.951  0.8679 -0.1494  3.5231
39093SOL     OW23114   9.490   3.623   6.794 -0.0180 -0.0424  0.3667
39093SOL    HW123115   9.412   3.626   6.740 -0.8349 -0.6527  1.4694
39093SOL    HW223116   9.521   3.713   6.798 -2.9954  1.0200  3.1684
39094SOL     OW23117   4.219   0.864   1.732  0.0789 -0.0400 -0.6130
39094SOL    HW123118   4.283   0.803   1.769 -0.6340  0.0089  0.8068
39094SOL    HW223119   4.257   0.892   1.649  0.5225 -2.2443 -1.2234
39095SOL     OW23120   5.269   9.347   7.199 -0.4381 -0.1454  0.1526
39095SOL    HW123121   5.300   9.303   7.121  0.0186  0.4899 -0.0335
39095SOL    HW223122   5.259   9.278   7.264  2.6194 -0.2589  0.6484
39096SOL     OW23123   5.144   9.106   9.285 -0.4587  0.5026 -0.3099
39096SOL    HW123124   5.186   9.060   9.213 -0.6389 -2.5062  1.3827
39096SOL    HW223125   5.059   9.064   9.294 -0.2080  0.3769  2.0120
39097SOL     OW23126   1.822   7.456   8.445  0.7888  0.3793  0.3630
39097SOL    HW123127   1.847   7.540   8.406  0.6220  0.7325  1.0191
39097SOL    HW223128   1.727   7.459   8.451  0.7793  0.1241  0.3590
39098SOL     OW23129   9.265   5.270   5.456  0.2597 -0.0654 -0.3693
39098SOL    HW123130   9.308   5.254   5.540 -1.2614 -1.4447  0.2142
39098SOL    HW223131   9.230   5.184   5.430 -0.5293  0.6141 -1.6950
39099SOL     OW23132   2.637   0.270   7.758 -0.0836 -0.4459  0.2370
39099SOL    HW123133   2.546   0.255   7.782 -0.0705  1.3071  1.5794
39099SOL    HW223134   2.687   0.219   7.821 -0.1214 -0.3801  0.3204
39100SOL     OW23135   7.062   6.721   6.712 -0.0261 -0.5072 -0.0760
39100SOL    HW123136   7.131   6.748   6.773  0.3723 -1.8728  0.1195
39100SOL    HW223137   7.065   6.787   6.642  0.2636  0.4495  0.8110
39101SOL     OW23138   0.922   3.343   3.149 -0.0537 -0.5065  0.0220
39101SOL    HW123139   1.002   3.318   3.196  1.1216 -1.4287 -2.2614
39101SOL    HW223140   0.917   3.438   3.158  2.9339 -0.0094 -1.9570
39102SOL     OW23141   0.847   0.916   8.622 -0.3590 -0.4010  0.0727
39102SOL    HW123142   0.832   0.987   8.560 -1.2252  0.0142  0.7343
39102SOL    HW223143   0.761   0.879   8.638 -0.0787 -0.8317  0.6364
39103SOL     OW23144   8.562   2.156   9.118 -0.8450 -0.3456  0.0658
39103SOL    HW123145   8.514   2.113   9.046  0.1540 -0.3201 -0.6402
39103SOL    HW223146   8.643   2.105   9.125 -0.3632  0.4457  0.3038
39104SOL     OW23147   4.851   5.045   5.659  0.0046 -0.0040 -0.1847
39104SOL    HW123148   4.904   5.119   5.686  1.0987 -0.7922 -0.1210
39104SOL    HW223149   4.774   5.085   5.619 -0.8763  1.2192  2.4331
39105SOL     OW23150   7.014   7.863   5.270 -0.4667 -0.0052 -0.5982
39105SOL    HW123151   7.040   7.771   5.276 -1.3840 -0.2717 -0.6261
39105SOL    HW223152   6.989   7.875   5.179 -1.7260 -0.1151 -0.2801
39106SOL     OW23153   1.279   4.882   3.630  0.1827  0.1358 -0.2563
39106SOL    HW123154   1.330   4.804   3.606  2.2781  0.7402  1.8529
39106SOL    HW223155   1.211   4.848   3.688  1.8314 -0.0914  1.6600
39107SOL     OW23156   1.668   2.255   8.836 -0.2640  0.0833 -0.3262
39107SOL    HW123157   1.619   2.286   8.912  0.6480 -0.7584  0.6522
39107SOL    HW223158   1.695   2.166   8.860  0.6048  0.0485 -1.3593
39108SOL     OW23159   5.128   2.887   2.600  0.7408  0.1097  0.2669
39108SOL    HW123160   5.054   2.938   2.566 -0.8716 -0.8823  2.0846
39108SOL    HW223161   5.189   2.883   2.527 -0.5729  1.7517 -1.0286
39109SOL     OW23162   3.884   3.201   4.979  0.2063 -0.5192  0.7494
39109SOL    HW123163   3.809   3.154   4.942  1.2942 -1.2023 -0.6726
39109SOL    HW223164   3.850   3.240   5.060 -1.7286 -0.6578  0.0655
39110SOL     OW23165   0.875   3.239   2.450  0.4505 -0.3827  0.0927
39110SOL    HW123166   0.889   3.305   2.518  0.9201 -0.1549 -0.2221
39110SOL    HW223167   0.889   3.286   2.368 -2.1247 -0.1415 -0.2736
39111SOL     OW23168   8.544   1.968   6.537 -0.1115  0.0626 -0.2544
39111SOL    HW123169   8.574   1.929   6.619 -0.7814  1.4864  0.7092
39111SOL    HW223170   8.620   1.964   6.479  0.7479  0.1040  0.8423
39112SOL     OW23171   5.942   5.471  10.062 -0.0377  0.2596 -0.2226
39112SOL    HW123172   5.877   5.526  10.018 -0.0481 -0.5585 -1.2680
39112SOL    HW223173   5.981   5.418   9.992  2.2139  1.1428  0.2622
39113SOL     OW23174   8.603   2.263   2.539 -0.4413 -0.6822  0.4827
39113SOL    HW123175   8.598   2.327   2.469 -1.7736 -0.7478  0.4992
39113SOL    HW223176   8.644   2.186   2.499  0.5207 -0.0835  0.2857
39114SOL     OW23177   5.165   2.600   8.630 -0.3534  0.1726 -0.3124
39114SOL    HW123178   5.104   2.540   8.672 -0.8584  1.4022  0.7896
39114SOL    HW223179   5.191   2.661   8.700 -0.2297  1.5108 -1.4858
39115SOL     OW23180   1.534   5.757   1.900 -0.2048  0.6237  0.1231
39115SOL    HW123181   1.525   5.850   1.878  0.3872  0.0295 -3.1593
39115SOL    HW223182   1.624   5.748   1.931 -0.0167  1.0086 -0.2993
39116SOL     OW23183   6.351   5.507   1.931 -0.1211  0.2625 -0.1139
39116SOL    HW123184   6.428   5.489   1.984 -1.0365  0.3689  1.3026
39116SOL    HW223185   6.383   5.563   1.860  1.0196  0.6795  0.7038
39117SOL     OW23186   0.690  10.548   6.796  0.2602  0.2951 -0.0876
39117SOL    HW123187   0.662  10.467   6.753 -2.6150  1.6534 -1.0024
39117SOL    HW223188   0.690  10.528   6.889 -1.2814 -0.5276 -0.2447
39118SOL     OW23189  10.591   6.235   2.089 -0.2158 -0.3462 -0.2691
39118SOL    HW123190  10.589   6.143   2.064  0.9679 -0.3786 -0.3050
39118SOL    HW223191  10.604   6.234   2.184  0.7718 -0.2298 -0.3930
39119SOL     OW23192   1.234   7.413   2.178 -0.3588 -0.2902  0.1892
39119SOL    HW123193   1.265   7.502   2.195 -1.4160  0.1368 -0.0110
39119SOL    HW223194   1.196   7.385   2.262  1.8583 -1.3963  0.8936
39120SOL     OW23195   5.730   3.366   8.517  0.7497 -0.1401 -0.5402
39120SOL    HW123196   5.731   3.282   8.471 -0.2682  0.0648 -0.9644
39120SOL    HW223197   5.721   3.432   8.448 -0.0691  0.2138 -0.1170
39121SOL     OW23198   5.385   3.581   1.931 -0.0975  0.1348 -0.0920
39121SOL    HW123199   5.318   3.615   1.991 -0.0359 -0.1114  0.1144
39121SOL    HW223200   5.369   3.629   1.849 -0.7326 -0.1503 -0.1401
39122SOL     OW23201   4.275  10.259   5.133 -0.1772 -0.0937 -0.0955
39122SOL    HW123202   4.315  10.345   5.121 -0.2930  0.1249  0.9632
39122SOL    HW223203   4.213  10.272   5.205  0.5905 -1.3061  0.8163
39123SOL     OW23204   9.276   2.411   9.854  0.5290 -0.6926  0.1829
39123SOL    HW123205   9.188   2.430   9.886 -0.0331 -1.1009 -1.0686
39123SOL    HW223206   9.331   2.479   9.894  0.0472 -1.6976  2.6679
39124SOL     OW23207   0.329   6.658   9.824  0.6015  0.1743  0.5734
39124SOL    HW123208   0.260   6.651   9.759  1.7860  0.1123 -0.7275
39124SOL    HW223209   0.373   6.741   9.804  2.2061 -0.7562 -0.0057
39125SOL     OW23210   0.165   4.691   0.167  0.4274  0.0985  0.2104
39125SOL    HW123211   0.098   4.693   0.236 -2.9627 -1.2427 -2.7223
39125SOL    HW223212   0.176   4.782   0.142 -2.4223  0.2374 -0.9301
39126SOL     OW23213   0.236   0.020   7.003 -0.1692  0.5750  0.6127
39126SOL    HW123214   0.285   0.014   6.922 -1.2790 -0.7343  0.0009
39126SOL    HW223215   0.287  -0.030   7.066 -0.1032  0.2592  0.3086
39127SOL     OW23216   8.148   6.571   2.134  0.2418  0.0069  0.4293
39127SOL    HW123217   8.079   6.531   2.082  0.2372  1.6764 -0.9460
39127SOL    HW223218   8.139   6.532   2.221 -2.5417  0.2633  0.3407
39128SOL     OW23219   2.450   6.461   0.796 -0.1629 -0.2004  0.5086
39128SOL    HW123220   2.375   6.473   0.854 -0.3786 -1.6074  0.5502
39128SOL    HW223221   2.416   6.408   0.724  0.5598 -0.0330  0.0405
39129SOL     OW23222   6.820   1.659   9.284 -0.1951  0.1323 -0.5643
39129SOL    HW123223   6.814   1.751   9.261 -0.3814  0.0915 -0.6811
39129SOL    HW223224   6.907   1.632   9.253 -0.9705 -0.2761 -2.5167
39130SOL     OW23225   1.212   9.881   5.038  0.0439 -0.5415  0.0790
39130SOL    HW123226   1.225   9.863   5.131 -1.1043 -0.2135  0.3154
39130SOL    HW223227   1.175   9.799   5.003  0.2520 -0.5844 -0.0409
39131SOL     OW23228  10.657   2.285   6.974  0.5702 -0.0824  0.6013
39131SOL    HW123229  10.733   2.253   6.925  1.3678  2.2790  0.1557
39131SOL    HW223230  10.694   2.347   7.038 -0.9171  0.7314  0.7152
39132SOL     OW23231   1.084   8.453   3.943  0.0094 -0.2056  0.7224
39132SOL    HW123232   1.120   8.383   3.998 -0.6183  0.3870  1.9368
39132SOL    HW223233   1.006   8.483   3.991 -1.3558 -0.5634 -1.1611
39133SOL     OW23234   8.308   0.430   1.205 -0.0415  0.3560  0.3255
39133SOL    HW123235   8.239   0.458   1.144  0.0994 -0.2282 -0.1152
39133SOL    HW223236   8.306   0.334   1.201 -0.0516  0.3134  1.2744
39134SOL     OW23237   4.964   1.205   0.081 -0.6787 -0.0423  0.0675
39134SOL    HW123238   5.031   1.184   0.146 -0.8119 -1.8164 -0.3208
39134SOL    HW223239   4.882   1.175   0.120 -1.2925  2.0278  0.4951
39135SOL     OW23240   4.263   3.427   6.634 -0.0884 -0.6419 -0.1112
39135SOL    HW123241   4.272   3.491   6.562 -5.2410 -0.3993 -0.9560
39135SOL    HW223242   4.269   3.342   6.591  0.3611 -0.5770 -0.1776
39136SOL     OW23243   2.681  10.275   1.371  0.5257  0.0300 -0.2191
39136SOL    HW123244   2.701  10.192   1.415  0.7339  0.5626  0.7059
39136SOL    HW223245   2.588  10.269   1.351  0.1039  0.3109  1.5044
39137SOL     OW23246   1.610   0.636   6.465  0.0214  0.4018 -0.3420
39137SOL    HW123247   1.672   0.670   6.401  0.7438 -0.4546 -0.1051
39137SOL    HW223248   1.552   0.711   6.484 -1.0046  0.3478 -2.8934
39138SOL     OW23249   6.215   7.168   2.201  1.0914  0.0663 -0.2719
39138SOL    HW123250   6.232   7.228   2.274  1.2983 -0.4222  0.0823
39138SOL    HW223251   6.169   7.222   2.137  0.0402  0.2701  0.6207
39139SOL     OW23252   4.736   1.981   9.501 -0.0640 -0.1757  0.6202
39139SOL    HW123253   4.710   2.035   9.576 -0.0483 -0.1418  0.6014
39139SOL    HW223254   4.667   1.995   9.436 -0.0448 -0.1538  0.6040
39140SOL     OW23255   1.139   1.950   9.154  0.3469  0.0717 -0.0827
39140SOL    HW123256   1.058   1.937   9.106  0.3330  1.5356 -0.4839
39140SOL    HW223257   1.164   2.040   9.137  2.6796 -0.6467 -0.9150
39141SOL     OW23258   6.201   9.903   9.520  0.4230  0.3126 -0.0944
39141SOL    HW123259   6.115   9.863   9.523  0.7131 -0.3313 -0.2052
39141SOL    HW223260   6.256   9.840   9.474  0.7151  1.1668 -0.9600
39142SOL     OW23261   0.408   2.749   6.289  0.3736  0.1283  1.1198
39142SOL    HW123262   0.378   2.680   6.230  0.8096 -1.4416  2.6378
39142SOL    HW223263   0.375   2.722   6.375  3.4050 -0.0702  2.3415
39143SOL     OW23264   6.565   2.713   6.444 -0.5916  0.0198 -0.1987
39143SOL    HW123265   6.650   2.716   6.488 -0.5937 -0.0480 -0.1897
39143SOL    HW223266   6.514   2.784   6.484 -1.1200 -0.9939  0.9885
39144SOL     OW23267   8.364   1.664   6.449 -0.8270  0.5097  0.7245
39144SOL    HW123268   8.327   1.718   6.379 -0.0401  0.0319 -0.0894
39144SOL    HW223269   8.305   1.589   6.454 -0.8263  0.4910  0.4884
39145SOL     OW23270   4.205   0.939   9.486  0.2657 -0.0532  0.1816
39145SOL    HW123271   4.250   1.011   9.530  1.7841 -0.4638 -0.6236
39145SOL    HW223272   4.191   0.970   9.396 -1.2306  0.1155  0.4426
39146SOL     OW23273   3.742  10.591   0.206 -0.0153  0.3891  0.1953
39146SOL    HW123274   3.719  10.676   0.244  0.8392  0.7816 -0.1368
39146SOL    HW223275   3.657  10.553   0.181 -0.4102  1.1628  0.3060
39147SOL     OW23276   4.764   7.398  10.534  0.5039  0.0650  0.3120
39147SOL    HW123277   4.811   7.472  10.574 -0.0504  0.3076  0.5154
39147SOL    HW223278   4.734   7.432  10.450  1.1704 -0.2691 -0.0767
39148SOL     OW23279   5.803   0.166   7.706 -0.3737 -0.2516  0.4778
39148SOL    HW123280   5.881   0.136   7.659 -0.7129 -0.2403 -0.1079
39148SOL    HW223281   5.801   0.261   7.692  0.1372 -0.0855  1.4693
39149SOL     OW23282   0.071   0.040   6.429  0.2254 -0.6779  0.0651
39149SOL    HW123283   0.024  -0.041   6.411  1.5423 -1.1336 -1.5506
39149SOL    HW223284   0.128   0.052   6.353  1.9340  0.4132  1.4472
39150SOL     OW23285   8.131   4.400   7.840  0.3070  0.5542  0.0640
39150SOL    HW123286   8.110   4.464   7.772 -1.2082  1.3644  1.2224
39150SOL    HW223287   8.052   4.346   7.846  0.6934  0.0533  0.6941
39151SOL     OW23288   1.793   3.031   9.968 -0.3448  0.0208  0.2965
39151SOL    HW123289   1.754   2.982   9.895 -3.2195 -0.2162  1.8607
39151SOL    HW223290   1.885   3.003   9.969 -0.7709 -1.7294 -1.7782
39152SOL     OW23291   6.050   9.073   2.543 -0.2566 -0.0589 -0.1666
39152SOL    HW123292   6.118   9.030   2.491  0.9022  0.4620  0.8774
39152SOL    HW223293   6.074   9.166   2.541 -3.2474  0.8367 -3.2017
39153SOL     OW23294   2.320   2.592   0.578 -0.1223 -0.7747  0.5075
39153SOL    HW123295   2.294   2.576   0.669  0.5325  0.7649  1.0059
39153SOL    HW223296   2.288   2.680   0.560  0.9105 -0.5528 -0.3094
39154SOL     OW23297   0.761   2.288   0.003  0.0796  0.1096 -0.3606
39154SOL    HW123298   0.716   2.256   0.081  0.5180 -2.0144 -0.8976
39154SOL    HW223299   0.698   2.344  -0.041 -0.9686 -0.4577  0.3885
39155SOL     OW23300   2.973   6.312   5.490  0.5054  0.1592  0.5274
39155SOL    HW123301   2.979   6.231   5.541  1.7617  1.3789  2.4454
39155SOL    HW223302   2.884   6.344   5.506  0.3444 -0.3055  0.5925
39156SOL     OW23303   3.937   3.209   8.159  0.0334 -0.2345 -0.6350
39156SOL    HW123304   3.914   3.175   8.246  0.4748  1.5928  0.2444
39156SOL    HW223305   3.885   3.289   8.150  1.2996  0.5433 -1.2956
39157SOL     OW23306   0.211   0.292   2.031 -0.2573  0.5065  0.1507
39157SOL    HW123307   0.173   0.252   1.953 -1.4411 -1.4714  1.6192
39157SOL    HW223308   0.215   0.221   2.095  1.6985  1.7746  1.5765
39158SOL     OW23309   2.630   1.989  10.347  0.5793  0.6899  0.1606
39158SOL    HW123310   2.561   1.973  10.412  0.5429  0.4902  0.0769
39158SOL    HW223311   2.668   1.902  10.332  0.1758  0.6254 -0.5383
39159SOL     OW23312   2.266   9.225   4.252 -0.4829  0.2310 -0.1732
39159SOL    HW123313   2.182   9.179   4.256 -1.1538  1.5034  1.1789
39159SOL    HW223314   2.246   9.314   4.281  0.7456  1.4604 -2.7616
39160SOL     OW23315   6.457   8.390  10.611  0.4389  0.3426 -0.3399
39160SOL    HW123316   6.394   8.400  10.540  1.3212  0.7515 -1.0809
39160SOL    HW223317   6.539   8.425  10.576  1.2119 -0.6313  0.4243
39161SOL     OW23318  10.692   6.439   3.866 -0.3237  0.0162  0.2725
39161SOL    HW123319  10.753   6.369   3.841 -0.4097 -0.2068  0.6757
39161SOL    HW223320  10.742   6.494   3.926 -0.4779 -0.0939  0.5021
39162SOL     OW23321   2.555   3.678   3.760  0.4107 -0.1650  0.4673
39162SOL    HW123322   2.616   3.626   3.813 -0.5948 -1.9391 -0.0454
39162SOL    HW223323   2.574   3.769   3.784  3.3973 -0.6106  0.1721
39163SOL     OW23324   8.613   2.478   3.144  0.0769  0.1987  0.4559
39163SOL    HW123325   8.610   2.558   3.197  0.7525 -0.8325  2.1366
39163SOL    HW223326   8.696   2.483   3.097  1.5681 -0.7563  2.7659
39164SOL     OW23327   9.643   4.360   8.160 -0.0874  0.2183 -0.0295
39164SOL    HW123328   9.604   4.360   8.073  0.5680  3.0345 -0.4170
39164SOL    HW223329   9.568   4.360   8.220 -0.6847  1.8889 -0.7042
39165SOL     OW23330   3.923   9.206   6.431 -0.0371  0.0440  0.5540
39165SOL    HW123331   3.841   9.195   6.479  0.0548 -2.9040  0.2093
39165SOL    HW223332   3.900   9.187   6.340  0.6317  1.4200  0.0677
39166SOL     OW23333  10.021   4.865  10.498  0.0239  0.0041  0.1865
39166SOL    HW123334   9.995   4.868  10.405 -1.3411  1.6277  0.5606
39166SOL    HW223335   9.968   4.933  10.539 -1.4655 -2.4751  2.7118
39167SOL     OW23336   7.882   9.570   6.653  0.3035  0.2501 -0.9184
39167SOL    HW123337   7.878   9.531   6.741  1.2242 -2.1570 -1.8605
39167SOL    HW223338   7.974   9.588   6.638  0.0605  1.4277 -1.1116
39168SOL     OW23339   7.317  10.114   4.442  0.0448 -0.1623  0.5862
39168SOL    HW123340   7.271  10.030   4.441  1.0001 -0.6953  0.6374
39168SOL    HW223341   7.383  10.105   4.511  0.0179  0.7125  0.7422
39169NA      NA23342   0.225   8.716   5.084 -0.0223 -0.1580 -0.1719
39170NA      NA23343   5.674   1.469   5.894  0.1408 -0.3292  0.1429
39171NA      NA23344   6.099   8.163   2.538 -0.2661 -0.0967  0.1600
39172NA      NA23345   6.405   0.523   4.890  0.4317  0.0864  0.2818
39173NA      NA23346   7.570   3.684   5.538 -0.2186  0.4539  0.4637
39174NA      NA23347   2.216   7.670   5.088 -0.2397  0.0874  0.2711
39175NA      NA23348   3.456   3.751   9.998  0.0917  0.2344  0.0248
39176NA      NA23349   7.045   1.703   5.804  0.4655 -0.0469  0.2531
39177NA      NA23350   2.155   8.525   7.046  0.0093  0.6470 -0.0301
39178NA      NA23351   2.828   2.572   9.747 -0.3374  0.2771 -0.1524
39179NA      NA23352   0.414   6.266   9.678 -0.1232  0.2847  0.0197
39180NA      NA23353   6.382   6.111   6.243 -0.0469  0.3171 -0.0569
39181NA      NA23354   8.250   8.126   3.913  0.3241 -0.2814 -0.4340
39182NA      NA23355   6.450  10.645  10.412  0.2660 -0.2746 -0.4546
39183NA      NA23356   5.318   0.289   2.225 -0.2169  0.2223 -0.4153
39184NA      NA23357  10.376   5.397   4.087  0.2811  0.3621  0.0810
39185NA      NA23358   5.516   0.391   0.191 -0.0714  0.4284  0.1374
39186NA      NA23359   7.535   8.054   6.656  0.3384 -0.2725  0.2443
39187NA      NA23360   1.854   0.229   4.246 -0.5020 -0.0755  0.2509
39188NA      NA23361   3.709   6.016   2.496 -0.2787  0.0944  0.3231
39189NA      NA23362   9.775   7.810  10.127 -0.3037  0.7641  0.2075
39190NA      NA23363   2.024   0.589   1.795  0.2765  0.5223 -0.2868
39191NA      NA23364   1.780   4.758   3.471 -0.2274  0.3891 -0.5390
39192NA      NA23365  10.154   9.123   8.905 -0.0959  0.2006 -0.2623
39193NA      NA23366  10.458  10.537   9.060  0.7106 -0.6599 -0.1378
39194NA      NA23367   6.624   6.002   1.100 -0.8043  0.1701  0.5580
39195NA      NA23368   4.499   1.266   7.500 -0.0890 -0.1905  0.0628
39196NA      NA23369   7.754   1.784   0.402  0.1274  0.2752  0.2952
39197NA      NA23370   3.567   6.512   8.471  0.5493  0.8196 -0.0089
39198NA      NA23371   5.912   8.100   6.687 -0.3968  0.3145  0.0733
39199NA      NA23372   4.279   6.946   9.142  0.1302  0.7827  0.4811
39200NA      NA23373   4.010   3.092   7.989 -0.2899  0.0541  0.4851
39201NA      NA23374  10.346   8.415   0.020 -0.4922  0.0029  0.2361
39202NA      NA23375   8.905   9.988   9.156  0.2439 -0.5252 -0.1587
39203NA      NA23376   1.307   8.001   3.054  0.3390  0.3432  0.0781
39204NA      NA23377   5.417   2.217   9.211  0.0565  0.0086  0.3136
39205NA      NA23378  10.222   5.269   0.305  0.0025  0.4427  0.2039
39206NA      NA23379   9.004   2.808   7.161  0.2205  0.2254 -0.0147
39207NA      NA23380   9.586   9.558   7.591  0.2984  0.4182 -0.3014
39208NA      NA23381   8.614   5.682   0.543  0.3032  0.8655  0.2243
39209NA      NA23382   8.716   4.285   3.508 -0.3354 -0.4234 -0.6096
39210NA      NA23383   8.954   5.765   2.323 -0.7216  0.2377  0.6592
39211NA      NA23384   6.983   3.139   8.476  0.1133  0.1447  0.2408
39212NA      NA23385   6.153   3.739   9.270  0.2140 -0.0733 -0.4529
39213NA      NA23386  10.009   6.519   3.350  0.1333 -0.1443  0.1039
39214NA      NA23387   5.846   4.439   7.778  0.0662  0.3152  0.4261
39215NA      NA23388   2.567   8.474   7.613 -0.3816  0.3090 -0.3097
39216NA      NA23389   3.261   3.419   4.976  0.3778 -0.0038  0.5253
39217NA      NA23390   8.381   4.051  10.513 -0.4756 -0.6144  0.0505
39218NA      NA23391   4.570   0.614   5.282 -0.0931 -0.0288  0.2605
39219NA      NA23392   3.502   2.938   7.130 -0.0606  0.0738  0.1805
39220NA      NA23393   0.684   6.797   3.042  0.0252 -0.2821  0.0029
39221NA      NA23394   9.735  10.566   2.013  0.0022  0.1602 -0.1003
39222NA      NA23395   9.924   2.238  10.415 -0.0137 -0.5418  0.1726
39223NA      NA23396  10.299  10.228   5.752  0.0214  0.3218  0.2852
39224NA      NA23397   4.989   3.143   1.350 -0.4183  0.4819  0.3007
39225NA      NA23398   1.380   4.853   8.495  0.3436 -0.0993 -0.1637
39226NA      NA23399   1.530   4.015   1.235  0.0882  0.0605  0.1729
39227NA      NA23400  10.022   3.634   7.225 -0.4466 -0.6303  0.0436
39228NA      NA23401   5.608   7.099   2.772 -0.2238 -0.2564  0.3582
39229NA      NA23402   0.752   7.891   1.456 -0.1600 -0.0677  0.1813
39230NA      NA23403  10.296   9.951  10.081 -0.3196 -0.1011  0.3227
39231NA      NA23404   8.142   6.295   0.215  0.3873 -0.5606  0.0643
39232NA      NA23405   1.261   6.832   0.670 -0.3711  0.3616  0.4706
39233NA      NA23406   9.589   0.429   3.362 -0.1843  0.3814 -0.0366
39234NA      NA23407   7.744   7.743  10.233 -0.0366  0.1984  0.2246
39235NA      NA23408   4.213   2.867   2.499 -0.3319  0.7098  0.0079
39236NA      NA23409   5.294   8.972   9.731 -0.0318  0.2753  0.2331
39237NA      NA23410  10.426   1.103   0.936  0.1140 -0.0056 -0.1537
39238NA      NA23411   7.525   8.758   0.847 -0.2093  0.5206  0.0575
39239NA      NA23412   7.620   0.413   8.335  0.8016  0.5168 -0.2180
39240NA      NA23413   6.181   5.984   1.508  0.1044  0.2280  0.2513
39241NA      NA23414   2.861   2.119   0.941 -0.2824 -0.1521  0.4750
39242NA      NA23415   2.615   7.758   6.048 -0.1853  0.1429 -0.0362
39243NA      NA23416   4.829   2.356   4.417 -0.5436 -0.0551 -0.6839
39244NA      NA23417   9.885   9.458   4.949  0.1193  0.0910 -0.2659
39245NA      NA23418   3.426   6.035  10.088  0.0546 -0.6322 -0.0945
39246NA      NA23419   7.667   2.855   1.212  0.4091 -0.1994  0.1899
39247NA      NA23420   4.058   9.905   9.708 -0.1662 -0.2274 -0.1006
39248NA      NA23421   5.425   6.336   0.266 -0.2144  0.4250  0.3919
39249NA      NA23422   2.862   3.953   6.808 -0.2911  0.6769 -0.0315
39250NA      NA23423   6.016  10.195   0.549  0.3456  0.4134 -0.2409
39251NA      NA23424  10.550   1.184   6.450 -0.4076  0.5816 -0.5662
39252NA      NA23425   1.562  10.665   9.513  0.2822  0.0095 -0.1480
39253NA      NA23426   4.312  10.055   5.067  0.0942 -0.5014 -0.5052
39254NA      NA23427   5.503   7.900   6.423  0.1984  0.4317  0.2816
39255NA      NA23428   6.838   1.196   9.312 -0.3902  0.4508  0.1518
39256NA      NA23429   8.923   6.677   0.118  0.0527 -0.1170 -0.2445
39257NA      NA23430   1.815   1.260   2.751 -0.4012  0.5144  0.3652
39258NA      NA23431   6.811   0.732   3.991 -0.4074 -0.2187  0.0464
39259NA      NA23432   2.411   2.449   5.012 -0.3126  0.1373  0.0262
39260NA      NA23433   8.996   2.256   6.301  0.2256  0.0308  0.2031
39261NA      NA23434   6.367   7.497   5.174 -0.0910  0.1649  0.2737
39262NA      NA23435   1.422   0.505   6.602  0.0380 -0.2705  0.0905
39263NA      NA23436   3.700   0.903   1.344  0.7515  0.1546  0.5746
39264NA      NA23437   3.028   0.972  10.440 -0.0563 -0.4096  0.5508
39265NA      NA23438   2.865   5.138   1.463  0.3806  0.4258 -0.6162
39266NA      NA23439   7.251   8.024   9.227 -0.4729  0.0057 -0.3236
39267NA      NA23440   5.689  10.294   6.503  0.7628 -0.3979  0.5373
39268NA      NA23441   6.220   5.905   2.318  0.3392  0.1627  0.1444
39269NA      NA23442   7.975   6.150   1.636  0.0424  0.0701 -0.1525
39270NA      NA23443   8.939  10.134   1.828  0.1442 -0.6704  0.2756
39271NA      NA23444   9.827   4.864  10.183  0.0567  0.1630  0.8259
39272NA      NA23445   7.488   8.938   9.737 -0.0451 -0.1579  0.0563
39273NA      NA23446   3.813   9.899   7.905 -0.2638 -0.1649  0.4160
39274NA      NA23447   7.240   5.896   9.424  0.0067 -0.1171  0.5147
39275NA      NA23448   3.568   9.510   5.141  0.1866 -0.2902  0.0962
39276NA      NA23449   8.863   1.125   5.082 -0.2918  0.1594  0.0215
39277NA      NA23450   5.050   8.044   5.018 -0.0245 -0.6043 -0.4040
39278NA      NA23451   8.727   1.562   8.384  0.2852 -0.0013 -0.9075
39279NA      NA23452   9.979   2.088   0.656 -0.3244 -0.7797 -0.2165
39280NA      NA23453   6.027   5.540   8.731 -0.2450  0.2089 -0.1963
39281NA      NA23454   9.655   0.072   0.225  0.4532 -0.0876  0.0087
39282NA      NA23455   6.894   5.337   7.810  0.0844  0.3151  0.3468
39283CL      CL23456   7.247   4.290   0.874 -0.1671  0.4001 -0.1237
39284CL      CL23457   2.656   9.178   6.375 -0.0646  0.2827  0.1877
39285CL      CL23458  10.508   0.028   8.654 -0.2085  0.1235 -0.1066
39286CL      CL23459   8.611   4.740   0.367  0.2613 -0.4939 -0.0634
39287CL      CL23460   8.665   6.913   9.819 -0.0697  0.3186  0.4594
39288CL      CL23461   2.480   3.882   7.195 -0.3265 -0.2263  0.5020
39289CL      CL23462   9.656   8.305   8.365 -0.0308  0.2567  0.4216
39290CL      CL23463  10.593   2.879   5.359  0.0810 -0.0017 -0.0628
39291CL      CL23464   3.816   2.429   9.850 -0.3252 -0.0573  0.0266
39292CL      CL23465   8.571   6.566  10.534 -0.2650  0.4661  0.0197
39293CL      CL23466   7.063   9.592   8.756  0.0512 -0.1956  0.0182
39294CL      CL23467   9.908   9.267   0.010 -0.0965  0.2978  0.0455
39295CL      CL23468   6.585   5.751   7.099  0.0265 -0.0599  0.1927
39296CL      CL23469   3.104   1.041   2.510  0.0098  0.1687 -0.0371
39297CL      CL23470   4.502   1.527   7.491 -0.1739 -0.0547 -0.0407
39298CL      CL23471   8.560   1.063   0.582 -0.0963 -0.2225  0.4006
39299CL      CL23472   9.958   8.122   1.327  0.1348  0.1908  0.1932
39300CL      CL23473   1.573   6.404   0.217  0.0401 -0.5533 -0.1454
39301CL      CL23474   7.352   8.688   1.465 -0.5593 -0.0040  0.0337
39302CL      CL23475   2.124   4.253   1.327  0.2085  0.5527 -0.0144
39303CL      CL23476   7.777   8.338   6.335 -0.1488  0.0381  0.2298
39304CL      CL23477   8.482  10.411   2.693  0.1151 -0.1650  0.0381
39305CL      CL23478   9.355   0.013   0.534 -0.3737  0.3615 -0.0173
39306CL      CL23479  10.520   0.782   0.290 -0.1432 -0.2129  0.1292
39307CL      CL23480   6.854   0.488   3.930 -0.3305 -0.1624 -0.1303
39308CL      CL23481   2.320   2.384   8.771 -0.1632  0.6896  0.3026
39309CL      CL23482   9.627   2.501   1.267 -0.1825 -0.1232 -0.2332
39310CL      CL23483   7.942   5.007   9.166  0.0185  0.1075  0.5192
39311CL      CL23484   6.809   8.136   9.139 -0.4630 -0.4681 -0.5179
39312CL      CL23485   1.831   4.140   9.486  0.0608 -0.0895  0.1856
39313CL      CL23486   7.416   3.235   7.492 -0.0330  0.0611 -0.0159
39314CL      CL23487   0.438  10.559   3.035  0.3907 -0.2598 -0.1935
39315CL      CL23488   9.924   6.531   1.129  0.6862 -0.4817  0.0920
39316CL      CL23489   8.779  10.184   1.991  0.0963 -0.0977 -0.1032
39317CL      CL23490   5.607   1.330   6.099  0.2402 -0.0474 -0.0030
39318CL      CL23491   1.777   2.587   1.824  0.1055 -0.0426 -0.1378
39319CL      CL23492   6.489   2.799  10.085 -0.4171 -0.3508  0.2126
39320CL      CL23493   8.877   9.759   2.774 -0.3050  0.2500  0.1827
39321CL      CL23494  10.034   2.535   7.298 -0.1294 -0.0535  0.3248
39322CL      CL23495   4.292   2.372   1.073 -0.1518  0.5288  0.3188
39323CL      CL23496   5.037   0.827   2.891 -0.3931  0.1462 -0.1799
39324CL      CL23497   0.096   0.627   5.626  0.1820 -0.1163  0.3655
39325CL      CL23498   2.866   6.773   1.392 -0.1434  0.1476 -0.4216
39326CL      CL23499   5.022   0.848   9.497  0.0637 -0.3764 -0.0063
39327CL      CL23500   0.021   7.510   7.101 -0.0572 -0.1956  0.2484
39328CL      CL23501   5.176   4.109   7.895 -0.2428 -0.2606  0.2126
39329CL      CL23502   0.663   6.975   0.653 -0.0685  0.1117 -0.3006
39330CL      CL23503   1.236   4.406   9.008 -0.0951  0.2152 -0.0434
39331CL      CL23504   2.980   7.435   8.136  0.2154  0.2452 -0.2203
39332CL      CL23505   6.594   7.483   4.026  0.3674  0.0516  0.0112
39333CL      CL23506   8.163   2.555   4.596 -0.3389 -0.0390 -0.2486
39334CL      CL23507   7.280   0.082  10.430  0.3726  0.2042  0.2377
39335CL      CL23508   2.763   0.203   6.240 -0.3657  0.0135  0.2147
39336CL      CL23509   7.320   4.554   2.791  0.0685 -0.0784  0.3919
39337CL      CL23510   6.632   7.787   8.028  0.3360 -0.0822 -0.0302
39338CL      CL23511   5.276   2.130   8.742  0.0222  0.2660  0.1538
39339CL      CL23512   1.000   4.856   8.797 -0.3501  0.3013  0.2908
39340CL      CL23513   3.783   3.189   5.287  0.0291  0.0299  0.4757
39341CL      CL23514   3.830  10.602   9.535  0.1579 -0.1284  0.1281
39342CL      CL23515   6.658   9.698   1.865  0.4213  0.0008  0.0779
39343CL      CL23516   8.371   8.357   8.983 -0.2503  0.4635  0.0023
39344CL      CL23517   8.259   0.055   9.725 -0.0560  0.0084 -0.0957
39345CL      CL23518   7.404   5.919   9.843  0.1469  0.5976  0.1189
39346CL      CL23519   0.383   5.768   2.872  0.1236  0.1494 -0.1128
39347CL      CL23520  10.624  10.546   6.699  0.1151 -0.0333 -0.1497
39348CL      CL23521   1.657   8.502   2.530  0.1186 -0.3090  0.2418
39349CL      CL23522   1.776   9.248   9.235  0.3053  0.1223 -0.2654
39350CL      CL23523   4.163   7.702   9.043 -0.3914  0.0490  0.4720
39351CL      CL23524   2.995   5.584   3.906  0.1585  0.3407  0.5022
39352CL      CL23525   6.952  10.701   6.703  0.0090  0.1655  0.2498
39353CL      CL23526   5.610   7.840   7.305 -0.1842 -0.0078  0.2216
39354CL      CL23527   7.151   5.989   0.487  0.2391 -0.0399 -0.2884
39355CL      CL23528   0.569   9.399   4.548  0.1705  0.4322 -0.1938
39356CL      CL23529   8.981   1.249   4.597  0.2812  0.3793 -0.0164
39357CL      CL23530   4.900   8.180   5.472 -0.0778 -0.2125  0.3346
39358CL      CL23531   1.349   3.411   1.029 -0.0860 -0.0376  0.5242
39359CL      CL23532   4.175   9.457   0.074  0.1058 -0.3243 -0.0436
39360CL      CL23533   1.277   0.147  10.352 -0.3075  0.2135 -0.1673
39361CL      CL23534   8.271   3.945   9.587 -0.7197 -0.1443 -0.2127
39362CL      CL23535   4.432   3.817   0.658  0.3056  0.2449 -0.1887
39363CL      CL23536   5.270   7.026   4.110 -0.0513  0.0141  0.0333
39364CL      CL23537   0.477   1.656   1.348  0.0316 -0.4267  0.1932
39365CL      CL23538   8.440   5.930   9.863  0.0956  0.0657 -0.1509
39366CL      CL23539   3.595   0.103   0.566 -0.2130  0.1655  0.2708
39367CL      CL23540   2.823   3.669   2.528 -0.0558 -0.0156 -0.3291
39368CL      CL23541   8.642   2.748   6.861  0.1525 -0.1104  0.1242
39369CL      CL23542   9.808   3.592   7.098 -0.0719 -0.0388 -0.1195
39370CL      CL23543   3.423   2.072   2.239 -0.6839 -0.1599  0.4169
39371CL      CL23544   7.898   5.942   2.864 -0.1929  0.0171  0.1027
39372CL      CL23545   2.362   8.615   7.640  0.3140  0.4331  0.0205
39373CL      CL23546   8.734   0.888   6.785 -0.1377  0.0120  0.1827
39374CL      CL23547   3.233   6.001   9.451  0.3545 -0.1350 -0.3323
39375CL      CL23548   0.191   5.120   4.406  0.0978 -0.1917 -0.5038
39376CL      CL23549   1.670  10.699   8.694  0.3494  0.4328 -0.1932
39377CL      CL23550   6.022   4.086   2.313  0.0759  0.3624  0.0614
39378CL      CL23551   9.993   8.885   4.387 -0.3116 -0.0276 -0.5057
39379CL      CL23552   9.670   5.955  10.571  0.2529 -0.4084 -0.1010
39380CL      CL23553   6.213   6.273   2.479 -0.6780  0.3926 -0.0954
39381CL      CL23554   8.186   1.397   6.663 -0.2465 -0.4461 -0.4007
39382CL      CL23555   1.736   1.419   2.928  0.0309  0.3274  0.0134
39383CL      CL23556   8.516   9.836   0.089  0.1523  0.5888 -0.2542
39384CL      CL23557   6.885   7.155   6.247 -0.1423 -0.4881  0.0011
39385CL      CL23558   5.597   8.623   5.865 -0.1008 -0.0148 -0.2509
39386CL      CL23559   2.116   1.187   4.865  0.1722  0.0630 -0.0167
39387CL      CL23560   8.393   4.664   2.741  0.5269 -0.1777 -0.0111
39388CL      CL23561   6.164   7.534   2.231 -0.0879 -0.0325 -0.0115
39389CL      CL23562   5.839   2.856   9.781  0.2996  0.1019  0.1176
39390CL      CL23563   7.345   5.648   8.608 -0.3895 -0.1530 -0.2340
39391CL      CL23564   4.538   5.300   7.360  0.2551  0.1932 -0.1309
39392CL      CL23565   2.086   0.215   6.007  0.1616 -0.4385 -0.1984
39393CL      CL23566   5.056   0.993   5.084  0.2267 -0.1275 -0.4335
39394CL      CL23567   4.589   8.681   9.289 -0.1598 -0.4225 -0.1875
39395CL      CL23568   4.718  10.230   4.786  0.1601 -0.0663 -0.1357
39396CL      CL23569   3.885   0.429   8.224 -0.3613 -0.2022 -0.2945
  10.72488  10.72488  10.72488
